<event>
 7    1  0.5575489E-006  0.7412054E+02  0.7818608E-02  0.1479612E+00
          2   -1    0    0  502    0  0.00000000000E+00  0.00000000000E+00  0.22482381428E+04  0.22482381428E+04  0.00000000000E+00 0. -1.
          1   -1    0    0  501    0 -0.00000000000E+00 -0.00000000000E+00 -0.65241799654E+02  0.65241799654E+02  0.00000000000E+00 0. -1.
         25    2    1    2    0    0 -0.53110130012E+02 -0.12110876147E+02  0.10477394075E+04  0.10565747612E+04  0.12500000256E+03 0.  0.
          2    1    1    2  501    0  0.65770802926E+02  0.35183376004E+02 -0.37753041672E+02  0.83600003708E+02  0.00000000000E+00 0. -1.
          1    1    1    2  502    0 -0.12660672913E+02 -0.23072499858E+02  0.11730099773E+04  0.11733051776E+04  0.00000000000E+00 0. -1.
         22    1    3    3    0    0 -0.86366802133E+02  0.89738715561E+01  0.50516637617E+03  0.51257469943E+03  0.00000000000E+00 0.  1.
         22    1    3    3    0    0  0.33256672121E+02 -0.21084747703E+02  0.54257303135E+03  0.54400006174E+03  0.00000000000E+00 0.  1.
</event>
<event>
 7    1  0.5575489E-006  0.7180851E+02  0.7818608E-02  0.1367091E+00
          2   -1    0    0  502    0  0.00000000000E+00  0.00000000000E+00  0.24710565704E+03  0.24710565704E+03  0.00000000000E+00 0. -1.
          1   -1    0    0  501    0 -0.00000000000E+00 -0.00000000000E+00 -0.29397357908E+03  0.29397357908E+03  0.00000000000E+00 0. -1.
         25    2    1    2    0    0  0.30848475710E+01 -0.12279628054E+03  0.62264359307E+00  0.17525239811E+03  0.12499829023E+03 0.  0.
          2    1    1    2  501    0  0.24211394087E+02  0.64510815628E+02 -0.19396269473E+03  0.20583819831E+03  0.00000000000E+00 0. -1.
          1    1    1    2  502    0 -0.27296241658E+02  0.58285464908E+02  0.14647212910E+03  0.15998863970E+03  0.00000000000E+00 0. -1.
         22    1    3    3    0    0 -0.44996669267E+02 -0.23205045447E+02  0.32497169555E+02  0.60160123075E+02  0.00000000000E+00 0.  1.
         22    1    3    3    0    0  0.48081516838E+02 -0.99591235088E+02 -0.31874525962E+02  0.11509227504E+03  0.00000000000E+00 0.  1.
</event>
<event>
 7    1  0.5575489E-006  0.1120685E+03  0.7818608E-02  0.1422057E+00
          2   -1    0    0  502    0  0.00000000000E+00  0.00000000000E+00  0.30847954064E+04  0.30847954064E+04  0.00000000000E+00 0. -1.
          1   -1    0    0  501    0 -0.00000000000E+00 -0.00000000000E+00 -0.25667096486E+02  0.25667096486E+02  0.00000000000E+00 0. -1.
         25    2    1    2    0    0 -0.92362447356E+02  0.43240382373E+01  0.60136741415E+03  0.62114177428E+03  0.12499927187E+03 0.  0.
          2    1    1    2  501    0 -0.20483307649E+02  0.16954072738E+02 -0.22004890887E+01  0.26680491503E+02  0.00000000000E+00 0. -1.
          1    1    1    2  502    0  0.11284575500E+03 -0.21278110975E+02  0.24599613848E+04  0.24626402371E+04  0.00000000000E+00 0. -1.
         22    1    3    3    0    0 -0.77761410941E+01 -0.34324394951E+02  0.37166841485E+03  0.37333101004E+03  0.00000000000E+00 0.  1.
         22    1    3    3    0    0 -0.84586306262E+02  0.38648433188E+02  0.22969899930E+03  0.24781076424E+03  0.00000000000E+00 0.  1.
</event>
<event>
 7    1  0.5575489E-006  0.1604079E+03  0.7818608E-02  0.1264577E+00
          2   -1    0    0  502    0  0.00000000000E+00  0.00000000000E+00  0.12726329853E+03  0.12726329853E+03  0.00000000000E+00 0. -1.
          1   -1    0    0  501    0 -0.00000000000E+00 -0.00000000000E+00 -0.12858070868E+04  0.12858070868E+04  0.00000000000E+00 0. -1.
         25    2    1    2    0    0 -0.96462302264E+02  0.24329805804E+02 -0.57986558182E+03  0.60147161399E+03  0.12500837670E+03 0.  0.
          2    1    1    2  501    0 -0.70306666701E+02 -0.17828894415E+02 -0.63218766891E+03  0.63633493192E+03  0.00000000000E+00 0. -1.
          1    1    1    2  502    0  0.16676896896E+03 -0.65009113887E+01  0.53509462408E+02  0.17526383947E+03  0.00000000000E+00 0. -1.
         22    1    3    3    0    0  0.41434473683E+01 -0.38362988020E+02 -0.19432402953E+03  0.19811793321E+03  0.00000000000E+00 0. -1.
         22    1    3    3    0    0 -0.10060574963E+03  0.62692793824E+02 -0.38554155229E+03  0.40335368078E+03  0.00000000000E+00 0. -1.
</event>
<event>
 7    1  0.5575489E-006  0.1260289E+03  0.7818608E-02  0.1301534E+00
          2   -1    0    0  502    0  0.00000000000E+00  0.00000000000E+00  0.19464204780E+04  0.19464204780E+04  0.00000000000E+00 0. -1.
          1   -1    0    0  501    0 -0.00000000000E+00 -0.00000000000E+00 -0.10183614760E+03  0.10183614760E+03  0.00000000000E+00 0. -1.
         25    2    1    2    0    0  0.51551621428E+02 -0.74212633887E+02  0.86308834364E+02  0.17674305233E+03  0.12499522774E+03 0.  0.
          2    1    1    2  501    0 -0.93521697222E+02  0.12391636028E+03  0.51598193793E+02  0.16359690034E+03  0.00000000000E+00 0. -1.
          1    1    1    2  502    0  0.41970075794E+02 -0.49703726397E+02  0.17066773023E+04  0.17079166729E+04  0.00000000000E+00 0. -1.
         22    1    3    3    0    0  0.82149885311E+02 -0.83841822403E+02  0.48096510362E+02  0.12685160287E+03  0.00000000000E+00 0.  1.
         22    1    3    3    0    0 -0.30598263883E+02  0.96291885161E+01  0.38212324002E+02  0.49891449466E+02  0.00000000000E+00 0.  1.
</event>
<event>
 7    1  0.5575489E-006  0.6963598E+02  0.7818608E-02  0.1493907E+00
          2   -1    0    0  502    0  0.00000000000E+00  0.00000000000E+00  0.40713245076E+03  0.40713245076E+03  0.00000000000E+00 0. -1.
          1   -1    0    0  501    0 -0.00000000000E+00 -0.00000000000E+00 -0.13695046035E+03  0.13695046035E+03  0.00000000000E+00 0. -1.
         25    2    1    2    0    0 -0.80487062814E+02  0.38870484208E+02  0.76370183356E+02  0.17160114183E+03  0.12500186058E+03 0.  0.
          2    1    1    2  501    0  0.25327891130E+02  0.95930805457E+00 -0.83335952684E+02  0.87105128155E+02  0.00000000000E+00 0. -1.
          1    1    1    2  502    0  0.55159171684E+02 -0.39829792262E+02  0.27714775974E+03  0.28537664112E+03  0.00000000000E+00 0. -1.
         22    1    3    3    0    0 -0.29462173170E+02  0.34271770497E+02  0.10399867146E+03  0.11339443357E+03  0.00000000000E+00 0. -1.
         22    1    3    3    0    0 -0.51024889644E+02  0.45987137106E+01 -0.27628488101E+02  0.58206708253E+02  0.00000000000E+00 0. -1.
</event>
<event>
 7    1  0.5575489E-006  0.1542291E+03  0.7818608E-02  0.1205973E+00
          2   -1    0    0  502    0  0.00000000000E+00  0.00000000000E+00  0.25997909193E+03  0.25997909193E+03  0.00000000000E+00 0. -1.
          1   -1    0    0  501    0 -0.00000000000E+00 -0.00000000000E+00 -0.17318010599E+04  0.17318010599E+04  0.00000000000E+00 0. -1.
         25    2    1    2    0    0  0.21604257428E+03  0.91087379830E+02 -0.48255476866E+03  0.55086759728E+03  0.12499880124E+03 0.  0.
          2    1    1    2  501    0 -0.66790174209E+02 -0.12015741687E+03 -0.11850610730E+04  0.11930081638E+04  0.00000000000E+00 0. -1.
          1    1    1    2  502    0 -0.14925240007E+03  0.29070037042E+02  0.19579387367E+03  0.24790439074E+03  0.00000000000E+00 0. -1.
         22    1    3    3    0    0  0.90633505567E+02 -0.25727187551E+02 -0.17842307712E+03  0.20176995554E+03  0.00000000000E+00 0. -1.
         22    1    3    3    0    0  0.12540906871E+03  0.11681456738E+03 -0.30413169154E+03  0.34909764174E+03  0.00000000000E+00 0. -1.
</event>
<event>
 7    1  0.5575489E-006  0.3569432E+02  0.7818608E-02  0.1574426E+00
          2   -1    0    0  502    0  0.00000000000E+00  0.00000000000E+00  0.72530587182E+03  0.72530587182E+03  0.00000000000E+00 0. -1.
          1   -1    0    0  501    0 -0.00000000000E+00 -0.00000000000E+00 -0.49399406004E+03  0.49399406004E+03  0.00000000000E+00 0. -1.
         25    2    1    2    0    0 -0.39535392765E+02  0.14829723347E+02  0.15144415116E+02  0.13280231382E+03  0.12499653304E+03 0.  0.
          2    1    1    2  501    0  0.15966103409E+02 -0.31976032129E+02 -0.43410427691E+03  0.43557307805E+03  0.00000000000E+00 0. -1.
          1    1    1    2  502    0  0.23569289357E+02  0.17146308782E+02  0.65027167357E+03  0.65092453998E+03  0.00000000000E+00 0. -1.
         22    1    3    3    0    0 -0.42275708980E+02 -0.41917361768E+02 -0.23594035823E+02  0.64038889074E+02  0.00000000000E+00 0.  1.
         22    1    3    3    0    0  0.27403162151E+01  0.56747085116E+02  0.38738450939E+02  0.68763424749E+02  0.00000000000E+00 0.  1.
</event>
<event>
 7    1  0.5575489E-006  0.8804505E+02  0.7818608E-02  0.1327127E+00
          2   -1    0    0  502    0  0.00000000000E+00  0.00000000000E+00  0.39838487720E+03  0.39838487720E+03  0.00000000000E+00 0. -1.
          1   -1    0    0  501    0 -0.00000000000E+00 -0.00000000000E+00 -0.10284586492E+04  0.10284586492E+04  0.00000000000E+00 0. -1.
         25    2    1    2    0    0  0.22231150363E+01 -0.77498149074E+00 -0.29431339424E+03  0.31976818713E+03  0.12500310648E+03 0.  0.
          2    1    1    2  501    0 -0.85455590095E+02 -0.27935394413E+02 -0.71353480119E+03  0.71917658238E+03  0.00000000000E+00 0. -1.
          1    1    1    2  502    0  0.83232475058E+02  0.28710375904E+02  0.37777442344E+03  0.38789875689E+03  0.00000000000E+00 0. -1.
         22    1    3    3    0    0  0.30762032279E+02  0.29510862125E+02 -0.26609790948E+03  0.26949079955E+03  0.00000000000E+00 0. -1.
         22    1    3    3    0    0 -0.28538917243E+02 -0.30285843615E+02 -0.28215484762E+02  0.50277387574E+02  0.00000000000E+00 0. -1.
</event>
<event>
 7    1  0.5575489E-006  0.4063834E+02  0.7818608E-02  0.1507911E+00
          2   -1    0    0  502    0  0.00000000000E+00  0.00000000000E+00  0.87227621984E+03  0.87227621984E+03  0.00000000000E+00 0. -1.
          1   -1    0    0  501    0 -0.00000000000E+00 -0.00000000000E+00 -0.48240851454E+02  0.48240851454E+02  0.00000000000E+00 0. -1.
         25    2    1    2    0    0  0.17532749548E+02 -0.17781475026E+02  0.30913306416E+03  0.33438082485E+03  0.12499482594E+03 0.  0.
          2    1    1    2  501    0  0.22515317780E+02  0.32396397868E+02 -0.23584812328E+02  0.45964219803E+02  0.00000000000E+00 0. -1.
          1    1    1    2  502    0 -0.40048067328E+02 -0.14614922841E+02  0.53848711656E+03  0.54017202664E+03  0.00000000000E+00 0. -1.
         22    1    3    3    0    0 -0.31644317820E+02 -0.11124453928E+02  0.26752681401E+03  0.26962142448E+03  0.00000000000E+00 0. -1.
         22    1    3    3    0    0  0.49177067368E+02 -0.66570210980E+01  0.41606250148E+02  0.64759400369E+02  0.00000000000E+00 0. -1.
</event>
<event>
 7    1  0.5575489E-006  0.3001736E+02  0.7818608E-02  0.1610631E+00
          2   -1    0    0  502    0  0.00000000000E+00  0.00000000000E+00  0.78528389341E+03  0.78528389341E+03  0.00000000000E+00 0. -1.
          1   -1    0    0  501    0 -0.00000000000E+00 -0.00000000000E+00 -0.14781148212E+03  0.14781148212E+03  0.00000000000E+00 0. -1.
         25    2    1    2    0    0 -0.41407470500E+02 -0.19758701434E+02  0.18748415911E+03  0.22995780384E+03  0.12500118693E+03 0.  0.
          2    1    1    2  501    0  0.14368650732E+02  0.26284310472E+02 -0.12446110703E+03  0.12801519545E+03  0.00000000000E+00 0. -1.
          1    1    1    2  502    0  0.27038819767E+02 -0.65256090379E+01  0.57444935922E+03  0.57512237624E+03  0.00000000000E+00 0. -1.
         22    1    3    3    0    0 -0.52050836533E+02  0.14046495502E+02  0.18689092414E+03  0.19451172496E+03  0.00000000000E+00 0.  1.
         22    1    3    3    0    0  0.10643366034E+02 -0.33805196936E+02  0.59323496912E+00  0.35446078882E+02  0.00000000000E+00 0.  1.
</event>
<event>
 7    1  0.5575489E-006  0.6139034E+02  0.7818608E-02  0.1451804E+00
          2   -1    0    0  502    0  0.00000000000E+00  0.00000000000E+00  0.91736773705E+02  0.91736773705E+02  0.00000000000E+00 0. -1.
          1   -1    0    0  501    0 -0.00000000000E+00 -0.00000000000E+00 -0.17777356919E+04  0.17777356919E+04  0.00000000000E+00 0. -1.
         25    2    1    2    0    0  0.85907278889E+02  0.41309869251E+02 -0.15501056147E+03  0.22077025240E+03  0.12499865725E+03 0.  0.
          2    1    1    2  501    0 -0.47191574131E+02 -0.38386849420E+02 -0.15827937689E+04  0.15839623448E+04  0.00000000000E+00 0. -1.
          1    1    1    2  502    0 -0.38715704758E+02 -0.29230198304E+01  0.51805412134E+02  0.64739868445E+02  0.00000000000E+00 0. -1.
         22    1    3    3    0    0  0.11534396735E+03  0.30953086537E+02 -0.14531669166E+03  0.18809376716E+03  0.00000000000E+00 0.  1.
         22    1    3    3    0    0 -0.29436688460E+02  0.10356782713E+02 -0.96938698107E+01  0.32676485239E+02  0.00000000000E+00 0.  1.
</event>
<event>
 7    1  0.5575489E-006  0.1757409E+03  0.7818608E-02  0.1196147E+00
          2   -1    0    0  502    0  0.00000000000E+00  0.00000000000E+00  0.19729015387E+04  0.19729015387E+04  0.00000000000E+00 0. -1.
          1   -1    0    0  501    0 -0.00000000000E+00 -0.00000000000E+00 -0.66378165025E+03  0.66378165025E+03  0.00000000000E+00 0. -1.
         25    2    1    2    0    0  0.46444845605E+02  0.52683310361E+02  0.53560363984E+03  0.55446244697E+03  0.12499876486E+03 0.  0.
          2    1    1    2  501    0 -0.17712485765E+03 -0.22124264175E+02 -0.63893866210E+03  0.66340433538E+03  0.00000000000E+00 0. -1.
          1    1    1    2  502    0  0.13068001205E+03 -0.30559046186E+02  0.14124549107E+04  0.14188164066E+04  0.00000000000E+00 0. -1.
         22    1    3    3    0    0  0.80446696601E+02  0.36381239766E+02  0.47462145014E+03  0.48276369638E+03  0.00000000000E+00 0. -1.
         22    1    3    3    0    0 -0.34001850996E+02  0.16302070595E+02  0.60982189695E+02  0.71698750595E+02  0.00000000000E+00 0. -1.
</event>
<event>
 7    1  0.5575489E-006  0.6376404E+02  0.7818608E-02  0.1391296E+00
          2   -1    0    0  502    0  0.00000000000E+00  0.00000000000E+00  0.19330882642E+03  0.19330882642E+03  0.00000000000E+00 0. -1.
          1   -1    0    0  501    0 -0.00000000000E+00 -0.00000000000E+00 -0.10253600997E+04  0.10253600997E+04  0.00000000000E+00 0. -1.
         25    2    1    2    0    0 -0.47702819892E+02  0.14840469962E+02 -0.16951015802E+03  0.21645886162E+03  0.12499978610E+03 0.  0.
          2    1    1    2  501    0  0.34091771833E+02  0.48742265872E+02 -0.82504166576E+03  0.82718305570E+03  0.00000000000E+00 0. -1.
          1    1    1    2  502    0  0.13611048059E+02 -0.63582735834E+02  0.16250055047E+03  0.17502700885E+03  0.00000000000E+00 0. -1.
         22    1    3    3    0    0  0.21035614887E+02  0.33280017521E+02 -0.12833277006E+03  0.13423619680E+03  0.00000000000E+00 0.  1.
         22    1    3    3    0    0 -0.68738434780E+02 -0.18439547559E+02 -0.41177387964E+02  0.82222664817E+02  0.00000000000E+00 0.  1.
</event>
<event>
 7    1  0.5575489E-006  0.1475831E+03  0.7818608E-02  0.1263992E+00
          2   -1    0    0  502    0  0.00000000000E+00  0.00000000000E+00  0.32287308982E+03  0.32287308982E+03  0.00000000000E+00 0. -1.
          1   -1    0    0  501    0 -0.00000000000E+00 -0.00000000000E+00 -0.23566151282E+04  0.23566151282E+04  0.00000000000E+00 0. -1.
         25    2    1    2    0    0 -0.32657549866E+01 -0.10558821034E+03  0.69799841025E+02  0.17792170767E+03  0.12499832373E+03 0.  0.
          2    1    1    2  501    0  0.31989094464E+02 -0.72546223026E+02 -0.22608178627E+04  0.22622076971E+04  0.00000000000E+00 0. -1.
          1    1    1    2  502    0 -0.28723339478E+02  0.17813443336E+03  0.15727598325E+03  0.23935881327E+03  0.00000000000E+00 0. -1.
         22    1    3    3    0    0  0.23258442650E+02  0.22040847971E+02  0.22902440437E+02  0.39386240132E+02  0.00000000000E+00 0. -1.
         22    1    3    3    0    0 -0.26524197637E+02 -0.12762905831E+03  0.46897400588E+02  0.13853546754E+03  0.00000000000E+00 0. -1.
</event>
<event>
 7    1  0.5575489E-006  0.3819392E+02  0.7818608E-02  0.1610692E+00
          2   -1    0    0  502    0  0.00000000000E+00  0.00000000000E+00  0.51902034236E+02  0.51902034236E+02  0.00000000000E+00 0. -1.
          1   -1    0    0  501    0 -0.00000000000E+00 -0.00000000000E+00 -0.12523687463E+04  0.12523687463E+04  0.00000000000E+00 0. -1.
         25    2    1    2    0    0 -0.38884604014E+02 -0.14719937276E+01 -0.37270008351E+03  0.39502582317E+03  0.12500347806E+03 0.  0.
          2    1    1    2  501    0  0.75052173031E+01 -0.20523326167E+02 -0.85932470428E+03  0.85960251430E+03  0.00000000000E+00 0. -1.
          1    1    1    2  502    0  0.31379386711E+02  0.21995319894E+02  0.31558075741E+02  0.49642443051E+02  0.00000000000E+00 0. -1.
         22    1    3    3    0    0  0.43466369332E+02 -0.17784162262E+01 -0.18515294715E+03  0.19019490494E+03  0.00000000000E+00 0. -1.
         22    1    3    3    0    0 -0.82350973345E+02  0.30642249855E+00 -0.18754713636E+03  0.20483091823E+03  0.00000000000E+00 0. -1.
</event>
<event>
 7    1  0.5575489E-006  0.9581698E+02  0.7818608E-02  0.1319746E+00
          2   -1    0    0  502    0  0.00000000000E+00  0.00000000000E+00  0.18260860812E+03  0.18260860812E+03  0.00000000000E+00 0. -1.
          1   -1    0    0  501    0 -0.00000000000E+00 -0.00000000000E+00 -0.10389626520E+04  0.10389626520E+04  0.00000000000E+00 0. -1.
         25    2    1    2    0    0 -0.13598442192E+03  0.51302723857E+02 -0.28381952064E+02  0.19378966889E+03  0.12500067234E+03 0.  0.
          2    1    1    2  501    0  0.94402604852E+02  0.81401333474E+01 -0.91192162239E+03  0.91683104166E+03  0.00000000000E+00 0. -1.
          1    1    1    2  502    0  0.41581817071E+02 -0.59442857204E+02  0.83949530527E+02  0.11095054961E+03  0.00000000000E+00 0. -1.
         22    1    3    3    0    0 -0.10042173698E+03  0.89757790110E+02 -0.10140349729E+01  0.13469229529E+03  0.00000000000E+00 0.  1.
         22    1    3    3    0    0 -0.35562684944E+02 -0.38455066253E+02 -0.27367917091E+02  0.59097373604E+02  0.00000000000E+00 0.  1.
</event>
<event>
 7    1  0.5575489E-006  0.4915708E+02  0.7818608E-02  0.1464045E+00
          2   -1    0    0  502    0  0.00000000000E+00  0.00000000000E+00  0.74981906777E+03  0.74981906777E+03  0.00000000000E+00 0. -1.
          1   -1    0    0  501    0 -0.00000000000E+00 -0.00000000000E+00 -0.60241890778E+03  0.60241890778E+03  0.00000000000E+00 0. -1.
         25    2    1    2    0    0 -0.54602875891E+02  0.11290009061E+02  0.41285689594E+03  0.43495738056E+03  0.12501267144E+03 0.  0.
          2    1    1    2  501    0  0.14046590433E+02 -0.42068202849E+02 -0.58854083551E+03  0.59020958604E+03  0.00000000000E+00 0. -1.
          1    1    1    2  502    0  0.40556285458E+02  0.30778193788E+02  0.32308409956E+03  0.32707100895E+03  0.00000000000E+00 0. -1.
         22    1    3    3    0    0 -0.52002050147E+02  0.62392294080E+02  0.19634835893E+03  0.21248456328E+03  0.00000000000E+00 0. -1.
         22    1    3    3    0    0 -0.26008257442E+01 -0.51102285019E+02  0.21650853701E+03  0.22247281727E+03  0.00000000000E+00 0. -1.
</event>
<event>
 7    1  0.5575489E-006  0.5772064E+02  0.7818608E-02  0.1442936E+00
          2   -1    0    0  502    0  0.00000000000E+00  0.00000000000E+00  0.28444045023E+03  0.28444045023E+03  0.00000000000E+00 0. -1.
          1   -1    0    0  501    0 -0.00000000000E+00 -0.00000000000E+00 -0.29556903998E+04  0.29556903998E+04  0.00000000000E+00 0. -1.
         25    2    1    2    0    0 -0.89397411066E+01 -0.98550183739E+02 -0.35381010525E+02  0.16330477702E+03  0.12499830641E+03 0.  0.
          2    1    1    2  501    0 -0.63459434285E+01  0.57191633624E+02 -0.28538500695E+04  0.28544301310E+04  0.00000000000E+00 0. -1.
          1    1    1    2  502    0  0.15285684535E+02  0.41358550115E+02  0.21798113038E+03  0.22239594201E+03  0.00000000000E+00 0. -1.
         22    1    3    3    0    0  0.42304815202E+02 -0.54273712545E+02 -0.59947605508E+02  0.91263621826E+02  0.00000000000E+00 0.  1.
         22    1    3    3    0    0 -0.51244556309E+02 -0.44276471194E+02  0.24566594982E+02  0.72041155194E+02  0.00000000000E+00 0.  1.
</event>
<event>
 7    1  0.5575489E-006  0.1217218E+03  0.7818608E-02  0.1274341E+00
          2   -1    0    0  502    0  0.00000000000E+00  0.00000000000E+00  0.13223210500E+04  0.13223210500E+04  0.00000000000E+00 0. -1.
          1   -1    0    0  501    0 -0.00000000000E+00 -0.00000000000E+00 -0.16706895114E+04  0.16706895114E+04  0.00000000000E+00 0. -1.
         25    2    1    2    0    0 -0.15596942004E+02  0.36618203905E+02  0.16324439614E+03  0.20942328871E+03  0.12500089410E+03 0.  0.
          2    1    1    2  501    0  0.86166408607E+02 -0.87440724817E+02 -0.16436432411E+04  0.16482213548E+04  0.00000000000E+00 0. -1.
          1    1    1    2  502    0 -0.70569466603E+02  0.50822520912E+02  0.11320303836E+04  0.11353659179E+04  0.00000000000E+00 0. -1.
         22    1    3    3    0    0 -0.13377083228E+02 -0.32972051198E+02  0.12504100830E+03  0.13000521633E+03  0.00000000000E+00 0. -1.
         22    1    3    3    0    0 -0.22198587766E+01  0.69590255104E+02  0.38203387839E+02  0.79418072381E+02  0.00000000000E+00 0. -1.
</event>
<event>
 7    1  0.5575489E-006  0.6368727E+02  0.7818608E-02  0.1469218E+00
          2   -1    0    0  502    0  0.00000000000E+00  0.00000000000E+00  0.20269266665E+04  0.20269266665E+04  0.00000000000E+00 0. -1.
          1   -1    0    0  501    0 -0.00000000000E+00 -0.00000000000E+00 -0.80218005114E+03  0.80218005114E+03  0.00000000000E+00 0. -1.
         25    2    1    2    0    0  0.23109516589E+02  0.93329921547E+02  0.31700526307E+02  0.16085419832E+03  0.12499850294E+03 0.  0.
          2    1    1    2  501    0 -0.13578573810E+02 -0.61755568055E+02 -0.73610689266E+03  0.73881762653E+03  0.00000000000E+00 0. -1.
          1    1    1    2  502    0 -0.95309427793E+01 -0.31574353492E+02  0.19291529818E+04  0.19294348928E+04  0.00000000000E+00 0. -1.
         22    1    3    3    0    0  0.63697532235E+02  0.56302707143E+02 -0.17852697574E+02  0.86868229262E+02  0.00000000000E+00 0.  1.
         22    1    3    3    0    0 -0.40588015646E+02  0.37027214403E+02  0.49553223881E+02  0.73985969059E+02  0.00000000000E+00 0.  1.
</event>
<event>
 7    1  0.5575489E-006  0.1100443E+03  0.7818608E-02  0.1304359E+00
          2   -1    0    0  502    0  0.00000000000E+00  0.00000000000E+00  0.18350342903E+04  0.18350342903E+04  0.00000000000E+00 0. -1.
          1   -1    0    0  501    0 -0.00000000000E+00 -0.00000000000E+00 -0.33902249472E+04  0.33902249472E+04  0.00000000000E+00 0. -1.
         25    2    1    2    0    0  0.66607609325E+01  0.60632622525E+02 -0.24030742997E+04  0.24070962731E+04  0.12500279083E+03 0.  0.
          2    1    1    2  501    0  0.70310963305E+02  0.18072535808E+02 -0.98214587505E+03  0.98482524744E+03  0.00000000000E+00 0. -1.
          1    1    1    2  502    0 -0.76971724237E+02 -0.78705158333E+02  0.18300295179E+04  0.18333377170E+04  0.00000000000E+00 0. -1.
         22    1    3    3    0    0 -0.27606103806E+02  0.33749485865E+02 -0.26383054493E+03  0.26740920179E+03  0.00000000000E+00 0.  1.
         22    1    3    3    0    0  0.34266864738E+02  0.26883136660E+02 -0.21392437547E+04  0.21396870713E+04  0.00000000000E+00 0.  1.
</event>
<event>
 7    1  0.5575489E-006  0.3124778E+03  0.7818608E-02  0.1190173E+00
          2   -1    0    0  502    0  0.00000000000E+00  0.00000000000E+00  0.18834601161E+04  0.18834601161E+04  0.00000000000E+00 0. -1.
          1   -1    0    0  501    0 -0.00000000000E+00 -0.00000000000E+00 -0.11213813778E+04  0.11213813778E+04  0.00000000000E+00 0. -1.
         25    2    1    2    0    0  0.29078907341E+03  0.92943518699E+02  0.14497846106E+03  0.36033316444E+03  0.12499780934E+03 0.  0.
          2    1    1    2  501    0 -0.25502636093E+02  0.76457957214E+02 -0.99687450757E+03  0.10001274856E+04  0.00000000000E+00 0. -1.
          1    1    1    2  502    0 -0.26528643732E+03 -0.16940147591E+03  0.16139747847E+04  0.16443808439E+04  0.00000000000E+00 0. -1.
         22    1    3    3    0    0  0.19782054738E+03  0.11614512550E+03  0.73822202831E+02  0.24098210883E+03  0.00000000000E+00 0. -1.
         22    1    3    3    0    0  0.92968526029E+02 -0.23201606801E+02  0.71156258230E+02  0.11935105561E+03  0.00000000000E+00 0. -1.
</event>
<event>
 7    1  0.5575489E-006  0.5249904E+03  0.7818608E-02  0.1214741E+00
          2   -1    0    0  502    0  0.00000000000E+00  0.00000000000E+00  0.17462732259E+04  0.17462732259E+04  0.00000000000E+00 0. -1.
          1   -1    0    0  501    0 -0.00000000000E+00 -0.00000000000E+00 -0.14715429216E+04  0.14715429216E+04  0.00000000000E+00 0. -1.
         25    2    1    2    0    0 -0.27077487681E+03 -0.41004338316E+03  0.52127027141E+03  0.72719004246E+03  0.12501220742E+03 0.  0.
          2    1    1    2  501    0  0.28595645285E+03  0.44354309191E+03 -0.13173815131E+04  0.14191531342E+04  0.00000000000E+00 0. -1.
          1    1    1    2  502    0 -0.15181576039E+02 -0.33499708747E+02  0.10708415460E+04  0.10714729709E+04  0.00000000000E+00 0. -1.
         22    1    3    3    0    0 -0.10059706177E+03 -0.25727223672E+03  0.25204913632E+03  0.37394857901E+03  0.00000000000E+00 0. -1.
         22    1    3    3    0    0 -0.17017781504E+03 -0.15277114644E+03  0.26922113509E+03  0.35324146345E+03  0.00000000000E+00 0. -1.
</event>
<event>
 7    1  0.5575489E-006  0.5922205E+02  0.7818608E-02  0.1517809E+00
          2   -1    0    0  502    0  0.00000000000E+00  0.00000000000E+00  0.67432594694E+03  0.67432594694E+03  0.00000000000E+00 0. -1.
          1   -1    0    0  501    0 -0.00000000000E+00 -0.00000000000E+00 -0.17497827039E+04  0.17497827039E+04  0.00000000000E+00 0. -1.
         25    2    1    2    0    0 -0.53567908469E+02 -0.20963202469E+02 -0.47651879215E+03  0.49598724539E+03  0.12499684654E+03 0.  0.
          2    1    1    2  501    0 -0.55550377739E+01  0.24705305296E+02 -0.12620822500E+04  0.12623362532E+04  0.00000000000E+00 0. -1.
          1    1    1    2  502    0  0.59122946243E+02 -0.37421028270E+01  0.66314428511E+03  0.66578515226E+03  0.00000000000E+00 0. -1.
         22    1    3    3    0    0 -0.17904064752E+02  0.47482544451E+02 -0.10607011545E+03  0.11758408461E+03  0.00000000000E+00 0. -1.
         22    1    3    3    0    0 -0.35663843716E+02 -0.68445746920E+02 -0.37044867670E+03  0.37840316078E+03  0.00000000000E+00 0. -1.
</event>
<event>
 7    1  0.5575489E-006  0.4749462E+02  0.7818608E-02  0.1461432E+00
          2   -1    0    0  502    0  0.00000000000E+00  0.00000000000E+00  0.46309858180E+03  0.46309858180E+03  0.00000000000E+00 0. -1.
          1   -1    0    0  501    0 -0.00000000000E+00 -0.00000000000E+00 -0.36253531765E+03  0.36253531765E+03  0.00000000000E+00 0. -1.
         25    2    1    2    0    0 -0.10246276211E+02 -0.12432054520E+02  0.14116203314E+03  0.18923664730E+03  0.12499698767E+03 0.  0.
          2    1    1    2  501    0 -0.28620016036E+02  0.38466134301E+02 -0.33494385956E+03  0.33835800251E+03  0.00000000000E+00 0. -1.
          1    1    1    2  502    0  0.38866292248E+02 -0.26034079781E+02  0.29434509057E+03  0.29803924963E+03  0.00000000000E+00 0. -1.
         22    1    3    3    0    0 -0.15483564910E+02 -0.71965028129E+01 -0.20909994187E+02  0.26995523554E+02  0.00000000000E+00 0. -1.
         22    1    3    3    0    0  0.52372886992E+01 -0.52355517074E+01  0.16207202732E+03  0.16224112375E+03  0.00000000000E+00 0. -1.
</event>
<event>
 7    1  0.5575489E-006  0.1026299E+03  0.7818608E-02  0.1379154E+00
          2   -1    0    0  502    0  0.00000000000E+00  0.00000000000E+00  0.74967780938E+03  0.74967780938E+03  0.00000000000E+00 0. -1.
          1   -1    0    0  501    0 -0.00000000000E+00 -0.00000000000E+00 -0.21402350775E+03  0.21402350775E+03  0.00000000000E+00 0. -1.
         25    2    1    2    0    0 -0.88140514388E+02  0.56529534641E+02  0.25521857160E+03  0.30287911638E+03  0.12503959888E+03 0.  0.
          2    1    1    2  501    0  0.10133291228E+03 -0.17951296869E+02 -0.17529537070E+03  0.20327094027E+03  0.00000000000E+00 0. -1.
          1    1    1    2  502    0 -0.13192397896E+02 -0.38578237772E+02  0.45573110073E+03  0.45755126047E+03  0.00000000000E+00 0. -1.
         22    1    3    3    0    0 -0.91909493923E+02 -0.19424725002E+01  0.94614732965E+02  0.13192071849E+03  0.00000000000E+00 0. -1.
         22    1    3    3    0    0  0.37689795356E+01  0.58472007141E+02  0.16060383864E+03  0.17095839789E+03  0.00000000000E+00 0. -1.
</event>
<event>
 7    1  0.5575489E-006  0.1082118E+03  0.7818608E-02  0.1293287E+00
          2   -1    0    0  502    0  0.00000000000E+00  0.00000000000E+00  0.22147089049E+04  0.22147089049E+04  0.00000000000E+00 0. -1.
          1   -1    0    0  501    0 -0.00000000000E+00 -0.00000000000E+00 -0.19066731616E+03  0.19066731616E+03  0.00000000000E+00 0. -1.
         25    2    1    2    0    0  0.52905490599E+02  0.36028493543E+02  0.59717072288E+03  0.61346173359E+03  0.12500153213E+03 0.  0.
          2    1    1    2  501    0 -0.10705694904E+03  0.25246824462E+02 -0.16480490582E+03  0.19813946973E+03  0.00000000000E+00 0. -1.
          1    1    1    2  502    0  0.54151458441E+02 -0.61275318005E+02  0.15916757717E+04  0.15937750177E+04  0.00000000000E+00 0. -1.
         22    1    3    3    0    0  0.91477379813E+02  0.38704530595E+02  0.47669964998E+03  0.48693809462E+03  0.00000000000E+00 0.  1.
         22    1    3    3    0    0 -0.38571889214E+02 -0.26760370522E+01  0.12047107290E+03  0.12652363897E+03  0.00000000000E+00 0.  1.
</event>
<event>
 7    1  0.5575489E-006  0.2902226E+03  0.7818608E-02  0.1243893E+00
          2   -1    0    0  502    0  0.00000000000E+00  0.00000000000E+00  0.20072738920E+04  0.20072738920E+04  0.00000000000E+00 0. -1.
          1   -1    0    0  501    0 -0.00000000000E+00 -0.00000000000E+00 -0.19730795613E+03  0.19730795613E+03  0.00000000000E+00 0. -1.
         25    2    1    2    0    0  0.18520441091E+03  0.19854247222E+03 -0.12201895199E+02  0.29915489495E+03  0.12499991133E+03 0.  0.
          2    1    1    2  501    0  0.45221401931E+02 -0.19433282686E+02 -0.99446322489E+01  0.50214772519E+02  0.00000000000E+00 0. -1.
          1    1    1    2  502    0 -0.23042581284E+03 -0.17910918953E+03  0.18321124633E+04  0.18552121807E+04  0.00000000000E+00 0. -1.
         22    1    3    3    0    0  0.29575432862E+02  0.11032606991E+03  0.23802519741E+02  0.11667522392E+03  0.00000000000E+00 0. -1.
         22    1    3    3    0    0  0.15562897805E+03  0.88216402305E+02 -0.36004414939E+02  0.18247967103E+03  0.00000000000E+00 0. -1.
</event>
<event>
 7    1  0.5575489E-006  0.1039009E+03  0.7818608E-02  0.1422794E+00
          2   -1    0    0  502    0  0.00000000000E+00  0.00000000000E+00  0.16157403078E+04  0.16157403078E+04  0.00000000000E+00 0. -1.
          1   -1    0    0  501    0 -0.00000000000E+00 -0.00000000000E+00 -0.16062220130E+04  0.16062220130E+04  0.00000000000E+00 0. -1.
         25    2    1    2    0    0 -0.74757046482E+02  0.48802614204E+02  0.18715828422E+03  0.24212181095E+03  0.12499774732E+03 0.  0.
          2    1    1    2  501    0  0.98610402787E+02 -0.33172167879E+02 -0.15768807083E+04  0.15803092015E+04  0.00000000000E+00 0. -1.
          1    1    1    2  502    0 -0.23853356306E+02 -0.15630446326E+02  0.13992407189E+04  0.13995313083E+04  0.00000000000E+00 0. -1.
         22    1    3    3    0    0 -0.68120341543E+02 -0.28713015158E+02  0.11013496124E+03  0.13264436610E+03  0.00000000000E+00 0.  1.
         22    1    3    3    0    0 -0.66367049388E+01  0.77515629362E+02  0.77023322981E+02  0.10947744485E+03  0.00000000000E+00 0.  1.
</event>
<event>
 7    1  0.5575489E-006  0.4972391E+02  0.7818608E-02  0.1501110E+00
          2   -1    0    0  502    0  0.00000000000E+00  0.00000000000E+00  0.42841849480E+03  0.42841849480E+03  0.00000000000E+00 0. -1.
          1   -1    0    0  501    0 -0.00000000000E+00 -0.00000000000E+00 -0.11934267817E+03  0.11934267817E+03  0.00000000000E+00 0. -1.
         25    2    1    2    0    0 -0.64214224748E+01  0.55227263512E+02  0.10369357734E+03  0.17165961003E+03  0.12499351356E+03 0.  0.
          2    1    1    2  501    0  0.31573875986E+02 -0.11996970000E+02 -0.79754331515E+02  0.86611721663E+02  0.00000000000E+00 0. -1.
          1    1    1    2  502    0 -0.25152453511E+02 -0.43230293512E+02  0.28513657081E+03  0.28948984128E+03  0.00000000000E+00 0. -1.
         22    1    3    3    0    0  0.17656627227E+02  0.39172525443E+02 -0.17990020018E+02  0.46582014285E+02  0.00000000000E+00 0.  1.
         22    1    3    3    0    0 -0.24078049702E+02  0.16054738069E+02  0.12168359736E+03  0.12507759575E+03  0.00000000000E+00 0.  1.
</event>
<event>
 7    1  0.5575489E-006  0.1901914E+03  0.7818608E-02  0.1295448E+00
          2   -1    0    0  502    0  0.00000000000E+00  0.00000000000E+00  0.74488514457E+03  0.74488514457E+03  0.00000000000E+00 0. -1.
          1   -1    0    0  501    0 -0.00000000000E+00 -0.00000000000E+00 -0.15976431430E+04  0.15976431430E+04  0.00000000000E+00 0. -1.
         25    2    1    2    0    0 -0.14472575212E+03 -0.10116222945E+03 -0.25150945458E+03  0.33175549469E+03  0.12500145007E+03 0.  0.
          2    1    1    2  501    0  0.18113446989E+02 -0.41849022964E+02 -0.12926596807E+04  0.12934637559E+04  0.00000000000E+00 0. -1.
          1    1    1    2  502    0  0.12661230513E+03  0.14301125242E+03  0.69141113695E+03  0.71730903690E+03  0.00000000000E+00 0. -1.
         22    1    3    3    0    0 -0.29797524425E+02 -0.79589824978E+02 -0.49520509561E+02  0.98360121843E+02  0.00000000000E+00 0. -1.
         22    1    3    3    0    0 -0.11492822770E+03 -0.21572404475E+02 -0.20198894502E+03  0.23339537285E+03  0.00000000000E+00 0. -1.
</event>
<event>
 7    1  0.5575489E-006  0.1855669E+03  0.7818608E-02  0.1232166E+00
          2   -1    0    0  502    0  0.00000000000E+00  0.00000000000E+00  0.28369779994E+04  0.28369779994E+04  0.00000000000E+00 0. -1.
          1   -1    0    0  501    0 -0.00000000000E+00 -0.00000000000E+00 -0.13529151136E+04  0.13529151136E+04  0.00000000000E+00 0. -1.
         25    2    1    2    0    0  0.87637218729E+02 -0.20576255872E+03 -0.19923707539E+03  0.32456477806E+03  0.12501348035E+03 0.  0.
          2    1    1    2  501    0 -0.40442406881E+01  0.18258001208E+03 -0.10826870429E+04  0.10979813521E+04  0.00000000000E+00 0. -1.
          1    1    1    2  502    0 -0.83592978041E+02  0.23182546642E+02  0.27659870041E+04  0.27673469828E+04  0.00000000000E+00 0. -1.
         22    1    3    3    0    0  0.20201360447E+02 -0.10657776333E+03 -0.22197654297E+02  0.11072330584E+03  0.00000000000E+00 0.  1.
         22    1    3    3    0    0  0.67435858282E+02 -0.99184795389E+02 -0.17703942110E+03  0.21384147222E+03  0.00000000000E+00 0.  1.
</event>
<event>
 7    1  0.5575489E-006  0.2337115E+03  0.7818608E-02  0.1190063E+00
          2   -1    0    0  502    0  0.00000000000E+00  0.00000000000E+00  0.59399142553E+03  0.59399142553E+03  0.00000000000E+00 0. -1.
          1   -1    0    0  501    0 -0.00000000000E+00 -0.00000000000E+00 -0.27887459484E+03  0.27887459484E+03  0.00000000000E+00 0. -1.
         25    2    1    2    0    0 -0.21358997631E+03 -0.65156333417E+02 -0.80256164338E+02  0.26819916549E+03  0.12499485867E+03 0.  0.
          2    1    1    2  501    0 -0.22199051028E+02  0.10558627702E+03 -0.34018371212E+02  0.11313049696E+03  0.00000000000E+00 0. -1.
          1    1    1    2  502    0  0.23578902734E+03 -0.40429943605E+02  0.42939136624E+03  0.49153635792E+03  0.00000000000E+00 0. -1.
         22    1    3    3    0    0 -0.31738772914E+02  0.22778695043E+02 -0.50771994893E+02  0.64062579712E+02  0.00000000000E+00 0. -1.
         22    1    3    3    0    0 -0.18185120339E+03 -0.87935028460E+02 -0.29484169445E+02  0.20413658578E+03  0.00000000000E+00 0. -1.
</event>
<event>
 7    1  0.5575489E-006  0.5813535E+02  0.7818608E-02  0.1516548E+00
          2   -1    0    0  502    0  0.00000000000E+00  0.00000000000E+00  0.19559824163E+04  0.19559824163E+04  0.00000000000E+00 0. -1.
          1   -1    0    0  501    0 -0.00000000000E+00 -0.00000000000E+00 -0.28723816408E+02  0.28723816408E+02  0.00000000000E+00 0. -1.
         25    2    1    2    0    0  0.17274597777E+02 -0.28495860474E+02  0.34710349702E+03  0.37040654747E+03  0.12493897300E+03 0.  0.
          2    1    1    2  501    0  0.12253219495E+02 -0.22948363691E+02 -0.62751541336E+01  0.26760910737E+02  0.00000000000E+00 0. -1.
          1    1    1    2  502    0 -0.29527817272E+02  0.51444224165E+02  0.15864302571E+04  0.15875387745E+04  0.00000000000E+00 0. -1.
         22    1    3    3    0    0  0.47660745351E+02  0.33831631711E+02  0.18730670725E+03  0.19621398659E+03  0.00000000000E+00 0. -1.
         22    1    3    3    0    0 -0.30386147574E+02 -0.62327492185E+02  0.15979678977E+03  0.17419256088E+03  0.00000000000E+00 0. -1.
</event>
<event>
 7    1  0.5575489E-006  0.8204272E+02  0.7818608E-02  0.1408855E+00
          2   -1    0    0  502    0  0.00000000000E+00  0.00000000000E+00  0.77226055859E+03  0.77226055859E+03  0.00000000000E+00 0. -1.
          1   -1    0    0  501    0 -0.00000000000E+00 -0.00000000000E+00 -0.48427271356E+03  0.48427271356E+03  0.00000000000E+00 0. -1.
         25    2    1    2    0    0 -0.54629657064E+02  0.21652221120E+01 -0.14252268524E+03  0.19730745377E+03  0.12501371081E+03 0.  0.
          2    1    1    2  501    0 -0.21442444170E+02 -0.34038566760E+02 -0.31077391086E+03  0.31336691930E+03  0.00000000000E+00 0. -1.
          1    1    1    2  502    0  0.76072101234E+02  0.31873344648E+02  0.74128444113E+03  0.74585889908E+03  0.00000000000E+00 0. -1.
         22    1    3    3    0    0 -0.39756020141E+02 -0.16742967824E+02 -0.16118670964E+03  0.16685929244E+03  0.00000000000E+00 0. -1.
         22    1    3    3    0    0 -0.14873636923E+02  0.18908189936E+02  0.18664024399E+02  0.30448161336E+02  0.00000000000E+00 0. -1.
</event>
<event>
 7    1  0.5575489E-006  0.8718975E+02  0.7818608E-02  0.1393336E+00
          2   -1    0    0  502    0  0.00000000000E+00  0.00000000000E+00  0.22825458092E+04  0.22825458092E+04  0.00000000000E+00 0. -1.
          1   -1    0    0  501    0 -0.00000000000E+00 -0.00000000000E+00 -0.25324555962E+02  0.25324555962E+02  0.00000000000E+00 0. -1.
         25    2    1    2    0    0  0.12554033151E+03  0.16687245260E+02  0.11951425783E+04  0.12083171088E+04  0.12500245598E+03 0.  0.
          2    1    1    2  501    0 -0.82818027428E+02 -0.14188850626E+02  0.78325360345E+02  0.11486954001E+03  0.00000000000E+00 0. -1.
          1    1    1    2  502    0 -0.42722304082E+02 -0.24983946341E+01  0.98375331462E+03  0.98468371636E+03  0.00000000000E+00 0. -1.
         22    1    3    3    0    0  0.21572800622E+01  0.47438526792E+02  0.23142938780E+03  0.23625119941E+03  0.00000000000E+00 0.  1.
         22    1    3    3    0    0  0.12338305145E+03 -0.30751281532E+02  0.96371319048E+03  0.97206590939E+03  0.00000000000E+00 0.  1.
</event>
<event>
 7    1  0.5575489E-006  0.1457754E+03  0.7818608E-02  0.1289609E+00
          2   -1    0    0  502    0  0.00000000000E+00  0.00000000000E+00  0.15970069422E+03  0.15970069422E+03  0.00000000000E+00 0. -1.
          1   -1    0    0  501    0 -0.00000000000E+00 -0.00000000000E+00 -0.10547593035E+04  0.10547593035E+04  0.00000000000E+00 0. -1.
         25    2    1    2    0    0  0.84658542356E+02 -0.40409894972E+02 -0.21703620579E+03  0.26745061428E+03  0.12500035219E+03 0.  0.
          2    1    1    2  501    0  0.48822057279E+02 -0.39539813654E+02 -0.76579459444E+03  0.76836732818E+03  0.00000000000E+00 0. -1.
          1    1    1    2  502    0 -0.13348059963E+03  0.79949708626E+02  0.87772190983E+02  0.17864205523E+03  0.00000000000E+00 0. -1.
         22    1    3    3    0    0  0.16402455433E+02 -0.11862561511E+02  0.14160805903E+02  0.24704034765E+02  0.00000000000E+00 0. -1.
         22    1    3    3    0    0  0.68256086922E+02 -0.28547333461E+02 -0.23119701170E+03  0.24274657952E+03  0.00000000000E+00 0. -1.
</event>
<event>
 7    1  0.5575489E-006  0.2095416E+03  0.7818608E-02  0.1250961E+00
          2   -1    0    0  502    0  0.00000000000E+00  0.00000000000E+00  0.10028662483E+04  0.10028662483E+04  0.00000000000E+00 0. -1.
          1   -1    0    0  501    0 -0.00000000000E+00 -0.00000000000E+00 -0.11531412654E+04  0.11531412654E+04  0.00000000000E+00 0. -1.
         25    2    1    2    0    0 -0.22846713838E+03  0.47755241422E+02  0.83073001515E+02  0.27749540954E+03  0.12499912932E+03 0.  0.
          2    1    1    2  501    0  0.20824564310E+03  0.12444582843E+02 -0.10443726995E+04  0.10650049065E+04  0.00000000000E+00 0. -1.
          1    1    1    2  502    0  0.20221495287E+02 -0.60199824265E+02  0.81102468081E+03  0.81350719763E+03  0.00000000000E+00 0. -1.
         22    1    3    3    0    0 -0.14017392970E+03  0.90143322640E+02  0.57123591542E+02  0.17617506604E+03  0.00000000000E+00 0. -1.
         22    1    3    3    0    0 -0.88293208680E+02 -0.42388081219E+02  0.25949409973E+02  0.10132034350E+03  0.00000000000E+00 0. -1.
</event>
<event>
 7    1  0.5575489E-006  0.6865533E+02  0.7818608E-02  0.1406523E+00
          2   -1    0    0  502    0  0.00000000000E+00  0.00000000000E+00  0.13568524652E+04  0.13568524652E+04  0.00000000000E+00 0. -1.
          1   -1    0    0  501    0 -0.00000000000E+00 -0.00000000000E+00 -0.21198764070E+03  0.21198764070E+03  0.00000000000E+00 0. -1.
         25    2    1    2    0    0 -0.99558030323E+02 -0.41481421732E+02  0.21940987983E+03  0.27458804480E+03  0.12500155691E+03 0.  0.
          2    1    1    2  501    0  0.48871255281E+02 -0.29372331617E+01 -0.18010441437E+03  0.18664036811E+03  0.00000000000E+00 0. -1.
          1    1    1    2  502    0  0.50686775042E+02  0.44418654893E+02  0.11055593590E+04  0.11076116930E+04  0.00000000000E+00 0. -1.
         22    1    3    3    0    0 -0.36507611083E+02 -0.32879689015E+02  0.20301502899E+03  0.20887551703E+03  0.00000000000E+00 0. -1.
         22    1    3    3    0    0 -0.63050419240E+02 -0.86017327165E+01  0.16394850836E+02  0.65712527771E+02  0.00000000000E+00 0. -1.
</event>
<event>
 7    1  0.5575489E-006  0.8969711E+02  0.7818608E-02  0.1425553E+00
          2   -1    0    0  502    0  0.00000000000E+00  0.00000000000E+00  0.79038647823E+02  0.79038647823E+02  0.00000000000E+00 0. -1.
          1   -1    0    0  501    0 -0.00000000000E+00 -0.00000000000E+00 -0.14893190857E+04  0.14893190857E+04  0.00000000000E+00 0. -1.
         25    2    1    2    0    0  0.53961779503E+02  0.26840363052E+02 -0.82624251955E+03  0.83781312203E+03  0.12498738972E+03 0.  0.
          2    1    1    2  501    0  0.32323679832E+02  0.11698300307E+01 -0.62862854511E+03  0.62946011510E+03  0.00000000000E+00 0. -1.
          1    1    1    2  502    0 -0.86285459336E+02 -0.28010193083E+02  0.44590626800E+02  0.10108449638E+03  0.00000000000E+00 0. -1.
         22    1    3    3    0    0 -0.29508000204E+02 -0.26119505844E+02 -0.20471418706E+03  0.20847265779E+03  0.00000000000E+00 0.  1.
         22    1    3    3    0    0  0.83469779707E+02  0.52959868896E+02 -0.62152833250E+03  0.62934046424E+03  0.00000000000E+00 0.  1.
</event>
<event>
 7    1  0.5575489E-006  0.6858878E+02  0.7818608E-02  0.1398204E+00
          2   -1    0    0  502    0  0.00000000000E+00  0.00000000000E+00  0.31621589891E+02  0.31621589891E+02  0.00000000000E+00 0. -1.
          1   -1    0    0  501    0 -0.00000000000E+00 -0.00000000000E+00 -0.13796329601E+04  0.13796329601E+04  0.00000000000E+00 0. -1.
         25    2    1    2    0    0 -0.22935506923E+02 -0.22084330727E+01 -0.93766818518E+03  0.94624403003E+03  0.12500089688E+03 0.  0.
          2    1    1    2  501    0 -0.35320731491E+02 -0.38614394156E+02 -0.38643830855E+03  0.38996562903E+03  0.00000000000E+00 0. -1.
          1    1    1    2  502    0  0.58256238414E+02  0.40822827229E+02 -0.23904876500E+02  0.75044890950E+02  0.00000000000E+00 0. -1.
         22    1    3    3    0    0  0.39040367394E+02 -0.38716890444E+02 -0.38052701819E+03  0.38447881536E+03  0.00000000000E+00 0. -1.
         22    1    3    3    0    0 -0.61975874317E+02  0.36508457371E+02 -0.55714116699E+03  0.56176521467E+03  0.00000000000E+00 0. -1.
</event>
<event>
 7    1  0.6041938E-006  0.3618544E+02  0.7818608E-02  0.1538896E+00
          2   -1    0    0  502    0  0.00000000000E+00  0.00000000000E+00  0.17678750828E+04  0.17678750828E+04  0.00000000000E+00 0. -1.
          1   -1    0    0  501    0 -0.00000000000E+00 -0.00000000000E+00 -0.69923873747E+03  0.69923873747E+03  0.00000000000E+00 0. -1.
         25    2    1    2    0    0 -0.46950855390E+02  0.12763853764E+02 -0.20288289318E+03  0.24321510558E+03  0.12499928181E+03 0.  0.
          2    1    1    2  501    0  0.16372476472E+02 -0.32117178561E+02 -0.47531979108E+03  0.47668488012E+03  0.00000000000E+00 0. -1.
          1    1    1    2  502    0  0.30578378919E+02  0.19353324797E+02  0.17468390296E+04  0.17472138346E+04  0.00000000000E+00 0. -1.
         22    1    3    3    0    0 -0.94734583985E+01 -0.25155820305E+02 -0.18505729607E+03  0.18699937042E+03  0.00000000000E+00 0.  1.
         22    1    3    3    0    0 -0.37477396992E+02  0.37919674069E+02 -0.17825597104E+02  0.56215735154E+02  0.00000000000E+00 0.  1.
</event>
<event>
 7    1  0.1142813E-005  0.7494939E+02  0.7818608E-02  0.1349611E+00
          2   -1    0    0  502    0  0.00000000000E+00  0.00000000000E+00  0.11295157033E+04  0.11295157033E+04  0.00000000000E+00 0. -1.
          1   -1    0    0  501    0 -0.00000000000E+00 -0.00000000000E+00 -0.10783078708E+04  0.10783078708E+04  0.00000000000E+00 0. -1.
         25    2    1    2    0    0  0.13202056458E+03 -0.61797982971E+02 -0.63209786851E+03  0.66062221677E+03  0.12500231094E+03 0.  0.
          2    1    1    2  501    0 -0.67018309199E+02  0.24762697620E+02 -0.42772679657E+03  0.43365292281E+03  0.00000000000E+00 0. -1.
          1    1    1    2  502    0 -0.65002255384E+02  0.37035285351E+02  0.11110324975E+04  0.11135484346E+04  0.00000000000E+00 0. -1.
         22    1    3    3    0    0  0.15522776739E+03 -0.45586640014E+02 -0.49989769562E+03  0.52542507325E+03  0.00000000000E+00 0. -1.
         22    1    3    3    0    0 -0.23207202807E+02 -0.16211342957E+02 -0.13220017289E+03  0.13519714352E+03  0.00000000000E+00 0. -1.
</event>
<event>
 7    1  0.5575489E-006  0.1268461E+03  0.7818608E-02  0.1315238E+00
          2   -1    0    0  502    0  0.00000000000E+00  0.00000000000E+00  0.26547445669E+03  0.26547445669E+03  0.00000000000E+00 0. -1.
          1   -1    0    0  501    0 -0.00000000000E+00 -0.00000000000E+00 -0.12575115448E+04  0.12575115448E+04  0.00000000000E+00 0. -1.
         25    2    1    2    0    0 -0.15710367701E+03  0.49924568936E+02 -0.33130604827E+03  0.39059185168E+03  0.12499707621E+03 0.  0.
          2    1    1    2  501    0  0.31747870766E+02 -0.47410754560E+02 -0.87890701526E+03  0.88075720174E+03  0.00000000000E+00 0. -1.
          1    1    1    2  502    0  0.12535580624E+03 -0.25138143763E+01  0.21817597538E+03  0.25163694811E+03  0.00000000000E+00 0. -1.
         22    1    3    3    0    0 -0.10537563811E+03  0.11698410617E+02 -0.84600764480E+02  0.13563984396E+03  0.00000000000E+00 0.  1.
         22    1    3    3    0    0 -0.51728038895E+02  0.38226158319E+02 -0.24670528379E+03  0.25495200772E+03  0.00000000000E+00 0.  1.
</event>
<event>
 7    1  0.5575489E-006  0.3951825E+02  0.7818608E-02  0.1518914E+00
          2   -1    0    0  502    0  0.00000000000E+00  0.00000000000E+00  0.28085632123E+03  0.28085632123E+03  0.00000000000E+00 0. -1.
          1   -1    0    0  501    0 -0.00000000000E+00 -0.00000000000E+00 -0.17961623566E+03  0.17961623566E+03  0.00000000000E+00 0. -1.
         25    2    1    2    0    0  0.75741323094E+01 -0.32448730398E+02 -0.10620814634E+03  0.16737850737E+03  0.12500042718E+03 0.  0.
          2    1    1    2  501    0  0.31918220049E+02  0.31018272760E+02 -0.29159492834E+02  0.53208853009E+02  0.00000000000E+00 0. -1.
          1    1    1    2  502    0 -0.39492352359E+02  0.14304576374E+01  0.23660772474E+03  0.23988519652E+03  0.00000000000E+00 0. -1.
         22    1    3    3    0    0 -0.56758787724E+02 -0.59550546791E+01 -0.31086713249E+02  0.64987740388E+02  0.00000000000E+00 0. -1.
         22    1    3    3    0    0  0.64332920033E+02 -0.26493675718E+02 -0.75121433087E+02  0.10239076698E+03  0.00000000000E+00 0. -1.
</event>
<event>
 7    1  0.5575489E-006  0.1430086E+03  0.7818608E-02  0.1384840E+00
          2   -1    0    0  502    0  0.00000000000E+00  0.00000000000E+00  0.10716088555E+04  0.10716088555E+04  0.00000000000E+00 0. -1.
          1   -1    0    0  501    0 -0.00000000000E+00 -0.00000000000E+00 -0.20049756331E+04  0.20049756331E+04  0.00000000000E+00 0. -1.
         25    2    1    2    0    0  0.32583181062E+02 -0.11247572592E+03  0.12844253612E+03  0.21409101936E+03  0.12500010751E+03 0.  0.
          2    1    1    2  501    0 -0.29815779161E+02  0.14027600626E+03 -0.19593133602E+04  0.19645547032E+04  0.00000000000E+00 0. -1.
          1    1    1    2  502    0 -0.27674019005E+01 -0.27800280345E+02  0.89750404644E+03  0.89793876599E+03  0.00000000000E+00 0. -1.
         22    1    3    3    0    0  0.61439708996E+02 -0.74140677026E+02  0.13483301433E+03  0.16568530286E+03  0.00000000000E+00 0.  1.
         22    1    3    3    0    0 -0.28856527935E+02 -0.38335048890E+02 -0.63904782074E+01  0.48405716496E+02  0.00000000000E+00 0.  1.
</event>
<event>
 7    1  0.5575489E-006  0.4178718E+02  0.7818608E-02  0.1529293E+00
          2   -1    0    0  502    0  0.00000000000E+00  0.00000000000E+00  0.95772967996E+03  0.95772967996E+03  0.00000000000E+00 0. -1.
          1   -1    0    0  501    0 -0.00000000000E+00 -0.00000000000E+00 -0.22321678250E+03  0.22321678250E+03  0.00000000000E+00 0. -1.
         25    2    1    2    0    0 -0.81913706166E+01 -0.58273371053E+02  0.73691270414E+02  0.15658577510E+03  0.12500326917E+03 0.  0.
          2    1    1    2  501    0  0.26084621976E+02  0.20614263730E+02 -0.17972820774E+03  0.18277741663E+03  0.00000000000E+00 0. -1.
          1    1    1    2  502    0 -0.17893251360E+02  0.37659107323E+02  0.84054983479E+03  0.84158327073E+03  0.00000000000E+00 0. -1.
         22    1    3    3    0    0 -0.56139000678E+02 -0.48760637926E+02  0.81220730298E+01  0.74800770574E+02  0.00000000000E+00 0.  1.
         22    1    3    3    0    0  0.47947630062E+02 -0.95127331266E+01  0.65569197384E+02  0.81785004528E+02  0.00000000000E+00 0.  1.
</event>
<event>
 7    1  0.5575489E-006  0.1060530E+03  0.7818608E-02  0.1441016E+00
          2   -1    0    0  502    0  0.00000000000E+00  0.00000000000E+00  0.88470788343E+02  0.88470788343E+02  0.00000000000E+00 0. -1.
          1   -1    0    0  501    0 -0.00000000000E+00 -0.00000000000E+00 -0.42165103758E+03  0.42165103758E+03  0.00000000000E+00 0. -1.
         25    2    1    2    0    0  0.74797704493E+02  0.47092689653E+02 -0.15512951541E+03  0.21795113567E+03  0.12500045188E+03 0.  0.
          2    1    1    2  501    0  0.23954137324E+02  0.43392954810E+01 -0.17917619736E+03  0.18082239873E+03  0.00000000000E+00 0. -1.
          1    1    1    2  502    0 -0.98751841817E+02 -0.51431985134E+02  0.11254635432E+01  0.11134829152E+03  0.00000000000E+00 0. -1.
         22    1    3    3    0    0  0.39148313602E+02 -0.38909847338E+01 -0.15051239432E+03  0.15556899133E+03  0.00000000000E+00 0.  1.
         22    1    3    3    0    0  0.35649390891E+02  0.50983674387E+02 -0.46171210956E+01  0.62382144337E+02  0.00000000000E+00 0.  1.
</event>
<event>
 7    1  0.5575489E-006  0.1342209E+03  0.7818608E-02  0.1335409E+00
          2   -1    0    0  502    0  0.00000000000E+00  0.00000000000E+00  0.23727419524E+04  0.23727419524E+04  0.00000000000E+00 0. -1.
          1   -1    0    0  501    0 -0.00000000000E+00 -0.00000000000E+00 -0.78890574219E+03  0.78890574219E+03  0.00000000000E+00 0. -1.
         25    2    1    2    0    0  0.10728175943E+03 -0.12081575900E+03  0.14794387978E+04  0.14934753467E+04  0.12499452490E+03 0.  0.
          2    1    1    2  501    0 -0.11063304043E+03  0.75842599232E+02 -0.77555310156E+03  0.78706694940E+03  0.00000000000E+00 0. -1.
          1    1    1    2  502    0  0.33512809986E+01  0.44973159764E+02  0.87995051401E+03  0.88110539851E+03  0.00000000000E+00 0. -1.
         22    1    3    3    0    0  0.20514848415E+02 -0.85005393452E+01  0.31182730147E+02  0.38281599157E+02  0.00000000000E+00 0.  1.
         22    1    3    3    0    0  0.86766911015E+02 -0.11231521965E+03  0.14482560676E+04  0.14551937475E+04  0.00000000000E+00 0.  1.
</event>
<event>
 7    1  0.5575489E-006  0.9640756E+02  0.7818608E-02  0.1333133E+00
          2   -1    0    0  502    0  0.00000000000E+00  0.00000000000E+00  0.33606448415E+03  0.33606448415E+03  0.00000000000E+00 0. -1.
          1   -1    0    0  501    0 -0.00000000000E+00 -0.00000000000E+00 -0.24491284619E+03  0.24491284619E+03  0.00000000000E+00 0. -1.
         25    2    1    2    0    0 -0.25759274129E+01  0.13294847725E+03  0.98526710586E+01  0.18276757860E+03  0.12499991861E+03 0.  0.
          2    1    1    2  501    0  0.42149550711E+02 -0.82589994641E+02 -0.13994835555E+03  0.16787862896E+03  0.00000000000E+00 0. -1.
          1    1    1    2  502    0 -0.39573623298E+02 -0.50358482612E+02  0.22124732245E+03  0.23033112279E+03  0.00000000000E+00 0. -1.
         22    1    3    3    0    0 -0.50721054784E+02  0.98727612431E+02  0.38022413870E+02  0.11732634321E+03  0.00000000000E+00 0. -1.
         22    1    3    3    0    0  0.48145127371E+02  0.34220864823E+02 -0.28169742812E+02  0.65441235386E+02  0.00000000000E+00 0. -1.
</event>
<event>
 7    1  0.5575489E-006  0.6163115E+02  0.7818608E-02  0.1476934E+00
          2   -1    0    0  502    0  0.00000000000E+00  0.00000000000E+00  0.47430517571E+02  0.47430517571E+02  0.00000000000E+00 0. -1.
          1   -1    0    0  501    0 -0.00000000000E+00 -0.00000000000E+00 -0.14552320085E+04  0.14552320085E+04  0.00000000000E+00 0. -1.
         25    2    1    2    0    0  0.31707784460E+02 -0.11140455045E+02 -0.16647339407E+03  0.21087317323E+03  0.12499844368E+03 0.  0.
          2    1    1    2  501    0 -0.62640432861E+02  0.19923377971E+01 -0.12551371029E+04  0.12567008157E+04  0.00000000000E+00 0. -1.
          1    1    1    2  502    0  0.30932648401E+02  0.91481172479E+01  0.13809006046E+02  0.35088537078E+02  0.00000000000E+00 0. -1.
         22    1    3    3    0    0 -0.20553619848E+02 -0.54960171338E+02 -0.56429620113E+02  0.81408683496E+02  0.00000000000E+00 0.  1.
         22    1    3    3    0    0  0.52261404308E+02  0.43819716293E+02 -0.11004377395E+03  0.12946448973E+03  0.00000000000E+00 0.  1.
</event>
<event>
 7    1  0.5575489E-006  0.3318321E+02  0.7818608E-02  0.1569573E+00
          2   -1    0    0  502    0  0.00000000000E+00  0.00000000000E+00  0.37942234401E+02  0.37942234401E+02  0.00000000000E+00 0. -1.
          1   -1    0    0  501    0 -0.00000000000E+00 -0.00000000000E+00 -0.26403406903E+04  0.26403406903E+04  0.00000000000E+00 0. -1.
         25    2    1    2    0    0  0.48957680061E+00  0.23809684307E+01 -0.24525904260E+03  0.27528714585E+03  0.12500042399E+03 0.  0.
          2    1    1    2  501    0  0.59754870950E+01  0.31758382035E+02 -0.23667298080E+04  0.23669504189E+04  0.00000000000E+00 0. -1.
          1    1    1    2  502    0 -0.64650638956E+01 -0.34139350466E+02  0.95903947521E+01  0.36045359936E+02  0.00000000000E+00 0. -1.
         22    1    3    3    0    0 -0.33350916234E+01 -0.57742120202E+02 -0.75184149477E+02  0.94857427829E+02  0.00000000000E+00 0. -1.
         22    1    3    3    0    0  0.38246684240E+01  0.60123088633E+02 -0.17007489312E+03  0.18042971802E+03  0.00000000000E+00 0. -1.
</event>
<event>
 7    1  0.5575489E-006  0.8963177E+02  0.7818608E-02  0.1423073E+00
          2   -1    0    0  502    0  0.00000000000E+00  0.00000000000E+00  0.51571510806E+02  0.51571510806E+02  0.00000000000E+00 0. -1.
          1   -1    0    0  501    0 -0.00000000000E+00 -0.00000000000E+00 -0.18004263028E+04  0.18004263028E+04  0.00000000000E+00 0. -1.
         25    2    1    2    0    0  0.82406986762E+02  0.32372612599E+02 -0.60717440035E+03  0.62620487386E+03  0.12503157243E+03 0.  0.
          2    1    1    2  501    0 -0.90766394678E+02 -0.46154339660E+00 -0.11752371600E+04  0.11787370927E+04  0.00000000000E+00 0. -1.
          1    1    1    2  502    0  0.83594079157E+01 -0.31911069202E+02  0.33556768362E+02  0.47055847046E+02  0.00000000000E+00 0. -1.
         22    1    3    3    0    0  0.77679454116E+02  0.28956790670E+01 -0.58195832065E+03  0.58712687685E+03  0.00000000000E+00 0. -1.
         22    1    3    3    0    0  0.47275326459E+01  0.29476933532E+02 -0.25216079697E+02  0.39077997014E+02  0.00000000000E+00 0. -1.
</event>
<event>
 7    1  0.5575489E-006  0.1459462E+03  0.7818608E-02  0.1406065E+00
          2   -1    0    0  502    0  0.00000000000E+00  0.00000000000E+00  0.13817187245E+04  0.13817187245E+04  0.00000000000E+00 0. -1.
          1   -1    0    0  501    0 -0.00000000000E+00 -0.00000000000E+00 -0.25871749247E+03  0.25871749247E+03  0.00000000000E+00 0. -1.
         25    2    1    2    0    0  0.11047666078E+03 -0.58538712248E+02 -0.76092755211E+01  0.17696007310E+03  0.12500037196E+03 0.  0.
          2    1    1    2  501    0  0.22922281086E+02 -0.29730741584E+01 -0.16144779947E+03  0.16309402838E+03  0.00000000000E+00 0. -1.
          1    1    1    2  502    0 -0.13339894186E+03  0.61511786406E+02  0.12920583070E+04  0.13003821155E+04  0.00000000000E+00 0. -1.
         22    1    3    3    0    0  0.93608622883E+02 -0.34099251309E+02  0.50506475667E+02  0.11169707831E+03  0.00000000000E+00 0. -1.
         22    1    3    3    0    0  0.16868037894E+02 -0.24439460938E+02 -0.58115751188E+02  0.65262994795E+02  0.00000000000E+00 0. -1.
</event>
<event>
 7    1  0.5575489E-006  0.2939426E+02  0.7818608E-02  0.1620627E+00
          2   -1    0    0  502    0  0.00000000000E+00  0.00000000000E+00  0.64983954569E+03  0.64983954569E+03  0.00000000000E+00 0. -1.
          1   -1    0    0  501    0 -0.00000000000E+00 -0.00000000000E+00 -0.42932461861E+02  0.42932461861E+02  0.00000000000E+00 0. -1.
         25    2    1    2    0    0  0.22288077515E+02  0.42563349542E+02  0.13540788517E+03  0.19045778423E+03  0.12502189841E+03 0.  0.
          2    1    1    2  501    0 -0.23456907990E+02 -0.15810053645E+02 -0.17182714706E+01  0.28339668057E+02  0.00000000000E+00 0. -1.
          1    1    1    2  502    0  0.11688304754E+01 -0.26753295897E+02  0.47321747013E+03  0.47397455527E+03  0.00000000000E+00 0. -1.
         22    1    3    3    0    0  0.72331068603E+02  0.29630623619E+02  0.57803857088E+02  0.97216476153E+02  0.00000000000E+00 0. -1.
         22    1    3    3    0    0 -0.50042991088E+02  0.12932725923E+02  0.77604028085E+02  0.93241308077E+02  0.00000000000E+00 0. -1.
</event>
<event>
 7    1  0.5575489E-006  0.1949033E+03  0.7818608E-02  0.1320719E+00
          2   -1    0    0  502    0  0.00000000000E+00  0.00000000000E+00  0.87846058820E+03  0.87846058820E+03  0.00000000000E+00 0. -1.
          1   -1    0    0  501    0 -0.00000000000E+00 -0.00000000000E+00 -0.11604460520E+04  0.11604460520E+04  0.00000000000E+00 0. -1.
         25    2    1    2    0    0 -0.51844550874E+01  0.22056274106E+03 -0.74888077212E+03  0.79064666680E+03  0.12499975825E+03 0.  0.
          2    1    1    2  501    0  0.23026684300E+02 -0.26827698673E+02 -0.37881415136E+03  0.38046039857E+03  0.00000000000E+00 0. -1.
          1    1    1    2  502    0 -0.17842229213E+02 -0.19373504239E+03  0.84570945971E+03  0.86779957481E+03  0.00000000000E+00 0. -1.
         22    1    3    3    0    0 -0.56246853864E+02  0.17208903207E+03 -0.58234912519E+03  0.60984329720E+03  0.00000000000E+00 0.  1.
         22    1    3    3    0    0  0.51062398777E+02  0.48473708998E+02 -0.16653164693E+03  0.18080336961E+03  0.00000000000E+00 0.  1.
</event>
<event>
 7    1  0.5575489E-006  0.4653123E+02  0.7818608E-02  0.1519538E+00
          2   -1    0    0  502    0  0.00000000000E+00  0.00000000000E+00  0.96368857622E+02  0.96368857622E+02  0.00000000000E+00 0. -1.
          1   -1    0    0  501    0 -0.00000000000E+00 -0.00000000000E+00 -0.10356516086E+04  0.10356516086E+04  0.00000000000E+00 0. -1.
         25    2    1    2    0    0  0.74546004908E+02  0.56248603285E+01 -0.54969578852E+02  0.15567792756E+03  0.12500086652E+03 0.  0.
          2    1    1    2  501    0 -0.31686560451E+02  0.32933059606E+01 -0.91957698594E+03  0.92012864158E+03  0.00000000000E+00 0. -1.
          1    1    1    2  502    0 -0.42859444457E+02 -0.89181662892E+01  0.35263813766E+02  0.56213897129E+02  0.00000000000E+00 0. -1.
         22    1    3    3    0    0  0.10208384560E+03  0.10491229413E+02 -0.10514583121E+02  0.10315877997E+03  0.00000000000E+00 0.  1.
         22    1    3    3    0    0 -0.27537840694E+02 -0.48663690846E+01 -0.44454995731E+02  0.52519147590E+02  0.00000000000E+00 0.  1.
</event>
<event>
 7    1  0.5575489E-006  0.2542851E+03  0.7818608E-02  0.1148173E+00
          2   -1    0    0  502    0  0.00000000000E+00  0.00000000000E+00  0.77955867791E+03  0.77955867791E+03  0.00000000000E+00 0. -1.
          1   -1    0    0  501    0 -0.00000000000E+00 -0.00000000000E+00 -0.42438338920E+03  0.42438338920E+03  0.00000000000E+00 0. -1.
         25    2    1    2    0    0 -0.35979244464E+03  0.11085662690E+03 -0.14011005551E+02  0.39693945911E+03  0.12499932389E+03 0.  0.
          2    1    1    2  501    0  0.21272063695E+03 -0.47206061991E+02 -0.14941645248E+03  0.26420400819E+03  0.00000000000E+00 0. -1.
          1    1    1    2  502    0  0.14707180769E+03 -0.63650564905E+02  0.51860274674E+03  0.54279859981E+03  0.00000000000E+00 0. -1.
         22    1    3    3    0    0 -0.35380861218E+03  0.91219366168E+02  0.97882298805E+01  0.36550966644E+03  0.00000000000E+00 0. -1.
         22    1    3    3    0    0 -0.59838324582E+01  0.19637260728E+02 -0.23799235432E+02  0.31429792664E+02  0.00000000000E+00 0. -1.
</event>
<event>
 7    1  0.5575489E-006  0.3327972E+02  0.7818608E-02  0.1610487E+00
          2   -1    0    0  502    0  0.00000000000E+00  0.00000000000E+00  0.11998577027E+03  0.11998577027E+03  0.00000000000E+00 0. -1.
          1   -1    0    0  501    0 -0.00000000000E+00 -0.00000000000E+00 -0.10545344970E+04  0.10545344970E+04  0.00000000000E+00 0. -1.
         25    2    1    2    0    0  0.28788339241E+02  0.41520367184E+02 -0.51220318708E+02  0.14422412857E+03  0.12499747536E+03 0.  0.
          2    1    1    2  501    0 -0.38601825584E+00 -0.25106892812E+02 -0.95297765320E+03  0.95330840370E+03  0.00000000000E+00 0. -1.
          1    1    1    2  502    0 -0.28402320985E+02 -0.16413474372E+02  0.69649245203E+02  0.76987734969E+02  0.00000000000E+00 0. -1.
         22    1    3    3    0    0  0.75719441942E+02  0.12619368128E+02 -0.14843540274E+02  0.78185759750E+02  0.00000000000E+00 0.  1.
         22    1    3    3    0    0 -0.46931102701E+02  0.28900999056E+02 -0.36376778434E+02  0.66038368820E+02  0.00000000000E+00 0.  1.
</event>
<event>
 7    1  0.5575489E-006  0.8938390E+02  0.7818608E-02  0.1340363E+00
          2   -1    0    0  502    0  0.00000000000E+00  0.00000000000E+00  0.24029159169E+04  0.24029159169E+04  0.00000000000E+00 0. -1.
          1   -1    0    0  501    0 -0.00000000000E+00 -0.00000000000E+00 -0.41654802317E+02  0.41654802317E+02  0.00000000000E+00 0. -1.
         25    2    1    2    0    0  0.11801205440E+03  0.65696176307E+02  0.39421773470E+03  0.43505645187E+03  0.12499464545E+03 0.  0.
          2    1    1    2  501    0 -0.30762850369E+02 -0.57107698875E+02  0.31720910686E+02  0.72207052345E+02  0.00000000000E+00 0. -1.
          1    1    1    2  502    0 -0.87249204036E+02 -0.85884774320E+01  0.19353224692E+04  0.19373072150E+04  0.00000000000E+00 0. -1.
         22    1    3    3    0    0  0.36627702327E+02 -0.57241829325E+01  0.13846451261E+02  0.39573716790E+02  0.00000000000E+00 0. -1.
         22    1    3    3    0    0  0.81384352078E+02  0.71420359239E+02  0.38037128344E+03  0.39548273508E+03  0.00000000000E+00 0. -1.
</event>
<event>
 7    1  0.5575489E-006  0.3428964E+02  0.7818608E-02  0.1633654E+00
          2   -1    0    0  502    0  0.00000000000E+00  0.00000000000E+00  0.54003233259E+03  0.54003233259E+03  0.00000000000E+00 0. -1.
          1   -1    0    0  501    0 -0.00000000000E+00 -0.00000000000E+00 -0.30184251491E+02  0.30184251491E+02  0.00000000000E+00 0. -1.
         25    2    1    2    0    0  0.25091130744E+02  0.37730047292E+02  0.27838797591E+03  0.30850875897E+03  0.12499867168E+03 0.  0.
          2    1    1    2  501    0 -0.20855085406E+02 -0.42408236988E+01 -0.58002790777E+01  0.22058159722E+02  0.00000000000E+00 0. -1.
          1    1    1    2  502    0 -0.42360453380E+01 -0.33489223594E+02  0.23726038427E+03  0.23964966539E+03  0.00000000000E+00 0. -1.
         22    1    3    3    0    0  0.73464127728E+02  0.49876298142E+01  0.17293872184E+03  0.18796184726E+03  0.00000000000E+00 0. -1.
         22    1    3    3    0    0 -0.48372996984E+02  0.32742417478E+02  0.10544925407E+03  0.12054691171E+03  0.00000000000E+00 0. -1.
</event>
<event>
 7    1  0.5575489E-006  0.5375816E+02  0.7818608E-02  0.1450016E+00
          2   -1    0    0  502    0  0.00000000000E+00  0.00000000000E+00  0.92372974311E+03  0.92372974311E+03  0.00000000000E+00 0. -1.
          1   -1    0    0  501    0 -0.00000000000E+00 -0.00000000000E+00 -0.35770834418E+02  0.35770834418E+02  0.00000000000E+00 0. -1.
         25    2    1    2    0    0 -0.42232099227E+02 -0.39444370574E+02  0.29500101034E+03  0.32555510798E+03  0.12498449367E+03 0.  0.
          2    1    1    2  501    0 -0.12491023980E+02  0.43153621844E+02  0.70487775608E+01  0.45474674528E+02  0.00000000000E+00 0. -1.
          1    1    1    2  502    0  0.54723123207E+02 -0.37092512696E+01  0.58590912080E+03  0.58847079502E+03  0.00000000000E+00 0. -1.
         22    1    3    3    0    0  0.24225267320E+02 -0.61917031922E+02  0.12349252023E+03  0.14025328863E+03  0.00000000000E+00 0. -1.
         22    1    3    3    0    0 -0.66457366547E+02  0.22472661348E+02  0.17150849010E+03  0.18530181935E+03  0.00000000000E+00 0. -1.
</event>
<event>
 7    1  0.5575489E-006  0.1569712E+03  0.7818608E-02  0.1263607E+00
          2   -1    0    0  502    0  0.00000000000E+00  0.00000000000E+00  0.14439409133E+04  0.14439409133E+04  0.00000000000E+00 0. -1.
          1   -1    0    0  501    0 -0.00000000000E+00 -0.00000000000E+00 -0.14009578280E+03  0.14009578280E+03  0.00000000000E+00 0. -1.
         25    2    1    2    0    0  0.62064588032E+02 -0.17712510755E+03  0.27349872125E+02  0.22715489032E+03  0.12500404745E+03 0.  0.
          2    1    1    2  501    0 -0.13346589417E+01  0.13341369964E+03  0.74993439842E+02  0.15305231977E+03  0.00000000000E+00 0. -1.
          1    1    1    2  502    0 -0.60729929090E+02  0.43711407913E+02  0.12015018185E+04  0.12038294860E+04  0.00000000000E+00 0. -1.
         22    1    3    3    0    0  0.53081827768E+02 -0.15117770609E+03 -0.30514772616E+02  0.16310588771E+03  0.00000000000E+00 0.  1.
         22    1    3    3    0    0  0.89827602641E+01 -0.25947401465E+02  0.57864644741E+02  0.64049002613E+02  0.00000000000E+00 0.  1.
</event>
<event>
 7    1  0.5575489E-006  0.5067883E+02  0.7818608E-02  0.1446722E+00
          2   -1    0    0  502    0  0.00000000000E+00  0.00000000000E+00  0.14646765183E+04  0.14646765183E+04  0.00000000000E+00 0. -1.
          1   -1    0    0  501    0 -0.00000000000E+00 -0.00000000000E+00 -0.38745225966E+03  0.38745225966E+03  0.00000000000E+00 0. -1.
         25    2    1    2    0    0 -0.24675849290E-02 -0.17419806509E+02 -0.63177723364E+02  0.14113638135E+03  0.12499841498E+03 0.  0.
          2    1    1    2  501    0 -0.50287665464E+02  0.11155077689E+02 -0.28251538725E+03  0.28717282094E+03  0.00000000000E+00 0. -1.
          1    1    1    2  502    0  0.50290133048E+02  0.62647288199E+01  0.14229173692E+04  0.14238195756E+04  0.00000000000E+00 0. -1.
         22    1    3    3    0    0  0.16748296298E+02 -0.47339256233E+02 -0.86253266610E+02  0.99805493889E+02  0.00000000000E+00 0.  1.
         22    1    3    3    0    0 -0.16750763883E+02  0.29919449724E+02  0.23075543246E+02  0.41330887463E+02  0.00000000000E+00 0.  1.
</event>
<event>
 7    1  0.5575489E-006  0.9438550E+02  0.7818608E-02  0.1449364E+00
          2   -1    0    0  502    0  0.00000000000E+00  0.00000000000E+00  0.60693503550E+03  0.60693503550E+03  0.00000000000E+00 0. -1.
          1   -1    0    0  501    0 -0.00000000000E+00 -0.00000000000E+00 -0.19557835318E+03  0.19557835318E+03  0.00000000000E+00 0. -1.
         25    2    1    2    0    0  0.10871548976E+03  0.17546859317E+02  0.13121825218E+03  0.21206150677E+03  0.12499961186E+03 0.  0.
          2    1    1    2  501    0 -0.93201502994E+02  0.29559933181E+01 -0.14071845144E+03  0.16881036886E+03  0.00000000000E+00 0. -1.
          1    1    1    2  502    0 -0.15513986767E+02 -0.20502852635E+02  0.42085688158E+03  0.42164151305E+03  0.00000000000E+00 0. -1.
         22    1    3    3    0    0  0.87823837938E+02  0.64775184321E+02  0.11352994000E+03  0.15747348440E+03  0.00000000000E+00 0. -1.
         22    1    3    3    0    0  0.20891651823E+02 -0.47228325004E+02  0.17688312180E+02  0.54588022370E+02  0.00000000000E+00 0. -1.
</event>
<event>
 7    1  0.5575489E-006  0.5575309E+02  0.7818608E-02  0.1502724E+00
          2   -1    0    0  502    0  0.00000000000E+00  0.00000000000E+00  0.15723896415E+04  0.15723896415E+04  0.00000000000E+00 0. -1.
          1   -1    0    0  501    0 -0.00000000000E+00 -0.00000000000E+00 -0.15691205301E+02  0.15691205301E+02  0.00000000000E+00 0. -1.
         25    2    1    2    0    0 -0.55084847966E+02 -0.60515562501E+02  0.67897750661E+03  0.69522097605E+03  0.12500110909E+03 0.  0.
          2    1    1    2  501    0  0.37012567970E+02  0.36830602894E+02  0.86219513704E+02  0.10079795653E+03  0.00000000000E+00 0. -1.
          1    1    1    2  502    0  0.18072279996E+02  0.23684959608E+02  0.79150141587E+03  0.79206191420E+03  0.00000000000E+00 0. -1.
         22    1    3    3    0    0  0.35404601134E+02 -0.42836980843E+02  0.30682137679E+03  0.31181380656E+03  0.00000000000E+00 0. -1.
         22    1    3    3    0    0 -0.90489449100E+02 -0.17678581658E+02  0.37215612983E+03  0.38340716949E+03  0.00000000000E+00 0. -1.
</event>
<event>
 7    1  0.5575489E-006  0.7337475E+02  0.7818608E-02  0.1359347E+00
          2   -1    0    0  502    0  0.00000000000E+00  0.00000000000E+00  0.19780400756E+04  0.19780400756E+04  0.00000000000E+00 0. -1.
          1   -1    0    0  501    0 -0.00000000000E+00 -0.00000000000E+00 -0.66497660980E+02  0.66497660980E+02  0.00000000000E+00 0. -1.
         25    2    1    2    0    0 -0.12916112579E+03  0.47650812716E+02  0.29431797597E+03  0.34814331327E+03  0.12500999652E+03 0.  0.
          2    1    1    2  501    0  0.65490322884E+02 -0.15065190155E+02 -0.97011350527E+01  0.67897381151E+02  0.00000000000E+00 0. -1.
          1    1    1    2  502    0  0.63670802906E+02 -0.32585622561E+02  0.16269255737E+04  0.16284970421E+04  0.00000000000E+00 0. -1.
         22    1    3    3    0    0  0.18609313317E+01  0.49480031203E+02  0.47064195992E+02  0.68313798735E+02  0.00000000000E+00 0.  1.
         22    1    3    3    0    0 -0.13102205712E+03 -0.18292184873E+01  0.24725377998E+03  0.27982951454E+03  0.00000000000E+00 0.  1.
</event>
<event>
 7    1  0.5575489E-006  0.1626305E+03  0.7818608E-02  0.1262098E+00
          2   -1    0    0  502    0  0.00000000000E+00  0.00000000000E+00  0.57005780051E+02  0.57005780051E+02  0.00000000000E+00 0. -1.
          1   -1    0    0  501    0 -0.00000000000E+00 -0.00000000000E+00 -0.14524846531E+04  0.14524846531E+04  0.00000000000E+00 0. -1.
         25    2    1    2    0    0  0.89504117774E+02  0.71319194462E+02 -0.10716197304E+04  0.10849382935E+04  0.12499935834E+03 0.  0.
          2    1    1    2  501    0  0.17203457809E+01  0.73275077194E+02 -0.20120573035E+03  0.21414000667E+03  0.00000000000E+00 0. -1.
          1    1    1    2  502    0 -0.91224463555E+02 -0.14459427166E+03 -0.12265341229E+03  0.21041213295E+03  0.00000000000E+00 0. -1.
         22    1    3    3    0    0  0.37330339297E+02  0.18984546971E+01 -0.68230984499E+02  0.77798622147E+02  0.00000000000E+00 0. -1.
         22    1    3    3    0    0  0.52173778477E+02  0.69420739765E+02 -0.10033887459E+04  0.10071396714E+04  0.00000000000E+00 0. -1.
</event>
<event>
 7    1  0.5575489E-006  0.1051829E+03  0.7818608E-02  0.1368797E+00
          2   -1    0    0  502    0  0.00000000000E+00  0.00000000000E+00  0.29469975052E+03  0.29469975052E+03  0.00000000000E+00 0. -1.
          1   -1    0    0  501    0 -0.00000000000E+00 -0.00000000000E+00 -0.57362173920E+03  0.57362173920E+03  0.00000000000E+00 0. -1.
         25    2    1    2    0    0  0.44288291615E+02 -0.98604815844E+02 -0.40028998788E+02  0.17003648905E+03  0.12500289750E+03 0.  0.
          2    1    1    2  501    0 -0.15441517765E+01  0.10565079189E+03 -0.46050855616E+03  0.47247497767E+03  0.00000000000E+00 0. -1.
          1    1    1    2  502    0 -0.42744139838E+02 -0.70459760494E+01  0.22161556627E+03  0.22581002299E+03  0.00000000000E+00 0. -1.
         22    1    3    3    0    0 -0.29876087839E+01 -0.39083356488E+02  0.42513930489E+02  0.57826195156E+02  0.00000000000E+00 0. -1.
         22    1    3    3    0    0  0.47275900399E+02 -0.59521459356E+02 -0.82542929276E+02  0.11221029389E+03  0.00000000000E+00 0. -1.
</event>
<event>
 7    1  0.5575489E-006  0.4196031E+02  0.7818608E-02  0.1555312E+00
          2   -1    0    0  502    0  0.00000000000E+00  0.00000000000E+00  0.14475511807E+03  0.14475511807E+03  0.00000000000E+00 0. -1.
          1   -1    0    0  501    0 -0.00000000000E+00 -0.00000000000E+00 -0.19029737756E+04  0.19029737756E+04  0.00000000000E+00 0. -1.
         25    2    1    2    0    0  0.23638461997E+02 -0.93079646262E+01  0.45382080685E+02  0.13538803513E+03  0.12499988687E+03 0.  0.
          2    1    1    2  501    0  0.22006716671E+02  0.17256344676E+02 -0.18479751648E+04  0.18481867564E+04  0.00000000000E+00 0. -1.
          1    1    1    2  502    0 -0.45645178667E+02 -0.79483800497E+01  0.44374426581E+02  0.64154102093E+02  0.00000000000E+00 0. -1.
         22    1    3    3    0    0 -0.71540696270E+01  0.38686421120E+02  0.64237962803E+02  0.75328186998E+02  0.00000000000E+00 0. -1.
         22    1    3    3    0    0  0.30792531624E+02 -0.47994385746E+02 -0.18855882119E+02  0.60059848130E+02  0.00000000000E+00 0. -1.
</event>
<event>
 7    1  0.5575489E-006  0.6867824E+02  0.7818608E-02  0.1395614E+00
          2   -1    0    0  502    0  0.00000000000E+00  0.00000000000E+00  0.12671657460E+04  0.12671657460E+04  0.00000000000E+00 0. -1.
          1   -1    0    0  501    0 -0.00000000000E+00 -0.00000000000E+00 -0.18845181678E+03  0.18845181678E+03  0.00000000000E+00 0. -1.
         25    2    1    2    0    0 -0.44166414867E+02 -0.10812162812E+03  0.32973319282E+02  0.17421982957E+03  0.12499740223E+03 0.  0.
          2    1    1    2  501    0  0.31870622729E+02  0.56206549542E+02 -0.10830768983E+03  0.12611688420E+03  0.00000000000E+00 0. -1.
          1    1    1    2  502    0  0.12295792139E+02  0.51915078577E+02  0.11540482998E+04  0.11552808490E+04  0.00000000000E+00 0. -1.
         22    1    3    3    0    0  0.41151124758E+02 -0.60957355311E+02  0.15987092354E+02  0.75264874658E+02  0.00000000000E+00 0. -1.
         22    1    3    3    0    0 -0.85317539625E+02 -0.47164272808E+02  0.16986226928E+02  0.98954954916E+02  0.00000000000E+00 0. -1.
</event>
<event>
 7    1  0.5575489E-006  0.1084342E+03  0.7818608E-02  0.1323823E+00
          2   -1    0    0  502    0  0.00000000000E+00  0.00000000000E+00  0.74949533901E+03  0.74949533901E+03  0.00000000000E+00 0. -1.
          1   -1    0    0  501    0 -0.00000000000E+00 -0.00000000000E+00 -0.49634488808E+03  0.49634488808E+03  0.00000000000E+00 0. -1.
         25    2    1    2    0    0  0.16564775367E+01 -0.65169976030E+02  0.23622993978E+03  0.27509689832E+03  0.12499539720E+03 0.  0.
          2    1    1    2  501    0  0.10953804265E+02 -0.60837170884E+02 -0.46672129980E+03  0.47079711010E+03  0.00000000000E+00 0. -1.
          1    1    1    2  502    0 -0.12610281802E+02  0.12600714691E+03  0.48364181094E+03  0.49994621868E+03  0.00000000000E+00 0. -1.
         22    1    3    3    0    0  0.14933563905E+02 -0.10087318643E+03  0.15738555510E+03  0.18753299450E+03  0.00000000000E+00 0. -1.
         22    1    3    3    0    0 -0.13277086368E+02  0.35703210404E+02  0.78844384685E+02  0.87563903819E+02  0.00000000000E+00 0. -1.
</event>
<event>
 7    1  0.5575489E-006  0.5081525E+02  0.7818608E-02  0.1552994E+00
          2   -1    0    0  502    0  0.00000000000E+00  0.00000000000E+00  0.23512174510E+03  0.23512174510E+03  0.00000000000E+00 0. -1.
          1   -1    0    0  501    0 -0.00000000000E+00 -0.00000000000E+00 -0.67899417133E+02  0.67899417133E+02  0.00000000000E+00 0. -1.
         25    2    1    2    0    0  0.58689080259E+01 -0.30478339630E+02  0.57845306614E+02  0.14118753551E+03  0.12499786965E+03 0.  0.
          2    1    1    2  501    0 -0.44836599633E+01 -0.23004020222E+02 -0.14039320180E+02  0.27320151247E+02  0.00000000000E+00 0. -1.
          1    1    1    2  502    0 -0.13852480626E+01  0.53482359852E+02  0.12341634154E+03  0.13451347548E+03  0.00000000000E+00 0. -1.
         22    1    3    3    0    0 -0.11991147213E+02 -0.15262776570E+01  0.92112645396E+02  0.92902403504E+02  0.00000000000E+00 0. -1.
         22    1    3    3    0    0  0.17860055239E+02 -0.28952061973E+02 -0.34267338782E+02  0.48285132006E+02  0.00000000000E+00 0. -1.
</event>
<event>
 7    1  0.5575489E-006  0.2827618E+03  0.7818608E-02  0.1151961E+00
          2   -1    0    0  502    0  0.00000000000E+00  0.00000000000E+00  0.85677006429E+03  0.85677006429E+03  0.00000000000E+00 0. -1.
          1   -1    0    0  501    0 -0.00000000000E+00 -0.00000000000E+00 -0.92332795112E+03  0.92332795112E+03  0.00000000000E+00 0. -1.
         25    2    1    2    0    0  0.25071369464E+03  0.16249887869E+03 -0.83760814302E+02  0.33452196009E+03  0.12500330202E+03 0.  0.
          2    1    1    2  501    0 -0.10904588627E+03  0.84236304519E+02 -0.67933631570E+03  0.69316995762E+03  0.00000000000E+00 0. -1.
          1    1    1    2  502    0 -0.14166780836E+03 -0.24673518321E+03  0.69653924318E+03  0.75240609770E+03  0.00000000000E+00 0. -1.
         22    1    3    3    0    0  0.20307049885E+03  0.18079065750E+03 -0.79691661176E+02  0.28332604928E+03  0.00000000000E+00 0. -1.
         22    1    3    3    0    0  0.47643195788E+02 -0.18291778801E+02 -0.40691531263E+01  0.51195910811E+02  0.00000000000E+00 0. -1.
</event>
<event>
 7    1  0.5575489E-006  0.7308644E+02  0.7818608E-02  0.1478806E+00
          2   -1    0    0  502    0  0.00000000000E+00  0.00000000000E+00  0.51487719596E+03  0.51487719596E+03  0.00000000000E+00 0. -1.
          1   -1    0    0  501    0 -0.00000000000E+00 -0.00000000000E+00 -0.88376714595E+02  0.88376714595E+02  0.00000000000E+00 0. -1.
         25    2    1    2    0    0 -0.64321362420E+02 -0.37373723613E+02  0.42420794805E+02  0.15151625464E+03  0.12499447471E+03 0.  0.
          2    1    1    2  501    0  0.18287622385E+02 -0.19649502370E+02 -0.24677648649E+02  0.36462671580E+02  0.00000000000E+00 0. -1.
          1    1    1    2  502    0  0.46033740035E+02  0.57023225984E+02  0.40875733521E+03  0.41527498433E+03  0.00000000000E+00 0. -1.
         22    1    3    3    0    0 -0.70678446222E+02  0.56955949178E+01  0.70275087223E+02  0.99832211465E+02  0.00000000000E+00 0.  1.
         22    1    3    3    0    0  0.63570838017E+01 -0.43069318531E+02 -0.27854292418E+02  0.51684043179E+02  0.00000000000E+00 0.  1.
</event>
<event>
 7    1  0.5575489E-006  0.1530304E+03  0.7818608E-02  0.1293682E+00
          2   -1    0    0  502    0  0.00000000000E+00  0.00000000000E+00  0.17810742455E+04  0.17810742455E+04  0.00000000000E+00 0. -1.
          1   -1    0    0  501    0 -0.00000000000E+00 -0.00000000000E+00 -0.24075490183E+04  0.24075490183E+04  0.00000000000E+00 0. -1.
         25    2    1    2    0    0 -0.11235656240E+03  0.92459897319E+02  0.99316869912E+03  0.10115247079E+04  0.12500136031E+03 0.  0.
          2    1    1    2  501    0 -0.43246587584E+02 -0.38064727288E+02 -0.23892969350E+04  0.23899914298E+04  0.00000000000E+00 0. -1.
          1    1    1    2  502    0  0.15560314999E+03 -0.54395170031E+02  0.76965346302E+03  0.78710712609E+03  0.00000000000E+00 0. -1.
         22    1    3    3    0    0 -0.13405339800E+02  0.72669084503E+02  0.22664482552E+03  0.23838702967E+03  0.00000000000E+00 0.  1.
         22    1    3    3    0    0 -0.98951222604E+02  0.19790812816E+02  0.76652387360E+03  0.77313767824E+03  0.00000000000E+00 0.  1.
</event>
<event>
 7    1  0.7734342E-006  0.7775357E+02  0.7818608E-02  0.1346226E+00
          2   -1    0    0  502    0  0.00000000000E+00  0.00000000000E+00  0.14209643929E+04  0.14209643929E+04  0.00000000000E+00 0. -1.
          1   -1    0    0  501    0 -0.00000000000E+00 -0.00000000000E+00 -0.11244968807E+04  0.11244968807E+04  0.00000000000E+00 0. -1.
         25    2    1    2    0    0 -0.70813819000E+02  0.99983697888E+02 -0.54218460502E+03  0.56973560145E+03  0.12499269113E+03 0.  0.
          2    1    1    2  501    0  0.55390260324E+01 -0.72322314708E+02 -0.56532527159E+03  0.56995952551E+03  0.00000000000E+00 0. -1.
          1    1    1    2  502    0  0.65274792967E+02 -0.27661383180E+02  0.14039773888E+04  0.14057661467E+04  0.00000000000E+00 0. -1.
         22    1    3    3    0    0 -0.32810337083E+02  0.23459287081E+01 -0.23130036435E+02  0.40212189526E+02  0.00000000000E+00 0. -1.
         22    1    3    3    0    0 -0.38003481916E+02  0.97637769180E+02 -0.51905456858E+03  0.52952341192E+03  0.00000000000E+00 0. -1.
</event>
<event>
 7    1  0.5575489E-006  0.5569823E+02  0.7818608E-02  0.1466229E+00
          2   -1    0    0  502    0  0.00000000000E+00  0.00000000000E+00  0.36261953382E+03  0.36261953382E+03  0.00000000000E+00 0. -1.
          1   -1    0    0  501    0 -0.00000000000E+00 -0.00000000000E+00 -0.47135856683E+02  0.47135856683E+02  0.00000000000E+00 0. -1.
         25    2    1    2    0    0 -0.25233627083E+01 -0.47181712896E+02  0.99319802798E+02  0.16649965304E+03  0.12500091936E+03 0.  0.
          2    1    1    2  501    0 -0.38141531494E+02  0.54637915973E+01  0.31966188582E+02  0.50064624794E+02  0.00000000000E+00 0. -1.
          1    1    1    2  502    0  0.40664894202E+02  0.41717921298E+02  0.18419768576E+03  0.19319111268E+03  0.00000000000E+00 0. -1.
         22    1    3    3    0    0 -0.53822487877E+01 -0.77867892620E+02  0.10911776599E+03  0.13416059092E+03  0.00000000000E+00 0. -1.
         22    1    3    3    0    0  0.28588860794E+01  0.30686179724E+02 -0.97979631881E+01  0.32339062112E+02  0.00000000000E+00 0. -1.
</event>
<event>
 7    1  0.5575489E-006  0.7687885E+02  0.7818608E-02  0.1435064E+00
          2   -1    0    0  502    0  0.00000000000E+00  0.00000000000E+00  0.77695903249E+03  0.77695903249E+03  0.00000000000E+00 0. -1.
          1   -1    0    0  501    0 -0.00000000000E+00 -0.00000000000E+00 -0.61707668154E+02  0.61707668154E+02  0.00000000000E+00 0. -1.
         25    2    1    2    0    0  0.85204333665E+02 -0.16625311525E+02  0.39491112310E+03  0.42322269119E+03  0.12500588680E+03 0.  0.
          2    1    1    2  501    0 -0.11384422171E+02  0.33217144890E+02 -0.36513232969E+02  0.50657674291E+02  0.00000000000E+00 0. -1.
          1    1    1    2  502    0 -0.73819911494E+02 -0.16591833365E+02  0.35685347421E+03  0.36478633516E+03  0.00000000000E+00 0. -1.
         22    1    3    3    0    0  0.81560500503E+02  0.40633976101E+02  0.19497994907E+03  0.21522178280E+03  0.00000000000E+00 0.  1.
         22    1    3    3    0    0  0.36438331616E+01 -0.57259287626E+02  0.19993117403E+03  0.20800090838E+03  0.00000000000E+00 0.  1.
</event>
<event>
 7    1  0.5575489E-006  0.8262621E+02  0.7818608E-02  0.1363587E+00
          2   -1    0    0  502    0  0.00000000000E+00  0.00000000000E+00  0.35797147402E+03  0.35797147402E+03  0.00000000000E+00 0. -1.
          1   -1    0    0  501    0 -0.00000000000E+00 -0.00000000000E+00 -0.71676553182E+03  0.71676553182E+03  0.00000000000E+00 0. -1.
         25    2    1    2    0    0  0.12140692148E+03 -0.17471549382E+02  0.90256066081E+02  0.19701978737E+03  0.12500297409E+03 0.  0.
          2    1    1    2  501    0 -0.45320613993E+02  0.35537058116E+02 -0.65494458373E+03  0.65747186123E+03  0.00000000000E+00 0. -1.
          1    1    1    2  502    0 -0.76086307485E+02 -0.18065508734E+02  0.20589445985E+03  0.22024535724E+03  0.00000000000E+00 0. -1.
         22    1    3    3    0    0  0.11078732499E+03  0.14223214665E+02  0.11116906153E+03  0.15759026447E+03  0.00000000000E+00 0. -1.
         22    1    3    3    0    0  0.10619596486E+02 -0.31694764047E+02 -0.20912995452E+02  0.39429522902E+02  0.00000000000E+00 0. -1.
</event>
<event>
 7    1  0.5575489E-006  0.2058098E+03  0.7818608E-02  0.1295188E+00
          2   -1    0    0  502    0  0.00000000000E+00  0.00000000000E+00  0.52493964138E+03  0.52493964138E+03  0.00000000000E+00 0. -1.
          1   -1    0    0  501    0 -0.00000000000E+00 -0.00000000000E+00 -0.10517301611E+04  0.10517301611E+04  0.00000000000E+00 0. -1.
         25    2    1    2    0    0 -0.19652513153E+03 -0.17741310725E+02 -0.38055846506E+03  0.44652793938E+03  0.12500229554E+03 0.  0.
          2    1    1    2  501    0 -0.85801080875E+01  0.41361638897E+02 -0.61576986159E+03  0.61721708164E+03  0.00000000000E+00 0. -1.
          1    1    1    2  502    0  0.20510523961E+03 -0.23620328172E+02  0.46953780697E+03  0.51292478142E+03  0.00000000000E+00 0. -1.
         22    1    3    3    0    0 -0.55984198166E+02  0.15841246986E+02 -0.26138801388E+02  0.63784108431E+02  0.00000000000E+00 0. -1.
         22    1    3    3    0    0 -0.14054093336E+03 -0.33582557711E+02 -0.35441966367E+03  0.38274383095E+03  0.00000000000E+00 0. -1.
</event>
<event>
 7    1  0.5575489E-006  0.4946054E+02  0.7818608E-02  0.1553632E+00
          2   -1    0    0  502    0  0.00000000000E+00  0.00000000000E+00  0.19851210245E+04  0.19851210245E+04  0.00000000000E+00 0. -1.
          1   -1    0    0  501    0 -0.00000000000E+00 -0.00000000000E+00 -0.33227783873E+03  0.33227783873E+03  0.00000000000E+00 0. -1.
         25    2    1    2    0    0 -0.39137904366E+02 -0.21142496404E+02  0.32489396466E+03  0.35094142232E+03  0.12500005166E+03 0.  0.
          2    1    1    2  501    0  0.26748266570E+02  0.41674729869E+02 -0.31724590303E+03  0.32108755171E+03  0.00000000000E+00 0. -1.
          1    1    1    2  502    0  0.12389637796E+02 -0.20532233465E+02  0.16451951241E+04  0.16453698892E+04  0.00000000000E+00 0. -1.
         22    1    3    3    0    0 -0.77388794855E+02 -0.29187689069E+02  0.27720067451E+03  0.28927696194E+03  0.00000000000E+00 0. -1.
         22    1    3    3    0    0  0.38250890489E+02  0.80451926646E+01  0.47693290152E+02  0.61664460378E+02  0.00000000000E+00 0. -1.
</event>
<event>
 7    1  0.5575489E-006  0.6061015E+02  0.7818608E-02  0.1550206E+00
          2   -1    0    0  502    0  0.00000000000E+00  0.00000000000E+00  0.19904642613E+02  0.19904642613E+02  0.00000000000E+00 0. -1.
          1   -1    0    0  501    0 -0.00000000000E+00 -0.00000000000E+00 -0.13627797168E+04  0.13627797168E+04  0.00000000000E+00 0. -1.
         25    2    1    2    0    0 -0.71219682313E+02 -0.29820837296E+02 -0.66230524795E+03  0.67839755532E+03  0.12495389597E+03 0.  0.
          2    1    1    2  501    0  0.19982849022E+02  0.91275647578E+00 -0.61829528498E+03  0.61861878957E+03  0.00000000000E+00 0. -1.
          1    1    1    2  502    0  0.51236833291E+02  0.28908080821E+02 -0.62274541236E+02  0.85668014501E+02  0.00000000000E+00 0. -1.
         22    1    3    3    0    0 -0.19507134172E+02 -0.64662346570E+02 -0.18323728818E+03  0.19528863543E+03  0.00000000000E+00 0.  1.
         22    1    3    3    0    0 -0.51712548141E+02  0.34841509273E+02 -0.47906795977E+03  0.48310891990E+03  0.00000000000E+00 0.  1.
</event>
<event>
 7    1  0.5575489E-006  0.9969464E+02  0.7818608E-02  0.1370702E+00
          2   -1    0    0  502    0  0.00000000000E+00  0.00000000000E+00  0.16839279435E+04  0.16839279435E+04  0.00000000000E+00 0. -1.
          1   -1    0    0  501    0 -0.00000000000E+00 -0.00000000000E+00 -0.64432085520E+03  0.64432085520E+03  0.00000000000E+00 0. -1.
         25    2    1    2    0    0  0.47576875383E+02  0.12941937927E+03  0.36408579859E+03  0.40889730258E+03  0.12500240206E+03 0.  0.
          2    1    1    2  501    0 -0.51977721994E+02 -0.84644772740E+02 -0.61755523987E+03  0.62549252228E+03  0.00000000000E+00 0. -1.
          1    1    1    2  502    0  0.44008466118E+01 -0.44774606528E+02  0.12930765296E+04  0.12938589739E+04  0.00000000000E+00 0. -1.
         22    1    3    3    0    0  0.64273978627E+02  0.78330656198E+02  0.33011104505E+03  0.34531165357E+03  0.00000000000E+00 0. -1.
         22    1    3    3    0    0 -0.16697103244E+02  0.51088723070E+02  0.33974753540E+02  0.63585649008E+02  0.00000000000E+00 0. -1.
</event>
<event>
 7    1  0.5575489E-006  0.1199013E+03  0.7818608E-02  0.1403390E+00
          2   -1    0    0  502    0  0.00000000000E+00  0.00000000000E+00  0.28793393247E+04  0.28793393247E+04  0.00000000000E+00 0. -1.
          1   -1    0    0  501    0 -0.00000000000E+00 -0.00000000000E+00 -0.16692816129E+03  0.16692816129E+03  0.00000000000E+00 0. -1.
         25    2    1    2    0    0  0.68096175906E+02 -0.67953172575E+02  0.71294053955E+03  0.73018039570E+03  0.12499789799E+03 0.  0.
          2    1    1    2  501    0  0.18783731098E+02 -0.21743171495E+02 -0.15518162473E+03  0.15781929766E+03  0.00000000000E+00 0. -1.
          1    1    1    2  502    0 -0.86879907004E+02  0.89696344070E+02  0.21546522486E+04  0.21582677927E+04  0.00000000000E+00 0. -1.
         22    1    3    3    0    0  0.43917730799E+02 -0.83245885689E+02  0.68028683033E+03  0.68676692996E+03  0.00000000000E+00 0.  1.
         22    1    3    3    0    0  0.24178445107E+02  0.15292713115E+02  0.32653709212E+02  0.43413465739E+02  0.00000000000E+00 0.  1.
</event>
<event>
 7    1  0.5575489E-006  0.1588144E+03  0.7818608E-02  0.1257692E+00
          2   -1    0    0  502    0  0.00000000000E+00  0.00000000000E+00  0.45995996432E+04  0.45995996432E+04  0.00000000000E+00 0. -1.
          1   -1    0    0  501    0 -0.00000000000E+00 -0.00000000000E+00 -0.29714431229E+02  0.29714431229E+02  0.00000000000E+00 0. -1.
         25    2    1    2    0    0 -0.46898234932E+02  0.82927558939E+02  0.30204525193E+03  0.34048025582E+03  0.12497618140E+03 0.  0.
          2    1    1    2  501    0  0.10695483365E+02  0.77645019165E+02  0.16475206733E+03  0.18244557011E+03  0.00000000000E+00 0. -1.
          1    1    1    2  502    0  0.36202751567E+02 -0.16057257810E+03  0.41030878927E+04  0.41063882485E+04  0.00000000000E+00 0. -1.
         22    1    3    3    0    0 -0.57909030741E+02  0.50366936181E+02  0.63900225819E+02  0.99867527061E+02  0.00000000000E+00 0. -1.
         22    1    3    3    0    0  0.11010795810E+02  0.32560622759E+02  0.23814502611E+03  0.24061272876E+03  0.00000000000E+00 0. -1.
</event>
<event>
 7    1  0.5575489E-006  0.1669128E+03  0.7818608E-02  0.1278289E+00
          2   -1    0    0  502    0  0.00000000000E+00  0.00000000000E+00  0.89982044241E+03  0.89982044241E+03  0.00000000000E+00 0. -1.
          1   -1    0    0  501    0 -0.00000000000E+00 -0.00000000000E+00 -0.50254854599E+03  0.50254854599E+03  0.00000000000E+00 0. -1.
         25    2    1    2    0    0  0.10510538090E+03  0.19352378348E+03  0.17024693112E+03  0.30514221050E+03  0.12501661971E+03 0.  0.
          2    1    1    2  501    0 -0.25748705921E+02 -0.55373959357E+02 -0.42329404940E+03  0.42767642381E+03  0.00000000000E+00 0. -1.
          1    1    1    2  502    0 -0.79356674979E+02 -0.13814982413E+03  0.65031901471E+03  0.66955035409E+03  0.00000000000E+00 0. -1.
         22    1    3    3    0    0  0.85492945014E+02  0.99924386005E+02  0.29163118218E+02  0.13470120278E+03  0.00000000000E+00 0. -1.
         22    1    3    3    0    0  0.19612435886E+02  0.93599397479E+02  0.14108381290E+03  0.17044100772E+03  0.00000000000E+00 0. -1.
</event>
<event>
 7    1  0.5575489E-006  0.5184965E+02  0.7818608E-02  0.1494481E+00
          2   -1    0    0  502    0  0.00000000000E+00  0.00000000000E+00  0.37716978474E+03  0.37716978474E+03  0.00000000000E+00 0. -1.
          1   -1    0    0  501    0 -0.00000000000E+00 -0.00000000000E+00 -0.13525219449E+04  0.13525219449E+04  0.00000000000E+00 0. -1.
         25    2    1    2    0    0  0.32372591129E+02  0.64911974471E+02 -0.38869665002E+03  0.41469393731E+03  0.12499770724E+03 0.  0.
          2    1    1    2  501    0 -0.31256896531E+02 -0.13137585260E+02 -0.94868121940E+03  0.94928691436E+03  0.00000000000E+00 0. -1.
          1    1    1    2  502    0 -0.11156945979E+01 -0.51774389211E+02  0.36202570923E+03  0.36571087801E+03  0.00000000000E+00 0. -1.
         22    1    3    3    0    0 -0.20736864617E+02 -0.26483822628E+02 -0.53227929922E+02  0.62965251837E+02  0.00000000000E+00 0. -1.
         22    1    3    3    0    0  0.53109455746E+02  0.91395797099E+02 -0.33546872010E+03  0.35172868547E+03  0.00000000000E+00 0. -1.
</event>
<event>
 7    1  0.5575489E-006  0.3430267E+02  0.7818608E-02  0.1561948E+00
          2   -1    0    0  502    0  0.00000000000E+00  0.00000000000E+00  0.11513495314E+04  0.11513495314E+04  0.00000000000E+00 0. -1.
          1   -1    0    0  501    0 -0.00000000000E+00 -0.00000000000E+00 -0.45841158169E+03  0.45841158169E+03  0.00000000000E+00 0. -1.
         25    2    1    2    0    0 -0.30482199944E+01 -0.20558784238E+02  0.65109318132E+03  0.66330913752E+03  0.12499890359E+03 0.  0.
          2    1    1    2  501    0 -0.31608013443E+02  0.13326912204E+02 -0.45101737629E+03  0.45231996067E+03  0.00000000000E+00 0. -1.
          1    1    1    2  502    0  0.34656233437E+02  0.72318720347E+01  0.49286214470E+03  0.49413201492E+03  0.00000000000E+00 0. -1.
         22    1    3    3    0    0 -0.41364937077E+02 -0.58621650195E+02  0.33043250689E+03  0.33813192322E+03  0.00000000000E+00 0.  1.
         22    1    3    3    0    0  0.38316717082E+02  0.38062865956E+02  0.32066067444E+03  0.32517721430E+03  0.00000000000E+00 0.  1.
</event>
<event>
 7    1  0.5575489E-006  0.1161264E+03  0.7818608E-02  0.1273305E+00
          2   -1    0    0  502    0  0.00000000000E+00  0.00000000000E+00  0.24323482981E+03  0.24323482981E+03  0.00000000000E+00 0. -1.
          1   -1    0    0  501    0 -0.00000000000E+00 -0.00000000000E+00 -0.48465458287E+03  0.48465458287E+03  0.00000000000E+00 0. -1.
         25    2    1    2    0    0 -0.80783592560E+01 -0.85549263764E+02  0.64305457185E+01  0.15182226141E+03  0.12499884289E+03 0.  0.
          2    1    1    2  501    0  0.99237568194E+02  0.72646959913E+02 -0.38875779187E+03  0.40774783441E+03  0.00000000000E+00 0. -1.
          1    1    1    2  502    0 -0.91159208938E+02  0.12902303851E+02  0.14090749309E+03  0.16831931686E+03  0.00000000000E+00 0. -1.
         22    1    3    3    0    0  0.48304362049E+02 -0.18478416259E+02  0.31662100745E+02  0.60640348647E+02  0.00000000000E+00 0. -1.
         22    1    3    3    0    0 -0.56382721305E+02 -0.67070847505E+02 -0.25231555027E+02  0.91181912767E+02  0.00000000000E+00 0. -1.
</event>
<event>
 7    1  0.5575489E-006  0.7074863E+02  0.7818608E-02  0.1386992E+00
          2   -1    0    0  502    0  0.00000000000E+00  0.00000000000E+00  0.35223571807E+03  0.35223571807E+03  0.00000000000E+00 0. -1.
          1   -1    0    0  501    0 -0.00000000000E+00 -0.00000000000E+00 -0.12951292990E+04  0.12951292990E+04  0.00000000000E+00 0. -1.
         25    2    1    2    0    0  0.65589206394E+02  0.94737523673E+02 -0.29175558048E+03  0.33767347908E+03  0.12499966940E+03 0.  0.
          2    1    1    2  501    0 -0.48778019772E+02 -0.26471423658E+02 -0.97586451880E+03  0.97744134890E+03  0.00000000000E+00 0. -1.
          1    1    1    2  502    0 -0.16811186621E+02 -0.68266100016E+02  0.32472651837E+03  0.33225018907E+03  0.00000000000E+00 0. -1.
         22    1    3    3    0    0  0.19558666305E+02 -0.29641248787E+02 -0.42966752052E+02  0.55743042967E+02  0.00000000000E+00 0.  1.
         22    1    3    3    0    0  0.46030540088E+02  0.12437877246E+03 -0.24878882843E+03  0.28193043612E+03  0.00000000000E+00 0.  1.
</event>
<event>
 7    1  0.5575489E-006  0.5550371E+02  0.7818608E-02  0.1452208E+00
          2   -1    0    0  502    0  0.00000000000E+00  0.00000000000E+00  0.44367033425E+03  0.44367033425E+03  0.00000000000E+00 0. -1.
          1   -1    0    0  501    0 -0.00000000000E+00 -0.00000000000E+00 -0.11742145816E+04  0.11742145816E+04  0.00000000000E+00 0. -1.
         25    2    1    2    0    0 -0.14905168384E+02  0.35020733477E+02 -0.16357942484E+03  0.20936125801E+03  0.12500116923E+03 0.  0.
          2    1    1    2  501    0 -0.38485994704E+02 -0.18763532530E+02 -0.98542664381E+03  0.98635638198E+03  0.00000000000E+00 0. -1.
          1    1    1    2  502    0  0.53391163088E+02 -0.16257200947E+02  0.41846182132E+03  0.42216727583E+03  0.00000000000E+00 0. -1.
         22    1    3    3    0    0 -0.12564413834E+01  0.46425254882E+02 -0.16642017351E+01  0.46472061534E+02  0.00000000000E+00 0. -1.
         22    1    3    3    0    0 -0.13648727000E+02 -0.11404521406E+02 -0.16191522310E+03  0.16288919648E+03  0.00000000000E+00 0. -1.
</event>
<event>
 7    1  0.5575489E-006  0.7756829E+02  0.7818608E-02  0.1362627E+00
          2   -1    0    0  502    0  0.00000000000E+00  0.00000000000E+00  0.54803209485E+02  0.54803209485E+02  0.00000000000E+00 0. -1.
          1   -1    0    0  501    0 -0.00000000000E+00 -0.00000000000E+00 -0.64610284578E+03  0.64610284578E+03  0.00000000000E+00 0. -1.
         25    2    1    2    0    0 -0.24354011543E+02 -0.24872151428E+02 -0.39798673227E+03  0.41860511509E+03  0.12500024608E+03 0.  0.
          2    1    1    2  501    0  0.21122361966E+02 -0.58122902183E+02 -0.18930071499E+03  0.19914614390E+03  0.00000000000E+00 0. -1.
          1    1    1    2  502    0  0.32316495768E+01  0.82995053611E+02 -0.40121890311E+01  0.83154796276E+02  0.00000000000E+00 0. -1.
         22    1    3    3    0    0 -0.45161980677E+02  0.37155918860E+02 -0.25087045571E+03  0.25759687955E+03  0.00000000000E+00 0.  1.
         22    1    3    3    0    0  0.20807969134E+02 -0.62028070288E+02 -0.14711627656E+03  0.16100823554E+03  0.00000000000E+00 0.  1.
</event>
<event>
 7    1  0.5575489E-006  0.9751054E+02  0.7818608E-02  0.1427305E+00
          2   -1    0    0  502    0  0.00000000000E+00  0.00000000000E+00  0.55528584522E+03  0.55528584522E+03  0.00000000000E+00 0. -1.
          1   -1    0    0  501    0 -0.00000000000E+00 -0.00000000000E+00 -0.54084465550E+03  0.54084465550E+03  0.00000000000E+00 0. -1.
         25    2    1    2    0    0 -0.94088350444E+02 -0.59674361219E+02  0.14719560297E+03  0.22294912913E+03  0.12500448620E+03 0.  0.
          2    1    1    2  501    0  0.92378185029E+02  0.30365754775E+02 -0.49767283608E+03  0.50708387857E+03  0.00000000000E+00 0. -1.
          1    1    1    2  502    0  0.17101654154E+01  0.29308606444E+02  0.36491842283E+03  0.36609749302E+03  0.00000000000E+00 0. -1.
         22    1    3    3    0    0  0.25774245219E+02  0.54556417768E+01  0.46320315558E+02  0.53288341851E+02  0.00000000000E+00 0.  1.
         22    1    3    3    0    0 -0.11986259566E+03 -0.65130002996E+02  0.10087528741E+03  0.16966078728E+03  0.00000000000E+00 0.  1.
</event>
<event>
 7    1  0.5575489E-006  0.8735385E+02  0.7818608E-02  0.1489114E+00
          2   -1    0    0  502    0  0.00000000000E+00  0.00000000000E+00  0.41189996752E+04  0.41189996752E+04  0.00000000000E+00 0. -1.
          1   -1    0    0  501    0 -0.00000000000E+00 -0.00000000000E+00 -0.79453080562E+01  0.79453080562E+01  0.00000000000E+00 0. -1.
         25    2    1    2    0    0 -0.82778587133E+02  0.64858745681E+02  0.12888636303E+04  0.12991758009E+04  0.12501740900E+03 0.  0.
          2    1    1    2  501    0  0.12635658273E+02 -0.16634928976E+02  0.48933226095E+02  0.53205651374E+02  0.00000000000E+00 0. -1.
          1    1    1    2  502    0  0.70142928860E+02 -0.48223816705E+02  0.27732575107E+04  0.27745635310E+04  0.00000000000E+00 0. -1.
         22    1    3    3    0    0 -0.99420841621E+02  0.40569595746E+02  0.12138554623E+04  0.12185956996E+04  0.00000000000E+00 0. -1.
         22    1    3    3    0    0  0.16642254487E+02  0.24289149935E+02  0.75008168063E+02  0.80580101235E+02  0.00000000000E+00 0. -1.
</event>
<event>
 7    1  0.5575489E-006  0.1063879E+03  0.7818608E-02  0.1332834E+00
          2   -1    0    0  502    0  0.00000000000E+00  0.00000000000E+00  0.23191861544E+04  0.23191861544E+04  0.00000000000E+00 0. -1.
          1   -1    0    0  501    0 -0.00000000000E+00 -0.00000000000E+00 -0.13328308974E+03  0.13328308974E+03  0.00000000000E+00 0. -1.
         25    2    1    2    0    0  0.30859521224E+02  0.75686709618E+02  0.63028115098E+03  0.64773466531E+03  0.12500031722E+03 0.  0.
          2    1    1    2  501    0 -0.44639760216E+02  0.37329735652E+02 -0.11571571297E+03  0.12952352522E+03  0.00000000000E+00 0. -1.
          1    1    1    2  502    0  0.13780238992E+02 -0.11301644527E+03  0.16713376266E+04  0.16752110536E+04  0.00000000000E+00 0. -1.
         22    1    3    3    0    0  0.52433977893E+02  0.10034586659E+03  0.53869147455E+03  0.55046082488E+03  0.00000000000E+00 0.  1.
         22    1    3    3    0    0 -0.21574456668E+02 -0.24659156974E+02  0.91589676431E+02  0.97273840429E+02  0.00000000000E+00 0.  1.
</event>
<event>
 7    1  0.5575489E-006  0.6100932E+02  0.7818608E-02  0.1541928E+00
          2   -1    0    0  502    0  0.00000000000E+00  0.00000000000E+00  0.44365462798E+02  0.44365462798E+02  0.00000000000E+00 0. -1.
          1   -1    0    0  501    0 -0.00000000000E+00 -0.00000000000E+00 -0.75945189774E+03  0.75945189774E+03  0.00000000000E+00 0. -1.
         25    2    1    2    0    0 -0.27570416890E+02  0.63343188622E+02 -0.45904721501E+03  0.48075163802E+03  0.12500121766E+03 0.  0.
          2    1    1    2  501    0  0.70792104992E+01 -0.58916654272E+02 -0.28286373406E+03  0.28902107089E+03  0.00000000000E+00 0. -1.
          1    1    1    2  502    0  0.20491206391E+02 -0.44265343500E+01  0.26824514133E+02  0.34044651624E+02  0.00000000000E+00 0. -1.
         22    1    3    3    0    0  0.38775554429E+02  0.55460108950E+01 -0.26251418628E+03  0.26542042094E+03  0.00000000000E+00 0. -1.
         22    1    3    3    0    0 -0.66345971319E+02  0.57797177727E+02 -0.19653302874E+03  0.21533121708E+03  0.00000000000E+00 0. -1.
</event>
<event>
 7    1  0.5575489E-006  0.1155621E+03  0.7818608E-02  0.1329465E+00
          2   -1    0    0  502    0  0.00000000000E+00  0.00000000000E+00  0.17499622334E+04  0.17499622334E+04  0.00000000000E+00 0. -1.
          1   -1    0    0  501    0 -0.00000000000E+00 -0.00000000000E+00 -0.22763350782E+03  0.22763350782E+03  0.00000000000E+00 0. -1.
         25    2    1    2    0    0 -0.79461757020E+02  0.40219403288E+02  0.70821731554E+03  0.72465749946E+03  0.12499981708E+03 0.  0.
          2    1    1    2  501    0  0.11634186873E+03  0.82560911106E+00 -0.20318989633E+03  0.23414150854E+03  0.00000000000E+00 0. -1.
          1    1    1    2  502    0 -0.36880111706E+02 -0.41045012399E+02  0.10173013064E+04  0.10187967332E+04  0.00000000000E+00 0. -1.
         22    1    3    3    0    0 -0.68443868505E+02  0.31083165075E+02  0.70621568005E+03  0.71020512040E+03  0.00000000000E+00 0. -1.
         22    1    3    3    0    0 -0.11017888516E+02  0.91362382135E+01  0.20016354862E+01  0.14452379066E+02  0.00000000000E+00 0. -1.
</event>
<event>
 7    1  0.5575489E-006  0.1467319E+03  0.7818608E-02  0.1275765E+00
          2   -1    0    0  502    0  0.00000000000E+00  0.00000000000E+00  0.10427443577E+04  0.10427443577E+04  0.00000000000E+00 0. -1.
          1   -1    0    0  501    0 -0.00000000000E+00 -0.00000000000E+00 -0.14941108396E+03  0.14941108396E+03  0.00000000000E+00 0. -1.
         25    2    1    2    0    0 -0.51662527485E+02  0.95461029320E+02  0.63559729219E+02  0.17733238173E+03  0.12500043826E+03 0.  0.
          2    1    1    2  501    0  0.50855105584E+02 -0.16662023870E+03 -0.76548053175E+01  0.17437643692E+03  0.00000000000E+00 0. -1.
          1    1    1    2  502    0  0.80742190111E+00  0.71159209379E+02  0.83742834989E+03  0.84044662305E+03  0.00000000000E+00 0. -1.
         22    1    3    3    0    0 -0.39795909939E+02  0.11818131480E+03  0.19300662835E+02  0.12618658091E+03  0.00000000000E+00 0.  1.
         22    1    3    3    0    0 -0.11866617546E+02 -0.22720285477E+02  0.44259066384E+02  0.51145800819E+02  0.00000000000E+00 0.  1.
</event>
<event>
 7    1  0.5575489E-006  0.7319596E+02  0.7818608E-02  0.1388462E+00
          2   -1    0    0  502    0  0.00000000000E+00  0.00000000000E+00  0.12850861362E+04  0.12850861362E+04  0.00000000000E+00 0. -1.
          1   -1    0    0  501    0 -0.00000000000E+00 -0.00000000000E+00 -0.12984711320E+04  0.12984711320E+04  0.00000000000E+00 0. -1.
         25    2    1    2    0    0  0.61656491296E+02 -0.82877402901E+02 -0.50740106608E+02  0.16990693988E+03  0.12499449176E+03 0.  0.
          2    1    1    2  501    0  0.48804078368E+01  0.52785345040E+02 -0.11864674033E+04  0.11876510473E+04  0.00000000000E+00 0. -1.
          1    1    1    2  502    0 -0.66536899133E+02  0.30092057861E+02  0.12238225141E+04  0.12259992810E+04  0.00000000000E+00 0. -1.
         22    1    3    3    0    0 -0.23708463557E+02 -0.30362199675E+02 -0.57770070695E+02  0.69435837155E+02  0.00000000000E+00 0. -1.
         22    1    3    3    0    0  0.85364954854E+02 -0.52515203226E+02  0.70299640870E+01  0.10047110272E+03  0.00000000000E+00 0. -1.
</event>
<event>
 7    1  0.5575489E-006  0.4817624E+02  0.7818608E-02  0.1460279E+00
          2   -1    0    0  502    0  0.00000000000E+00  0.00000000000E+00  0.99605226236E+03  0.99605226236E+03  0.00000000000E+00 0. -1.
          1   -1    0    0  501    0 -0.00000000000E+00 -0.00000000000E+00 -0.12700776872E+03  0.12700776872E+03  0.00000000000E+00 0. -1.
         25    2    1    2    0    0  0.19919318138E+02 -0.11379478397E+02  0.80060228580E+02  0.15020259254E+03  0.12499962737E+03 0.  0.
          2    1    1    2  501    0  0.56630978155E+01  0.50216291177E+02 -0.84326535240E+02  0.98309262646E+02  0.00000000000E+00 0. -1.
          1    1    1    2  502    0 -0.25582415953E+02 -0.38836812780E+02  0.87331080030E+03  0.87454817589E+03  0.00000000000E+00 0. -1.
         22    1    3    3    0    0 -0.10117571747E+02  0.17446775158E+02  0.10142391636E+03  0.10340969989E+03  0.00000000000E+00 0.  1.
         22    1    3    3    0    0  0.30036889885E+02 -0.28826253555E+02 -0.21363687776E+02  0.46792892658E+02  0.00000000000E+00 0.  1.
</event>
<event>
 7    1  0.5575489E-006  0.1473430E+03  0.7818608E-02  0.1238954E+00
          2   -1    0    0  502    0  0.00000000000E+00  0.00000000000E+00  0.21705947953E+04  0.21705947953E+04  0.00000000000E+00 0. -1.
          1   -1    0    0  501    0 -0.00000000000E+00 -0.00000000000E+00 -0.32098186229E+03  0.32098186229E+03  0.00000000000E+00 0. -1.
         25    2    1    2    0    0 -0.20346260275E+03 -0.92923622367E+02  0.41857668731E+03  0.49077805766E+03  0.12499931364E+03 0.  0.
          2    1    1    2  501    0  0.10173329531E+03 -0.62152139536E+01 -0.27271366619E+03  0.29113748640E+03  0.00000000000E+00 0. -1.
          1    1    1    2  502    0  0.10172930744E+03  0.99138836321E+02  0.17037499119E+04  0.17096611135E+04  0.00000000000E+00 0. -1.
         22    1    3    3    0    0 -0.18037041778E+03 -0.36731161034E+02  0.36900367546E+03  0.41236680068E+03  0.00000000000E+00 0. -1.
         22    1    3    3    0    0 -0.23092184969E+02 -0.56192461333E+02  0.49573011849E+02  0.78411256979E+02  0.00000000000E+00 0. -1.
</event>
<event>
 7    1  0.5575489E-006  0.1054501E+03  0.7818608E-02  0.1295098E+00
          2   -1    0    0  502    0  0.00000000000E+00  0.00000000000E+00  0.15279644998E+04  0.15279644998E+04  0.00000000000E+00 0. -1.
          1   -1    0    0  501    0 -0.00000000000E+00 -0.00000000000E+00 -0.27765019562E+03  0.27765019562E+03  0.00000000000E+00 0. -1.
         25    2    1    2    0    0  0.96911320066E+02  0.14979663615E+03  0.42417546405E+03  0.47684313740E+03  0.12499486879E+03 0.  0.
          2    1    1    2  501    0 -0.29224766645E+02 -0.77165367292E+02 -0.24217918728E+03  0.25585022893E+03  0.00000000000E+00 0. -1.
          1    1    1    2  502    0 -0.67686553421E+02 -0.72631268858E+02  0.10683180274E+04  0.10729213291E+04  0.00000000000E+00 0. -1.
         22    1    3    3    0    0  0.52197914776E+02  0.29545870474E+02  0.40723784414E+02  0.72498326781E+02  0.00000000000E+00 0.  1.
         22    1    3    3    0    0  0.44713405290E+02  0.12025076568E+03  0.38345167964E+03  0.40434481062E+03  0.00000000000E+00 0.  1.
</event>
<event>
 7    1  0.5575489E-006  0.1851114E+03  0.7818608E-02  0.1277630E+00
          2   -1    0    0  502    0  0.00000000000E+00  0.00000000000E+00  0.44847519512E+03  0.44847519512E+03  0.00000000000E+00 0. -1.
          1   -1    0    0  501    0 -0.00000000000E+00 -0.00000000000E+00 -0.14605618549E+04  0.14605618549E+04  0.00000000000E+00 0. -1.
         25    2    1    2    0    0  0.15532343070E+03 -0.26857065534E+02 -0.55734211067E+03  0.59253774293E+03  0.12499631343E+03 0.  0.
          2    1    1    2  501    0  0.29903712637E+02  0.46649841096E+02 -0.86455961458E+03  0.86633351941E+03  0.00000000000E+00 0. -1.
          1    1    1    2  502    0 -0.18522714334E+03 -0.19792775562E+02  0.40981506542E+03  0.45016578773E+03  0.00000000000E+00 0. -1.
         22    1    3    3    0    0  0.16431445278E+03  0.78498147998E+01 -0.43562213723E+03  0.46564740463E+03  0.00000000000E+00 0. -1.
         22    1    3    3    0    0 -0.89910220820E+01 -0.34706880334E+02 -0.12171997344E+03  0.12689033830E+03  0.00000000000E+00 0. -1.
</event>
<event>
 7    1  0.5575489E-006  0.1352127E+03  0.7818608E-02  0.1383217E+00
          2   -1    0    0  502    0  0.00000000000E+00  0.00000000000E+00  0.21559633402E+04  0.21559633402E+04  0.00000000000E+00 0. -1.
          1   -1    0    0  501    0 -0.00000000000E+00 -0.00000000000E+00 -0.28575903167E+03  0.28575903167E+03  0.00000000000E+00 0. -1.
         25    2    1    2    0    0 -0.98047484274E+02  0.43447130739E+02  0.59229120844E+01  0.16480662892E+03  0.12500072683E+03 0.  0.
          2    1    1    2  501    0 -0.22215504985E+02  0.20071138567E+02 -0.20298454605E+03  0.20518066478E+03  0.00000000000E+00 0. -1.
          1    1    1    2  502    0  0.12026298926E+03 -0.63518269306E+02  0.20672659425E+04  0.20717350782E+04  0.00000000000E+00 0. -1.
         22    1    3    3    0    0 -0.37305218696E+02  0.83746020498E+02  0.92732451548E-01  0.91679244601E+02  0.00000000000E+00 0. -1.
         22    1    3    3    0    0 -0.60742265578E+02 -0.40298889759E+02  0.58301796328E+01  0.73127384323E+02  0.00000000000E+00 0. -1.
</event>
<event>
 7    1  0.5575489E-006  0.5267964E+02  0.7818608E-02  0.1478815E+00
          2   -1    0    0  502    0  0.00000000000E+00  0.00000000000E+00  0.25470568569E+04  0.25470568569E+04  0.00000000000E+00 0. -1.
          1   -1    0    0  501    0 -0.00000000000E+00 -0.00000000000E+00 -0.57583397214E+03  0.57583397214E+03  0.00000000000E+00 0. -1.
         25    2    1    2    0    0 -0.22280055318E+02 -0.26693303971E+02 -0.15336180492E+03  0.20088355596E+03  0.12500170601E+03 0.  0.
          2    1    1    2  501    0 -0.22209849453E+01  0.54736454472E+02 -0.39669145332E+03  0.40045614162E+03  0.00000000000E+00 0. -1.
          1    1    1    2  502    0  0.24501040263E+02 -0.28043150501E+02  0.25212761430E+04  0.25215511315E+04  0.00000000000E+00 0. -1.
         22    1    3    3    0    0  0.27351399174E+02  0.37462241576E+02 -0.74459273913E+02  0.87725150626E+02  0.00000000000E+00 0. -1.
         22    1    3    3    0    0 -0.49631454492E+02 -0.64155545547E+02 -0.78902531008E+02  0.11315840534E+03  0.00000000000E+00 0. -1.
</event>
<event>
 7    1  0.5575489E-006  0.1378884E+03  0.7818608E-02  0.1339238E+00
          2   -1    0    0  502    0  0.00000000000E+00  0.00000000000E+00  0.69070228022E+03  0.69070228022E+03  0.00000000000E+00 0. -1.
          1   -1    0    0  501    0 -0.00000000000E+00 -0.00000000000E+00 -0.20818600105E+04  0.20818600105E+04  0.00000000000E+00 0. -1.
         25    2    1    2    0    0 -0.10148782896E+03 -0.67286109027E+02 -0.41226760097E+02  0.17930922231E+03  0.12499980625E+03 0.  0.
          2    1    1    2  501    0  0.87646742760E+02  0.10742714911E+03 -0.19684258000E+04  0.19733024791E+04  0.00000000000E+00 0. -1.
          1    1    1    2  502    0  0.13841086196E+02 -0.40141040084E+02  0.61849482979E+03  0.61995058935E+03  0.00000000000E+00 0. -1.
         22    1    3    3    0    0  0.11818002751E+02  0.21918857885E+02 -0.23101483644E+02  0.33967338232E+02  0.00000000000E+00 0. -1.
         22    1    3    3    0    0 -0.11330583171E+03 -0.89204966912E+02 -0.18125276453E+02  0.14534188408E+03  0.00000000000E+00 0. -1.
</event>
<event>
 7    1  0.5575489E-006  0.1420422E+03  0.7818608E-02  0.1239708E+00
          2   -1    0    0  502    0  0.00000000000E+00  0.00000000000E+00  0.26096335784E+04  0.26096335784E+04  0.00000000000E+00 0. -1.
          1   -1    0    0  501    0 -0.00000000000E+00 -0.00000000000E+00 -0.18706212080E+03  0.18706212080E+03  0.00000000000E+00 0. -1.
         25    2    1    2    0    0 -0.87772781911E+02 -0.38677020241E+02  0.14950970428E+03  0.21720296663E+03  0.12499601554E+03 0.  0.
          2    1    1    2  501    0  0.14994085123E+03 -0.45841292261E+02 -0.11164480292E+03  0.19247920657E+03  0.00000000000E+00 0. -1.
          1    1    1    2  502    0 -0.62168069317E+02  0.84518312502E+02  0.23847065562E+04  0.23870135260E+04  0.00000000000E+00 0. -1.
         22    1    3    3    0    0 -0.31363322284E+02 -0.78050639152E+02  0.10787172943E+03  0.13679133842E+03  0.00000000000E+00 0. -1.
         22    1    3    3    0    0 -0.56409459627E+02  0.39373618910E+02  0.41637974849E+02  0.80411628208E+02  0.00000000000E+00 0. -1.
</event>
<event>
 7    1  0.5575489E-006  0.8582142E+02  0.7818608E-02  0.1418263E+00
          2   -1    0    0  502    0  0.00000000000E+00  0.00000000000E+00  0.12793939185E+04  0.12793939185E+04  0.00000000000E+00 0. -1.
          1   -1    0    0  501    0 -0.00000000000E+00 -0.00000000000E+00 -0.44148147171E+02  0.44148147171E+02  0.00000000000E+00 0. -1.
         25    2    1    2    0    0  0.47221537430E+02  0.93263446586E+02  0.69047259384E+03  0.70943622592E+03  0.12497764495E+03 0.  0.
          2    1    1    2  501    0  0.88312832496E+01 -0.34641416239E+02 -0.21723625089E+02  0.41832226451E+02  0.00000000000E+00 0. -1.
          1    1    1    2  502    0 -0.56052820680E+02 -0.58622030347E+02  0.56649680257E+03  0.57227361329E+03  0.00000000000E+00 0. -1.
         22    1    3    3    0    0  0.69827052695E+02  0.63453951948E+01  0.23691462005E+03  0.24707209175E+03  0.00000000000E+00 0. -1.
         22    1    3    3    0    0 -0.22605515265E+02  0.86918051391E+02  0.45355797379E+03  0.46236413417E+03  0.00000000000E+00 0. -1.
</event>
<event>
 7    1  0.5575489E-006  0.1702580E+03  0.7818608E-02  0.1227538E+00
          2   -1    0    0  502    0  0.00000000000E+00  0.00000000000E+00  0.84413094274E+03  0.84413094274E+03  0.00000000000E+00 0. -1.
          1   -1    0    0  501    0 -0.00000000000E+00 -0.00000000000E+00 -0.54618311601E+03  0.54618311601E+03  0.00000000000E+00 0. -1.
         25    2    1    2    0    0 -0.82741487709E+02 -0.18912653983E+02  0.64166818152E+01  0.15122853549E+03  0.12500021548E+03 0.  0.
          2    1    1    2  501    0 -0.99054045925E+02 -0.49301995070E+01 -0.45740426649E+03  0.46803277010E+03  0.00000000000E+00 0. -1.
          1    1    1    2  502    0  0.18179553363E+03  0.23842853490E+02  0.74893541140E+03  0.77105275317E+03  0.00000000000E+00 0. -1.
         22    1    3    3    0    0 -0.76210919156E+02 -0.29161261310E+02 -0.48539286390E+02  0.94944961336E+02  0.00000000000E+00 0. -1.
         22    1    3    3    0    0 -0.65305685526E+01  0.10248607327E+02  0.54955968206E+02  0.56283574151E+02  0.00000000000E+00 0. -1.
</event>
<event>
 7    1  0.5575489E-006  0.2628343E+03  0.7818608E-02  0.1234560E+00
          2   -1    0    0  502    0  0.00000000000E+00  0.00000000000E+00  0.11153776819E+04  0.11153776819E+04  0.00000000000E+00 0. -1.
          1   -1    0    0  501    0 -0.00000000000E+00 -0.00000000000E+00 -0.12407197912E+04  0.12407197912E+04  0.00000000000E+00 0. -1.
         25    2    1    2    0    0  0.31472784446E+03  0.56542185750E+02  0.20649624446E+03  0.40064533932E+03  0.12500141639E+03 0.  0.
          2    1    1    2  501    0 -0.25555550616E+03 -0.48190321069E+02 -0.11277265157E+04  0.11573236444E+04  0.00000000000E+00 0. -1.
          1    1    1    2  502    0 -0.59172338302E+02 -0.83518646814E+01  0.79588816188E+03  0.79812848934E+03  0.00000000000E+00 0. -1.
         22    1    3    3    0    0  0.51090564952E+02  0.13271881597E+02 -0.13584215988E+02  0.54506142702E+02  0.00000000000E+00 0.  1.
         22    1    3    3    0    0  0.26363727951E+03  0.43270304153E+02  0.22008046044E+03  0.34613919662E+03  0.00000000000E+00 0.  1.
</event>
<event>
 7    1  0.5575489E-006  0.1241504E+03  0.7818608E-02  0.1386967E+00
          2   -1    0    0  502    0  0.00000000000E+00  0.00000000000E+00  0.41481312460E+02  0.41481312460E+02  0.00000000000E+00 0. -1.
          1   -1    0    0  501    0 -0.00000000000E+00 -0.00000000000E+00 -0.31236392947E+04  0.31236392947E+04  0.00000000000E+00 0. -1.
         25    2    1    2    0    0 -0.90256175788E+02  0.12320752774E+03 -0.26843316614E+04  0.26915769728E+04  0.12499544038E+03 0.  0.
          2    1    1    2  501    0  0.97717529224E+01 -0.30085421962E+02 -0.33287413052E+03  0.33437375277E+03  0.00000000000E+00 0. -1.
          1    1    1    2  502    0  0.80484422865E+02 -0.93122105774E+02 -0.64952190325E+02  0.13916988157E+03  0.00000000000E+00 0. -1.
         22    1    3    3    0    0  0.77408572533E+01  0.14909210453E+02 -0.11913102027E+04  0.11914286401E+04  0.00000000000E+00 0.  1.
         22    1    3    3    0    0 -0.97997033041E+02  0.10829831728E+03 -0.14930214587E+04  0.15001483327E+04  0.00000000000E+00 0.  1.
</event>
<event>
 7    1  0.5575489E-006  0.1903543E+03  0.7818608E-02  0.1225437E+00
          2   -1    0    0  502    0  0.00000000000E+00  0.00000000000E+00  0.11868378250E+04  0.11868378250E+04  0.00000000000E+00 0. -1.
          1   -1    0    0  501    0 -0.00000000000E+00 -0.00000000000E+00 -0.21170907635E+03  0.21170907635E+03  0.00000000000E+00 0. -1.
         25    2    1    2    0    0 -0.25069988242E+02  0.14406231800E+03 -0.25096270285E+02  0.19400424631E+03  0.12500147610E+03 0.  0.
          2    1    1    2  501    0 -0.89623382122E+02  0.13687215721E+02 -0.71344831415E+02  0.11536800019E+03  0.00000000000E+00 0. -1.
          1    1    1    2  502    0  0.11469337036E+03 -0.15774953372E+03  0.10715698503E+04  0.10891746548E+04  0.00000000000E+00 0. -1.
         22    1    3    3    0    0 -0.23670614196E+02 -0.17640119375E+02  0.37004833256E+01  0.29751728770E+02  0.00000000000E+00 0.  1.
         22    1    3    3    0    0 -0.13993740459E+01  0.16170243737E+03 -0.28796753610E+02  0.16425251754E+03  0.00000000000E+00 0.  1.
</event>
<event>
 7    1  0.5575489E-006  0.5527985E+02  0.7818608E-02  0.1508525E+00
          2   -1    0    0  502    0  0.00000000000E+00  0.00000000000E+00  0.95573038065E+03  0.95573038065E+03  0.00000000000E+00 0. -1.
          1   -1    0    0  501    0 -0.00000000000E+00 -0.00000000000E+00 -0.19748809279E+04  0.19748809279E+04  0.00000000000E+00 0. -1.
         25    2    1    2    0    0 -0.67945943349E+01 -0.60515280570E+02 -0.46600523059E+02  0.14664110084E+03  0.12499495195E+03 0.  0.
          2    1    1    2  501    0  0.27379005252E+02  0.91960038997E+01 -0.18773050125E+04  0.18775271732E+04  0.00000000000E+00 0. -1.
          1    1    1    2  502    0 -0.20584410917E+02  0.51319276670E+02  0.90475498822E+03  0.90644303453E+03  0.00000000000E+00 0. -1.
         22    1    3    3    0    0  0.56875618665E+02 -0.10411065245E+02 -0.15557416531E+02  0.59877036392E+02  0.00000000000E+00 0. -1.
         22    1    3    3    0    0 -0.63670212999E+02 -0.50104215324E+02 -0.31043106529E+02  0.86764064448E+02  0.00000000000E+00 0. -1.
</event>
<event>
 7    1  0.5575489E-006  0.3807471E+03  0.7818608E-02  0.1221205E+00
          2   -1    0    0  502    0  0.00000000000E+00  0.00000000000E+00  0.17243118442E+03  0.17243118442E+03  0.00000000000E+00 0. -1.
          1   -1    0    0  501    0 -0.00000000000E+00 -0.00000000000E+00 -0.17513329290E+04  0.17513329290E+04  0.00000000000E+00 0. -1.
         25    2    1    2    0    0 -0.50102704366E+02 -0.35330135904E+03 -0.46498724735E+03  0.59930790192E+03  0.12499875927E+03 0.  0.
          2    1    1    2  501    0 -0.30079239130E+02 -0.36599945089E+02 -0.83981993538E+03  0.84115506327E+03  0.00000000000E+00 0. -1.
          1    1    1    2  502    0  0.80181943496E+02  0.38990130413E+03 -0.27409456183E+03  0.48330114820E+03  0.00000000000E+00 0. -1.
         22    1    3    3    0    0 -0.47597001949E+02 -0.88518731656E+02 -0.20451378095E+03  0.22787480565E+03  0.00000000000E+00 0. -1.
         22    1    3    3    0    0 -0.25057024164E+01 -0.26478262739E+03 -0.26047346639E+03  0.37143309627E+03  0.00000000000E+00 0. -1.
</event>
<event>
 7    1  0.5575489E-006  0.5245264E+02  0.7818608E-02  0.1493502E+00
          2   -1    0    0  502    0  0.00000000000E+00  0.00000000000E+00  0.11408763346E+04  0.11408763346E+04  0.00000000000E+00 0. -1.
          1   -1    0    0  501    0 -0.00000000000E+00 -0.00000000000E+00 -0.84583239666E+03  0.84583239666E+03  0.00000000000E+00 0. -1.
         25    2    1    2    0    0 -0.55147215969E+02  0.58886149632E+02 -0.47339537723E+03  0.49622179335E+03  0.12499636381E+03 0.  0.
          2    1    1    2  501    0  0.38539464849E+02 -0.29511835773E+02 -0.35913863089E+03  0.36240418734E+03  0.00000000000E+00 0. -1.
          1    1    1    2  502    0  0.16607751120E+02 -0.29374313859E+02  0.11275779460E+04  0.11280827505E+04  0.00000000000E+00 0. -1.
         22    1    3    3    0    0  0.22645233661E+02  0.17341353242E+02 -0.30315975784E+03  0.30449855158E+03  0.00000000000E+00 0.  1.
         22    1    3    3    0    0 -0.77792449630E+02  0.41544796390E+02 -0.17023561939E+03  0.19172324177E+03  0.00000000000E+00 0.  1.
</event>
<event>
 7    1  0.5575489E-006  0.4794102E+02  0.7818608E-02  0.1554703E+00
          2   -1    0    0  502    0  0.00000000000E+00  0.00000000000E+00  0.43397964497E+02  0.43397964497E+02  0.00000000000E+00 0. -1.
          1   -1    0    0  501    0 -0.00000000000E+00 -0.00000000000E+00 -0.10773087444E+04  0.10773087444E+04  0.00000000000E+00 0. -1.
         25    2    1    2    0    0  0.30396260513E+02 -0.23229531186E+02 -0.44676030548E+03  0.46549156345E+03  0.12499632523E+03 0.  0.
          2    1    1    2  501    0  0.17708170659E+02  0.17035743122E+02 -0.60352429529E+03  0.60402431313E+03  0.00000000000E+00 0. -1.
          1    1    1    2  502    0 -0.48104431172E+02  0.61937880632E+01  0.16373820820E+02  0.51190832355E+02  0.00000000000E+00 0. -1.
         22    1    3    3    0    0  0.89364529252E+01  0.49024954221E+02 -0.24716460604E+03  0.25213815420E+03  0.00000000000E+00 0.  1.
         22    1    3    3    0    0  0.21459807588E+02 -0.72254485406E+02 -0.19959569944E+03  0.21335340925E+03  0.00000000000E+00 0.  1.
</event>
<event>
 7    1  0.5575489E-006  0.1204705E+03  0.7818608E-02  0.1327633E+00
          2   -1    0    0  502    0  0.00000000000E+00  0.00000000000E+00  0.63251224228E+03  0.63251224228E+03  0.00000000000E+00 0. -1.
          1   -1    0    0  501    0 -0.00000000000E+00 -0.00000000000E+00 -0.63630303820E+03  0.63630303820E+03  0.00000000000E+00 0. -1.
         25    2    1    2    0    0  0.56661068539E+02  0.75216664666E+02  0.24506034354E+03  0.29076765931E+03  0.12499294537E+03 0.  0.
          2    1    1    2  501    0  0.53442193967E+02  0.61408105895E+01 -0.59935118340E+03  0.60176043298E+03  0.00000000000E+00 0. -1.
          1    1    1    2  502    0 -0.11010326251E+03 -0.81357475255E+02  0.35050004395E+03  0.37628718820E+03  0.00000000000E+00 0. -1.
         22    1    3    3    0    0  0.33870481205E+02  0.10355574800E+02 -0.84976187215E+00  0.35428371706E+02  0.00000000000E+00 0. -1.
         22    1    3    3    0    0  0.22790587335E+02  0.64861089866E+02  0.24591010541E+03  0.25533928760E+03  0.00000000000E+00 0. -1.
</event>
<event>
 7    1  0.5575489E-006  0.6432040E+02  0.7818608E-02  0.1418998E+00
          2   -1    0    0  502    0  0.00000000000E+00  0.00000000000E+00  0.30491472072E+03  0.30491472072E+03  0.00000000000E+00 0. -1.
          1   -1    0    0  501    0 -0.00000000000E+00 -0.00000000000E+00 -0.14141153129E+04  0.14141153129E+04  0.00000000000E+00 0. -1.
         25    2    1    2    0    0  0.28037402282E+02  0.38892238913E+02  0.20149300763E+03  0.24191299065E+03  0.12499504288E+03 0.  0.
          2    1    1    2  501    0  0.12714010648E+02 -0.63160412362E+02 -0.13863371449E+04  0.13878334061E+04  0.00000000000E+00 0. -1.
          1    1    1    2  502    0 -0.40751412930E+02  0.24268173449E+02  0.75643545097E+02  0.89283636873E+02  0.00000000000E+00 0. -1.
         22    1    3    3    0    0  0.21851277106E+02  0.43610613354E+02  0.21814552994E+03  0.22353262881E+03  0.00000000000E+00 0. -1.
         22    1    3    3    0    0  0.61861251752E+01 -0.47183744408E+01 -0.16652522311E+02  0.18380361840E+02  0.00000000000E+00 0. -1.
</event>
<event>
 7    1  0.5575489E-006  0.7894758E+02  0.7818608E-02  0.1356471E+00
          2   -1    0    0  502    0  0.00000000000E+00  0.00000000000E+00  0.74071568165E+02  0.74071568165E+02  0.00000000000E+00 0. -1.
          1   -1    0    0  501    0 -0.00000000000E+00 -0.00000000000E+00 -0.97673357728E+03  0.97673357728E+03  0.00000000000E+00 0. -1.
         25    2    1    2    0    0 -0.47654360375E+00 -0.13734189569E+03 -0.10848851123E+03  0.21507501075E+03  0.12499791909E+03 0.  0.
          2    1    1    2  501    0 -0.15411087407E+02  0.75355936914E+02 -0.75865450968E+03  0.76254356197E+03  0.00000000000E+00 0. -1.
          1    1    1    2  502    0  0.15887631011E+02  0.61985958772E+02 -0.35518988206E+02  0.73186572725E+02  0.00000000000E+00 0. -1.
         22    1    3    3    0    0  0.45401797930E+02 -0.11255443893E+03 -0.37570164646E+02  0.12704858224E+03  0.00000000000E+00 0.  1.
         22    1    3    3    0    0 -0.45878341534E+02 -0.24787456760E+02 -0.70918346583E+02  0.88026428512E+02  0.00000000000E+00 0.  1.
</event>
<event>
 7    1  0.5575489E-006  0.9501579E+02  0.7818608E-02  0.1341423E+00
          2   -1    0    0  502    0  0.00000000000E+00  0.00000000000E+00  0.54495277115E+03  0.54495277115E+03  0.00000000000E+00 0. -1.
          1   -1    0    0  501    0 -0.00000000000E+00 -0.00000000000E+00 -0.22223327354E+04  0.22223327354E+04  0.00000000000E+00 0. -1.
         25    2    1    2    0    0  0.23153299816E+02  0.32193224644E+02 -0.22673412675E+03  0.26192837581E+03  0.12500252324E+03 0.  0.
          2    1    1    2  501    0 -0.41725486287E+02 -0.89734745361E+02 -0.19750253793E+04  0.19775031200E+04  0.00000000000E+00 0. -1.
          1    1    1    2  502    0  0.18572186471E+02  0.57541520717E+02  0.52437954183E+03  0.52785401070E+03  0.00000000000E+00 0. -1.
         22    1    3    3    0    0 -0.31976191246E+01 -0.28030683426E+02 -0.25757024706E+01  0.28329811588E+02  0.00000000000E+00 0.  1.
         22    1    3    3    0    0  0.26350918941E+02  0.60223908071E+02 -0.22415842428E+03  0.23359856422E+03  0.00000000000E+00 0.  1.
</event>
<event>
 7    1  0.5575489E-006  0.1771257E+03  0.7818608E-02  0.1398542E+00
          2   -1    0    0  502    0  0.00000000000E+00  0.00000000000E+00  0.23713973853E+03  0.23713973853E+03  0.00000000000E+00 0. -1.
          1   -1    0    0  501    0 -0.00000000000E+00 -0.00000000000E+00 -0.25966350345E+03  0.25966350345E+03  0.00000000000E+00 0. -1.
         25    2    1    2    0    0  0.12908459079E+03  0.12824480944E+03  0.90174625954E+02  0.23846414286E+03  0.12499648610E+03 0.  0.
          2    1    1    2  501    0 -0.11080257188E+03 -0.13686010968E+03 -0.13958475825E+03  0.22470381460E+03  0.00000000000E+00 0. -1.
          1    1    1    2  502    0 -0.18282018906E+02  0.86153002460E+01  0.26886367378E+02  0.33635284515E+02  0.00000000000E+00 0. -1.
         22    1    3    3    0    0 -0.69915831714E+01 -0.84813959431E+01  0.36667822641E+02  0.38279831891E+02  0.00000000000E+00 0.  1.
         22    1    3    3    0    0  0.13607617396E+03  0.13672620538E+03  0.53506803313E+02  0.20018431097E+03  0.00000000000E+00 0.  1.
</event>
<event>
 7    1  0.6478118E-006  0.6258468E+02  0.7818608E-02  0.1422962E+00
          2   -1    0    0  502    0  0.00000000000E+00  0.00000000000E+00  0.60235566256E+03  0.60235566256E+03  0.00000000000E+00 0. -1.
          1   -1    0    0  501    0 -0.00000000000E+00 -0.00000000000E+00 -0.68744808743E+03  0.68744808743E+03  0.00000000000E+00 0. -1.
         25    2    1    2    0    0  0.50749520302E+02 -0.95565794368E+02 -0.30134654257E+03  0.34373338860E+03  0.12503826956E+03 0.  0.
          2    1    1    2  501    0 -0.14070190072E+02  0.45142343102E+02 -0.36169238712E+03  0.36477004302E+03  0.00000000000E+00 0. -1.
          1    1    1    2  502    0 -0.36679330230E+02  0.50423451266E+02  0.57794650481E+03  0.58130031836E+03  0.00000000000E+00 0. -1.
         22    1    3    3    0    0 -0.20971635551E+02 -0.78768662329E+02 -0.98074791678E+02  0.12752637541E+03  0.00000000000E+00 0.  1.
         22    1    3    3    0    0  0.71721155853E+02 -0.16797132038E+02 -0.20327175089E+03  0.21620701318E+03  0.00000000000E+00 0.  1.
</event>
<event>
 7    1  0.8553271E-006  0.4116029E+02  0.7818608E-02  0.1502483E+00
          2   -1    0    0  502    0  0.00000000000E+00  0.00000000000E+00  0.24169922195E+04  0.24169922195E+04  0.00000000000E+00 0. -1.
          1   -1    0    0  501    0 -0.00000000000E+00 -0.00000000000E+00 -0.34982684717E+03  0.34982684717E+03  0.00000000000E+00 0. -1.
         25    2    1    2    0    0  0.39396273833E+01  0.27186387864E+02 -0.17075328359E+03  0.21341610519E+03  0.12504051244E+03 0.  0.
          2    1    1    2  501    0 -0.42572529599E+02 -0.12985391956E+02 -0.15442191556E+03  0.16070833422E+03  0.00000000000E+00 0. -1.
          1    1    1    2  502    0  0.38632902215E+02 -0.14200995908E+02  0.23923405715E+04  0.23926946272E+04  0.00000000000E+00 0. -1.
         22    1    3    3    0    0 -0.42919077568E+02 -0.23800439986E+02 -0.11317274649E+03  0.12335549728E+03  0.00000000000E+00 0.  1.
         22    1    3    3    0    0  0.46858704952E+02  0.50986827850E+02 -0.57580537098E+02  0.90060607906E+02  0.00000000000E+00 0.  1.
</event>
<event>
 7    1  0.5575489E-006  0.9700988E+02  0.7818608E-02  0.1295814E+00
          2   -1    0    0  502    0  0.00000000000E+00  0.00000000000E+00  0.13495420354E+03  0.13495420354E+03  0.00000000000E+00 0. -1.
          1   -1    0    0  501    0 -0.00000000000E+00 -0.00000000000E+00 -0.36214760019E+03  0.36214760019E+03  0.00000000000E+00 0. -1.
         25    2    1    2    0    0 -0.46041734019E+02 -0.41727744333E+00  0.30981613124E+02  0.13677070532E+03  0.12500540024E+03 0.  0.
          2    1    1    2  501    0  0.23628747144E+02  0.94802528562E+02 -0.24330371125E+03  0.26218797268E+03  0.00000000000E+00 0. -1.
          1    1    1    2  502    0  0.22412986875E+02 -0.94385251119E+02 -0.14871298529E+02  0.98143125737E+02  0.00000000000E+00 0. -1.
         22    1    3    3    0    0  0.18313046950E+02 -0.14733314796E+02  0.60224392121E+02  0.64648400288E+02  0.00000000000E+00 0.  1.
         22    1    3    3    0    0 -0.64354780969E+02  0.14316037353E+02 -0.29242778996E+02  0.72122305027E+02  0.00000000000E+00 0.  1.
</event>
<event>
 7    1  0.5575489E-006  0.1016545E+03  0.7818608E-02  0.1356017E+00
          2   -1    0    0  502    0  0.00000000000E+00  0.00000000000E+00  0.16584285875E+04  0.16584285875E+04  0.00000000000E+00 0. -1.
          1   -1    0    0  501    0 -0.00000000000E+00 -0.00000000000E+00 -0.27731506295E+03  0.27731506295E+03  0.00000000000E+00 0. -1.
         25    2    1    2    0    0  0.43653243885E+02 -0.87048337458E+02  0.11480232543E+04  0.11589070440E+04  0.12500050202E+03 0.  0.
          2    1    1    2  501    0  0.40306232988E+01  0.10171005857E+03 -0.26104542850E+03  0.28018903919E+03  0.00000000000E+00 0. -1.
          1    1    1    2  502    0 -0.47683867184E+02 -0.14661721113E+02  0.49413569878E+03  0.49664756726E+03  0.00000000000E+00 0. -1.
         22    1    3    3    0    0 -0.30957980161E+02 -0.76879253590E+02  0.56725720908E+03  0.57327965028E+03  0.00000000000E+00 0.  1.
         22    1    3    3    0    0  0.74611224046E+02 -0.10169083869E+02  0.58076604521E+03  0.58562739373E+03  0.00000000000E+00 0.  1.
</event>
<event>
 7    1  0.5575489E-006  0.1010179E+03  0.7818608E-02  0.1407236E+00
          2   -1    0    0  502    0  0.00000000000E+00  0.00000000000E+00  0.44628724332E+03  0.44628724332E+03  0.00000000000E+00 0. -1.
          1   -1    0    0  501    0 -0.00000000000E+00 -0.00000000000E+00 -0.31402247508E+03  0.31402247508E+03  0.00000000000E+00 0. -1.
         25    2    1    2    0    0  0.95930483770E+01 -0.70041658526E+02 -0.94489542499E+02  0.17190271244E+03  0.12499763356E+03 0.  0.
          2    1    1    2  501    0 -0.65989225183E+01 -0.32424537961E+02 -0.17278598326E+03  0.17592581519E+03  0.00000000000E+00 0. -1.
          1    1    1    2  502    0 -0.29941258587E+01  0.10246619649E+03  0.39954029400E+03  0.41248119077E+03  0.00000000000E+00 0. -1.
         22    1    3    3    0    0  0.42166378477E+02 -0.55640479313E+02 -0.11218520913E+03  0.13213397580E+03  0.00000000000E+00 0. -1.
         22    1    3    3    0    0 -0.32573330100E+02 -0.14401179213E+02  0.17695666631E+02  0.39768736641E+02  0.00000000000E+00 0. -1.
</event>
<event>
 7    1  0.5575489E-006  0.6323194E+02  0.7818608E-02  0.1416313E+00
          2   -1    0    0  502    0  0.00000000000E+00  0.00000000000E+00  0.21535608281E+03  0.21535608281E+03  0.00000000000E+00 0. -1.
          1   -1    0    0  501    0 -0.00000000000E+00 -0.00000000000E+00 -0.39143321987E+03  0.39143321987E+03  0.00000000000E+00 0. -1.
         25    2    1    2    0    0  0.18824560640E+02 -0.58286582979E+02 -0.48999624345E+02  0.14757528172E+03  0.12500324296E+03 0.  0.
          2    1    1    2  501    0 -0.49236902508E+02  0.13970220086E+01 -0.28468556078E+03  0.28891537300E+03  0.00000000000E+00 0. -1.
          1    1    1    2  502    0  0.30412341867E+02  0.56889560971E+02  0.15760804806E+03  0.17029864797E+03  0.00000000000E+00 0. -1.
         22    1    3    3    0    0 -0.44291070531E+02  0.96166710273E+01 -0.25222028813E+02  0.51868391414E+02  0.00000000000E+00 0. -1.
         22    1    3    3    0    0  0.63115631171E+02 -0.67903254006E+02 -0.23777595532E+02  0.95706890306E+02  0.00000000000E+00 0. -1.
</event>
<event>
 7    1  0.5575489E-006  0.7725366E+02  0.7818608E-02  0.1352928E+00
          2   -1    0    0  502    0  0.00000000000E+00  0.00000000000E+00  0.27342819468E+04  0.27342819468E+04  0.00000000000E+00 0. -1.
          1   -1    0    0  501    0 -0.00000000000E+00 -0.00000000000E+00 -0.39008142855E+02  0.39008142855E+02  0.00000000000E+00 0. -1.
         25    2    1    2    0    0 -0.22386006094E+02 -0.13684721663E+02  0.27254989754E+03  0.30099294510E+03  0.12499960591E+03 0.  0.
          2    1    1    2  501    0  0.85742631237E+02  0.36634177591E+02  0.65118601028E+02  0.11372903754E+03  0.00000000000E+00 0. -1.
          1    1    1    2  502    0 -0.63356625143E+02 -0.22949455928E+02  0.23576053054E+04  0.23585681070E+04  0.00000000000E+00 0. -1.
         22    1    3    3    0    0 -0.22064415880E+02  0.29214962185E+02  0.14461981794E+02  0.39363706394E+02  0.00000000000E+00 0.  1.
         22    1    3    3    0    0 -0.32159021354E+00 -0.42899683848E+02  0.25808791574E+03  0.26162923871E+03  0.00000000000E+00 0.  1.
</event>
<event>
 7    1  0.5575489E-006  0.4643905E+02  0.7818608E-02  0.1570611E+00
          2   -1    0    0  502    0  0.00000000000E+00  0.00000000000E+00  0.20991556968E+03  0.20991556968E+03  0.00000000000E+00 0. -1.
          1   -1    0    0  501    0 -0.00000000000E+00 -0.00000000000E+00 -0.15965985230E+04  0.15965985230E+04  0.00000000000E+00 0. -1.
         25    2    1    2    0    0 -0.25740819433E+02 -0.20057310095E+02 -0.79248143885E+03  0.80294273528E+03  0.12500127897E+03 0.  0.
          2    1    1    2  501    0 -0.19934348939E+02  0.11355676192E+02 -0.79607847838E+03  0.79640898626E+03  0.00000000000E+00 0. -1.
          1    1    1    2  502    0  0.45675168372E+02  0.87016339025E+01  0.20187696394E+03  0.20716237112E+03  0.00000000000E+00 0. -1.
         22    1    3    3    0    0  0.42715921711E+02  0.19601515760E+02 -0.38445135520E+03  0.38731345690E+03  0.00000000000E+00 0.  1.
         22    1    3    3    0    0 -0.68456741144E+02 -0.39658825855E+02 -0.40803008366E+03  0.41562927838E+03  0.00000000000E+00 0.  1.
</event>
<event>
 7    1  0.5575489E-006  0.4990937E+02  0.7818608E-02  0.1538076E+00
          2   -1    0    0  502    0  0.00000000000E+00  0.00000000000E+00  0.33748046303E+03  0.33748046303E+03  0.00000000000E+00 0. -1.
          1   -1    0    0  501    0 -0.00000000000E+00 -0.00000000000E+00 -0.34549849076E+02  0.34549849076E+02  0.00000000000E+00 0. -1.
         25    2    1    2    0    0  0.37438310665E+01  0.45149901582E+02  0.18596240258E+03  0.22860292892E+03  0.12499901620E+03 0.  0.
          2    1    1    2  501    0  0.26228652013E+02 -0.15908084102E+01  0.20155544784E+02  0.33116745664E+02  0.00000000000E+00 0. -1.
          1    1    1    2  502    0 -0.29972483079E+02 -0.43559093171E+02  0.96812666591E+02  0.11031063753E+03  0.00000000000E+00 0. -1.
         22    1    3    3    0    0 -0.20688908899E+02 -0.37790985200E+02  0.39115399330E+02  0.58191098791E+02  0.00000000000E+00 0. -1.
         22    1    3    3    0    0  0.24432739965E+02  0.82940886781E+02  0.14684700325E+03  0.17041183012E+03  0.00000000000E+00 0. -1.
</event>
<event>
 7    1  0.5575489E-006  0.1011243E+03  0.7818608E-02  0.1456164E+00
          2   -1    0    0  502    0  0.00000000000E+00  0.00000000000E+00  0.88191856024E+03  0.88191856024E+03  0.00000000000E+00 0. -1.
          1   -1    0    0  501    0 -0.00000000000E+00 -0.00000000000E+00 -0.14222941812E+03  0.14222941812E+03  0.00000000000E+00 0. -1.
         25    2    1    2    0    0  0.11528117004E+03  0.17661198842E+02  0.16221380803E+03  0.23567344662E+03  0.12500795102E+03 0.  0.
          2    1    1    2  501    0 -0.15595422034E+02 -0.16672163249E+02 -0.10057571079E+03  0.10313414477E+03  0.00000000000E+00 0. -1.
          1    1    1    2  502    0 -0.99685748004E+02 -0.98903559311E+00  0.67805104488E+03  0.68534038697E+03  0.00000000000E+00 0. -1.
         22    1    3    3    0    0  0.51058442845E+02 -0.46016260856E+02  0.28867830104E+02  0.74550737514E+02  0.00000000000E+00 0. -1.
         22    1    3    3    0    0  0.64222727194E+02  0.63677459698E+02  0.13334597793E+03  0.16112270911E+03  0.00000000000E+00 0. -1.
</event>
<event>
 7    1  0.5575489E-006  0.1221170E+03  0.7818608E-02  0.1319048E+00
          2   -1    0    0  502    0  0.00000000000E+00  0.00000000000E+00  0.39479928957E+04  0.39479928957E+04  0.00000000000E+00 0. -1.
          1   -1    0    0  501    0 -0.00000000000E+00 -0.00000000000E+00 -0.21735494900E+03  0.21735494900E+03  0.00000000000E+00 0. -1.
         25    2    1    2    0    0  0.58918814075E+02 -0.89591459034E+02  0.51646143936E+02  0.17259706081E+03  0.12499746010E+03 0.  0.
          2    1    1    2  501    0  0.48464862913E+02  0.30523832510E+02 -0.15063852744E+03  0.16115989960E+03  0.00000000000E+00 0. -1.
          1    1    1    2  502    0 -0.10738367699E+03  0.59067626524E+02  0.38296303302E+04  0.38315908843E+04  0.00000000000E+00 0. -1.
         22    1    3    3    0    0 -0.23954463928E+02 -0.54546168476E+02 -0.14023878785E+02  0.61202696131E+02  0.00000000000E+00 0.  1.
         22    1    3    3    0    0  0.82873278003E+02 -0.35045290558E+02  0.65670022721E+02  0.11139436467E+03  0.00000000000E+00 0.  1.
</event>
<event>
 7    1  0.5575489E-006  0.1061189E+03  0.7818608E-02  0.1381943E+00
          2   -1    0    0  502    0  0.00000000000E+00  0.00000000000E+00  0.27318029027E+02  0.27318029027E+02  0.00000000000E+00 0. -1.
          1   -1    0    0  501    0 -0.00000000000E+00 -0.00000000000E+00 -0.17899450313E+04  0.17899450313E+04  0.00000000000E+00 0. -1.
         25    2    1    2    0    0 -0.76619641425E+02 -0.65912039308E+02 -0.54858823385E+03  0.57165524545E+03  0.12500281178E+03 0.  0.
          2    1    1    2  501    0  0.51639419489E+02  0.95266891884E+02 -0.11995423358E+04  0.12044269283E+04  0.00000000000E+00 0. -1.
          1    1    1    2  502    0  0.24980221936E+02 -0.29354852576E+02 -0.14496432632E+02  0.41180886547E+02  0.00000000000E+00 0. -1.
         22    1    3    3    0    0 -0.10792092579E+03 -0.70621464831E+02 -0.44911419084E+03  0.46726638434E+03  0.00000000000E+00 0. -1.
         22    1    3    3    0    0  0.31301284362E+02  0.47094255226E+01 -0.99474043008E+02  0.10438886111E+03  0.00000000000E+00 0. -1.
</event>
<event>
 7    1  0.5575489E-006  0.1028369E+03  0.7818608E-02  0.1315644E+00
          2   -1    0    0  502    0  0.00000000000E+00  0.00000000000E+00  0.15012696528E+04  0.15012696528E+04  0.00000000000E+00 0. -1.
          1   -1    0    0  501    0 -0.00000000000E+00 -0.00000000000E+00 -0.40774667650E+03  0.40774667650E+03  0.00000000000E+00 0. -1.
         25    2    1    2    0    0  0.16122784939E+03  0.45343436802E+02 -0.97840988304E+01  0.20921617156E+03  0.12500092468E+03 0.  0.
          2    1    1    2  501    0 -0.92561403391E+02 -0.31124424318E+02 -0.28934699761E+03  0.30538177453E+03  0.00000000000E+00 0. -1.
          1    1    1    2  502    0 -0.68666446003E+02 -0.14219012484E+02  0.13926540727E+04  0.13944183832E+04  0.00000000000E+00 0. -1.
         22    1    3    3    0    0  0.31119124477E+02  0.20839225063E+02 -0.57383034525E+02  0.68523615351E+02  0.00000000000E+00 0. -1.
         22    1    3    3    0    0  0.13010872492E+03  0.24504211739E+02  0.47598935695E+02  0.14069255621E+03  0.00000000000E+00 0. -1.
</event>
<event>
 7    1  0.5575489E-006  0.7383890E+02  0.7818608E-02  0.1369759E+00
          2   -1    0    0  502    0  0.00000000000E+00  0.00000000000E+00  0.43240822942E+03  0.43240822942E+03  0.00000000000E+00 0. -1.
          1   -1    0    0  501    0 -0.00000000000E+00 -0.00000000000E+00 -0.32476403058E+03  0.32476403058E+03  0.00000000000E+00 0. -1.
         25    2    1    2    0    0 -0.87182148138E+02 -0.14799950992E+02  0.23139107943E+02  0.15486584265E+03  0.12501298092E+03 0.  0.
          2    1    1    2  501    0  0.42192165663E+02 -0.44359418075E+02 -0.25115889288E+03  0.25851252636E+03  0.00000000000E+00 0. -1.
          1    1    1    2  502    0  0.44989982475E+02  0.59159369067E+02  0.33566398378E+03  0.34379389098E+03  0.00000000000E+00 0. -1.
         22    1    3    3    0    0 -0.47939352845E+02 -0.59161350474E+02  0.48667987591E+02  0.90370459539E+02  0.00000000000E+00 0.  1.
         22    1    3    3    0    0 -0.39242795293E+02  0.44361399482E+02 -0.25528879648E+02  0.64495383110E+02  0.00000000000E+00 0.  1.
</event>
<event>
 7    1  0.5575489E-006  0.1105566E+03  0.7818608E-02  0.1279980E+00
          2   -1    0    0  502    0  0.00000000000E+00  0.00000000000E+00  0.26618741384E+03  0.26618741384E+03  0.00000000000E+00 0. -1.
          1   -1    0    0  501    0 -0.00000000000E+00 -0.00000000000E+00 -0.86141064849E+03  0.86141064849E+03  0.00000000000E+00 0. -1.
         25    2    1    2    0    0 -0.10241815328E+02  0.70064152766E+01 -0.22038868036E+03  0.25367673558E+03  0.12500692424E+03 0.  0.
          2    1    1    2  501    0  0.24730429908E+02 -0.11660952675E+03 -0.60603513524E+03  0.61764711692E+03  0.00000000000E+00 0. -1.
          1    1    1    2  502    0 -0.14488614580E+02  0.10960311147E+03  0.23120058094E+03  0.25627420983E+03  0.00000000000E+00 0. -1.
         22    1    3    3    0    0  0.64021158063E+01 -0.57761857441E+02 -0.11523869775E+03  0.12906346005E+03  0.00000000000E+00 0.  1.
         22    1    3    3    0    0 -0.16643931134E+02  0.64768272717E+02 -0.10514998261E+03  0.12461327552E+03  0.00000000000E+00 0.  1.
</event>
<event>
 7    1  0.5575489E-006  0.6506165E+02  0.7818608E-02  0.1414614E+00
          2   -1    0    0  502    0  0.00000000000E+00  0.00000000000E+00  0.11691574033E+04  0.11691574033E+04  0.00000000000E+00 0. -1.
          1   -1    0    0  501    0 -0.00000000000E+00 -0.00000000000E+00 -0.14029902721E+04  0.14029902721E+04  0.00000000000E+00 0. -1.
         25    2    1    2    0    0 -0.57638972337E+01  0.60764444604E+02  0.29352977594E+03  0.32481990896E+03  0.12499081428E+03 0.  0.
          2    1    1    2  501    0  0.50244575481E+02 -0.41419298433E+02 -0.13858961998E+04  0.13874250798E+04  0.00000000000E+00 0. -1.
          1    1    1    2  502    0 -0.44480678247E+02 -0.19345146171E+02  0.85853355495E+03  0.85990268658E+03  0.00000000000E+00 0. -1.
         22    1    3    3    0    0 -0.62617418870E+02  0.17232039175E+02  0.17076725843E+03  0.18270013922E+03  0.00000000000E+00 0.  1.
         22    1    3    3    0    0  0.56853521637E+02  0.43532405429E+02  0.12276251751E+03  0.14211976974E+03  0.00000000000E+00 0.  1.
</event>
<event>
 7    1  0.5575489E-006  0.1003470E+03  0.7818608E-02  0.1336388E+00
          2   -1    0    0  502    0  0.00000000000E+00  0.00000000000E+00  0.28786006158E+04  0.28786006158E+04  0.00000000000E+00 0. -1.
          1   -1    0    0  501    0 -0.00000000000E+00 -0.00000000000E+00 -0.34096387231E+03  0.34096387231E+03  0.00000000000E+00 0. -1.
         25    2    1    2    0    0  0.46162914231E+02 -0.41595351510E+02  0.11527958019E+04  0.11612167498E+04  0.12499996469E+03 0.  0.
          2    1    1    2  501    0 -0.24959908654E+02  0.97519693104E+02 -0.32869736451E+03  0.34376597420E+03  0.00000000000E+00 0. -1.
          1    1    1    2  502    0 -0.21203005577E+02 -0.55924341594E+02  0.17135383061E+04  0.17145817641E+04  0.00000000000E+00 0. -1.
         22    1    3    3    0    0  0.32696430702E+02 -0.25936085995E+02  0.11287397790E+04  0.11295110560E+04  0.00000000000E+00 0.  1.
         22    1    3    3    0    0  0.13466483530E+02 -0.15659265515E+02  0.24056022943E+02  0.31705693731E+02  0.00000000000E+00 0.  1.
</event>
<event>
 7    1  0.5575489E-006  0.2872750E+03  0.7818608E-02  0.1277001E+00
          2   -1    0    0  502    0  0.00000000000E+00  0.00000000000E+00  0.12330768686E+04  0.12330768686E+04  0.00000000000E+00 0. -1.
          1   -1    0    0  501    0 -0.00000000000E+00 -0.00000000000E+00 -0.59129258179E+03  0.59129258179E+03  0.00000000000E+00 0. -1.
         25    2    1    2    0    0 -0.63170751186E+01  0.27223301649E+03  0.29098774965E+03  0.41766855261E+03  0.12498971433E+03 0.  0.
          2    1    1    2  501    0  0.29622102106E+02  0.20318920148E+02 -0.50279000905E+03  0.50407154319E+03  0.00000000000E+00 0. -1.
          1    1    1    2  502    0 -0.23305026987E+02 -0.29255193664E+03  0.85358654618E+03  0.90262935457E+03  0.00000000000E+00 0. -1.
         22    1    3    3    0    0 -0.47286240960E+02  0.89837943058E+02  0.15968139826E+03  0.18922207468E+03  0.00000000000E+00 0.  1.
         22    1    3    3    0    0  0.40969165841E+02  0.18239507343E+03  0.13130635139E+03  0.22844647793E+03  0.00000000000E+00 0.  1.
</event>
<event>
 7    1  0.5575489E-006  0.8992363E+02  0.7818608E-02  0.1374570E+00
          2   -1    0    0  502    0  0.00000000000E+00  0.00000000000E+00  0.58284913813E+03  0.58284913813E+03  0.00000000000E+00 0. -1.
          1   -1    0    0  501    0 -0.00000000000E+00 -0.00000000000E+00 -0.15401484528E+04  0.15401484528E+04  0.00000000000E+00 0. -1.
         25    2    1    2    0    0 -0.72018135770E+02  0.34666424239E+01 -0.33422090365E+03  0.36404262213E+03  0.12499915521E+03 0.  0.
          2    1    1    2  501    0 -0.65173534787E+01 -0.47871918409E+02 -0.11869391658E+04  0.11879220429E+04  0.00000000000E+00 0. -1.
          1    1    1    2  502    0  0.78535489249E+02  0.44405275985E+02  0.56386075486E+03  0.57103292591E+03  0.00000000000E+00 0. -1.
         22    1    3    3    0    0 -0.27686053551E+02  0.57639296703E+02 -0.92938351159E+02  0.11281109521E+03  0.00000000000E+00 0.  1.
         22    1    3    3    0    0 -0.44332082219E+02 -0.54172654279E+02 -0.24128255249E+03  0.25123152692E+03  0.00000000000E+00 0.  1.
</event>
<event>
 7    1  0.5575489E-006  0.4465256E+02  0.7818608E-02  0.1561690E+00
          2   -1    0    0  502    0  0.00000000000E+00  0.00000000000E+00  0.42411264589E+03  0.42411264589E+03  0.00000000000E+00 0. -1.
          1   -1    0    0  501    0 -0.00000000000E+00 -0.00000000000E+00 -0.55188498157E+03  0.55188498157E+03  0.00000000000E+00 0. -1.
         25    2    1    2    0    0  0.13358370887E+02 -0.27631859872E+02  0.11894121019E+03  0.17525236474E+03  0.12499765643E+03 0.  0.
          2    1    1    2  501    0 -0.38223410754E+02  0.23319398344E+02 -0.52219460335E+03  0.52411070132E+03  0.00000000000E+00 0. -1.
          1    1    1    2  502    0  0.24865039867E+02  0.43124615280E+01  0.27548105748E+03  0.27663456141E+03  0.00000000000E+00 0. -1.
         22    1    3    3    0    0  0.48177933357E+01 -0.71105957324E+02  0.10836809064E+03  0.12970316638E+03  0.00000000000E+00 0. -1.
         22    1    3    3    0    0  0.85405775510E+01  0.43474097452E+02  0.10573119550E+02  0.45549198359E+02  0.00000000000E+00 0. -1.
</event>
<event>
 7    1  0.5575489E-006  0.1185683E+03  0.7818608E-02  0.1291015E+00
          2   -1    0    0  502    0  0.00000000000E+00  0.00000000000E+00  0.13654199706E+04  0.13654199706E+04  0.00000000000E+00 0. -1.
          1   -1    0    0  501    0 -0.00000000000E+00 -0.00000000000E+00 -0.23013041955E+03  0.23013041955E+03  0.00000000000E+00 0. -1.
         25    2    1    2    0    0  0.69289829319E+01  0.55779865501E+02  0.93117033856E+02  0.16569457148E+03  0.12499801928E+03 0.  0.
          2    1    1    2  501    0 -0.47715083465E+02 -0.12018201894E+03 -0.17094677690E+03  0.21434375988E+03  0.00000000000E+00 0. -1.
          1    1    1    2  502    0  0.40786100533E+02  0.64402153437E+02  0.12131192941E+04  0.12155120588E+04  0.00000000000E+00 0. -1.
         22    1    3    3    0    0  0.38408827078E+02  0.85485905629E+02  0.65831070716E+02  0.11452863367E+03  0.00000000000E+00 0. -1.
         22    1    3    3    0    0 -0.31479844146E+02 -0.29706040128E+02  0.27285963140E+02  0.51165937810E+02  0.00000000000E+00 0. -1.
</event>
<event>
 7    1  0.5575489E-006  0.8514298E+02  0.7818608E-02  0.1372586E+00
          2   -1    0    0  502    0  0.00000000000E+00  0.00000000000E+00  0.21746049907E+04  0.21746049907E+04  0.00000000000E+00 0. -1.
          1   -1    0    0  501    0 -0.00000000000E+00 -0.00000000000E+00 -0.55524059848E+02  0.55524059848E+02  0.00000000000E+00 0. -1.
         25    2    1    2    0    0  0.24808256163E+02  0.32713641904E+02  0.38470829021E+03  0.40658334094E+03  0.12499565047E+03 0.  0.
          2    1    1    2  501    0 -0.34271791230E+02 -0.83709472831E+02  0.20806269381E+01  0.90477403390E+02  0.00000000000E+00 0. -1.
          1    1    1    2  502    0  0.94635350666E+01  0.50995830926E+02  0.17322920137E+04  0.17330683063E+04  0.00000000000E+00 0. -1.
         22    1    3    3    0    0  0.73428872309E+02  0.99309798438E+01  0.26909067659E+03  0.27910610147E+03  0.00000000000E+00 0. -1.
         22    1    3    3    0    0 -0.48620616146E+02  0.22782662060E+02  0.11561761362E+03  0.12747723947E+03  0.00000000000E+00 0. -1.
</event>
<event>
 7    1  0.5575489E-006  0.5964820E+02  0.7818608E-02  0.1470294E+00
          2   -1    0    0  502    0  0.00000000000E+00  0.00000000000E+00  0.35536131034E+03  0.35536131034E+03  0.00000000000E+00 0. -1.
          1   -1    0    0  501    0 -0.00000000000E+00 -0.00000000000E+00 -0.14464394705E+04  0.14464394705E+04  0.00000000000E+00 0. -1.
         25    2    1    2    0    0  0.39920007478E+02 -0.76015285682E+02 -0.33097629986E+03  0.36407020526E+03  0.12501948901E+03 0.  0.
          2    1    1    2  501    0 -0.10158060736E+02  0.57703063212E+02 -0.10972315166E+04  0.10987947173E+04  0.00000000000E+00 0. -1.
          1    1    1    2  502    0 -0.29761946742E+02  0.18312222471E+02  0.33712965624E+03  0.33893585836E+03  0.00000000000E+00 0. -1.
         22    1    3    3    0    0 -0.38513847937E+02  0.18014039477E+01 -0.58692849469E+02  0.70224013827E+02  0.00000000000E+00 0.  1.
         22    1    3    3    0    0  0.78433855416E+02 -0.77816689630E+02 -0.27228345039E+03  0.29384619143E+03  0.00000000000E+00 0.  1.
</event>
<event>
 7    1  0.5575489E-006  0.7875106E+02  0.7818608E-02  0.1376882E+00
          2   -1    0    0  502    0  0.00000000000E+00  0.00000000000E+00  0.25711662770E+04  0.25711662770E+04  0.00000000000E+00 0. -1.
          1   -1    0    0  501    0 -0.00000000000E+00 -0.00000000000E+00 -0.18306787789E+04  0.18306787789E+04  0.00000000000E+00 0. -1.
         25    2    1    2    0    0  0.99819985518E+02  0.51171278921E+02  0.49480312741E+03  0.52253057448E+03  0.12500214828E+03 0.  0.
          2    1    1    2  501    0 -0.47025203587E+02 -0.63123420344E+02 -0.18156069906E+04  0.18173124884E+04  0.00000000000E+00 0. -1.
          1    1    1    2  502    0 -0.52794781931E+02  0.11952141423E+02  0.20612913613E+04  0.20620019930E+04  0.00000000000E+00 0. -1.
         22    1    3    3    0    0 -0.23119032598E+02  0.33649211566E+02  0.16905887626E+03  0.17391855206E+03  0.00000000000E+00 0. -1.
         22    1    3    3    0    0  0.12293901812E+03  0.17522067355E+02  0.32574425115E+03  0.34861202242E+03  0.00000000000E+00 0. -1.
</event>
<event>
 7    1  0.5575489E-006  0.7717294E+02  0.7818608E-02  0.1426003E+00
          2   -1    0    0  502    0  0.00000000000E+00  0.00000000000E+00  0.18932012434E+04  0.18932012434E+04  0.00000000000E+00 0. -1.
          1   -1    0    0  501    0 -0.00000000000E+00 -0.00000000000E+00 -0.83392415385E+02  0.83392415385E+02  0.00000000000E+00 0. -1.
         25    2    1    2    0    0 -0.92932459662E+02 -0.34025434869E+02  0.77540220272E+03  0.79162445923E+03  0.12500614465E+03 0.  0.
          2    1    1    2  501    0  0.18450274161E+02  0.32606986557E+02 -0.69285316770E+02  0.78766003509E+02  0.00000000000E+00 0. -1.
          1    1    1    2  502    0  0.74482185501E+02  0.14184483128E+01  0.11036919421E+04  0.11062031961E+04  0.00000000000E+00 0. -1.
         22    1    3    3    0    0  0.26789041264E+02 -0.28775468262E+02  0.21274263814E+03  0.21634488759E+03  0.00000000000E+00 0. -1.
         22    1    3    3    0    0 -0.11972150093E+03 -0.52499666069E+01  0.56265956458E+03  0.57527957164E+03  0.00000000000E+00 0. -1.
</event>
<event>
 7    1  0.5575489E-006  0.1512637E+03  0.7818608E-02  0.1239937E+00
          2   -1    0    0  502    0  0.00000000000E+00  0.00000000000E+00  0.14301388746E+03  0.14301388746E+03  0.00000000000E+00 0. -1.
          1   -1    0    0  501    0 -0.00000000000E+00 -0.00000000000E+00 -0.11242698936E+04  0.11242698936E+04  0.00000000000E+00 0. -1.
         25    2    1    2    0    0 -0.76185691186E+02 -0.27543462314E+02  0.19556779003E+02  0.15023450815E+03  0.12500015191E+03 0.  0.
          2    1    1    2  501    0  0.15367539882E+03 -0.32931021095E+02 -0.10063983065E+04  0.10185961573E+04  0.00000000000E+00 0. -1.
          1    1    1    2  502    0 -0.77489707633E+02  0.60474483409E+02  0.55855213064E+01  0.98453115649E+02  0.00000000000E+00 0. -1.
         22    1    3    3    0    0 -0.45850987662E+02 -0.20580738318E+02  0.72858565882E+02  0.88511301434E+02  0.00000000000E+00 0. -1.
         22    1    3    3    0    0 -0.30334703524E+02 -0.69627239967E+01 -0.53301786879E+02  0.61723206721E+02  0.00000000000E+00 0. -1.
</event>
<event>
 7    1  0.5575489E-006  0.7389094E+02  0.7818608E-02  0.1371533E+00
          2   -1    0    0  502    0  0.00000000000E+00  0.00000000000E+00  0.12667885611E+04  0.12667885611E+04  0.00000000000E+00 0. -1.
          1   -1    0    0  501    0 -0.00000000000E+00 -0.00000000000E+00 -0.33251179481E+04  0.33251179481E+04  0.00000000000E+00 0. -1.
         25    2    1    2    0    0  0.28762138322E+02 -0.18468731567E+02  0.14329770764E+02  0.13037367939E+03  0.12499439708E+03 0.  0.
          2    1    1    2  501    0  0.41976439781E+02  0.43271043210E+02 -0.32656414145E+04  0.32661978282E+04  0.00000000000E+00 0. -1.
          1    1    1    2  502    0 -0.70738578103E+02 -0.24802311643E+02  0.11929822568E+04  0.11953350017E+04  0.00000000000E+00 0. -1.
         22    1    3    3    0    0  0.60989042883E+02 -0.47823659306E+02 -0.13478988533E+02  0.78666694815E+02  0.00000000000E+00 0. -1.
         22    1    3    3    0    0 -0.32226904561E+02  0.29354927739E+02  0.27808759297E+02  0.51706984574E+02  0.00000000000E+00 0. -1.
</event>
<event>
 7    1  0.5575489E-006  0.1313253E+03  0.7818608E-02  0.1240365E+00
          2   -1    0    0  502    0  0.00000000000E+00  0.00000000000E+00  0.13001211024E+04  0.13001211024E+04  0.00000000000E+00 0. -1.
          1   -1    0    0  501    0 -0.00000000000E+00 -0.00000000000E+00 -0.84344686525E+02  0.84344686525E+02  0.00000000000E+00 0. -1.
         25    2    1    2    0    0 -0.18164404040E+03 -0.11416633948E+02  0.34242390073E+03  0.40743399524E+03  0.12499374280E+03 0.  0.
          2    1    1    2  501    0  0.10478467318E+03 -0.71045823171E+02  0.35295378766E+02  0.13142716799E+03  0.00000000000E+00 0. -1.
          1    1    1    2  502    0  0.76859367224E+02  0.82462457119E+02  0.83805713636E+03  0.84560462568E+03  0.00000000000E+00 0. -1.
         22    1    3    3    0    0 -0.17554155143E+03  0.83845527138E+01  0.21198369544E+03  0.27535835585E+03  0.00000000000E+00 0. -1.
         22    1    3    3    0    0 -0.61024889760E+01 -0.19801186662E+02  0.13044020528E+03  0.13207563939E+03  0.00000000000E+00 0. -1.
</event>
<event>
 7    1  0.5575489E-006  0.3251213E+02  0.7818608E-02  0.1573381E+00
          2   -1    0    0  502    0  0.00000000000E+00  0.00000000000E+00  0.21344540183E+04  0.21344540183E+04  0.00000000000E+00 0. -1.
          1   -1    0    0  501    0 -0.00000000000E+00 -0.00000000000E+00 -0.74573834789E+03  0.74573834789E+03  0.00000000000E+00 0. -1.
         25    2    1    2    0    0 -0.92201555191E+01 -0.63787349039E+02  0.13304838086E+04  0.13378966596E+04  0.12500587873E+03 0.  0.
          2    1    1    2  501    0  0.17564310875E+01  0.32456182101E+02 -0.74135161322E+03  0.74206381345E+03  0.00000000000E+00 0. -1.
          1    1    1    2  502    0  0.74637244316E+01  0.31331166938E+02  0.79958347498E+03  0.80023189305E+03  0.00000000000E+00 0. -1.
         22    1    3    3    0    0  0.30111011447E+02 -0.43359558382E+02  0.20988927553E+03  0.21642604348E+03  0.00000000000E+00 0.  1.
         22    1    3    3    0    0 -0.39331166967E+02 -0.20427790656E+02  0.11205945331E+04  0.11214706162E+04  0.00000000000E+00 0.  1.
</event>
<event>
 7    1  0.5575489E-006  0.5080212E+02  0.7818608E-02  0.1461570E+00
          2   -1    0    0  502    0  0.00000000000E+00  0.00000000000E+00  0.15571606589E+04  0.15571606589E+04  0.00000000000E+00 0. -1.
          1   -1    0    0  501    0 -0.00000000000E+00 -0.00000000000E+00 -0.20153323438E+04  0.20153323438E+04  0.00000000000E+00 0. -1.
         25    2    1    2    0    0 -0.81135737897E+02 -0.13349871289E+02  0.21642100936E+03  0.26310525582E+03  0.12500038129E+03 0.  0.
          2    1    1    2  501    0  0.48341984940E+02 -0.15518994746E+02 -0.19913043165E+04  0.19919514722E+04  0.00000000000E+00 0. -1.
          1    1    1    2  502    0  0.32793752958E+02  0.28868866035E+02  0.13167116223E+04  0.13174362747E+04  0.00000000000E+00 0. -1.
         22    1    3    3    0    0 -0.83760083363E+02 -0.57053285189E+02  0.11905677950E+03  0.15635007406E+03  0.00000000000E+00 0.  1.
         22    1    3    3    0    0  0.26243454656E+01  0.43703413900E+02  0.97364229861E+02  0.10675518176E+03  0.00000000000E+00 0.  1.
</event>
<event>
 7    1  0.5575489E-006  0.5453393E+02  0.7818608E-02  0.1496837E+00
          2   -1    0    0  502    0  0.00000000000E+00  0.00000000000E+00  0.16480053661E+03  0.16480053661E+03  0.00000000000E+00 0. -1.
          1   -1    0    0  501    0 -0.00000000000E+00 -0.00000000000E+00 -0.73369273550E+03  0.73369273550E+03  0.00000000000E+00 0. -1.
         25    2    1    2    0    0  0.81796044745E+02  0.23504916393E+02 -0.49487114469E+02  0.15911586026E+03  0.12500323378E+03 0.  0.
          2    1    1    2  501    0 -0.50382263334E+02 -0.19136386098E+02 -0.62592249852E+03  0.62823844827E+03  0.00000000000E+00 0. -1.
          1    1    1    2  502    0 -0.31413781411E+02 -0.43685302946E+01  0.10651741410E+03  0.11113896358E+03  0.00000000000E+00 0. -1.
         22    1    3    3    0    0  0.70711831764E+02  0.22506649643E+02 -0.90261650118E+02  0.11684980921E+03  0.00000000000E+00 0.  1.
         22    1    3    3    0    0  0.11084212982E+02  0.99826675012E+00  0.40774535649E+02  0.42266051049E+02  0.00000000000E+00 0.  1.
</event>
<event>
 7    1  0.5575489E-006  0.2187928E+03  0.7818608E-02  0.1214172E+00
          2   -1    0    0  502    0  0.00000000000E+00  0.00000000000E+00  0.22641488829E+03  0.22641488829E+03  0.00000000000E+00 0. -1.
          1   -1    0    0  501    0 -0.00000000000E+00 -0.00000000000E+00 -0.93748207536E+03  0.93748207536E+03  0.00000000000E+00 0. -1.
         25    2    1    2    0    0  0.13202027687E+03  0.13567057228E+03 -0.30392513327E+03  0.37925170548E+03  0.12500204715E+03 0.  0.
          2    1    1    2  501    0 -0.21695686439E+03 -0.10981411199E+03 -0.55851609115E+03  0.60915486066E+03  0.00000000000E+00 0. -1.
          1    1    1    2  502    0  0.84936587518E+02 -0.25856460293E+02  0.15137403734E+03  0.17549039751E+03  0.00000000000E+00 0. -1.
         22    1    3    3    0    0  0.55284221687E+02  0.18339110364E+02 -0.18961556654E+03  0.19836010488E+03  0.00000000000E+00 0. -1.
         22    1    3    3    0    0  0.76736055183E+02  0.11733146192E+03 -0.11430956673E+03  0.18089160060E+03  0.00000000000E+00 0. -1.
</event>
<event>
 7    1  0.5575489E-006  0.1066891E+03  0.7818608E-02  0.1419114E+00
          2   -1    0    0  502    0  0.00000000000E+00  0.00000000000E+00  0.25782288892E+04  0.25782288892E+04  0.00000000000E+00 0. -1.
          1   -1    0    0  501    0 -0.00000000000E+00 -0.00000000000E+00 -0.29730367062E+04  0.29730367062E+04  0.00000000000E+00 0. -1.
         25    2    1    2    0    0  0.99846617729E+02 -0.75460991414E+02 -0.13842096379E+04  0.13954659277E+04  0.12500050112E+03 0.  0.
          2    1    1    2  501    0 -0.28329679922E+02 -0.36915507442E+01 -0.15819640284E+04  0.15822219773E+04  0.00000000000E+00 0. -1.
          1    1    1    2  502    0 -0.71516937807E+02  0.79152542158E+02  0.25713658493E+04  0.25735776904E+04  0.00000000000E+00 0. -1.
         22    1    3    3    0    0  0.69314571863E+02 -0.11008089082E+03 -0.96706213960E+03  0.97577225532E+03  0.00000000000E+00 0.  1.
         22    1    3    3    0    0  0.30532045866E+02  0.34619899407E+02 -0.41714749831E+03  0.41969367234E+03  0.00000000000E+00 0.  1.
</event>
<event>
 7    1  0.5575489E-006  0.1174335E+03  0.7818608E-02  0.1285543E+00
          2   -1    0    0  502    0  0.00000000000E+00  0.00000000000E+00  0.13332260832E+04  0.13332260832E+04  0.00000000000E+00 0. -1.
          1   -1    0    0  501    0 -0.00000000000E+00 -0.00000000000E+00 -0.22767522582E+03  0.22767522582E+03  0.00000000000E+00 0. -1.
         25    2    1    2    0    0 -0.36493637764E+02  0.11892359767E+03  0.11750732235E+03  0.21191234156E+03  0.12499704804E+03 0.  0.
          2    1    1    2  501    0 -0.44155446402E+02 -0.11111485766E+03 -0.15908178290E+03  0.19900559965E+03  0.00000000000E+00 0. -1.
          1    1    1    2  502    0  0.80649084166E+02 -0.78087400106E+01  0.11471253179E+04  0.11499833678E+04  0.00000000000E+00 0. -1.
         22    1    3    3    0    0 -0.60593073421E+02  0.14719213220E+02  0.73160337549E+02  0.96128095657E+02  0.00000000000E+00 0. -1.
         22    1    3    3    0    0  0.24099435656E+02  0.10420438445E+03  0.44346984801E+02  0.11578424590E+03  0.00000000000E+00 0. -1.
</event>
<event>
 7    1  0.5575489E-006  0.5459987E+02  0.7818608E-02  0.1535138E+00
          2   -1    0    0  502    0  0.00000000000E+00  0.00000000000E+00  0.55076974001E+03  0.55076974001E+03  0.00000000000E+00 0. -1.
          1   -1    0    0  501    0 -0.00000000000E+00 -0.00000000000E+00 -0.16424924111E+03  0.16424924111E+03  0.00000000000E+00 0. -1.
         25    2    1    2    0    0 -0.35506321736E+02 -0.49010564889E+02  0.18148091748E+03  0.22852495449E+03  0.12500238823E+03 0.  0.
          2    1    1    2  501    0  0.11412132888E+02  0.53370332076E+02 -0.13497888042E+03  0.14559507987E+03  0.00000000000E+00 0. -1.
          1    1    1    2  502    0  0.24094188848E+02 -0.43597671869E+01  0.34001846185E+03  0.34089894676E+03  0.00000000000E+00 0. -1.
         22    1    3    3    0    0 -0.77759203358E+02 -0.24080144960E+02  0.14869509495E+03  0.16951866668E+03  0.00000000000E+00 0. -1.
         22    1    3    3    0    0  0.42252881622E+02 -0.24930419929E+02  0.32785822522E+02  0.59006287814E+02  0.00000000000E+00 0. -1.
</event>
<event>
 7    1  0.5575489E-006  0.6281756E+02  0.7818608E-02  0.1500733E+00
          2   -1    0    0  502    0  0.00000000000E+00  0.00000000000E+00  0.15066053566E+04  0.15066053566E+04  0.00000000000E+00 0. -1.
          1   -1    0    0  501    0 -0.00000000000E+00 -0.00000000000E+00 -0.25999717589E+02  0.25999717589E+02  0.00000000000E+00 0. -1.
         25    2    1    2    0    0 -0.50913444179E+02  0.30298312939E+02  0.86748141126E+03  0.87844086212E+03  0.12499673113E+03 0.  0.
          2    1    1    2  501    0  0.62998640661E+02 -0.63719886673E+01  0.29378710519E+02  0.69803578680E+02  0.00000000000E+00 0. -1.
          1    1    1    2  502    0 -0.12085196482E+02 -0.23926324271E+02  0.58374551725E+03  0.58436063341E+03  0.00000000000E+00 0. -1.
         22    1    3    3    0    0 -0.71007864077E+02  0.31868092674E+02  0.28006287021E+03  0.29067663023E+03  0.00000000000E+00 0.  1.
         22    1    3    3    0    0  0.20094419897E+02 -0.15697797351E+01  0.58741854105E+03  0.58776423189E+03  0.00000000000E+00 0.  1.
</event>
<event>
 7    1  0.5575489E-006  0.7353076E+02  0.7818608E-02  0.1373618E+00
          2   -1    0    0  502    0  0.00000000000E+00  0.00000000000E+00  0.86139379347E+03  0.86139379347E+03  0.00000000000E+00 0. -1.
          1   -1    0    0  501    0 -0.00000000000E+00 -0.00000000000E+00 -0.41114675554E+03  0.41114675554E+03  0.00000000000E+00 0. -1.
         25    2    1    2    0    0  0.15141753512E+02  0.11402178268E+03  0.54067067913E+02  0.17826509520E+03  0.12499982683E+03 0.  0.
          2    1    1    2  501    0 -0.38689073793E+02 -0.45268521513E+02 -0.34471705242E+03  0.34982271181E+03  0.00000000000E+00 0. -1.
          1    1    1    2  502    0  0.23547320281E+02 -0.68753261170E+02  0.74089702244E+03  0.74445274200E+03  0.00000000000E+00 0. -1.
         22    1    3    3    0    0 -0.13538542620E+02  0.52311929481E+02 -0.36333608116E+02  0.65114984305E+02  0.00000000000E+00 0.  1.
         22    1    3    3    0    0  0.28680296132E+02  0.61709853202E+02  0.90400676029E+02  0.11315011089E+03  0.00000000000E+00 0.  1.
</event>
<event>
 7    1  0.5575489E-006  0.8357074E+02  0.7818608E-02  0.1440843E+00
          2   -1    0    0  502    0  0.00000000000E+00  0.00000000000E+00  0.30778461678E+03  0.30778461678E+03  0.00000000000E+00 0. -1.
          1   -1    0    0  501    0 -0.00000000000E+00 -0.00000000000E+00 -0.39252860432E+03  0.39252860432E+03  0.00000000000E+00 0. -1.
         25    2    1    2    0    0 -0.79575672455E+02 -0.46408570324E+02 -0.37492675225E+02  0.15974004547E+03  0.12500055354E+03 0.  0.
          2    1    1    2  501    0  0.25733759376E+02 -0.17164426559E+02 -0.28602003785E+03  0.28768786204E+03  0.00000000000E+00 0. -1.
          1    1    1    2  502    0  0.53841913079E+02  0.63572996882E+02  0.23876872553E+03  0.25288531359E+03  0.00000000000E+00 0. -1.
         22    1    3    3    0    0 -0.28953767617E+02 -0.65690986572E+02 -0.66877463356E+02  0.98113309398E+02  0.00000000000E+00 0. -1.
         22    1    3    3    0    0 -0.50621904838E+02  0.19282416248E+02  0.29384788131E+02  0.61626736076E+02  0.00000000000E+00 0. -1.
</event>
<event>
 7    1  0.5575489E-006  0.2914273E+02  0.7818608E-02  0.1654377E+00
          2   -1    0    0  502    0  0.00000000000E+00  0.00000000000E+00  0.19982329079E+03  0.19982329079E+03  0.00000000000E+00 0. -1.
          1   -1    0    0  501    0 -0.00000000000E+00 -0.00000000000E+00 -0.49998355458E+02  0.49998355458E+02  0.00000000000E+00 0. -1.
         25    2    1    2    0    0 -0.12798169500E+02  0.20204916582E+02  0.14083291291E+03  0.18981944806E+03  0.12500192681E+03 0.  0.
          2    1    1    2  501    0  0.29482251801E+02 -0.54754328240E+01 -0.90823652141E+01  0.31331659607E+02  0.00000000000E+00 0. -1.
          1    1    1    2  502    0 -0.16684082301E+02 -0.14729483758E+02  0.18074387634E+02  0.28670538578E+02  0.00000000000E+00 0. -1.
         22    1    3    3    0    0 -0.73027382086E+01  0.13746157219E+02 -0.21898669041E+02  0.26867052860E+02  0.00000000000E+00 0. -1.
         22    1    3    3    0    0 -0.54954312910E+01  0.64587593635E+01  0.16273158195E+03  0.16295239520E+03  0.00000000000E+00 0. -1.
</event>
<event>
 7    1  0.5575489E-006  0.7383533E+02  0.7818608E-02  0.1446987E+00
          2   -1    0    0  502    0  0.00000000000E+00  0.00000000000E+00  0.15712774509E+04  0.15712774509E+04  0.00000000000E+00 0. -1.
          1   -1    0    0  501    0 -0.00000000000E+00 -0.00000000000E+00 -0.33611062535E+03  0.33611062535E+03  0.00000000000E+00 0. -1.
         25    2    1    2    0    0 -0.79737610001E+02  0.38201017615E+02 -0.11597388166E+03  0.19207336586E+03  0.12499932980E+03 0.  0.
          2    1    1    2  501    0  0.49432881162E+02 -0.52358995771E+02 -0.17477759562E+03  0.18902984450E+03  0.00000000000E+00 0. -1.
          1    1    1    2  502    0  0.30304728839E+02  0.14157978155E+02  0.15259183028E+04  0.15262848659E+04  0.00000000000E+00 0. -1.
         22    1    3    3    0    0 -0.68431756163E+01 -0.27178834900E+02  0.12374915699E+02  0.30637504102E+02  0.00000000000E+00 0. -1.
         22    1    3    3    0    0 -0.72894434384E+02  0.65379852516E+02 -0.12834879736E+03  0.16143586176E+03  0.00000000000E+00 0. -1.
</event>
<event>
 7    1  0.5575489E-006  0.7757800E+02  0.7818608E-02  0.1476088E+00
          2   -1    0    0  502    0  0.00000000000E+00  0.00000000000E+00  0.28131070985E+03  0.28131070985E+03  0.00000000000E+00 0. -1.
          1   -1    0    0  501    0 -0.00000000000E+00 -0.00000000000E+00 -0.11492812456E+04  0.11492812456E+04  0.00000000000E+00 0. -1.
         25    2    1    2    0    0  0.81557288882E+02 -0.62634140992E+01 -0.21838316689E+03  0.26458684346E+03  0.12499667365E+03 0.  0.
          2    1    1    2  501    0 -0.75256724523E+02 -0.18735455445E+02 -0.90549101787E+03  0.90880612637E+03  0.00000000000E+00 0. -1.
          1    1    1    2  502    0 -0.63005643588E+01  0.24998869544E+02  0.25590364905E+03  0.25719898559E+03  0.00000000000E+00 0. -1.
         22    1    3    3    0    0  0.10985888997E+02  0.54550908435E+02 -0.93114454628E+02  0.10847484975E+03  0.00000000000E+00 0.  1.
         22    1    3    3    0    0  0.70571399885E+02 -0.60814322534E+02 -0.12526871227E+03  0.15611199371E+03  0.00000000000E+00 0.  1.
</event>
<event>
 7    1  0.5575489E-006  0.1349795E+03  0.7818608E-02  0.1239193E+00
          2   -1    0    0  502    0  0.00000000000E+00  0.00000000000E+00  0.14866778473E+04  0.14866778473E+04  0.00000000000E+00 0. -1.
          1   -1    0    0  501    0 -0.00000000000E+00 -0.00000000000E+00 -0.11274312670E+04  0.11274312670E+04  0.00000000000E+00 0. -1.
         25    2    1    2    0    0  0.93452197986E+02  0.13767299305E+03 -0.65883626683E+02  0.21829381247E+03  0.12499747987E+03 0.  0.
          2    1    1    2  501    0  0.17486036413E+02 -0.13433066789E+03 -0.97848566787E+03  0.98781814725E+03  0.00000000000E+00 0. -1.
          1    1    1    2  502    0 -0.11093823440E+03 -0.33423251616E+01  0.14036158749E+04  0.14079971545E+04  0.00000000000E+00 0. -1.
         22    1    3    3    0    0 -0.10938350061E+02  0.10639727547E+02  0.25845917351E+02  0.30014375689E+02  0.00000000000E+00 0.  1.
         22    1    3    3    0    0  0.10439054805E+03  0.12703326550E+03 -0.91729544033E+02  0.18827943678E+03  0.00000000000E+00 0.  1.
</event>
<event>
 7    1  0.5575489E-006  0.1396390E+03  0.7818608E-02  0.1397885E+00
          2   -1    0    0  502    0  0.00000000000E+00  0.00000000000E+00  0.28121429496E+03  0.28121429496E+03  0.00000000000E+00 0. -1.
          1   -1    0    0  501    0 -0.00000000000E+00 -0.00000000000E+00 -0.16717641390E+04  0.16717641390E+04  0.00000000000E+00 0. -1.
         25    2    1    2    0    0  0.15780984133E+03  0.10488154710E+02 -0.70630113895E+03  0.73450759715E+03  0.12500465583E+03 0.  0.
          2    1    1    2  501    0 -0.20961996761E+02  0.14989461474E+02 -0.93303458853E+03  0.93339039670E+03  0.00000000000E+00 0. -1.
          1    1    1    2  502    0 -0.13684784457E+03 -0.25477616185E+02  0.24878588348E+03  0.28508044006E+03  0.00000000000E+00 0. -1.
         22    1    3    3    0    0  0.13368770897E+03  0.58659160810E+02 -0.55584066182E+03  0.57469308505E+03  0.00000000000E+00 0.  1.
         22    1    3    3    0    0  0.24122132362E+02 -0.48171006100E+02 -0.15046047713E+03  0.15981451210E+03  0.00000000000E+00 0.  1.
</event>
<event>
 7    1  0.5575489E-006  0.8875882E+02  0.7818608E-02  0.1469306E+00
          2   -1    0    0  502    0  0.00000000000E+00  0.00000000000E+00  0.93400020098E+03  0.93400020098E+03  0.00000000000E+00 0. -1.
          1   -1    0    0  501    0 -0.00000000000E+00 -0.00000000000E+00 -0.47019559813E+03  0.47019559813E+03  0.00000000000E+00 0. -1.
         25    2    1    2    0    0 -0.23508671222E+01  0.76738016400E+02 -0.22302913889E+03  0.26694591046E+03  0.12499549024E+03 0.  0.
          2    1    1    2  501    0 -0.21970224200E+02  0.87550637850E+01 -0.22241400349E+03  0.22366790302E+03  0.00000000000E+00 0. -1.
          1    1    1    2  502    0  0.24321091322E+02 -0.85493080185E+02  0.90924774523E+03  0.91358198562E+03  0.00000000000E+00 0. -1.
         22    1    3    3    0    0 -0.52284086094E+02  0.50378907537E+01 -0.12523912254E+03  0.13580811395E+03  0.00000000000E+00 0.  1.
         22    1    3    3    0    0  0.49933218972E+02  0.71700125646E+02 -0.97790016356E+02  0.13113779651E+03  0.00000000000E+00 0.  1.
</event>
<event>
 7    1  0.5575489E-006  0.6759124E+02  0.7818608E-02  0.1434490E+00
          2   -1    0    0  502    0  0.00000000000E+00  0.00000000000E+00  0.27246012792E+04  0.27246012792E+04  0.00000000000E+00 0. -1.
          1   -1    0    0  501    0 -0.00000000000E+00 -0.00000000000E+00 -0.11030991559E+03  0.11030991559E+03  0.00000000000E+00 0. -1.
         25    2    1    2    0    0 -0.29908598280E+02  0.70032611565E+02  0.12092335746E+04  0.12180599227E+04  0.12500018570E+03 0.  0.
          2    1    1    2  501    0 -0.10077452353E+02 -0.66860065984E+02 -0.94808092865E+02  0.11644912169E+03  0.00000000000E+00 0. -1.
          1    1    1    2  502    0  0.39986050634E+02 -0.31725455816E+01  0.14998658818E+04  0.15004021504E+04  0.00000000000E+00 0. -1.
         22    1    3    3    0    0 -0.20430622807E+02 -0.31661818480E+01  0.89634493105E+03  0.89658333159E+03  0.00000000000E+00 0. -1.
         22    1    3    3    0    0 -0.94779754734E+01  0.73198793413E+02  0.31288864358E+03  0.32147659115E+03  0.00000000000E+00 0. -1.
</event>
<event>
 7    1  0.5575489E-006  0.6331414E+02  0.7818608E-02  0.1423436E+00
          2   -1    0    0  502    0  0.00000000000E+00  0.00000000000E+00  0.29251270830E+03  0.29251270830E+03  0.00000000000E+00 0. -1.
          1   -1    0    0  501    0 -0.00000000000E+00 -0.00000000000E+00 -0.10590631859E+03  0.10590631859E+03  0.00000000000E+00 0. -1.
         25    2    1    2    0    0 -0.61293612761E+02  0.84029218710E+02  0.10573510224E+03  0.19396526994E+03  0.12499919014E+03 0.  0.
          2    1    1    2  501    0  0.29535276701E+02 -0.36005935653E+02 -0.45796440750E+02  0.65315189332E+02  0.00000000000E+00 0. -1.
          1    1    1    2  502    0  0.31758336060E+02 -0.48023283057E+02  0.12666772822E+03  0.13913856762E+03  0.00000000000E+00 0. -1.
         22    1    3    3    0    0 -0.70443269204E+02  0.63665802255E+02  0.13000635719E+03  0.16098832710E+03  0.00000000000E+00 0.  1.
         22    1    3    3    0    0  0.91496564431E+01  0.20363416455E+02 -0.24271254944E+02  0.32976942843E+02  0.00000000000E+00 0.  1.
</event>
<event>
 7    1  0.5575489E-006  0.1053669E+03  0.7818608E-02  0.1302350E+00
          2   -1    0    0  502    0  0.00000000000E+00  0.00000000000E+00  0.12561645398E+04  0.12561645398E+04  0.00000000000E+00 0. -1.
          1   -1    0    0  501    0 -0.00000000000E+00 -0.00000000000E+00 -0.54187011613E+03  0.54187011613E+03  0.00000000000E+00 0. -1.
         25    2    1    2    0    0  0.24584012979E+02 -0.12955612815E+03  0.38488891652E+02  0.18573013632E+03  0.12500049889E+03 0.  0.
          2    1    1    2  501    0 -0.76423240499E+02  0.72310382833E+02 -0.46101284410E+03  0.47286588540E+03  0.00000000000E+00 0. -1.
          1    1    1    2  502    0  0.51839227520E+02  0.57245745318E+02  0.11368183761E+04  0.11394386342E+04  0.00000000000E+00 0. -1.
         22    1    3    3    0    0 -0.68156256589E+01  0.13015539051E+02  0.36917135705E+02  0.39733259601E+02  0.00000000000E+00 0.  1.
         22    1    3    3    0    0  0.31399638638E+02 -0.14257166720E+03  0.15717559475E+01  0.14599687672E+03  0.00000000000E+00 0.  1.
</event>
<event>
 7    1  0.5575489E-006  0.6101003E+02  0.7818608E-02  0.1519317E+00
          2   -1    0    0  502    0  0.00000000000E+00  0.00000000000E+00  0.13812998664E+04  0.13812998664E+04  0.00000000000E+00 0. -1.
          1   -1    0    0  501    0 -0.00000000000E+00 -0.00000000000E+00 -0.62432271998E+02  0.62432271998E+02  0.00000000000E+00 0. -1.
         25    2    1    2    0    0  0.16311694569E+02  0.35387948734E+02  0.36509156709E+03  0.38786057676E+03  0.12500238537E+03 0.  0.
          2    1    1    2  501    0 -0.17238873900E+02 -0.59703268848E+02 -0.31929841541E+02  0.69865398198E+02  0.00000000000E+00 0. -1.
          1    1    1    2  502    0  0.92717933100E+00  0.24315320114E+02  0.98570586882E+03  0.98600616340E+03  0.00000000000E+00 0. -1.
         22    1    3    3    0    0  0.52827880446E+02  0.62912727865E+02  0.27215085257E+03  0.28427958568E+03  0.00000000000E+00 0. -1.
         22    1    3    3    0    0 -0.36516185878E+02 -0.27524779131E+02  0.92940714521E+02  0.10358099108E+03  0.00000000000E+00 0. -1.
</event>
<event>
 7    1  0.5575489E-006  0.8597562E+02  0.7818608E-02  0.1387844E+00
          2   -1    0    0  502    0  0.00000000000E+00  0.00000000000E+00  0.33770282342E+03  0.33770282342E+03  0.00000000000E+00 0. -1.
          1   -1    0    0  501    0 -0.00000000000E+00 -0.00000000000E+00 -0.34518213689E+04  0.34518213689E+04  0.00000000000E+00 0. -1.
         25    2    1    2    0    0 -0.24486590939E+02  0.34222758060E+02 -0.19896960344E+03  0.23870405841E+03  0.12497973478E+03 0.  0.
          2    1    1    2  501    0  0.46279978201E+02 -0.73999918263E+02 -0.32307740540E+04  0.32319527862E+04  0.00000000000E+00 0. -1.
          1    1    1    2  502    0 -0.21793387261E+02  0.39777160203E+02  0.31562511190E+03  0.31886734775E+03  0.00000000000E+00 0. -1.
         22    1    3    3    0    0  0.45271321091E+01  0.46832991201E+02 -0.20154450866E+03  0.20696379625E+03  0.00000000000E+00 0. -1.
         22    1    3    3    0    0 -0.29013723049E+02 -0.12610233141E+02  0.25749052209E+01  0.31740262159E+02  0.00000000000E+00 0. -1.
</event>
<event>
 7    1  0.5575489E-006  0.4585313E+02  0.7818608E-02  0.1516934E+00
          2   -1    0    0  502    0  0.00000000000E+00  0.00000000000E+00  0.22386048342E+04  0.22386048342E+04  0.00000000000E+00 0. -1.
          1   -1    0    0  501    0 -0.00000000000E+00 -0.00000000000E+00 -0.11792717489E+03  0.11792717489E+03  0.00000000000E+00 0. -1.
         25    2    1    2    0    0 -0.51850150979E+02 -0.58468323241E+02  0.48236507730E+02  0.15509506248E+03  0.12498293783E+03 0.  0.
          2    1    1    2  501    0  0.24774102450E+02  0.21644675180E+02 -0.60042127678E+02  0.68463897143E+02  0.00000000000E+00 0. -1.
          1    1    1    2  502    0  0.27076048530E+02  0.36823648061E+02  0.21324832792E+04  0.21329730494E+04  0.00000000000E+00 0. -1.
         22    1    3    3    0    0 -0.49208508402E+02 -0.67236637931E+02  0.83918715890E+02  0.11825647406E+03  0.00000000000E+00 0.  1.
         22    1    3    3    0    0 -0.26416425772E+01  0.87683146898E+01 -0.35682208160E+02  0.36838588425E+02  0.00000000000E+00 0.  1.
</event>
<event>
 7    1  0.5575489E-006  0.7792692E+02  0.7818608E-02  0.1387534E+00
          2   -1    0    0  502    0  0.00000000000E+00  0.00000000000E+00  0.14279248013E+04  0.14279248013E+04  0.00000000000E+00 0. -1.
          1   -1    0    0  501    0 -0.00000000000E+00 -0.00000000000E+00 -0.51584639497E+02  0.51584639497E+02  0.00000000000E+00 0. -1.
         25    2    1    2    0    0  0.56133243416E+02  0.36367995630E+02  0.26505994790E+03  0.30059109606E+03  0.12499863569E+03 0.  0.
          2    1    1    2  501    0 -0.30955028915E+02  0.39476464382E+02 -0.12982936741E+02  0.51818545924E+02  0.00000000000E+00 0. -1.
          1    1    1    2  502    0 -0.25178214501E+02 -0.75844460012E+02  0.11242631506E+04  0.11270997988E+04  0.00000000000E+00 0. -1.
         22    1    3    3    0    0  0.13281883813E+02  0.25663507635E+02 -0.28755678016E+01  0.29039506744E+02  0.00000000000E+00 0.  1.
         22    1    3    3    0    0  0.42851359603E+02  0.10704487995E+02  0.26793551570E+03  0.27155158931E+03  0.00000000000E+00 0.  1.
</event>
<event>
 7    1  0.5575489E-006  0.4723266E+02  0.7818608E-02  0.1488610E+00
          2   -1    0    0  502    0  0.00000000000E+00  0.00000000000E+00  0.32819986313E+02  0.32819986313E+02  0.00000000000E+00 0. -1.
          1   -1    0    0  501    0 -0.00000000000E+00 -0.00000000000E+00 -0.82808897819E+03  0.82808897819E+03  0.00000000000E+00 0. -1.
         25    2    1    2    0    0  0.75250213332E+00  0.11124802764E+02 -0.23420331235E+03  0.26570707280E+03  0.12499891809E+03 0.  0.
          2    1    1    2  501    0 -0.97582368586E+01 -0.48834777117E+02 -0.55345566340E+03  0.55569166810E+03  0.00000000000E+00 0. -1.
          1    1    1    2  502    0  0.90057347253E+01  0.37709974353E+02 -0.76100161233E+01  0.39510223602E+02  0.00000000000E+00 0. -1.
         22    1    3    3    0    0 -0.56170749817E+02  0.31139965578E+02 -0.13684241971E+03  0.15116447474E+03  0.00000000000E+00 0.  1.
         22    1    3    3    0    0  0.56923251951E+02 -0.20015162814E+02 -0.97360892646E+02  0.11454259807E+03  0.00000000000E+00 0.  1.
</event>
<event>
 7    1  0.5575489E-006  0.3026915E+02  0.7818608E-02  0.1655252E+00
          2   -1    0    0  502    0  0.00000000000E+00  0.00000000000E+00  0.18392778402E+04  0.18392778402E+04  0.00000000000E+00 0. -1.
          1   -1    0    0  501    0 -0.00000000000E+00 -0.00000000000E+00 -0.37496935301E+03  0.37496935301E+03  0.00000000000E+00 0. -1.
         25    2    1    2    0    0 -0.24429215493E+02 -0.33970921813E+02  0.39242908792E+03  0.41397358157E+03  0.12499090804E+03 0.  0.
          2    1    1    2  501    0  0.27392817849E+02  0.12855416315E+02 -0.36348926216E+03  0.36474658587E+03  0.00000000000E+00 0. -1.
          1    1    1    2  502    0 -0.29636023555E+01  0.21115505499E+02  0.14353686614E+04  0.14355270257E+04  0.00000000000E+00 0. -1.
         22    1    3    3    0    0  0.22027893921E+02 -0.64457533638E+02  0.28496551151E+03  0.29299376189E+03  0.00000000000E+00 0. -1.
         22    1    3    3    0    0 -0.46457109414E+02  0.30486611825E+02  0.10746357641E+03  0.12097981968E+03  0.00000000000E+00 0. -1.
</event>
<event>
 7    1  0.5575489E-006  0.1741086E+03  0.7818608E-02  0.1201249E+00
          2   -1    0    0  502    0  0.00000000000E+00  0.00000000000E+00  0.36931625775E+03  0.36931625775E+03  0.00000000000E+00 0. -1.
          1   -1    0    0  501    0 -0.00000000000E+00 -0.00000000000E+00 -0.10884362443E+04  0.10884362443E+04  0.00000000000E+00 0. -1.
         25    2    1    2    0    0 -0.43909833081E+02 -0.87582812003E+02  0.22700478561E+02  0.16046814573E+03  0.12504355908E+03 0.  0.
          2    1    1    2  501    0 -0.42853177663E+02 -0.12076865706E+03 -0.96877386001E+03  0.97721249234E+03  0.00000000000E+00 0. -1.
          1    1    1    2  502    0  0.86763010744E+02  0.20835146906E+03  0.22695339486E+03  0.32007186401E+03  0.00000000000E+00 0. -1.
         22    1    3    3    0    0 -0.75223944848E+02 -0.15003098308E+02  0.26963280781E+02  0.81306539391E+02  0.00000000000E+00 0.  1.
         22    1    3    3    0    0  0.31314111767E+02 -0.72579713696E+02 -0.42628022195E+01  0.79161606342E+02  0.00000000000E+00 0.  1.
</event>
<event>
 7    1  0.5575489E-006  0.5310880E+02  0.7818608E-02  0.1554054E+00
          2   -1    0    0  502    0  0.00000000000E+00  0.00000000000E+00  0.49861482835E+03  0.49861482835E+03  0.00000000000E+00 0. -1.
          1   -1    0    0  501    0 -0.00000000000E+00 -0.00000000000E+00 -0.79396562804E+03  0.79396562804E+03  0.00000000000E+00 0. -1.
         25    2    1    2    0    0 -0.49058976379E+02  0.45347623316E+02 -0.24261256710E+03  0.28098083191E+03  0.12500472022E+03 0.  0.
          2    1    1    2  501    0  0.46950931636E+02 -0.23174351062E+02 -0.53062105028E+03  0.53319803031E+03  0.00000000000E+00 0. -1.
          1    1    1    2  502    0  0.21080447431E+01 -0.22173272255E+02  0.47788281770E+03  0.47840159417E+03  0.00000000000E+00 0. -1.
         22    1    3    3    0    0  0.20137287710E+02  0.17864522819E+02 -0.18471036290E+03  0.18666164495E+03  0.00000000000E+00 0.  1.
         22    1    3    3    0    0 -0.69196264089E+02  0.27483100498E+02 -0.57902204204E+02  0.94319186959E+02  0.00000000000E+00 0.  1.
</event>
<event>
 7    1  0.5575489E-006  0.4974083E+02  0.7818608E-02  0.1535191E+00
          2   -1    0    0  502    0  0.00000000000E+00  0.00000000000E+00  0.13481646518E+04  0.13481646518E+04  0.00000000000E+00 0. -1.
          1   -1    0    0  501    0 -0.00000000000E+00 -0.00000000000E+00 -0.21346766530E+02  0.21346766530E+02  0.00000000000E+00 0. -1.
         25    2    1    2    0    0  0.75051248949E+02  0.40133977928E+01  0.99910423821E+03  0.10096945529E+04  0.12500005580E+03 0.  0.
          2    1    1    2  501    0 -0.48753927888E+02  0.14949974485E+01  0.23011548755E+02  0.53932475170E+02  0.00000000000E+00 0. -1.
          1    1    1    2  502    0 -0.26297321062E+02 -0.55083952413E+01  0.30470209827E+03  0.30588439025E+03  0.00000000000E+00 0. -1.
         22    1    3    3    0    0 -0.13621959066E+02 -0.10617749017E+02  0.61398806318E+03  0.61423093059E+03  0.00000000000E+00 0. -1.
         22    1    3    3    0    0  0.88673208015E+02  0.14631146810E+02  0.38511617502E+03  0.39546362227E+03  0.00000000000E+00 0. -1.
</event>
<event>
 7    1  0.5575489E-006  0.2933068E+02  0.7818608E-02  0.1607240E+00
          2   -1    0    0  502    0  0.00000000000E+00  0.00000000000E+00  0.62023426557E+03  0.62023426557E+03  0.00000000000E+00 0. -1.
          1   -1    0    0  501    0 -0.00000000000E+00 -0.00000000000E+00 -0.39195341027E+02  0.39195341027E+02  0.00000000000E+00 0. -1.
         25    2    1    2    0    0 -0.33220189405E+01  0.79088418199E+00  0.37582374116E+03  0.39608133468E+03  0.12500111183E+03 0.  0.
          2    1    1    2  501    0  0.10910584681E+02  0.27541122728E+02 -0.20314182831E+02  0.35919637015E+02  0.00000000000E+00 0. -1.
          1    1    1    2  502    0 -0.75885657406E+01 -0.28332006910E+02  0.22552936622E+03  0.22742863490E+03  0.00000000000E+00 0. -1.
         22    1    3    3    0    0  0.43963463524E+01  0.58403997705E+02  0.11737421517E+03  0.13117568828E+03  0.00000000000E+00 0. -1.
         22    1    3    3    0    0 -0.77183652929E+01 -0.57613113523E+02  0.25844952599E+03  0.26490564640E+03  0.00000000000E+00 0. -1.
</event>
<event>
 7    1  0.5575489E-006  0.1072731E+03  0.7818608E-02  0.1292734E+00
          2   -1    0    0  502    0  0.00000000000E+00  0.00000000000E+00  0.15473419325E+04  0.15473419325E+04  0.00000000000E+00 0. -1.
          1   -1    0    0  501    0 -0.00000000000E+00 -0.00000000000E+00 -0.13974346843E+03  0.13974346843E+03  0.00000000000E+00 0. -1.
         25    2    1    2    0    0  0.47696705848E+02 -0.15945567985E+03  0.38313573044E+03  0.43602563903E+03  0.12499712144E+03 0.  0.
          2    1    1    2  501    0 -0.60088788519E+02  0.57134884986E+02 -0.95438230121E+02  0.12642592043E+03  0.00000000000E+00 0. -1.
          1    1    1    2  502    0  0.12392082671E+02  0.10232079486E+03  0.11199009637E+04  0.11246338414E+04  0.00000000000E+00 0. -1.
         22    1    3    3    0    0  0.64147425316E+02 -0.14581039383E+03  0.38283044735E+03  0.41465011098E+03  0.00000000000E+00 0.  1.
         22    1    3    3    0    0 -0.16450719467E+02 -0.13645286018E+02  0.30528309272E+00  0.21375528047E+02  0.00000000000E+00 0.  1.
</event>
<event>
 7    1  0.6448123E-006  0.4827585E+02  0.7818608E-02  0.1477343E+00
          2   -1    0    0  502    0  0.00000000000E+00  0.00000000000E+00  0.18264508998E+04  0.18264508998E+04  0.00000000000E+00 0. -1.
          1   -1    0    0  501    0 -0.00000000000E+00 -0.00000000000E+00 -0.22148137881E+04  0.22148137881E+04  0.00000000000E+00 0. -1.
         25    2    1    2    0    0 -0.85730282038E+02  0.17838976416E+02 -0.47171834969E+03  0.49579256015E+03  0.12499660368E+03 0.  0.
          2    1    1    2  501    0  0.41059522817E+02  0.39995052574E+00 -0.17304939626E+04  0.17309810510E+04  0.00000000000E+00 0. -1.
          1    1    1    2  502    0  0.44670759222E+02 -0.18238926942E+02  0.18138494239E+04  0.18144910768E+04  0.00000000000E+00 0. -1.
         22    1    3    3    0    0 -0.62303579042E+02  0.20659728988E+02 -0.46717433432E+03  0.47176309628E+03  0.00000000000E+00 0. -1.
         22    1    3    3    0    0 -0.23426702997E+02 -0.28207525726E+01 -0.45440153689E+01  0.24029463873E+02  0.00000000000E+00 0. -1.
</event>
<event>
 7    1  0.5575489E-006  0.6143022E+02  0.7818608E-02  0.1415335E+00
          2   -1    0    0  502    0  0.00000000000E+00  0.00000000000E+00  0.28003645562E+04  0.28003645562E+04  0.00000000000E+00 0. -1.
          1   -1    0    0  501    0 -0.00000000000E+00 -0.00000000000E+00 -0.19578835911E+03  0.19578835911E+03  0.00000000000E+00 0. -1.
         25    2    1    2    0    0 -0.64392809023E+02 -0.29149190113E+00  0.73197994315E+02  0.15851853872E+03  0.12499464758E+03 0.  0.
          2    1    1    2  501    0  0.22810510651E+02  0.45711244076E+02 -0.14850364514E+03  0.15704512043E+03  0.00000000000E+00 0. -1.
          1    1    1    2  502    0  0.41582298372E+02 -0.45419752175E+02  0.26798818479E+04  0.26805892562E+04  0.00000000000E+00 0. -1.
         22    1    3    3    0    0  0.38581588675E+01  0.15736730207E+02  0.85774700128E+02  0.87291633330E+02  0.00000000000E+00 0. -1.
         22    1    3    3    0    0 -0.68250967890E+02 -0.16028222108E+02 -0.12576705813E+02  0.71226905387E+02  0.00000000000E+00 0. -1.
</event>
<event>
 7    1  0.5575489E-006  0.1147060E+03  0.7818608E-02  0.1279847E+00
          2   -1    0    0  502    0  0.00000000000E+00  0.00000000000E+00  0.31866055685E+03  0.31866055685E+03  0.00000000000E+00 0. -1.
          1   -1    0    0  501    0 -0.00000000000E+00 -0.00000000000E+00 -0.63604926064E+03  0.63604926064E+03  0.00000000000E+00 0. -1.
         25    2    1    2    0    0  0.12543741888E+03  0.14322979520E+03 -0.57662173141E+01  0.22783187441E+03  0.12499917379E+03 0.  0.
          2    1    1    2  501    0 -0.69620523803E+02 -0.53088290092E+02 -0.50167214127E+03  0.50925467224E+03  0.00000000000E+00 0. -1.
          1    1    1    2  502    0 -0.55816895076E+02 -0.90141505105E+02  0.19004965479E+03  0.21762327083E+03  0.00000000000E+00 0. -1.
         22    1    3    3    0    0 -0.32932026202E+01  0.65207074271E+02  0.31892611287E+02  0.72663239490E+02  0.00000000000E+00 0.  1.
         22    1    3    3    0    0  0.12873062150E+03  0.78022720926E+02 -0.37658828601E+02  0.15516863492E+03  0.00000000000E+00 0.  1.
</event>
<event>
 7    1  0.5575489E-006  0.5774724E+02  0.7818608E-02  0.1417500E+00
          2   -1    0    0  502    0  0.00000000000E+00  0.00000000000E+00  0.41974707385E+03  0.41974707385E+03  0.00000000000E+00 0. -1.
          1   -1    0    0  501    0 -0.00000000000E+00 -0.00000000000E+00 -0.80518197878E+03  0.80518197878E+03  0.00000000000E+00 0. -1.
         25    2    1    2    0    0 -0.10867842136E+03  0.20361964340E+01 -0.15645640645E+03  0.22785712073E+03  0.12500045994E+03 0.  0.
          2    1    1    2  501    0  0.55481929099E+02 -0.71607631056E+01 -0.60987960823E+03  0.61243992156E+03  0.00000000000E+00 0. -1.
          1    1    1    2  502    0  0.53196492261E+02  0.51245666716E+01  0.38090110974E+03  0.38463201034E+03  0.00000000000E+00 0. -1.
         22    1    3    3    0    0  0.22954302747E+02 -0.17024424599E+02 -0.10646958683E+02  0.30497356881E+02  0.00000000000E+00 0.  1.
         22    1    3    3    0    0 -0.13163272411E+03  0.19060621033E+02 -0.14580944776E+03  0.19735976385E+03  0.00000000000E+00 0.  1.
</event>
<event>
 7    1  0.5575489E-006  0.1049645E+03  0.7818608E-02  0.1410931E+00
          2   -1    0    0  502    0  0.00000000000E+00  0.00000000000E+00  0.24213235991E+04  0.24213235991E+04  0.00000000000E+00 0. -1.
          1   -1    0    0  501    0 -0.00000000000E+00 -0.00000000000E+00 -0.17301360863E+03  0.17301360863E+03  0.00000000000E+00 0. -1.
         25    2    1    2    0    0  0.13022761690E+03 -0.29469968930E+01  0.17631855924E+03  0.25235500939E+03  0.12500759752E+03 0.  0.
          2    1    1    2  501    0 -0.27467705109E+02 -0.14238625197E+02 -0.13197578850E+03  0.13555376064E+03  0.00000000000E+00 0. -1.
          1    1    1    2  502    0 -0.10275991179E+03  0.17185622090E+02  0.22039672197E+04  0.22064284377E+04  0.00000000000E+00 0. -1.
         22    1    3    3    0    0  0.15271366226E+02  0.10231068381E+02 -0.18299550683E+02  0.25937674179E+02  0.00000000000E+00 0. -1.
         22    1    3    3    0    0  0.11495625068E+03 -0.13178065274E+02  0.19461810992E+03  0.22641733521E+03  0.00000000000E+00 0. -1.
</event>
<event>
 7    1  0.5575489E-006  0.1641725E+03  0.7818608E-02  0.1352100E+00
          2   -1    0    0  502    0  0.00000000000E+00  0.00000000000E+00  0.80961432604E+03  0.80961432604E+03  0.00000000000E+00 0. -1.
          1   -1    0    0  501    0 -0.00000000000E+00 -0.00000000000E+00 -0.12802864722E+04  0.12802864722E+04  0.00000000000E+00 0. -1.
         25    2    1    2    0    0  0.15459876460E+03 -0.42400268549E+02  0.12559331536E+03  0.23895164002E+03  0.12500257843E+03 0.  0.
          2    1    1    2  501    0 -0.16395052638E+03  0.11867310040E+02 -0.12176748001E+04  0.12287198732E+04  0.00000000000E+00 0. -1.
          1    1    1    2  502    0  0.93517617773E+01  0.30532958509E+02  0.62140933857E+03  0.62222928496E+03  0.00000000000E+00 0. -1.
         22    1    3    3    0    0  0.13187662547E+03 -0.30371664900E+02  0.15102644804E+03  0.20278774712E+03  0.00000000000E+00 0.  1.
         22    1    3    3    0    0  0.22722139134E+02 -0.12028603649E+02 -0.25433132672E+02  0.36163892906E+02  0.00000000000E+00 0.  1.
</event>
<event>
 7    1  0.5575489E-006  0.1149812E+03  0.7818608E-02  0.1312821E+00
          2   -1    0    0  502    0  0.00000000000E+00  0.00000000000E+00  0.10928478216E+04  0.10928478216E+04  0.00000000000E+00 0. -1.
          1   -1    0    0  501    0 -0.00000000000E+00 -0.00000000000E+00 -0.71285398151E+02  0.71285398151E+02  0.00000000000E+00 0. -1.
         25    2    1    2    0    0  0.92265604416E+02 -0.33239464658E+02  0.19083950074E+03  0.24831592513E+03  0.12499311925E+03 0.  0.
          2    1    1    2  501    0 -0.82064170988E+02  0.96758726612E+02  0.56430219035E+02  0.13885657693E+03  0.00000000000E+00 0. -1.
          1    1    1    2  502    0 -0.10201433428E+02 -0.63519261954E+02  0.77429270369E+03  0.77696071771E+03  0.00000000000E+00 0. -1.
         22    1    3    3    0    0 -0.23109165913E+02 -0.83435165359E+01  0.77104395242E+00  0.24581341017E+02  0.00000000000E+00 0. -1.
         22    1    3    3    0    0  0.11537477033E+03 -0.24895948122E+02  0.19006845679E+03  0.22373458411E+03  0.00000000000E+00 0. -1.
</event>
<event>
 7    1  0.5575489E-006  0.7350683E+02  0.7818608E-02  0.1471642E+00
          2   -1    0    0  502    0  0.00000000000E+00  0.00000000000E+00  0.45261307133E+03  0.45261307133E+03  0.00000000000E+00 0. -1.
          1   -1    0    0  501    0 -0.00000000000E+00 -0.00000000000E+00 -0.96301958224E+03  0.96301958224E+03  0.00000000000E+00 0. -1.
         25    2    1    2    0    0  0.92696484584E+01 -0.86391950538E+02 -0.40695088883E+01  0.15228740268E+03  0.12500158644E+03 0.  0.
          2    1    1    2  501    0  0.20194473052E+02  0.19516732727E+02 -0.88108798000E+03  0.88153544914E+03  0.00000000000E+00 0. -1.
          1    1    1    2  502    0 -0.29464121510E+02  0.66875217811E+02  0.37475097798E+03  0.38180980175E+03  0.00000000000E+00 0. -1.
         22    1    3    3    0    0  0.60979466445E+01 -0.45115822263E+01  0.52288282501E+02  0.52835630159E+02  0.00000000000E+00 0. -1.
         22    1    3    3    0    0  0.31717018139E+01 -0.81880368312E+02 -0.56357791389E+02  0.99451772521E+02  0.00000000000E+00 0. -1.
</event>
<event>
 7    1  0.5575489E-006  0.6804635E+02  0.7818608E-02  0.1440557E+00
          2   -1    0    0  502    0  0.00000000000E+00  0.00000000000E+00  0.17176188128E+03  0.17176188128E+03  0.00000000000E+00 0. -1.
          1   -1    0    0  501    0 -0.00000000000E+00 -0.00000000000E+00 -0.13984217778E+03  0.13984217778E+03  0.00000000000E+00 0. -1.
         25    2    1    2    0    0 -0.21871482749E+01  0.80126426424E+02  0.54891909675E+02  0.15831401877E+03  0.12500071584E+03 0.  0.
          2    1    1    2  501    0 -0.30585630583E+02 -0.22670489668E+02 -0.64708743025E+02  0.75077648630E+02  0.00000000000E+00 0. -1.
          1    1    1    2  502    0  0.32772778858E+02 -0.57455936756E+02  0.41736536848E+02  0.78212391669E+02  0.00000000000E+00 0. -1.
         22    1    3    3    0    0  0.34336309398E+02  0.86113476357E+02  0.72406701680E+00  0.92709423611E+02  0.00000000000E+00 0.  1.
         22    1    3    3    0    0 -0.36523457673E+02 -0.59870499328E+01  0.54167842658E+02  0.65604595156E+02  0.00000000000E+00 0.  1.
</event>
<event>
 7    1  0.5575489E-006  0.6586824E+02  0.7818608E-02  0.1382178E+00
          2   -1    0    0  502    0  0.00000000000E+00  0.00000000000E+00  0.49649728683E+03  0.49649728683E+03  0.00000000000E+00 0. -1.
          1   -1    0    0  501    0 -0.00000000000E+00 -0.00000000000E+00 -0.63097471630E+03  0.63097471630E+03  0.00000000000E+00 0. -1.
         25    2    1    2    0    0 -0.23087113714E+02 -0.40670193164E+02 -0.82923548374E+01  0.13371856889E+03  0.12499925234E+03 0.  0.
          2    1    1    2  501    0  0.59905428229E+02 -0.15902198540E+02 -0.55560985899E+03  0.55905621869E+03  0.00000000000E+00 0. -1.
          1    1    1    2  502    0 -0.36818314516E+02  0.56572391704E+02  0.42942478436E+03  0.43469721555E+03  0.00000000000E+00 0. -1.
         22    1    3    3    0    0 -0.45561341978E+02 -0.44642643699E+02  0.43441040885E+02  0.77174643196E+02  0.00000000000E+00 0. -1.
         22    1    3    3    0    0  0.22474228265E+02  0.39724505351E+01 -0.51733395723E+02  0.56543925689E+02  0.00000000000E+00 0. -1.
</event>
<event>
 7    1  0.5575489E-006  0.1179128E+03  0.7818608E-02  0.1317650E+00
          2   -1    0    0  502    0  0.00000000000E+00  0.00000000000E+00  0.14958341483E+04  0.14958341483E+04  0.00000000000E+00 0. -1.
          1   -1    0    0  501    0 -0.00000000000E+00 -0.00000000000E+00 -0.13268649541E+04  0.13268649541E+04  0.00000000000E+00 0. -1.
         25    2    1    2    0    0 -0.15731464505E+03  0.11503962887E+02 -0.78913965243E+03  0.81440007745E+03  0.12500342560E+03 0.  0.
          2    1    1    2  501    0  0.99211929472E+02 -0.26734693259E+02 -0.51945245460E+03  0.52951733056E+03  0.00000000000E+00 0. -1.
          1    1    1    2  502    0  0.58102715577E+02  0.15230730372E+02  0.14775613012E+04  0.14787816944E+04  0.00000000000E+00 0. -1.
         22    1    3    3    0    0 -0.12598647119E+03  0.11854548900E+02 -0.31848335322E+03  0.34270215571E+03  0.00000000000E+00 0. -1.
         22    1    3    3    0    0 -0.31328173860E+02 -0.35058601350E+00 -0.47065629922E+03  0.47169792175E+03  0.00000000000E+00 0. -1.
</event>
<event>
 7    1  0.5575489E-006  0.4330196E+02  0.7818608E-02  0.1489016E+00
          2   -1    0    0  502    0  0.00000000000E+00  0.00000000000E+00  0.61934555063E+03  0.61934555063E+03  0.00000000000E+00 0. -1.
          1   -1    0    0  501    0 -0.00000000000E+00 -0.00000000000E+00 -0.39640210526E+03  0.39640210526E+03  0.00000000000E+00 0. -1.
         25    2    1    2    0    0 -0.13357916556E+02 -0.36853247678E+02  0.39277438580E+03  0.41404506791E+03  0.12500001726E+03 0.  0.
          2    1    1    2  501    0  0.42853153016E+02  0.67143827479E+01 -0.38247026749E+03  0.38492204558E+03  0.00000000000E+00 0. -1.
          1    1    1    2  502    0 -0.29495236460E+02  0.30138864930E+02  0.21263932706E+03  0.21678054240E+03  0.00000000000E+00 0. -1.
         22    1    3    3    0    0 -0.60118920956E+02  0.11900135037E+02  0.22457034178E+03  0.23278259445E+03  0.00000000000E+00 0.  1.
         22    1    3    3    0    0  0.46761004400E+02 -0.48753382715E+02  0.16820404402E+03  0.18126247346E+03  0.00000000000E+00 0.  1.
</event>
<event>
 7    1  0.5575489E-006  0.1135186E+03  0.7818608E-02  0.1368181E+00
          2   -1    0    0  502    0  0.00000000000E+00  0.00000000000E+00  0.23037636096E+03  0.23037636096E+03  0.00000000000E+00 0. -1.
          1   -1    0    0  501    0 -0.00000000000E+00 -0.00000000000E+00 -0.27072828701E+04  0.27072828701E+04  0.00000000000E+00 0. -1.
         25    2    1    2    0    0  0.85911146584E+01  0.94272814334E+02 -0.43167700568E+03  0.45927353718E+03  0.12500389571E+03 0.  0.
          2    1    1    2  501    0 -0.36804375234E+02  0.16528574047E+02 -0.22465235154E+04  0.22468857695E+04  0.00000000000E+00 0. -1.
          1    1    1    2  502    0  0.28213260575E+02 -0.11080138838E+03  0.20129401197E+03  0.23149992439E+03  0.00000000000E+00 0. -1.
         22    1    3    3    0    0 -0.15320093712E+02  0.75366089901E+02 -0.99778743563E+02  0.12597837293E+03  0.00000000000E+00 0.  1.
         22    1    3    3    0    0  0.23911208370E+02  0.18906724433E+02 -0.33189826212E+03  0.33329516425E+03  0.00000000000E+00 0.  1.
</event>
<event>
 7    1  0.5575489E-006  0.2735595E+02  0.7818608E-02  0.1661092E+00
          2   -1    0    0  502    0  0.00000000000E+00  0.00000000000E+00  0.10637653639E+04  0.10637653639E+04  0.00000000000E+00 0. -1.
          1   -1    0    0  501    0 -0.00000000000E+00 -0.00000000000E+00 -0.41049821974E+03  0.41049821974E+03  0.00000000000E+00 0. -1.
         25    2    1    2    0    0 -0.24061233646E+02  0.29339846715E+02  0.19589278242E+03  0.23545453431E+03  0.12500034381E+03 0.  0.
          2    1    1    2  501    0 -0.24409872966E+01 -0.22704699438E+02 -0.39016339113E+03  0.39083108061E+03  0.00000000000E+00 0. -1.
          1    1    1    2  502    0  0.26502220943E+02 -0.66351472763E+01  0.84753775288E+03  0.84797796873E+03  0.00000000000E+00 0. -1.
         22    1    3    3    0    0  0.27775239453E+00 -0.48631701507E+02  0.65283905938E+02  0.81407050754E+02  0.00000000000E+00 0.  1.
         22    1    3    3    0    0 -0.24338986041E+02  0.77971548221E+02  0.13060887649E+03  0.15404748356E+03  0.00000000000E+00 0.  1.
</event>
<event>
 7    1  0.5575489E-006  0.5832840E+02  0.7818608E-02  0.1498420E+00
          2   -1    0    0  502    0  0.00000000000E+00  0.00000000000E+00  0.13033988263E+04  0.13033988263E+04  0.00000000000E+00 0. -1.
          1   -1    0    0  501    0 -0.00000000000E+00 -0.00000000000E+00 -0.16865839075E+03  0.16865839075E+03  0.00000000000E+00 0. -1.
         25    2    1    2    0    0  0.34706269680E+02  0.12307828418E+02  0.12797569418E+03  0.18264484014E+03  0.12500140613E+03 0.  0.
          2    1    1    2  501    0  0.82574791439E+01  0.28144719327E+02 -0.13903442529E+03  0.14209462553E+03  0.00000000000E+00 0. -1.
          1    1    1    2  502    0 -0.42963748824E+02 -0.40452547745E+02  0.11457991666E+04  0.11473177514E+04  0.00000000000E+00 0. -1.
         22    1    3    3    0    0  0.63559991703E+02  0.19677447276E+02  0.18312858660E+02  0.69010399716E+02  0.00000000000E+00 0.  1.
         22    1    3    3    0    0 -0.28853722023E+02 -0.73696188589E+01  0.10966283552E+03  0.11363444043E+03  0.00000000000E+00 0.  1.
</event>
<event>
 7    1  0.5575489E-006  0.2428893E+02  0.7818608E-02  0.1680760E+00
          2   -1    0    0  502    0  0.00000000000E+00  0.00000000000E+00  0.56963193779E+03  0.56963193779E+03  0.00000000000E+00 0. -1.
          1   -1    0    0  501    0 -0.00000000000E+00 -0.00000000000E+00 -0.13120189640E+03  0.13120189640E+03  0.00000000000E+00 0. -1.
         25    2    1    2    0    0 -0.15816428399E+02 -0.41100218856E+02 -0.59389466890E+02  0.14522853804E+03  0.12499932834E+03 0.  0.
          2    1    1    2  501    0  0.15765807884E+02  0.16857719736E+02 -0.23956475767E+02  0.33266441711E+02  0.00000000000E+00 0. -1.
          1    1    1    2  502    0  0.50620514682E-01  0.24242499120E+02  0.52177598405E+03  0.52233885444E+03  0.00000000000E+00 0. -1.
         22    1    3    3    0    0 -0.55732373386E+02 -0.19936210844E+02  0.12333318312E+02  0.60462059895E+02  0.00000000000E+00 0. -1.
         22    1    3    3    0    0  0.39915944988E+02 -0.21164008012E+02 -0.71722785203E+02  0.84766478142E+02  0.00000000000E+00 0. -1.
</event>
<event>
 7    1  0.5575489E-006  0.2493786E+03  0.7818608E-02  0.1259834E+00
          2   -1    0    0  502    0  0.00000000000E+00  0.00000000000E+00  0.13936119896E+04  0.13936119896E+04  0.00000000000E+00 0. -1.
          1   -1    0    0  501    0 -0.00000000000E+00 -0.00000000000E+00 -0.23518177864E+04  0.23518177864E+04  0.00000000000E+00 0. -1.
         25    2    1    2    0    0 -0.14386599266E+03  0.24845398489E+03  0.34751123772E+03  0.46777796009E+03  0.12500141263E+03 0.  0.
          2    1    1    2  501    0  0.34701134663E+02 -0.34414500003E+02 -0.22767804165E+04  0.22773048965E+04  0.00000000000E+00 0. -1.
          1    1    1    2  502    0  0.10916485799E+03 -0.21403948488E+03  0.97106338200E+03  0.10003469194E+04  0.00000000000E+00 0. -1.
         22    1    3    3    0    0 -0.70359346719E+02  0.51591572628E+02  0.17635505993E+03  0.19675679200E+03  0.00000000000E+00 0. -1.
         22    1    3    3    0    0 -0.73506645938E+02  0.19686241226E+03  0.17115617779E+03  0.27102116809E+03  0.00000000000E+00 0. -1.
</event>
<event>
 7    1  0.5575489E-006  0.3780213E+03  0.7818608E-02  0.1155788E+00
          2   -1    0    0  502    0  0.00000000000E+00  0.00000000000E+00  0.10375944662E+04  0.10375944662E+04  0.00000000000E+00 0. -1.
          1   -1    0    0  501    0 -0.00000000000E+00 -0.00000000000E+00 -0.11732839855E+04  0.11732839855E+04  0.00000000000E+00 0. -1.
         25    2    1    2    0    0  0.34254014745E+03 -0.30020580960E+03 -0.71521257006E+02  0.47769827080E+03  0.12499226772E+03 0.  0.
          2    1    1    2  501    0 -0.25092503550E+03  0.26394219013E+03 -0.85860971132E+03  0.93265185871E+03  0.00000000000E+00 0. -1.
          1    1    1    2  502    0 -0.91615111950E+02  0.36263619473E+02  0.79444144900E+03  0.80052832225E+03  0.00000000000E+00 0. -1.
         22    1    3    3    0    0  0.34560741117E+03 -0.28088628810E+03 -0.49272489168E+02  0.44807294907E+03  0.00000000000E+00 0. -1.
         22    1    3    3    0    0 -0.30672637155E+01 -0.19319521497E+02 -0.22248767837E+02  0.29625321734E+02  0.00000000000E+00 0. -1.
</event>
<event>
 7    1  0.5575489E-006  0.2581754E+03  0.7818608E-02  0.1249547E+00
          2   -1    0    0  502    0  0.00000000000E+00  0.00000000000E+00  0.32507871430E+03  0.32507871430E+03  0.00000000000E+00 0. -1.
          1   -1    0    0  501    0 -0.00000000000E+00 -0.00000000000E+00 -0.14631657524E+04  0.14631657524E+04  0.00000000000E+00 0. -1.
         25    2    1    2    0    0  0.25460275889E+03 -0.14292222843E+03 -0.51915992110E+03  0.60860501848E+03  0.12499486640E+03 0.  0.
          2    1    1    2  501    0 -0.17493414252E+02  0.49261547798E+02 -0.84034681837E+03  0.84197119593E+03  0.00000000000E+00 0. -1.
          1    1    1    2  502    0 -0.23710934464E+03  0.93660680635E+02  0.22141970140E+03  0.33766825225E+03  0.00000000000E+00 0. -1.
         22    1    3    3    0    0  0.16219359209E+03 -0.15125962282E+03 -0.40238667875E+03  0.45945758678E+03  0.00000000000E+00 0. -1.
         22    1    3    3    0    0  0.92409166804E+02  0.83373943892E+01 -0.11677324235E+03  0.14914743170E+03  0.00000000000E+00 0. -1.
</event>
<event>
 7    1  0.5575489E-006  0.1571873E+03  0.7818608E-02  0.1280574E+00
          2   -1    0    0  502    0  0.00000000000E+00  0.00000000000E+00  0.28211451718E+03  0.28211451718E+03  0.00000000000E+00 0. -1.
          1   -1    0    0  501    0 -0.00000000000E+00 -0.00000000000E+00 -0.45690145131E+03  0.45690145131E+03  0.00000000000E+00 0. -1.
         25    2    1    2    0    0 -0.17700074773E+03 -0.89453313417E+02 -0.97340786180E+02  0.25383338366E+03  0.12499999211E+03 0.  0.
          2    1    1    2  501    0  0.11373384486E+03  0.94278044503E+02 -0.25606809544E+03  0.29562578819E+03  0.00000000000E+00 0. -1.
          1    1    1    2  502    0  0.63266902869E+02 -0.48247310866E+01  0.17862194748E+03  0.18955679664E+03  0.00000000000E+00 0. -1.
         22    1    3    3    0    0 -0.15605700200E+03 -0.33080423279E+02 -0.27855985509E+02  0.16193843955E+03  0.00000000000E+00 0. -1.
         22    1    3    3    0    0 -0.20943745733E+02 -0.56372890138E+02 -0.69484800672E+02  0.91894944106E+02  0.00000000000E+00 0. -1.
</event>
<event>
 7    1  0.5575489E-006  0.6664336E+02  0.7818608E-02  0.1497719E+00
          2   -1    0    0  502    0  0.00000000000E+00  0.00000000000E+00  0.15172617861E+03  0.15172617861E+03  0.00000000000E+00 0. -1.
          1   -1    0    0  501    0 -0.00000000000E+00 -0.00000000000E+00 -0.93561880244E+03  0.93561880244E+03  0.00000000000E+00 0. -1.
         25    2    1    2    0    0  0.38542650568E+02 -0.15419000832E+02 -0.66993187937E+03  0.68275693330E+03  0.12500010190E+03 0.  0.
          2    1    1    2  501    0  0.25452959027E+02 -0.41908441478E+01 -0.25087035436E+03  0.25219308277E+03  0.00000000000E+00 0. -1.
          1    1    1    2  502    0 -0.63995609595E+02  0.19609844980E+02  0.13690960991E+03  0.15239496498E+03  0.00000000000E+00 0. -1.
         22    1    3    3    0    0  0.20531776163E+02 -0.67877363710E+02 -0.46817104080E+03  0.47351136605E+03  0.00000000000E+00 0.  1.
         22    1    3    3    0    0  0.18010874406E+02  0.52458362878E+02 -0.20176083857E+03  0.20924556725E+03  0.00000000000E+00 0.  1.
</event>
<event>
 7    1  0.5575489E-006  0.4390932E+02  0.7818608E-02  0.1486023E+00
          2   -1    0    0  502    0  0.00000000000E+00  0.00000000000E+00  0.10870542282E+03  0.10870542282E+03  0.00000000000E+00 0. -1.
          1   -1    0    0  501    0 -0.00000000000E+00 -0.00000000000E+00 -0.52999608971E+03  0.52999608971E+03  0.00000000000E+00 0. -1.
         25    2    1    2    0    0 -0.21966838650E+02  0.75839736840E+02 -0.34204866461E+03  0.37263380947E+03  0.12499783723E+03 0.  0.
          2    1    1    2  501    0  0.27140736119E+02 -0.32661265682E+02 -0.16475085142E+03  0.17013588944E+03  0.00000000000E+00 0. -1.
          1    1    1    2  502    0 -0.51738974696E+01 -0.43178471158E+02  0.85508849135E+02  0.95931813633E+02  0.00000000000E+00 0. -1.
         22    1    3    3    0    0  0.51501954963E+02  0.18879873073E+02 -0.13060485813E+03  0.14165637980E+03  0.00000000000E+00 0. -1.
         22    1    3    3    0    0 -0.73468793612E+02  0.56959863766E+02 -0.21144380648E+03  0.23097742966E+03  0.00000000000E+00 0. -1.
</event>
<event>
 7    1  0.5575489E-006  0.6512955E+02  0.7818608E-02  0.1384478E+00
          2   -1    0    0  502    0  0.00000000000E+00  0.00000000000E+00  0.93299489243E+03  0.93299489243E+03  0.00000000000E+00 0. -1.
          1   -1    0    0  501    0 -0.00000000000E+00 -0.00000000000E+00 -0.81594999727E+03  0.81594999727E+03  0.00000000000E+00 0. -1.
         25    2    1    2    0    0  0.10329789062E+03  0.33571306248E+01  0.38245159721E+02  0.16664284735E+03  0.12500168717E+03 0.  0.
          2    1    1    2  501    0 -0.50877153687E+02  0.34593895753E+02 -0.74922764369E+03  0.75174948251E+03  0.00000000000E+00 0. -1.
          1    1    1    2  502    0 -0.52420736938E+02 -0.37951026377E+02  0.82802737913E+03  0.83055255984E+03  0.00000000000E+00 0. -1.
         22    1    3    3    0    0  0.38110088804E+02 -0.34935081137E+02  0.67977797157E+02  0.85403862143E+02  0.00000000000E+00 0.  1.
         22    1    3    3    0    0  0.65187801821E+02  0.38292211762E+02 -0.29732637436E+02  0.81238985203E+02  0.00000000000E+00 0.  1.
</event>
<event>
 7    1  0.5575489E-006  0.1213185E+03  0.7818608E-02  0.1282159E+00
          2   -1    0    0  502    0  0.00000000000E+00  0.00000000000E+00  0.37322021193E+03  0.37322021193E+03  0.00000000000E+00 0. -1.
          1   -1    0    0  501    0 -0.00000000000E+00 -0.00000000000E+00 -0.34203521844E+03  0.34203521844E+03  0.00000000000E+00 0. -1.
         25    2    1    2    0    0 -0.62798536486E+02 -0.14802393493E+03  0.94780964325E+02  0.22467278631E+03  0.12505873905E+03 0.  0.
          2    1    1    2  501    0  0.94349309199E+02  0.73440460451E+02 -0.25560939637E+03  0.28219046208E+03  0.00000000000E+00 0. -1.
          1    1    1    2  502    0 -0.31550772713E+02  0.74583474481E+02  0.19201342553E+03  0.20839218198E+03  0.00000000000E+00 0. -1.
         22    1    3    3    0    0  0.12964593132E+02 -0.99926074388E+02  0.89507050384E+02  0.13477690116E+03  0.00000000000E+00 0. -1.
         22    1    3    3    0    0 -0.75763129619E+02 -0.48097860543E+02  0.52739139405E+01  0.89895885149E+02  0.00000000000E+00 0. -1.
</event>
<event>
 7    1  0.5575489E-006  0.1065907E+03  0.7818608E-02  0.1372250E+00
          2   -1    0    0  502    0  0.00000000000E+00  0.00000000000E+00  0.29026940186E+04  0.29026940186E+04  0.00000000000E+00 0. -1.
          1   -1    0    0  501    0 -0.00000000000E+00 -0.00000000000E+00 -0.19344819247E+03  0.19344819247E+03  0.00000000000E+00 0. -1.
         25    2    1    2    0    0  0.12535834951E+03  0.68638463766E+02  0.60392723756E+03  0.63307172141E+03  0.12500296670E+03 0.  0.
          2    1    1    2  501    0 -0.84061960682E+02 -0.64098289942E+02 -0.16305074434E+03  0.19432073805E+03  0.00000000000E+00 0. -1.
          1    1    1    2  502    0 -0.41296388828E+02 -0.45401738241E+01  0.22683693329E+04  0.22687497516E+04  0.00000000000E+00 0. -1.
         22    1    3    3    0    0  0.79576882962E+02  0.98738695745E+02  0.32603025314E+03  0.34982500812E+03  0.00000000000E+00 0.  1.
         22    1    3    3    0    0  0.45781466548E+02 -0.30100231978E+02  0.27789698441E+03  0.28324671329E+03  0.00000000000E+00 0.  1.
</event>
<event>
 7    1  0.5575489E-006  0.5504135E+02  0.7818608E-02  0.1540428E+00
          2   -1    0    0  502    0  0.00000000000E+00  0.00000000000E+00  0.11783447962E+03  0.11783447962E+03  0.00000000000E+00 0. -1.
          1   -1    0    0  501    0 -0.00000000000E+00 -0.00000000000E+00 -0.12923407649E+04  0.12923407649E+04  0.00000000000E+00 0. -1.
         25    2    1    2    0    0  0.78134647347E+02  0.44202464026E+01 -0.97481214820E+03  0.98590467998E+03  0.12499900808E+03 0.  0.
          2    1    1    2  501    0 -0.23461640254E+02  0.36637436591E+00 -0.30479831532E+03  0.30570017307E+03  0.00000000000E+00 0. -1.
          1    1    1    2  502    0 -0.54673007093E+02 -0.47866207685E+01  0.10510417826E+03  0.11857039146E+03  0.00000000000E+00 0. -1.
         22    1    3    3    0    0 -0.32235783735E+02  0.94219060092E+00 -0.13165628163E+03  0.13554855208E+03  0.00000000000E+00 0. -1.
         22    1    3    3    0    0  0.11037043108E+03  0.34780558017E+01 -0.84315586657E+03  0.85035612790E+03  0.00000000000E+00 0. -1.
</event>
<event>
 7    1  0.5575489E-006  0.1978858E+03  0.7818608E-02  0.1335776E+00
          2   -1    0    0  502    0  0.00000000000E+00  0.00000000000E+00  0.54962787381E+03  0.54962787381E+03  0.00000000000E+00 0. -1.
          1   -1    0    0  501    0 -0.00000000000E+00 -0.00000000000E+00 -0.18906788962E+04  0.18906788962E+04  0.00000000000E+00 0. -1.
         25    2    1    2    0    0 -0.35320362422E+02  0.22396598361E+03 -0.76586400319E+03  0.80844321832E+03  0.12499790421E+03 0.  0.
          2    1    1    2  501    0 -0.24139963668E+01 -0.30395156199E+02 -0.10848999142E+04  0.10853282990E+04  0.00000000000E+00 0. -1.
          1    1    1    2  502    0  0.37734358788E+02 -0.19357082741E+03  0.50971289499E+03  0.54653525264E+03  0.00000000000E+00 0. -1.
         22    1    3    3    0    0  0.39420945437E+02  0.45786706848E+02 -0.26014982784E+03  0.26707370965E+03  0.00000000000E+00 0. -1.
         22    1    3    3    0    0 -0.74741307859E+02  0.17817927676E+03 -0.50571417535E+03  0.54136950867E+03  0.00000000000E+00 0. -1.
</event>
<event>
 7    1  0.5575489E-006  0.1192615E+03  0.7818608E-02  0.1425715E+00
          2   -1    0    0  502    0  0.00000000000E+00  0.00000000000E+00  0.15340419168E+04  0.15340419168E+04  0.00000000000E+00 0. -1.
          1   -1    0    0  501    0 -0.00000000000E+00 -0.00000000000E+00 -0.63151548518E+03  0.63151548518E+03  0.00000000000E+00 0. -1.
         25    2    1    2    0    0 -0.41040229359E+01 -0.10853044563E+03 -0.96889464722E+02  0.19185644635E+03  0.12500250798E+03 0.  0.
          2    1    1    2  501    0 -0.23002070854E+02 -0.78249671082E+01 -0.48443718718E+03  0.48504609440E+03  0.00000000000E+00 0. -1.
          1    1    1    2  502    0  0.27106093790E+02  0.11635541273E+03  0.14838530835E+04  0.14886548612E+04  0.00000000000E+00 0. -1.
         22    1    3    3    0    0 -0.45680887941E+02 -0.96870362998E+02 -0.10258108643E+03  0.14830202306E+03  0.00000000000E+00 0. -1.
         22    1    3    3    0    0  0.41576865006E+02 -0.11660082627E+02  0.56916217074E+01  0.43554423291E+02  0.00000000000E+00 0. -1.
</event>
<event>
 7    1  0.5575489E-006  0.4065986E+02  0.7818608E-02  0.1578549E+00
          2   -1    0    0  502    0  0.00000000000E+00  0.00000000000E+00  0.16111140423E+04  0.16111140423E+04  0.00000000000E+00 0. -1.
          1   -1    0    0  501    0 -0.00000000000E+00 -0.00000000000E+00 -0.41008375781E+03  0.41008375781E+03  0.00000000000E+00 0. -1.
         25    2    1    2    0    0 -0.42299510278E+02  0.44940094950E+02  0.17593812446E+03  0.22447546999E+03  0.12500460904E+03 0.  0.
          2    1    1    2  501    0  0.19102102021E+02 -0.35779168855E+02 -0.38463852602E+03  0.38677103682E+03  0.00000000000E+00 0. -1.
          1    1    1    2  502    0  0.23197408257E+02 -0.91609260952E+01  0.14097306861E+04  0.14099512933E+04  0.00000000000E+00 0. -1.
         22    1    3    3    0    0 -0.73343866833E+02  0.55775468515E+02  0.76558189014E+02  0.11979725370E+03  0.00000000000E+00 0. -1.
         22    1    3    3    0    0  0.31044356555E+02 -0.10835373565E+02  0.99379935447E+02  0.10467821628E+03  0.00000000000E+00 0. -1.
</event>
<event>
 7    1  0.5575489E-006  0.1761828E+03  0.7818608E-02  0.1355778E+00
          2   -1    0    0  502    0  0.00000000000E+00  0.00000000000E+00  0.37596634853E+04  0.37596634853E+04  0.00000000000E+00 0. -1.
          1   -1    0    0  501    0 -0.00000000000E+00 -0.00000000000E+00 -0.59642075033E+03  0.59642075033E+03  0.00000000000E+00 0. -1.
         25    2    1    2    0    0  0.83813385886E+02  0.17236552897E+03  0.88982767008E+03  0.91877628102E+03  0.12498805096E+03 0.  0.
          2    1    1    2  501    0  0.10712921176E+02 -0.26778918164E+02 -0.57894903750E+03  0.57966702956E+03  0.00000000000E+00 0. -1.
          1    1    1    2  502    0 -0.94526307061E+02 -0.14558661080E+03  0.28523641024E+04  0.28576409251E+04  0.00000000000E+00 0. -1.
         22    1    3    3    0    0  0.63658688529E+02  0.63527867772E+02  0.18953295976E+03  0.20978789632E+03  0.00000000000E+00 0. -1.
         22    1    3    3    0    0  0.20154697356E+02  0.10883766120E+03  0.70029471033E+03  0.70898838470E+03  0.00000000000E+00 0. -1.
</event>
<event>
 7    1  0.5575489E-006  0.6571095E+02  0.7818608E-02  0.1398344E+00
          2   -1    0    0  502    0  0.00000000000E+00  0.00000000000E+00  0.15880970675E+03  0.15880970675E+03  0.00000000000E+00 0. -1.
          1   -1    0    0  501    0 -0.00000000000E+00 -0.00000000000E+00 -0.10967295594E+04  0.10967295594E+04  0.00000000000E+00 0. -1.
         25    2    1    2    0    0  0.10136758387E+02  0.31716489365E+02 -0.29983579296E+03  0.32655056162E+03  0.12500030795E+03 0.  0.
          2    1    1    2  501    0 -0.49931878312E+02  0.21997876799E+02 -0.77484501234E+03  0.77676372997E+03  0.00000000000E+00 0. -1.
          1    1    1    2  502    0  0.39795119925E+02 -0.53714366164E+02  0.13676095266E+03  0.15222497455E+03  0.00000000000E+00 0. -1.
         22    1    3    3    0    0  0.23509504963E+02  0.19018924382E+02 -0.30570612137E+03  0.30719806144E+03  0.00000000000E+00 0.  1.
         22    1    3    3    0    0 -0.13372746576E+02  0.12697564983E+02  0.58703284158E+01  0.19352500179E+02  0.00000000000E+00 0.  1.
</event>
<event>
 7    1  0.5575489E-006  0.1249117E+03  0.7818608E-02  0.1270323E+00
          2   -1    0    0  502    0  0.00000000000E+00  0.00000000000E+00  0.37392529728E+03  0.37392529728E+03  0.00000000000E+00 0. -1.
          1   -1    0    0  501    0 -0.00000000000E+00 -0.00000000000E+00 -0.27215703709E+04  0.27215703709E+04  0.00000000000E+00 0. -1.
         25    2    1    2    0    0 -0.94813302864E+02  0.11784152379E+03 -0.24400370178E+03  0.31311140301E+03  0.12499902834E+03 0.  0.
          2    1    1    2  501    0  0.12035302045E+03 -0.33536520248E+02 -0.24356684280E+04  0.24388706892E+04  0.00000000000E+00 0. -1.
          1    1    1    2  502    0 -0.25539717589E+02 -0.84305003538E+02  0.33202705618E+03  0.34351357591E+03  0.00000000000E+00 0. -1.
         22    1    3    3    0    0 -0.98708951004E+02  0.27344426416E+02 -0.10109904241E+03  0.14391730626E+03  0.00000000000E+00 0.  1.
         22    1    3    3    0    0  0.38956481393E+01  0.90497097370E+02 -0.14290465937E+03  0.16919409675E+03  0.00000000000E+00 0.  1.
</event>
<event>
 7    1  0.5575489E-006  0.6627994E+02  0.7818608E-02  0.1441959E+00
          2   -1    0    0  502    0  0.00000000000E+00  0.00000000000E+00  0.80445176702E+03  0.80445176702E+03  0.00000000000E+00 0. -1.
          1   -1    0    0  501    0 -0.00000000000E+00 -0.00000000000E+00 -0.10336839701E+04  0.10336839701E+04  0.00000000000E+00 0. -1.
         25    2    1    2    0    0  0.76147145926E+01 -0.46743350169E+02  0.73231119394E+02  0.15241993324E+03  0.12500445807E+03 0.  0.
          2    1    1    2  501    0 -0.35885361780E+02 -0.14433393687E+02 -0.99207008219E+03  0.99282381620E+03  0.00000000000E+00 0. -1.
          1    1    1    2  502    0  0.28270647187E+02  0.61176743856E+02  0.68960675973E+03  0.69289198765E+03  0.00000000000E+00 0. -1.
         22    1    3    3    0    0 -0.21615828009E+01  0.38795537764E+01  0.95968097209E+02  0.96070802326E+02  0.00000000000E+00 0.  1.
         22    1    3    3    0    0  0.97762973935E+01 -0.50622903946E+02 -0.22736977814E+02  0.56349130914E+02  0.00000000000E+00 0.  1.
</event>
<event>
 7    1  0.5575489E-006  0.1314325E+03  0.7818608E-02  0.1268391E+00
          2   -1    0    0  502    0  0.00000000000E+00  0.00000000000E+00  0.22160498401E+04  0.22160498401E+04  0.00000000000E+00 0. -1.
          1   -1    0    0  501    0 -0.00000000000E+00 -0.00000000000E+00 -0.14877836894E+04  0.14877836894E+04  0.00000000000E+00 0. -1.
         25    2    1    2    0    0  0.55303987127E+02 -0.11103694168E+03  0.48491667972E+03  0.51590481336E+03  0.12500342704E+03 0.  0.
          2    1    1    2  501    0  0.28169644077E+02  0.12858704141E+03 -0.14682830686E+04  0.14741720814E+04  0.00000000000E+00 0. -1.
          1    1    1    2  502    0 -0.83473631204E+02 -0.17550099729E+02  0.17116325395E+04  0.17137566348E+04  0.00000000000E+00 0. -1.
         22    1    3    3    0    0  0.58058621181E+02 -0.87183228182E+02  0.16732463002E+03  0.19740630837E+03  0.00000000000E+00 0. -1.
         22    1    3    3    0    0 -0.27546340534E+01 -0.23853713502E+02  0.31759204970E+03  0.31849850500E+03  0.00000000000E+00 0. -1.
</event>
<event>
 7    1  0.5575489E-006  0.1691376E+03  0.7818608E-02  0.1305173E+00
          2   -1    0    0  502    0  0.00000000000E+00  0.00000000000E+00  0.10453211363E+04  0.10453211363E+04  0.00000000000E+00 0. -1.
          1   -1    0    0  501    0 -0.00000000000E+00 -0.00000000000E+00 -0.73499875430E+03  0.73499875430E+03  0.00000000000E+00 0. -1.
         25    2    1    2    0    0  0.18293124125E+03 -0.76666893305E+02 -0.12640741734E+03  0.26635798010E+03  0.12500434732E+03 0.  0.
          2    1    1    2  501    0 -0.18090309211E+02  0.43251516640E+02 -0.53032318902E+03  0.53239143287E+03  0.00000000000E+00 0. -1.
          1    1    1    2  502    0 -0.16484093204E+03  0.33415376665E+02  0.96705298836E+03  0.98157047764E+03  0.00000000000E+00 0. -1.
         22    1    3    3    0    0  0.17854525829E+03 -0.24898803283E+02 -0.82146896843E+02  0.19810722431E+03  0.00000000000E+00 0.  1.
         22    1    3    3    0    0  0.43859829580E+01 -0.51768090022E+02 -0.44260520495E+02  0.68250755787E+02  0.00000000000E+00 0.  1.
</event>
<event>
 7    1  0.5575489E-006  0.5635775E+02  0.7818608E-02  0.1507609E+00
          2   -1    0    0  502    0  0.00000000000E+00  0.00000000000E+00  0.12392048018E+04  0.12392048018E+04  0.00000000000E+00 0. -1.
          1   -1    0    0  501    0 -0.00000000000E+00 -0.00000000000E+00 -0.36304879289E+03  0.36304879289E+03  0.00000000000E+00 0. -1.
         25    2    1    2    0    0 -0.60210218564E+02  0.53698112382E+02  0.56492007872E+03  0.58418154660E+03  0.12499850540E+03 0.  0.
          2    1    1    2  501    0  0.15550002442E+02 -0.23891957393E+02 -0.35175613483E+03  0.35290934614E+03  0.00000000000E+00 0. -1.
          1    1    1    2  502    0  0.44660216122E+02 -0.29806154989E+02  0.66299206502E+03  0.66516270194E+03  0.00000000000E+00 0. -1.
         22    1    3    3    0    0  0.52213315929E+01  0.38432528974E+02  0.42813435345E+02  0.57769471462E+02  0.00000000000E+00 0. -1.
         22    1    3    3    0    0 -0.65431550157E+02  0.15265583409E+02  0.52210664337E+03  0.52641207514E+03  0.00000000000E+00 0. -1.
</event>
<event>
 7    1  0.5575489E-006  0.4347198E+02  0.7818608E-02  0.1513059E+00
          2   -1    0    0  502    0  0.00000000000E+00  0.00000000000E+00  0.63010865507E+03  0.63010865507E+03  0.00000000000E+00 0. -1.
          1   -1    0    0  501    0 -0.00000000000E+00 -0.00000000000E+00 -0.72826011927E+02  0.72826011927E+02  0.00000000000E+00 0. -1.
         25    2    1    2    0    0 -0.37021661122E+01 -0.16853929921E+02  0.10352802622E+03  0.16322029301E+03  0.12500020341E+03 0.  0.
          2    1    1    2  501    0 -0.35307068350E+02 -0.46852740952E+01 -0.34407963255E+02  0.49522205163E+02  0.00000000000E+00 0. -1.
          1    1    1    2  502    0  0.39009234462E+02  0.21539204016E+02  0.48816258018E+03  0.49019216882E+03  0.00000000000E+00 0. -1.
         22    1    3    3    0    0 -0.25912900887E+02 -0.66442277822E+02  0.66130944366E+02  0.97259223302E+02  0.00000000000E+00 0. -1.
         22    1    3    3    0    0  0.22210734775E+02  0.49588347901E+02  0.37397081850E+02  0.65961069713E+02  0.00000000000E+00 0. -1.
</event>
<event>
 7    1  0.5575489E-006  0.4738117E+02  0.7818608E-02  0.1531286E+00
          2   -1    0    0  502    0  0.00000000000E+00  0.00000000000E+00  0.97202606042E+01  0.97202606042E+01  0.00000000000E+00 0. -1.
          1   -1    0    0  501    0 -0.00000000000E+00 -0.00000000000E+00 -0.30896465889E+04  0.30896465889E+04  0.00000000000E+00 0. -1.
         25    2    1    2    0    0 -0.46883168250E+02  0.87247975185E+01 -0.63933113994E+03  0.65318011534E+03  0.12500321206E+03 0.  0.
          2    1    1    2  501    0  0.43273063047E+02  0.19987945733E+02 -0.23612152595E+04  0.23616963347E+04  0.00000000000E+00 0. -1.
          1    1    1    2  502    0  0.36101052027E+01 -0.28712743252E+02 -0.79379928872E+02  0.84490399409E+02  0.00000000000E+00 0. -1.
         22    1    3    3    0    0 -0.14307867907E+02  0.66187385035E+02 -0.31788572736E+03  0.32501818516E+03  0.00000000000E+00 0. -1.
         22    1    3    3    0    0 -0.32575300343E+02 -0.57462587517E+02 -0.32144541257E+03  0.32816193018E+03  0.00000000000E+00 0. -1.
</event>
<event>
 7    1  0.5575489E-006  0.5950784E+02  0.7818608E-02  0.1404192E+00
          2   -1    0    0  502    0  0.00000000000E+00  0.00000000000E+00  0.29725149714E+04  0.29725149714E+04  0.00000000000E+00 0. -1.
          1   -1    0    0  501    0 -0.00000000000E+00 -0.00000000000E+00 -0.17168690279E+02  0.17168690279E+02  0.00000000000E+00 0. -1.
         25    2    1    2    0    0 -0.28719066857E+02  0.22522318361E+01  0.56448066439E+03  0.57887248244E+03  0.12500029245E+03 0.  0.
          2    1    1    2  501    0  0.17391814752E+02  0.56909642831E+02  0.82832675654E+02  0.10199232728E+03  0.00000000000E+00 0. -1.
          1    1    1    2  502    0  0.11327252106E+02 -0.59161874667E+02  0.23080329411E+04  0.23088188520E+04  0.00000000000E+00 0. -1.
         22    1    3    3    0    0 -0.90209382180E+01  0.55186495578E+02  0.14167961767E+03  0.15231559567E+03  0.00000000000E+00 0. -1.
         22    1    3    3    0    0 -0.19698128639E+02 -0.52934263741E+02  0.42280104672E+03  0.42655688677E+03  0.00000000000E+00 0. -1.
</event>
<event>
 7    1  0.5575489E-006  0.1432205E+03  0.7818608E-02  0.1219425E+00
          2   -1    0    0  502    0  0.00000000000E+00  0.00000000000E+00  0.84503763827E+03  0.84503763827E+03  0.00000000000E+00 0. -1.
          1   -1    0    0  501    0 -0.00000000000E+00 -0.00000000000E+00 -0.26302192570E+04  0.26302192570E+04  0.00000000000E+00 0. -1.
         25    2    1    2    0    0 -0.92444713856E+00  0.13086414542E+03 -0.24704858686E+03  0.30624202998E+03  0.12499958998E+03 0.  0.
          2    1    1    2  501    0 -0.11856061755E+03 -0.49078241332E+02 -0.23453786349E+04  0.23488861690E+04  0.00000000000E+00 0. -1.
          1    1    1    2  502    0  0.11948506468E+03 -0.81785904086E+02  0.80724560306E+03  0.82012869628E+03  0.00000000000E+00 0. -1.
         22    1    3    3    0    0 -0.42298295031E+02  0.71255320923E+02 -0.20787557513E+03  0.22378275460E+03  0.00000000000E+00 0. -1.
         22    1    3    3    0    0  0.41373847893E+02  0.59608824496E+02 -0.39173011736E+02  0.82459275377E+02  0.00000000000E+00 0. -1.
</event>
<event>
 7    1  0.5575489E-006  0.5773477E+02  0.7818608E-02  0.1546136E+00
          2   -1    0    0  502    0  0.00000000000E+00  0.00000000000E+00  0.37598839472E+03  0.37598839472E+03  0.00000000000E+00 0. -1.
          1   -1    0    0  501    0 -0.00000000000E+00 -0.00000000000E+00 -0.14411438990E+04  0.14411438990E+04  0.00000000000E+00 0. -1.
         25    2    1    2    0    0 -0.12517300762E+02  0.42764344760E+02 -0.44910950311E+03  0.46830509127E+03  0.12499936290E+03 0.  0.
          2    1    1    2  501    0  0.33162230803E+02 -0.48969968872E+02 -0.98122836529E+03  0.98300910283E+03  0.00000000000E+00 0. -1.
          1    1    1    2  502    0 -0.20644930042E+02  0.62056241119E+01  0.36518236414E+03  0.36581809959E+03  0.00000000000E+00 0. -1.
         22    1    3    3    0    0 -0.58601495418E+02  0.57399750870E+02 -0.23836291549E+03  0.25208281605E+03  0.00000000000E+00 0.  1.
         22    1    3    3    0    0  0.46084194657E+02 -0.14635406110E+02 -0.21074658762E+03  0.21622227522E+03  0.00000000000E+00 0.  1.
</event>
<event>
 7    1  0.5575489E-006  0.1614973E+03  0.7818608E-02  0.1268238E+00
          2   -1    0    0  502    0  0.00000000000E+00  0.00000000000E+00  0.13136094829E+04  0.13136094829E+04  0.00000000000E+00 0. -1.
          1   -1    0    0  501    0 -0.00000000000E+00 -0.00000000000E+00 -0.17597832230E+03  0.17597832230E+03  0.00000000000E+00 0. -1.
         25    2    1    2    0    0 -0.22525618390E+02  0.11195194463E+03  0.18560072829E+03  0.25122437136E+03  0.12500165212E+03 0.  0.
          2    1    1    2  501    0 -0.97796148544E+01 -0.17351270297E+03 -0.88836416691E+02  0.19517737546E+03  0.00000000000E+00 0. -1.
          1    1    1    2  502    0  0.32305233244E+02  0.61560758345E+02  0.10408668490E+04  0.10431860584E+04  0.00000000000E+00 0. -1.
         22    1    3    3    0    0  0.84803680785E+01 -0.21044692624E+02  0.65655430470E+02  0.69465324304E+02  0.00000000000E+00 0. -1.
         22    1    3    3    0    0 -0.31005986468E+02  0.13299663725E+03  0.11994529782E+03  0.18175904706E+03  0.00000000000E+00 0. -1.
</event>
<event>
 7    1  0.5575489E-006  0.8581222E+02  0.7818608E-02  0.1452664E+00
          2   -1    0    0  502    0  0.00000000000E+00  0.00000000000E+00  0.55249945611E+03  0.55249945611E+03  0.00000000000E+00 0. -1.
          1   -1    0    0  501    0 -0.00000000000E+00 -0.00000000000E+00 -0.90484427302E+03  0.90484427302E+03  0.00000000000E+00 0. -1.
         25    2    1    2    0    0 -0.10429017178E+02  0.74984368394E+02  0.18897031253E+03  0.23890262175E+03  0.12503305067E+03 0.  0.
          2    1    1    2  501    0 -0.27038205923E+02  0.55467773512E+01 -0.87383106458E+03  0.87426687044E+03  0.00000000000E+00 0. -1.
          1    1    1    2  502    0  0.37467223102E+02 -0.80531145745E+02  0.33251593515E+03  0.34417423694E+03  0.00000000000E+00 0. -1.
         22    1    3    3    0    0 -0.28236701198E+02 -0.25067662412E+02  0.87470018592E+02  0.95271733195E+02  0.00000000000E+00 0.  1.
         22    1    3    3    0    0  0.17807684019E+02  0.10005203081E+03  0.10150029393E+03  0.14363088856E+03  0.00000000000E+00 0.  1.
</event>
<event>
 7    1  0.5575489E-006  0.1550974E+03  0.7818608E-02  0.1258796E+00
          2   -1    0    0  502    0  0.00000000000E+00  0.00000000000E+00  0.14182494646E+03  0.14182494646E+03  0.00000000000E+00 0. -1.
          1   -1    0    0  501    0 -0.00000000000E+00 -0.00000000000E+00 -0.12410112060E+04  0.12410112060E+04  0.00000000000E+00 0. -1.
         25    2    1    2    0    0  0.22547564846E+03 -0.11764894908E+02 -0.17574709313E+03  0.31223289884E+03  0.12499864629E+03 0.  0.
          2    1    1    2  501    0 -0.14718703351E+03  0.24931827991E+02 -0.96808151430E+03  0.97952408710E+03  0.00000000000E+00 0. -1.
          1    1    1    2  502    0 -0.78288614956E+02 -0.13166933082E+02  0.44642347851E+02  0.91079166554E+02  0.00000000000E+00 0. -1.
         22    1    3    3    0    0  0.54188132628E+02 -0.40688239685E+02 -0.10434682765E+03  0.12441923889E+03  0.00000000000E+00 0. -1.
         22    1    3    3    0    0  0.17128751583E+03  0.28923344777E+02 -0.71400265482E+02  0.18781365995E+03  0.00000000000E+00 0. -1.
</event>
<event>
 7    1  0.5575489E-006  0.2044074E+03  0.7818608E-02  0.1258822E+00
          2   -1    0    0  502    0  0.00000000000E+00  0.00000000000E+00  0.21972959042E+04  0.21972959042E+04  0.00000000000E+00 0. -1.
          1   -1    0    0  501    0 -0.00000000000E+00 -0.00000000000E+00 -0.66152781058E+03  0.66152781058E+03  0.00000000000E+00 0. -1.
         25    2    1    2    0    0  0.15546534098E+03  0.10785230759E+03  0.22968015367E+03  0.32276790763E+03  0.12499822681E+03 0.  0.
          2    1    1    2  501    0 -0.19588913423E+03 -0.63214237146E+02 -0.59727090246E+03  0.63174450818E+03  0.00000000000E+00 0. -1.
          1    1    1    2  502    0  0.40423793244E+02 -0.44638070446E+02  0.19033588424E+04  0.19043112990E+04  0.00000000000E+00 0. -1.
         22    1    3    3    0    0  0.30599424249E+02  0.60449215643E+01 -0.11058688971E+02  0.33093208410E+02  0.00000000000E+00 0. -1.
         22    1    3    3    0    0  0.12486591673E+03  0.10180738603E+03  0.24073884264E+03  0.28967469922E+03  0.00000000000E+00 0. -1.
</event>
<event>
 7    1  0.5575489E-006  0.1239929E+03  0.7818608E-02  0.1401201E+00
          2   -1    0    0  502    0  0.00000000000E+00  0.00000000000E+00  0.75698455514E+03  0.75698455514E+03  0.00000000000E+00 0. -1.
          1   -1    0    0  501    0 -0.00000000000E+00 -0.00000000000E+00 -0.94827772178E+03  0.94827772178E+03  0.00000000000E+00 0. -1.
         25    2    1    2    0    0  0.31555928454E+02  0.13327316465E+03  0.23699382256E+02  0.18693435266E+03  0.12500111379E+03 0.  0.
          2    1    1    2  501    0 -0.50842327751E+02 -0.11260496458E+03 -0.86194666031E+03  0.87075649039E+03  0.00000000000E+00 0. -1.
          1    1    1    2  502    0  0.19286399297E+02 -0.20668200066E+02  0.64695411142E+03  0.64757143387E+03  0.00000000000E+00 0. -1.
         22    1    3    3    0    0 -0.14421054045E+00  0.64483251949E+02 -0.49736907839E+02  0.81436297680E+02  0.00000000000E+00 0. -1.
         22    1    3    3    0    0  0.31700138994E+02  0.68789912702E+02  0.73436290095E+02  0.10549805498E+03  0.00000000000E+00 0. -1.
</event>
<event>
 7    1  0.5575489E-006  0.8565479E+02  0.7818608E-02  0.1318661E+00
          2   -1    0    0  502    0  0.00000000000E+00  0.00000000000E+00  0.16448805442E+04  0.16448805442E+04  0.00000000000E+00 0. -1.
          1   -1    0    0  501    0 -0.00000000000E+00 -0.00000000000E+00 -0.28301195088E+02  0.28301195088E+02  0.00000000000E+00 0. -1.
         25    2    1    2    0    0 -0.21525066829E+02 -0.79282838557E+02  0.37846524513E+03  0.40695427004E+03  0.12500695635E+03 0.  0.
          2    1    1    2  501    0  0.83541687727E+02  0.18908440858E+02  0.13603723954E+03  0.16075718729E+03  0.00000000000E+00 0. -1.
          1    1    1    2  502    0 -0.62016620898E+02  0.60374397699E+02  0.11020768644E+04  0.11054702819E+04  0.00000000000E+00 0. -1.
         22    1    3    3    0    0  0.90368507843E+01  0.26776395384E+02  0.15683455358E+03  0.15936033765E+03  0.00000000000E+00 0. -1.
         22    1    3    3    0    0 -0.30561917614E+02 -0.10605923394E+03  0.22163069156E+03  0.24759393238E+03  0.00000000000E+00 0. -1.
</event>
<event>
 7    1  0.5575489E-006  0.5084269E+02  0.7818608E-02  0.1529969E+00
          2   -1    0    0  502    0  0.00000000000E+00  0.00000000000E+00  0.16298028211E+04  0.16298028211E+04  0.00000000000E+00 0. -1.
          1   -1    0    0  501    0 -0.00000000000E+00 -0.00000000000E+00 -0.87986900235E+02  0.87986900235E+02  0.00000000000E+00 0. -1.
         25    2    1    2    0    0  0.31058531504E+02  0.17678367100E+02  0.83908444471E+03  0.84909628973E+03  0.12499858737E+03 0.  0.
          2    1    1    2  501    0 -0.25364097124E+02 -0.44279410459E+02 -0.74875393694E+02  0.90610861349E+02  0.00000000000E+00 0. -1.
          1    1    1    2  502    0 -0.56944343802E+01  0.26601043359E+02  0.77760686986E+03  0.77808257026E+03  0.00000000000E+00 0. -1.
         22    1    3    3    0    0  0.78939166722E+02  0.18309144126E+02  0.57861059690E+03  0.58425751142E+03  0.00000000000E+00 0. -1.
         22    1    3    3    0    0 -0.47880635218E+02 -0.63077702530E+00  0.26047384780E+03  0.26483877831E+03  0.00000000000E+00 0. -1.
</event>
<event>
 7    1  0.5575489E-006  0.8212877E+02  0.7818608E-02  0.1405946E+00
          2   -1    0    0  502    0  0.00000000000E+00  0.00000000000E+00  0.97648725518E+03  0.97648725518E+03  0.00000000000E+00 0. -1.
          1   -1    0    0  501    0 -0.00000000000E+00 -0.00000000000E+00 -0.12888550987E+03  0.12888550987E+03  0.00000000000E+00 0. -1.
         25    2    1    2    0    0 -0.91002963695E+02  0.47706129408E+02  0.65901166092E+02  0.17471391574E+03  0.12499829790E+03 0.  0.
          2    1    1    2  501    0  0.79076178740E+02 -0.83607844236E+01 -0.52603827352E+02  0.95342054795E+02  0.00000000000E+00 0. -1.
          1    1    1    2  502    0  0.11926784955E+02 -0.39345344984E+02  0.83430440657E+03  0.83531679451E+03  0.00000000000E+00 0. -1.
         22    1    3    3    0    0 -0.77146091494E+02  0.64568831105E+02  0.94980877549E+02  0.13835469086E+03  0.00000000000E+00 0. -1.
         22    1    3    3    0    0 -0.13856872201E+02 -0.16862701697E+02 -0.29079711457E+02  0.36359224884E+02  0.00000000000E+00 0. -1.
</event>
<event>
 7    1  0.5575489E-006  0.5110716E+02  0.7818608E-02  0.1510070E+00
          2   -1    0    0  502    0  0.00000000000E+00  0.00000000000E+00  0.13643478764E+02  0.13643478764E+02  0.00000000000E+00 0. -1.
          1   -1    0    0  501    0 -0.00000000000E+00 -0.00000000000E+00 -0.19604480076E+04  0.19604480076E+04  0.00000000000E+00 0. -1.
         25    2    1    2    0    0  0.48221204566E+02 -0.61932086186E+02 -0.70462995367E+03  0.71992280185E+03  0.12499840457E+03 0.  0.
          2    1    1    2  501    0 -0.36360332697E+02  0.33383550267E+02 -0.12041571418E+04  0.12051684353E+04  0.00000000000E+00 0. -1.
          1    1    1    2  502    0 -0.11860871869E+02  0.28548535920E+02 -0.38017433297E+02  0.49000249174E+02  0.00000000000E+00 0. -1.
         22    1    3    3    0    0  0.27109996176E+02 -0.67777194411E+02 -0.68937462290E+03  0.69322872898E+03  0.00000000000E+00 0.  1.
         22    1    3    3    0    0  0.21111208390E+02  0.58451082244E+01 -0.15255330768E+02  0.26694072875E+02  0.00000000000E+00 0.  1.
</event>
<event>
 7    1  0.5575489E-006  0.4819136E+02  0.7818608E-02  0.1458252E+00
          2   -1    0    0  502    0  0.00000000000E+00  0.00000000000E+00  0.29432248586E+03  0.29432248586E+03  0.00000000000E+00 0. -1.
          1   -1    0    0  501    0 -0.00000000000E+00 -0.00000000000E+00 -0.14479517546E+04  0.14479517546E+04  0.00000000000E+00 0. -1.
         25    2    1    2    0    0 -0.86661399722E+01 -0.48485289352E+02  0.13508061320E+03  0.19051742615E+03  0.12499676932E+03 0.  0.
          2    1    1    2  501    0 -0.38022704008E+02  0.29608796958E+02 -0.14149873058E+04  0.14158077138E+04  0.00000000000E+00 0. -1.
          1    1    1    2  502    0  0.46688843980E+02  0.18876492394E+02  0.12627742392E+03  0.13594910044E+03  0.00000000000E+00 0. -1.
         22    1    3    3    0    0 -0.46468652364E+02 -0.39899530147E+02  0.13245444483E+02  0.62663785059E+02  0.00000000000E+00 0.  1.
         22    1    3    3    0    0  0.37802512391E+02 -0.85857592058E+01  0.12183516872E+03  0.12785364109E+03  0.00000000000E+00 0.  1.
</event>
<event>
 7    1  0.5575489E-006  0.4250755E+02  0.7818608E-02  0.1521866E+00
          2   -1    0    0  502    0  0.00000000000E+00  0.00000000000E+00  0.26938645844E+03  0.26938645844E+03  0.00000000000E+00 0. -1.
          1   -1    0    0  501    0 -0.00000000000E+00 -0.00000000000E+00 -0.24836763369E+03  0.24836763369E+03  0.00000000000E+00 0. -1.
         25    2    1    2    0    0  0.45681616106E+02 -0.56214454280E+02 -0.56334623445E+02  0.15506442677E+03  0.12499804691E+03 0.  0.
          2    1    1    2  501    0 -0.29579282834E+02  0.17434122843E+02 -0.13854991789E+03  0.14274089239E+03  0.00000000000E+00 0. -1.
          1    1    1    2  502    0 -0.16102333272E+02  0.38780331437E+02  0.21590336609E+03  0.21994877297E+03  0.00000000000E+00 0. -1.
         22    1    3    3    0    0  0.16507450863E+02 -0.93659262608E+02 -0.49158867306E+02  0.10705674963E+03  0.00000000000E+00 0.  1.
         22    1    3    3    0    0  0.29174165244E+02  0.37444808329E+02 -0.71757561389E+01  0.48007677142E+02  0.00000000000E+00 0.  1.
</event>
<event>
 7    1  0.5575489E-006  0.1480035E+03  0.7818608E-02  0.1370676E+00
          2   -1    0    0  502    0  0.00000000000E+00  0.00000000000E+00  0.96494608639E+03  0.96494608639E+03  0.00000000000E+00 0. -1.
          1   -1    0    0  501    0 -0.00000000000E+00 -0.00000000000E+00 -0.72893308237E+03  0.72893308237E+03  0.00000000000E+00 0. -1.
         25    2    1    2    0    0 -0.63923736529E+02 -0.11282224401E+03 -0.61174110709E+02  0.19021649822E+03  0.12499976616E+03 0.  0.
          2    1    1    2  501    0 -0.30193539480E+02 -0.26749721293E+01 -0.59668732120E+03  0.59745674704E+03  0.00000000000E+00 0. -1.
          1    1    1    2  502    0  0.94117276009E+02  0.11549721614E+03  0.89387443593E+03  0.90620592350E+03  0.00000000000E+00 0. -1.
         22    1    3    3    0    0  0.17185720397E+02 -0.41053380295E+02  0.25685271603E+02  0.51385427861E+02  0.00000000000E+00 0.  1.
         22    1    3    3    0    0 -0.81109456925E+02 -0.71768863716E+02 -0.86859382312E+02  0.13883107036E+03  0.00000000000E+00 0.  1.
</event>
<event>
 7    1  0.5575489E-006  0.2775530E+03  0.7818608E-02  0.1256338E+00
          2   -1    0    0  502    0  0.00000000000E+00  0.00000000000E+00  0.56071931207E+03  0.56071931207E+03  0.00000000000E+00 0. -1.
          1   -1    0    0  501    0 -0.00000000000E+00 -0.00000000000E+00 -0.65463550160E+03  0.65463550160E+03  0.00000000000E+00 0. -1.
         25    2    1    2    0    0  0.85706300784E+02 -0.27138909856E+03 -0.11301021112E+03  0.33074790741E+03  0.12500103051E+03 0.  0.
          2    1    1    2  501    0 -0.40276203654E+02  0.27277382817E+03 -0.38744047550E+03  0.47553954196E+03  0.00000000000E+00 0. -1.
          1    1    1    2  502    0 -0.45430097130E+02 -0.13847296094E+01  0.40653449709E+03  0.40906736429E+03  0.00000000000E+00 0. -1.
         22    1    3    3    0    0  0.78327086802E+02 -0.60961399845E+02 -0.48904030618E+02  0.11064822190E+03  0.00000000000E+00 0.  1.
         22    1    3    3    0    0  0.73792139823E+01 -0.21042769872E+03 -0.64106180506E+02  0.22009968552E+03  0.00000000000E+00 0.  1.
</event>
<event>
 7    1  0.5575489E-006  0.1418143E+03  0.7818608E-02  0.1409371E+00
          2   -1    0    0  502    0  0.00000000000E+00  0.00000000000E+00  0.16489091419E+04  0.16489091419E+04  0.00000000000E+00 0. -1.
          1   -1    0    0  501    0 -0.00000000000E+00 -0.00000000000E+00 -0.60189133759E+03  0.60189133759E+03  0.00000000000E+00 0. -1.
         25    2    1    2    0    0  0.11527462066E+03  0.39129362799E+02  0.28015960493E+03  0.33005005284E+03  0.12499715173E+03 0.  0.
          2    1    1    2  501    0 -0.13806340957E+03 -0.34889599965E+02 -0.56805683881E+03  0.58563415318E+03  0.00000000000E+00 0. -1.
          1    1    1    2  502    0  0.22788788906E+02 -0.42397628335E+01  0.13349150382E+04  0.13351162734E+04  0.00000000000E+00 0. -1.
         22    1    3    3    0    0  0.94372323592E+01 -0.36377527516E+02  0.29863576402E+02  0.48002281803E+02  0.00000000000E+00 0.  1.
         22    1    3    3    0    0  0.10583738830E+03  0.75506890315E+02  0.25029602853E+03  0.28204777103E+03  0.00000000000E+00 0.  1.
</event>
<event>
 7    1  0.5575489E-006  0.2556642E+03  0.7818608E-02  0.1282420E+00
          2   -1    0    0  502    0  0.00000000000E+00  0.00000000000E+00  0.10160740435E+03  0.10160740435E+03  0.00000000000E+00 0. -1.
          1   -1    0    0  501    0 -0.00000000000E+00 -0.00000000000E+00 -0.13876615063E+04  0.13876615063E+04  0.00000000000E+00 0. -1.
         25    2    1    2    0    0  0.95186723366E+02 -0.22549910974E+03 -0.27560766298E+03  0.38922127066E+03  0.12499301117E+03 0.  0.
          2    1    1    2  501    0  0.37000414335E+02 -0.10018721365E+02 -0.64238014874E+03  0.64352285191E+03  0.00000000000E+00 0. -1.
          1    1    1    2  502    0 -0.13218713770E+03  0.23551783110E+03 -0.36806629025E+03  0.45652478811E+03  0.00000000000E+00 0. -1.
         22    1    3    3    0    0 -0.19471881216E+02 -0.61946063060E+02 -0.27025823729E+02  0.70333946533E+02  0.00000000000E+00 0. -1.
         22    1    3    3    0    0  0.11465860458E+03 -0.16355304668E+03 -0.24858183925E+03  0.31888732412E+03  0.00000000000E+00 0. -1.
</event>
<event>
 7    1  0.5575489E-006  0.7935932E+02  0.7818608E-02  0.1424993E+00
          2   -1    0    0  502    0  0.00000000000E+00  0.00000000000E+00  0.86758261094E+03  0.86758261094E+03  0.00000000000E+00 0. -1.
          1   -1    0    0  501    0 -0.00000000000E+00 -0.00000000000E+00 -0.70466349433E+03  0.70466349433E+03  0.00000000000E+00 0. -1.
         25    2    1    2    0    0  0.15366695364E+02 -0.41107714041E+02 -0.39977835501E+03  0.42115694021E+03  0.12499782269E+03 0.  0.
          2    1    1    2  501    0  0.10538230322E+01 -0.36699641899E+02 -0.29119572379E+03  0.29350114788E+03  0.00000000000E+00 0. -1.
          1    1    1    2  502    0 -0.16420518396E+02  0.77807355940E+02  0.85389319539E+03  0.85758801717E+03  0.00000000000E+00 0. -1.
         22    1    3    3    0    0 -0.68121874123E+01 -0.45869619410E+02 -0.39533009529E+03  0.39804059105E+03  0.00000000000E+00 0.  1.
         22    1    3    3    0    0  0.22178882776E+02  0.47619053693E+01 -0.44482597136E+01  0.23116349159E+02  0.00000000000E+00 0.  1.
</event>
<event>
 7    1  0.5575489E-006  0.3118946E+02  0.7818608E-02  0.1590546E+00
          2   -1    0    0  502    0  0.00000000000E+00  0.00000000000E+00  0.86353441521E+03  0.86353441521E+03  0.00000000000E+00 0. -1.
          1   -1    0    0  501    0 -0.00000000000E+00 -0.00000000000E+00 -0.95002844846E+03  0.95002844846E+03  0.00000000000E+00 0. -1.
         25    2    1    2    0    0 -0.35451675955E+01  0.13414146396E+02 -0.59350332561E+03  0.60668264834E+03  0.12500052300E+03 0.  0.
          2    1    1    2  501    0  0.33040694452E+02 -0.32752839200E+01 -0.34886318203E+03  0.35043963068E+03  0.00000000000E+00 0. -1.
          1    1    1    2  502    0 -0.29495526857E+02 -0.10138862476E+02  0.85587247439E+03  0.85644058466E+03  0.00000000000E+00 0. -1.
         22    1    3    3    0    0 -0.14699738949E+02 -0.33938560048E+02 -0.49921954177E+03  0.50058771366E+03  0.00000000000E+00 0. -1.
         22    1    3    3    0    0  0.11154571353E+02  0.47352706444E+02 -0.94283783843E+02  0.10609493468E+03  0.00000000000E+00 0. -1.
</event>
<event>
 7    1  0.5575489E-006  0.3724976E+02  0.7818608E-02  0.1588325E+00
          2   -1    0    0  502    0  0.00000000000E+00  0.00000000000E+00  0.40941780131E+03  0.40941780131E+03  0.00000000000E+00 0. -1.
          1   -1    0    0  501    0 -0.00000000000E+00 -0.00000000000E+00 -0.65820279476E+02  0.65820279476E+02  0.00000000000E+00 0. -1.
         25    2    1    2    0    0  0.20649360274E+02 -0.37658767457E+02  0.19508222197E+02  0.13362371985E+03  0.12502059401E+03 0.  0.
          2    1    1    2  501    0 -0.33598745578E+02  0.15533472507E+02  0.33585219338E+02  0.49981310813E+02  0.00000000000E+00 0. -1.
          1    1    1    2  502    0  0.12949385304E+02  0.22125294950E+02  0.29050408030E+03  0.29163305012E+03  0.00000000000E+00 0. -1.
         22    1    3    3    0    0 -0.51204992090E+02 -0.28345804971E+02 -0.23098003691E+00  0.58527679146E+02  0.00000000000E+00 0. -1.
         22    1    3    3    0    0  0.71854352364E+02 -0.93129624857E+01  0.19739202234E+02  0.75096040700E+02  0.00000000000E+00 0. -1.
</event>
<event>
 7    1  0.5575489E-006  0.1962699E+03  0.7818608E-02  0.1189713E+00
          2   -1    0    0  502    0  0.00000000000E+00  0.00000000000E+00  0.24895679118E+04  0.24895679118E+04  0.00000000000E+00 0. -1.
          1   -1    0    0  501    0 -0.00000000000E+00 -0.00000000000E+00 -0.16166095837E+04  0.16166095837E+04  0.00000000000E+00 0. -1.
         25    2    1    2    0    0 -0.61300667268E+01 -0.14861872050E+03  0.17221134232E+03  0.25962784121E+03  0.12499907081E+03 0.  0.
          2    1    1    2  501    0 -0.12261454161E+03  0.15631598494E+03 -0.15647866172E+04  0.15773478280E+04  0.00000000000E+00 0. -1.
          1    1    1    2  502    0  0.12874460834E+03 -0.76972644433E+01  0.22655336031E+04  0.22692018263E+04  0.00000000000E+00 0. -1.
         22    1    3    3    0    0 -0.28894600816E+02 -0.16364234620E+03  0.15584761909E+03  0.22782053419E+03  0.00000000000E+00 0. -1.
         22    1    3    3    0    0  0.22764534090E+02  0.15023625696E+02  0.16363723235E+02  0.31807307014E+02  0.00000000000E+00 0. -1.
</event>
<event>
 7    1  0.5575489E-006  0.5392130E+02  0.7818608E-02  0.1552123E+00
          2   -1    0    0  502    0  0.00000000000E+00  0.00000000000E+00  0.57898083740E+02  0.57898083740E+02  0.00000000000E+00 0. -1.
          1   -1    0    0  501    0 -0.00000000000E+00 -0.00000000000E+00 -0.97177226768E+03  0.97177226768E+03  0.00000000000E+00 0. -1.
         25    2    1    2    0    0  0.10363422268E+02  0.67437339530E+02 -0.65422288422E+03  0.66954344902E+03  0.12500261036E+03 0.  0.
          2    1    1    2  501    0  0.37262300590E+01 -0.50268212594E+02 -0.30526214128E+03  0.30939578680E+03  0.00000000000E+00 0. -1.
          1    1    1    2  502    0 -0.14089652327E+02 -0.17169126936E+02  0.45610841565E+02  0.50731115607E+02  0.00000000000E+00 0. -1.
         22    1    3    3    0    0 -0.53335303974E+02  0.53800772309E+02 -0.30272638207E+03  0.31206159673E+03  0.00000000000E+00 0. -1.
         22    1    3    3    0    0  0.63698726241E+02  0.13636567221E+02 -0.35149650215E+03  0.35748185229E+03  0.00000000000E+00 0. -1.
</event>
<event>
 7    1  0.5575489E-006  0.2905006E+03  0.7818608E-02  0.1263642E+00
          2   -1    0    0  502    0  0.00000000000E+00  0.00000000000E+00  0.17456899271E+04  0.17456899271E+04  0.00000000000E+00 0. -1.
          1   -1    0    0  501    0 -0.00000000000E+00 -0.00000000000E+00 -0.57139641676E+03  0.57139641676E+03  0.00000000000E+00 0. -1.
         25    2    1    2    0    0  0.31538687030E+03 -0.67156152182E+02  0.42577590056E+03  0.54853183972E+03  0.12499293961E+03 0.  0.
          2    1    1    2  501    0 -0.40165697057E+02  0.45075551693E+01 -0.49335539766E+03  0.49500823192E+03  0.00000000000E+00 0. -1.
          1    1    1    2  502    0 -0.27522117324E+03  0.62648597012E+02  0.12418730074E+04  0.12735462722E+04  0.00000000000E+00 0. -1.
         22    1    3    3    0    0  0.28640043730E+03 -0.87912140746E+02  0.32685412834E+03  0.44338174995E+03  0.00000000000E+00 0.  1.
         22    1    3    3    0    0  0.28986433006E+02  0.20755988565E+02  0.98921772216E+02  0.10515008977E+03  0.00000000000E+00 0.  1.
</event>
<event>
 7    1  0.5623587E-006  0.6410333E+02  0.7818608E-02  0.1396690E+00
          2   -1    0    0  502    0  0.00000000000E+00  0.00000000000E+00  0.17196163353E+04  0.17196163353E+04  0.00000000000E+00 0. -1.
          1   -1    0    0  501    0 -0.00000000000E+00 -0.00000000000E+00 -0.61716109027E+03  0.61716109027E+03  0.00000000000E+00 0. -1.
         25    2    1    2    0    0  0.42446752520E+02  0.42872863194E+02 -0.82565924088E+02  0.16148862345E+03  0.12498653722E+03 0.  0.
          2    1    1    2  501    0 -0.64956765755E+02  0.91362886207E+01 -0.49248064429E+03  0.49682998922E+03  0.00000000000E+00 0. -1.
          1    1    1    2  502    0  0.22510013234E+02 -0.52009151814E+02  0.16775018134E+04  0.16784588129E+04  0.00000000000E+00 0. -1.
         22    1    3    3    0    0  0.31858813764E+02  0.41437469704E+02 -0.11554730767E+03  0.12681966811E+03  0.00000000000E+00 0. -1.
         22    1    3    3    0    0  0.10587938756E+02  0.14353934896E+01  0.32981383582E+02  0.34668955343E+02  0.00000000000E+00 0. -1.
</event>
<event>
 7    1  0.5575489E-006  0.8959128E+02  0.7818608E-02  0.1382321E+00
          2   -1    0    0  502    0  0.00000000000E+00  0.00000000000E+00  0.38500779860E+03  0.38500779860E+03  0.00000000000E+00 0. -1.
          1   -1    0    0  501    0 -0.00000000000E+00 -0.00000000000E+00 -0.45359474158E+03  0.45359474158E+03  0.00000000000E+00 0. -1.
         25    2    1    2    0    0 -0.45442027514E+02 -0.88324543984E+02 -0.38956576585E+01  0.15970884993E+03  0.12500215063E+03 0.  0.
          2    1    1    2  501    0  0.45496761065E+02 -0.13016934628E+01 -0.36380481407E+03  0.36664095846E+03  0.00000000000E+00 0. -1.
          1    1    1    2  502    0 -0.54733551130E-01  0.89626237447E+02  0.29911352875E+03  0.31225273180E+03  0.00000000000E+00 0. -1.
         22    1    3    3    0    0 -0.80222907963E+02 -0.92391762252E+02  0.82670064463E+01  0.12263888490E+03  0.00000000000E+00 0. -1.
         22    1    3    3    0    0  0.34780880449E+02  0.40672182684E+01 -0.12162664105E+02  0.37069965030E+02  0.00000000000E+00 0. -1.
</event>
<event>
 7    1  0.5575489E-006  0.5498820E+02  0.7818608E-02  0.1467825E+00
          2   -1    0    0  502    0  0.00000000000E+00  0.00000000000E+00  0.16865800265E+04  0.16865800265E+04  0.00000000000E+00 0. -1.
          1   -1    0    0  501    0 -0.00000000000E+00 -0.00000000000E+00 -0.40352368066E+03  0.40352368066E+03  0.00000000000E+00 0. -1.
         25    2    1    2    0    0 -0.17397925945E+02 -0.65235561798E+01  0.87430003020E+03  0.88339248579E+03  0.12504597768E+03 0.  0.
          2    1    1    2  501    0  0.40173218510E+02  0.37667347754E+02 -0.39661310820E+03  0.40041812418E+03  0.00000000000E+00 0. -1.
          1    1    1    2  502    0 -0.22775292565E+02 -0.31143791574E+02  0.80536942381E+03  0.80629309715E+03  0.00000000000E+00 0. -1.
         22    1    3    3    0    0 -0.40330592163E+02 -0.36373160530E+01  0.89301887541E+02  0.98054137346E+02  0.00000000000E+00 0. -1.
         22    1    3    3    0    0  0.22932666218E+02 -0.28862401268E+01  0.78499814266E+03  0.78533834845E+03  0.00000000000E+00 0. -1.
</event>
<event>
 7    1  0.5575489E-006  0.8875150E+02  0.7818608E-02  0.1306827E+00
          2   -1    0    0  502    0  0.00000000000E+00  0.00000000000E+00  0.12485314822E+04  0.12485314822E+04  0.00000000000E+00 0. -1.
          1   -1    0    0  501    0 -0.00000000000E+00 -0.00000000000E+00 -0.38633325453E+03  0.38633325453E+03  0.00000000000E+00 0. -1.
         25    2    1    2    0    0 -0.60866294631E+02 -0.62616322682E+02  0.20132774106E+02  0.15380581464E+03  0.12500156133E+03 0.  0.
          2    1    1    2  501    0 -0.25406800409E+02  0.85037188483E+02 -0.31158060760E+03  0.32397423349E+03  0.00000000000E+00 0. -1.
          1    1    1    2  502    0  0.86273095040E+02 -0.22420865800E+02  0.11536460612E+04  0.11570846886E+04  0.00000000000E+00 0. -1.
         22    1    3    3    0    0 -0.89360786034E+02 -0.78428676673E+02  0.22968509872E+02  0.12109483825E+03  0.00000000000E+00 0.  1.
         22    1    3    3    0    0  0.28494491403E+02  0.15812353991E+02 -0.28357357651E+01  0.32710976390E+02  0.00000000000E+00 0.  1.
</event>
<event>
 7    1  0.5999300E-006  0.6008228E+02  0.7818608E-02  0.1437367E+00
          2   -1    0    0  502    0  0.00000000000E+00  0.00000000000E+00  0.12230636341E+04  0.12230636341E+04  0.00000000000E+00 0. -1.
          1   -1    0    0  501    0 -0.00000000000E+00 -0.00000000000E+00 -0.76458574854E+03  0.76458574854E+03  0.00000000000E+00 0. -1.
         25    2    1    2    0    0 -0.92878732870E+01  0.49759261024E+02 -0.46321082015E+03  0.48244594719E+03  0.12501031717E+03 0.  0.
          2    1    1    2  501    0  0.52862528475E+02 -0.42596071689E+02 -0.28739959267E+03  0.29530898751E+03  0.00000000000E+00 0. -1.
          1    1    1    2  502    0 -0.43574655187E+02 -0.71631893343E+01  0.12090882984E+04  0.12098944479E+04  0.00000000000E+00 0. -1.
         22    1    3    3    0    0 -0.57827250059E+02  0.10030009622E+01 -0.13120368870E+03  0.14338551108E+03  0.00000000000E+00 0. -1.
         22    1    3    3    0    0  0.48539376772E+02  0.48756260061E+02 -0.33200713146E+03  0.33906043610E+03  0.00000000000E+00 0. -1.
</event>
<event>
 7    1  0.5575489E-006  0.5347966E+02  0.7818608E-02  0.1505523E+00
          2   -1    0    0  502    0  0.00000000000E+00  0.00000000000E+00  0.15946152813E+04  0.15946152813E+04  0.00000000000E+00 0. -1.
          1   -1    0    0  501    0 -0.00000000000E+00 -0.00000000000E+00 -0.21488023003E+02  0.21488023003E+02  0.00000000000E+00 0. -1.
         25    2    1    2    0    0 -0.39973714575E+02 -0.64410391176E+02  0.90907586145E+03  0.92075532447E+03  0.12499939724E+03 0.  0.
          2    1    1    2  501    0  0.31245630555E+01  0.30309821345E+02  0.10918035372E+01  0.30490001627E+02  0.00000000000E+00 0. -1.
          1    1    1    2  502    0  0.36849151520E+02  0.34100569831E+02  0.66295959328E+03  0.66485797819E+03  0.00000000000E+00 0. -1.
         22    1    3    3    0    0  0.30887916471E+02 -0.22682269466E+02  0.59031878600E+03  0.59156133904E+03  0.00000000000E+00 0.  1.
         22    1    3    3    0    0 -0.70861631047E+02 -0.41728121710E+02  0.31875707545E+03  0.32919398543E+03  0.00000000000E+00 0.  1.
</event>
<event>
 7    1  0.5575489E-006  0.1836679E+03  0.7818608E-02  0.1268434E+00
          2   -1    0    0  502    0  0.00000000000E+00  0.00000000000E+00  0.19936346021E+03  0.19936346021E+03  0.00000000000E+00 0. -1.
          1   -1    0    0  501    0 -0.00000000000E+00 -0.00000000000E+00 -0.15918922191E+04  0.15918922191E+04  0.00000000000E+00 0. -1.
         25    2    1    2    0    0 -0.13250060509E+03 -0.63688425691E+00 -0.50633399303E+03  0.53810234976E+03  0.12499284120E+03 0.  0.
          2    1    1    2  501    0 -0.53748778950E+02 -0.28876182788E+02 -0.10200684196E+04  0.10218915529E+04  0.00000000000E+00 0. -1.
          1    1    1    2  502    0  0.18624938404E+03  0.29513067045E+02  0.13387365374E+03  0.23126177667E+03  0.00000000000E+00 0. -1.
         22    1    3    3    0    0 -0.55212435212E+02 -0.10144864726E+02 -0.50010635344E+02  0.75182411040E+02  0.00000000000E+00 0. -1.
         22    1    3    3    0    0 -0.77288169881E+02  0.95079804692E+01 -0.45632335769E+03  0.46291993872E+03  0.00000000000E+00 0. -1.
</event>
<event>
 7    1  0.5575489E-006  0.6920106E+02  0.7818608E-02  0.1371520E+00
          2   -1    0    0  502    0  0.00000000000E+00  0.00000000000E+00  0.44708707496E+03  0.44708707496E+03  0.00000000000E+00 0. -1.
          1   -1    0    0  501    0 -0.00000000000E+00 -0.00000000000E+00 -0.13415909293E+03  0.13415909293E+03  0.00000000000E+00 0. -1.
         25    2    1    2    0    0  0.67034090976E+02  0.42940556147E+02 -0.26642242091E+02  0.15057373432E+03  0.12500071875E+03 0.  0.
          2    1    1    2  501    0 -0.99961072063E+01 -0.72795471840E+02 -0.10949203226E+02  0.74289891176E+02  0.00000000000E+00 0. -1.
          1    1    1    2  502    0 -0.57037983770E+02  0.29854915693E+02  0.35051942734E+03  0.35638254240E+03  0.00000000000E+00 0. -1.
         22    1    3    3    0    0  0.92871349433E+02  0.47715350825E+02  0.10651429766E+02  0.10495377652E+03  0.00000000000E+00 0. -1.
         22    1    3    3    0    0 -0.25837258457E+02 -0.47747946779E+01 -0.37293671857E+02  0.45619957797E+02  0.00000000000E+00 0. -1.
</event>
<event>
 7    1  0.5575489E-006  0.8906888E+02  0.7818608E-02  0.1386562E+00
          2   -1    0    0  502    0  0.00000000000E+00  0.00000000000E+00  0.35359120872E+03  0.35359120872E+03  0.00000000000E+00 0. -1.
          1   -1    0    0  501    0 -0.00000000000E+00 -0.00000000000E+00 -0.55405468181E+03  0.55405468181E+03  0.00000000000E+00 0. -1.
         25    2    1    2    0    0  0.33788342614E+02  0.38962213915E+02 -0.20489747826E+03  0.24549067771E+03  0.12499195990E+03 0.  0.
          2    1    1    2  501    0  0.43642648095E+02  0.72216980772E+01 -0.32121983763E+03  0.32425147300E+03  0.00000000000E+00 0. -1.
          1    1    1    2  502    0 -0.77430990709E+02 -0.46183911992E+02  0.32565384280E+03  0.33790373981E+03  0.00000000000E+00 0. -1.
         22    1    3    3    0    0  0.34562671791E+02 -0.34490200563E+02 -0.34069491448E+02  0.59538915540E+02  0.00000000000E+00 0. -1.
         22    1    3    3    0    0 -0.77432917697E+00  0.73452414478E+02 -0.17082798681E+03  0.18595176217E+03  0.00000000000E+00 0. -1.
</event>
<event>
 7    1  0.5575489E-006  0.1917885E+03  0.7818608E-02  0.1313107E+00
          2   -1    0    0  502    0  0.00000000000E+00  0.00000000000E+00  0.23040905663E+04  0.23040905663E+04  0.00000000000E+00 0. -1.
          1   -1    0    0  501    0 -0.00000000000E+00 -0.00000000000E+00 -0.98401587224E+02  0.98401587224E+02  0.00000000000E+00 0. -1.
         25    2    1    2    0    0 -0.14308853378E+03  0.86934374362E+02  0.45955941477E+03  0.50482772990E+03  0.12499706886E+03 0.  0.
          2    1    1    2  501    0  0.15582646922E+03 -0.12323405440E+03  0.55057593068E+02  0.20615493986E+03  0.00000000000E+00 0. -1.
          1    1    1    2  502    0 -0.12737935439E+02  0.36299680037E+02  0.16910719712E+04  0.16915094838E+04  0.00000000000E+00 0. -1.
         22    1    3    3    0    0 -0.15654079390E+03  0.79814457026E+02  0.45670620411E+03  0.48934233884E+03  0.00000000000E+00 0. -1.
         22    1    3    3    0    0  0.13452260120E+02  0.71199173361E+01  0.28532106615E+01  0.15485391060E+02  0.00000000000E+00 0. -1.
</event>
<event>
 7    1  0.5575489E-006  0.1624971E+03  0.7818608E-02  0.1321776E+00
          2   -1    0    0  502    0  0.00000000000E+00  0.00000000000E+00  0.45348205482E+03  0.45348205482E+03  0.00000000000E+00 0. -1.
          1   -1    0    0  501    0 -0.00000000000E+00 -0.00000000000E+00 -0.20377853410E+03  0.20377853410E+03  0.00000000000E+00 0. -1.
         25    2    1    2    0    0  0.78003054576E+02  0.12208307112E+03  0.64754559570E+02  0.20201020045E+03  0.12500486120E+03 0.  0.
          2    1    1    2  501    0  0.41919585301E+02 -0.27171044470E+01 -0.10859251901E+03  0.11643439987E+03  0.00000000000E+00 0. -1.
          1    1    1    2  502    0 -0.11992263988E+03 -0.11936596667E+03  0.29354148016E+03  0.33881598860E+03  0.00000000000E+00 0. -1.
         22    1    3    3    0    0  0.69937407450E+02  0.14502937006E+03  0.37193759151E+02  0.16525173179E+03  0.00000000000E+00 0.  1.
         22    1    3    3    0    0  0.80656471261E+01 -0.22946298938E+02  0.27560800418E+02  0.36758468660E+02  0.00000000000E+00 0.  1.
</event>
<event>
 7    1  0.5575489E-006  0.1576009E+03  0.7818608E-02  0.1287134E+00
          2   -1    0    0  502    0  0.00000000000E+00  0.00000000000E+00  0.29819923619E+03  0.29819923619E+03  0.00000000000E+00 0. -1.
          1   -1    0    0  501    0 -0.00000000000E+00 -0.00000000000E+00 -0.13496721019E+04  0.13496721019E+04  0.00000000000E+00 0. -1.
         25    2    1    2    0    0 -0.11717079559E+03 -0.32125170787E+01  0.44603023477E+02  0.17707212521E+03  0.12500316884E+03 0.  0.
          2    1    1    2  501    0  0.15350668444E+03 -0.43874986026E+02 -0.12736044939E+04  0.12835722510E+04  0.00000000000E+00 0. -1.
          1    1    1    2  502    0 -0.36335888850E+02  0.47087503105E+02  0.17752860472E+03  0.18722696190E+03  0.00000000000E+00 0. -1.
         22    1    3    3    0    0 -0.58798163281E+02  0.24006445596E+02 -0.36698413501E+02  0.73350575927E+02  0.00000000000E+00 0.  1.
         22    1    3    3    0    0 -0.58372632310E+02 -0.27218962675E+02  0.81301436978E+02  0.10372154929E+03  0.00000000000E+00 0.  1.
</event>
<event>
 7    1  0.5575489E-006  0.1294593E+03  0.7818608E-02  0.1357918E+00
          2   -1    0    0  502    0  0.00000000000E+00  0.00000000000E+00  0.46063453679E+03  0.46063453679E+03  0.00000000000E+00 0. -1.
          1   -1    0    0  501    0 -0.00000000000E+00 -0.00000000000E+00 -0.35011953971E+03  0.35011953971E+03  0.00000000000E+00 0. -1.
         25    2    1    2    0    0 -0.72502324979E+02 -0.64943865950E+02  0.13194963233E+02  0.15897841122E+03  0.12500294128E+03 0.  0.
          2    1    1    2  501    0  0.10408049523E+03  0.87053725459E+02 -0.25952448273E+03  0.29285501147E+03  0.00000000000E+00 0. -1.
          1    1    1    2  502    0 -0.31578170251E+02 -0.22109859509E+02  0.35684451658E+03  0.35892065382E+03  0.00000000000E+00 0. -1.
         22    1    3    3    0    0 -0.17066800212E+02  0.19520981854E+02 -0.37774719325E+02  0.45817833014E+02  0.00000000000E+00 0.  1.
         22    1    3    3    0    0 -0.55435524767E+02 -0.84464847804E+02  0.50969682558E+02  0.11316057821E+03  0.00000000000E+00 0.  1.
</event>
<event>
 7    1  0.5575489E-006  0.1141206E+03  0.7818608E-02  0.1291716E+00
          2   -1    0    0  502    0  0.00000000000E+00  0.00000000000E+00  0.41480437959E+04  0.41480437959E+04  0.00000000000E+00 0. -1.
          1   -1    0    0  501    0 -0.00000000000E+00 -0.00000000000E+00 -0.68023842844E+02  0.68023842844E+02  0.00000000000E+00 0. -1.
         25    2    1    2    0    0  0.34868820602E+02  0.22074501412E+02  0.20179021923E+03  0.24092938033E+03  0.12499822185E+03 0.  0.
          2    1    1    2  501    0  0.77950013633E+02  0.10732680139E+02 -0.15028351009E+02  0.80107717371E+02  0.00000000000E+00 0. -1.
          1    1    1    2  502    0 -0.11281883424E+03 -0.32807181551E+02  0.38932580849E+04  0.38950305411E+04  0.00000000000E+00 0. -1.
         22    1    3    3    0    0 -0.27632484842E+02  0.53504385869E+02  0.11133758590E+03  0.12657934887E+03  0.00000000000E+00 0.  1.
         22    1    3    3    0    0  0.62501305444E+02 -0.31429884457E+02  0.90452633332E+02  0.11435003146E+03  0.00000000000E+00 0.  1.
</event>
<event>
 7    1  0.5575489E-006  0.9725136E+02  0.7818608E-02  0.1413813E+00
          2   -1    0    0  502    0  0.00000000000E+00  0.00000000000E+00  0.59729583413E+03  0.59729583413E+03  0.00000000000E+00 0. -1.
          1   -1    0    0  501    0 -0.00000000000E+00 -0.00000000000E+00 -0.37656805949E+03  0.37656805949E+03  0.00000000000E+00 0. -1.
         25    2    1    2    0    0  0.58412326409E+02 -0.54875156857E+02  0.98160820253E+01  0.14880500543E+03  0.12499316565E+03 0.  0.
          2    1    1    2  501    0 -0.10011722966E+02 -0.31079687488E+02 -0.30148757695E+03  0.30325062346E+03  0.00000000000E+00 0. -1.
          1    1    1    2  502    0 -0.48400603443E+02  0.85954844345E+02  0.51239926957E+03  0.52180826473E+03  0.00000000000E+00 0. -1.
         22    1    3    3    0    0  0.86619449254E+02 -0.64648164610E+02  0.30715165090E+02  0.11236429835E+03  0.00000000000E+00 0.  1.
         22    1    3    3    0    0 -0.28207122845E+02  0.97730077525E+01 -0.20899083065E+02  0.36440707083E+02  0.00000000000E+00 0.  1.
</event>
<event>
 7    1  0.5575489E-006  0.4863256E+02  0.7818608E-02  0.1464222E+00
          2   -1    0    0  502    0  0.00000000000E+00  0.00000000000E+00  0.20134242740E+04  0.20134242740E+04  0.00000000000E+00 0. -1.
          1   -1    0    0  501    0 -0.00000000000E+00 -0.00000000000E+00 -0.43330934709E+02  0.43330934709E+02  0.00000000000E+00 0. -1.
         25    2    1    2    0    0  0.79823362188E+01 -0.83714412968E+01  0.11575156074E+03  0.17075428556E+03  0.12499921401E+03 0.  0.
          2    1    1    2  501    0 -0.56308243366E+02  0.13824242180E+02  0.38703563308E+02  0.69711503753E+02  0.00000000000E+00 0. -1.
          1    1    1    2  502    0  0.48325907147E+02 -0.54528008835E+01  0.18156382152E+04  0.18162894194E+04  0.00000000000E+00 0. -1.
         22    1    3    3    0    0  0.26520336089E+02 -0.10037743411E+02  0.13849352348E+03  0.14136668832E+03  0.00000000000E+00 0.  1.
         22    1    3    3    0    0 -0.18537999871E+02  0.16663021140E+01 -0.22741962750E+02  0.29387597242E+02  0.00000000000E+00 0.  1.
</event>
<event>
 7    1  0.5575489E-006  0.3838488E+02  0.7818608E-02  0.1600549E+00
          2   -1    0    0  502    0  0.00000000000E+00  0.00000000000E+00  0.54608164675E+03  0.54608164675E+03  0.00000000000E+00 0. -1.
          1   -1    0    0  501    0 -0.00000000000E+00 -0.00000000000E+00 -0.12945857149E+03  0.12945857149E+03  0.00000000000E+00 0. -1.
         25    2    1    2    0    0  0.64554305678E+01  0.15722839774E+02  0.26258847922E+03  0.29131804694E+03  0.12499845910E+03 0.  0.
          2    1    1    2  501    0 -0.25056800406E+02 -0.29422738780E+02 -0.11133355676E+03  0.11785033587E+03  0.00000000000E+00 0. -1.
          1    1    1    2  502    0  0.18601369838E+02  0.13699899005E+02  0.26536815280E+03  0.26637183544E+03  0.00000000000E+00 0. -1.
         22    1    3    3    0    0 -0.50713846129E+02  0.96797026960E+00  0.52132034277E+02  0.72736374350E+02  0.00000000000E+00 0. -1.
         22    1    3    3    0    0  0.57169276697E+02  0.14754869505E+02  0.21045644495E+03  0.21858167259E+03  0.00000000000E+00 0. -1.
</event>
<event>
 7    1  0.5575489E-006  0.9411823E+02  0.7818608E-02  0.1333302E+00
          2   -1    0    0  502    0  0.00000000000E+00  0.00000000000E+00  0.12384984763E+04  0.12384984763E+04  0.00000000000E+00 0. -1.
          1   -1    0    0  501    0 -0.00000000000E+00 -0.00000000000E+00 -0.24020893537E+03  0.24020893537E+03  0.00000000000E+00 0. -1.
         25    2    1    2    0    0 -0.29060795483E+02 -0.19356357923E+02  0.80557735032E+02  0.15274736844E+03  0.12499204561E+03 0.  0.
          2    1    1    2  501    0  0.84577160067E+02  0.54130982618E+02 -0.19073804905E+03  0.21555617050E+03  0.00000000000E+00 0. -1.
          1    1    1    2  502    0 -0.55516364584E+02 -0.34774624695E+02  0.11084698549E+04  0.11104038727E+04  0.00000000000E+00 0. -1.
         22    1    3    3    0    0 -0.44117698336E+02  0.45368255791E+02  0.41245556714E+02  0.75537049774E+02  0.00000000000E+00 0.  1.
         22    1    3    3    0    0  0.15056902853E+02 -0.64724613714E+02  0.39312178319E+02  0.77210318663E+02  0.00000000000E+00 0.  1.
</event>
<event>
 7    1  0.5575489E-006  0.8573766E+02  0.7818608E-02  0.1376798E+00
          2   -1    0    0  502    0  0.00000000000E+00  0.00000000000E+00  0.31932619946E+03  0.31932619946E+03  0.00000000000E+00 0. -1.
          1   -1    0    0  501    0 -0.00000000000E+00 -0.00000000000E+00 -0.10567335297E+04  0.10567335297E+04  0.00000000000E+00 0. -1.
         25    2    1    2    0    0  0.28097531448E+02  0.65478204348E+02 -0.16956935741E+02  0.14487543372E+03  0.12499794841E+03 0.  0.
          2    1    1    2  501    0 -0.73650197918E+02 -0.45467629762E+02 -0.97145135999E+03  0.97529964720E+03  0.00000000000E+00 0. -1.
          1    1    1    2  502    0  0.45552666470E+02 -0.20010574586E+02  0.25100096550E+03  0.25588464823E+03  0.00000000000E+00 0. -1.
         22    1    3    3    0    0  0.26158162961E+01  0.32821873055E+02  0.53689249125E+02  0.62981372781E+02  0.00000000000E+00 0.  1.
         22    1    3    3    0    0  0.25481715152E+02  0.32656331292E+02 -0.70646184866E+02  0.81894060936E+02  0.00000000000E+00 0.  1.
</event>
<event>
 7    1  0.5575489E-006  0.4313265E+02  0.7818608E-02  0.1530974E+00
          2   -1    0    0  502    0  0.00000000000E+00  0.00000000000E+00  0.15928007755E+04  0.15928007755E+04  0.00000000000E+00 0. -1.
          1   -1    0    0  501    0 -0.00000000000E+00 -0.00000000000E+00 -0.28683790785E+03  0.28683790785E+03  0.00000000000E+00 0. -1.
         25    2    1    2    0    0  0.32541933806E+02 -0.37057730501E+02  0.55429859944E+02  0.14536071478E+03  0.12500006073E+03 0.  0.
          2    1    1    2  501    0 -0.12865345218E+01  0.43207955815E+02 -0.23976954683E+03  0.24363501022E+03  0.00000000000E+00 0. -1.
          1    1    1    2  502    0 -0.31255399284E+02 -0.61502253144E+01  0.14903025545E+04  0.14906429583E+04  0.00000000000E+00 0. -1.
         22    1    3    3    0    0  0.78476473351E+02 -0.22741728942E+02  0.16234144982E+02  0.83302404336E+02  0.00000000000E+00 0.  1.
         22    1    3    3    0    0 -0.45934539545E+02 -0.14316001558E+02  0.39195714962E+02  0.62058310444E+02  0.00000000000E+00 0.  1.
</event>
<event>
 7    1  0.5575489E-006  0.1081430E+03  0.7818608E-02  0.1426519E+00
          2   -1    0    0  502    0  0.00000000000E+00  0.00000000000E+00  0.18878048599E+03  0.18878048599E+03  0.00000000000E+00 0. -1.
          1   -1    0    0  501    0 -0.00000000000E+00 -0.00000000000E+00 -0.21188946173E+04  0.21188946173E+04  0.00000000000E+00 0. -1.
         25    2    1    2    0    0  0.61332483755E+02 -0.11891169441E+03 -0.62480506667E+03  0.65107442178E+03  0.12495946033E+03 0.  0.
          2    1    1    2  501    0 -0.15354425795E+02  0.21758890921E+02 -0.14643793613E+04  0.14646214943E+04  0.00000000000E+00 0. -1.
          1    1    1    2  502    0 -0.45978057960E+02  0.97152803491E+02  0.15907029667E+03  0.19197918721E+03  0.00000000000E+00 0. -1.
         22    1    3    3    0    0 -0.28538935360E+02 -0.20798848017E+02 -0.50917327824E+02  0.61964806004E+02  0.00000000000E+00 0.  1.
         22    1    3    3    0    0  0.89871419115E+02 -0.98112846395E+02 -0.57388773885E+03  0.58910961578E+03  0.00000000000E+00 0.  1.
</event>
<event>
 7    1  0.5575489E-006  0.6204729E+02  0.7818608E-02  0.1448757E+00
          2   -1    0    0  502    0  0.00000000000E+00  0.00000000000E+00  0.11902499883E+03  0.11902499883E+03  0.00000000000E+00 0. -1.
          1   -1    0    0  501    0 -0.00000000000E+00 -0.00000000000E+00 -0.24748321572E+04  0.24748321572E+04  0.00000000000E+00 0. -1.
         25    2    1    2    0    0 -0.37290901974E+01 -0.27442196960E+02 -0.87180507039E+03  0.88115532914E+03  0.12499461201E+03 0.  0.
          2    1    1    2  501    0 -0.30536405639E+02 -0.24717528736E+02 -0.15895761309E+04  0.15900615410E+04  0.00000000000E+00 0. -1.
          1    1    1    2  502    0  0.34265495836E+02  0.52159725695E+02  0.10557404290E+03  0.12264028590E+03  0.00000000000E+00 0. -1.
         22    1    3    3    0    0 -0.24089802302E+02  0.11766443275E+02 -0.39856144615E+02  0.48034154784E+02  0.00000000000E+00 0.  1.
         22    1    3    3    0    0  0.20360712105E+02 -0.39208640234E+02 -0.83194892578E+03  0.83312117436E+03  0.00000000000E+00 0.  1.
</event>
<event>
 7    1  0.5575489E-006  0.1100433E+03  0.7818608E-02  0.1388371E+00
          2   -1    0    0  502    0  0.00000000000E+00  0.00000000000E+00  0.14437296008E+04  0.14437296008E+04  0.00000000000E+00 0. -1.
          1   -1    0    0  501    0 -0.00000000000E+00 -0.00000000000E+00 -0.34370364440E+02  0.34370364440E+02  0.00000000000E+00 0. -1.
         25    2    1    2    0    0 -0.74837381876E+02 -0.75764812644E+02  0.22989719769E+03  0.28251862220E+03  0.12499243905E+03 0.  0.
          2    1    1    2  501    0  0.10499466476E+03  0.57444239578E+02  0.46193664736E+03  0.47718883732E+03  0.00000000000E+00 0. -1.
          1    1    1    2  502    0 -0.30157282888E+02  0.18320573066E+02  0.71752539131E+03  0.71839250572E+03  0.00000000000E+00 0. -1.
         22    1    3    3    0    0 -0.19750555309E+02 -0.18812789176E+02  0.19334489880E+03  0.19525945653E+03  0.00000000000E+00 0. -1.
         22    1    3    3    0    0 -0.55086826567E+02 -0.56952023468E+02  0.36552298888E+02  0.87259165664E+02  0.00000000000E+00 0. -1.
</event>
<event>
 7    1  0.5575489E-006  0.2046416E+03  0.7818608E-02  0.1176324E+00
          2   -1    0    0  502    0  0.00000000000E+00  0.00000000000E+00  0.13721466531E+04  0.13721466531E+04  0.00000000000E+00 0. -1.
          1   -1    0    0  501    0 -0.00000000000E+00 -0.00000000000E+00 -0.57635899116E+03  0.57635899116E+03  0.00000000000E+00 0. -1.
         25    2    1    2    0    0  0.17108723905E+03 -0.11366700417E+03  0.40996290093E+03  0.47527560627E+03  0.12500516222E+03 0.  0.
          2    1    1    2  501    0  0.45957202560E+02  0.13612568303E+03 -0.52103871394E+03  0.54048460429E+03  0.00000000000E+00 0. -1.
          1    1    1    2  502    0 -0.21704444161E+03 -0.22458678865E+02  0.90686347493E+03  0.93274543368E+03  0.00000000000E+00 0. -1.
         22    1    3    3    0    0  0.63083772904E+02 -0.11342471231E+03  0.25845933425E+03  0.28921610471E+03  0.00000000000E+00 0.  1.
         22    1    3    3    0    0  0.10800346614E+03 -0.24229185908E+00  0.15150356668E+03  0.18605950156E+03  0.00000000000E+00 0.  1.
</event>
<event>
 7    1  0.5575489E-006  0.1138358E+03  0.7818608E-02  0.1335299E+00
          2   -1    0    0  502    0  0.00000000000E+00  0.00000000000E+00  0.28536413347E+04  0.28536413347E+04  0.00000000000E+00 0. -1.
          1   -1    0    0  501    0 -0.00000000000E+00 -0.00000000000E+00 -0.97715514904E+03  0.97715514904E+03  0.00000000000E+00 0. -1.
         25    2    1    2    0    0  0.11708753891E+03  0.14101434252E+02  0.82401287871E+02  0.19058680931E+03  0.12500006970E+03 0.  0.
          2    1    1    2  501    0 -0.96776086252E+01 -0.52337306108E+02 -0.92109780828E+03  0.92263428407E+03  0.00000000000E+00 0. -1.
          1    1    1    2  502    0 -0.10740993028E+03  0.38235871857E+02  0.27151827061E+04  0.27175753904E+04  0.00000000000E+00 0. -1.
         22    1    3    3    0    0  0.90344488006E+02  0.64003765973E+02  0.33228028301E+02  0.11559719044E+03  0.00000000000E+00 0.  1.
         22    1    3    3    0    0  0.26743050903E+02 -0.49902331721E+02  0.49173259570E+02  0.74989618878E+02  0.00000000000E+00 0.  1.
</event>
<event>
 7    1  0.5575489E-006  0.7589855E+02  0.7818608E-02  0.1507082E+00
          2   -1    0    0  502    0  0.00000000000E+00  0.00000000000E+00  0.11195832912E+04  0.11195832912E+04  0.00000000000E+00 0. -1.
          1   -1    0    0  501    0 -0.00000000000E+00 -0.00000000000E+00 -0.77829903420E+02  0.77829903420E+02  0.00000000000E+00 0. -1.
         25    2    1    2    0    0 -0.20099375441E+02 -0.54162879304E+02  0.81855776830E+03  0.83005950487E+03  0.12499743671E+03 0.  0.
          2    1    1    2  501    0  0.37295594250E+02  0.66635478039E+02 -0.51327694786E+02  0.92009676318E+02  0.00000000000E+00 0. -1.
          1    1    1    2  502    0 -0.17196218810E+02 -0.12472598735E+02  0.27452331429E+03  0.27534401346E+03  0.00000000000E+00 0. -1.
         22    1    3    3    0    0 -0.40626401959E+02 -0.87166606131E+02  0.65020625756E+03  0.65727977234E+03  0.00000000000E+00 0.  1.
         22    1    3    3    0    0  0.20527026518E+02  0.33003726826E+02  0.16835151074E+03  0.17277973253E+03  0.00000000000E+00 0.  1.
</event>
<event>
 7    1  0.5575489E-006  0.1331653E+03  0.7818608E-02  0.1236979E+00
          2   -1    0    0  502    0  0.00000000000E+00  0.00000000000E+00  0.27934818898E+04  0.27934818898E+04  0.00000000000E+00 0. -1.
          1   -1    0    0  501    0 -0.00000000000E+00 -0.00000000000E+00 -0.92482879000E+02  0.92482879000E+02  0.00000000000E+00 0. -1.
         25    2    1    2    0    0 -0.12952876383E+03  0.89850442079E+02  0.13252076867E+04  0.13403919974E+04  0.12499796515E+03 0.  0.
          2    1    1    2  501    0 -0.47138377631E+01 -0.11497008931E+03 -0.41045987771E+02  0.12216838713E+03  0.00000000000E+00 0. -1.
          1    1    1    2  502    0  0.13424260159E+03  0.25119647227E+02  0.14168373119E+04  0.14234043843E+04  0.00000000000E+00 0. -1.
         22    1    3    3    0    0 -0.11254020715E+03  0.20422585577E+02  0.10438351950E+04  0.10500829941E+04  0.00000000000E+00 0. -1.
         22    1    3    3    0    0 -0.16988556676E+02  0.69427856502E+02  0.28137249168E+03  0.29030900329E+03  0.00000000000E+00 0. -1.
</event>
<event>
 7    1  0.5575489E-006  0.4655894E+02  0.7818608E-02  0.1484898E+00
          2   -1    0    0  502    0  0.00000000000E+00  0.00000000000E+00  0.59416089700E+03  0.59416089700E+03  0.00000000000E+00 0. -1.
          1   -1    0    0  501    0 -0.00000000000E+00 -0.00000000000E+00 -0.52685025910E+02  0.52685025910E+02  0.00000000000E+00 0. -1.
         25    2    1    2    0    0 -0.56135592646E+02 -0.55016752218E+02  0.36464469239E+03  0.39340786674E+03  0.12500380048E+03 0.  0.
          2    1    1    2  501    0  0.18640923252E+02  0.35804484877E+02 -0.24850837413E+02  0.47402629432E+02  0.00000000000E+00 0. -1.
          1    1    1    2  502    0  0.37494669394E+02  0.19212267341E+02  0.20168201611E+03  0.20603542674E+03  0.00000000000E+00 0. -1.
         22    1    3    3    0    0 -0.40871867186E+01 -0.37710229860E+02  0.17179704575E+02  0.41640230314E+02  0.00000000000E+00 0.  1.
         22    1    3    3    0    0 -0.52048405928E+02 -0.17306522358E+02  0.34746498782E+03  0.35176763642E+03  0.00000000000E+00 0.  1.
</event>
<event>
 7    1  0.5575489E-006  0.3648641E+02  0.7818608E-02  0.1537163E+00
          2   -1    0    0  502    0  0.00000000000E+00  0.00000000000E+00  0.21405903440E+04  0.21405903440E+04  0.00000000000E+00 0. -1.
          1   -1    0    0  501    0 -0.00000000000E+00 -0.00000000000E+00 -0.97675957820E+03  0.97675957820E+03  0.00000000000E+00 0. -1.
         25    2    1    2    0    0 -0.39347909654E+02 -0.16092342571E+02  0.83890728682E+03  0.84923349308E+03  0.12499947359E+03 0.  0.
          2    1    1    2  501    0  0.31086926672E+02 -0.19110166694E+02 -0.97100157907E+03  0.97168701856E+03  0.00000000000E+00 0. -1.
          1    1    1    2  502    0  0.82609829815E+01  0.35202509265E+02  0.12959250581E+04  0.12964294106E+04  0.00000000000E+00 0. -1.
         22    1    3    3    0    0 -0.10660056316E+02 -0.61663976163E+02  0.64370863163E+03  0.64674329157E+03  0.00000000000E+00 0. -1.
         22    1    3    3    0    0 -0.28687853338E+02  0.45571633592E+02  0.19519865519E+03  0.20249020151E+03  0.00000000000E+00 0. -1.
</event>
<event>
 7    1  0.5575489E-006  0.7987524E+02  0.7818608E-02  0.1356270E+00
          2   -1    0    0  502    0  0.00000000000E+00  0.00000000000E+00  0.91164952409E+03  0.91164952409E+03  0.00000000000E+00 0. -1.
          1   -1    0    0  501    0 -0.00000000000E+00 -0.00000000000E+00 -0.47928481595E+03  0.47928481595E+03  0.00000000000E+00 0. -1.
         25    2    1    2    0    0 -0.75898118198E+02  0.10637106672E+02  0.71906154517E+02  0.16330374867E+03  0.12499578748E+03 0.  0.
          2    1    1    2  501    0  0.13117958665E+02 -0.61981168902E+02 -0.42918361943E+03  0.43383444461E+03  0.00000000000E+00 0. -1.
          1    1    1    2  502    0  0.62780159533E+02  0.51344062231E+02  0.78964217305E+03  0.79379614676E+03  0.00000000000E+00 0. -1.
         22    1    3    3    0    0 -0.76305073784E+02  0.59940218403E+02  0.42835621982E+02  0.10606688728E+03  0.00000000000E+00 0.  1.
         22    1    3    3    0    0  0.40695558605E+00 -0.49303111731E+02  0.29070532534E+02  0.57236861384E+02  0.00000000000E+00 0.  1.
</event>
<event>
 7    1  0.5575489E-006  0.9700894E+02  0.7818608E-02  0.1424806E+00
          2   -1    0    0  502    0  0.00000000000E+00  0.00000000000E+00  0.97347785482E+03  0.97347785482E+03  0.00000000000E+00 0. -1.
          1   -1    0    0  501    0 -0.00000000000E+00 -0.00000000000E+00 -0.10892862497E+04  0.10892862497E+04  0.00000000000E+00 0. -1.
         25    2    1    2    0    0  0.10022696689E+03  0.39539688738E+02 -0.67232100614E+02  0.17819568418E+03  0.12499885851E+03 0.  0.
          2    1    1    2  501    0 -0.23177513281E+02  0.19169690793E+02 -0.96378168762E+03  0.96425090903E+03  0.00000000000E+00 0. -1.
          1    1    1    2  502    0 -0.77049453606E+02 -0.58709379530E+02  0.91520539338E+03  0.92031751130E+03  0.00000000000E+00 0. -1.
         22    1    3    3    0    0  0.67835818975E+02 -0.19860977107E+01 -0.96477391635E+02  0.11795562732E+03  0.00000000000E+00 0. -1.
         22    1    3    3    0    0  0.32391147913E+02  0.41525786448E+02  0.29245291020E+02  0.60240056857E+02  0.00000000000E+00 0. -1.
</event>
<event>
 7    1  0.5575489E-006  0.6135245E+02  0.7818608E-02  0.1460292E+00
          2   -1    0    0  502    0  0.00000000000E+00  0.00000000000E+00  0.17400323404E+04  0.17400323404E+04  0.00000000000E+00 0. -1.
          1   -1    0    0  501    0 -0.00000000000E+00 -0.00000000000E+00 -0.10642751898E+03  0.10642751898E+03  0.00000000000E+00 0. -1.
         25    2    1    2    0    0  0.32755695314E+02 -0.24605277409E+02 -0.56091800794E+01  0.13165885724E+03  0.12499694611E+03 0.  0.
          2    1    1    2  501    0 -0.43855314040E+02  0.59391681138E+02 -0.13399493473E+01  0.73840746354E+02  0.00000000000E+00 0. -1.
          1    1    1    2  502    0  0.11099618725E+02 -0.34786403729E+02  0.16405539509E+04  0.16409602558E+04  0.00000000000E+00 0. -1.
         22    1    3    3    0    0  0.49573803100E+01 -0.35887070630E+02 -0.59684494344E+02  0.69819025509E+02  0.00000000000E+00 0. -1.
         22    1    3    3    0    0  0.27798315004E+02  0.11281793222E+02  0.54075314264E+02  0.61839831728E+02  0.00000000000E+00 0. -1.
</event>
<event>
 7    1  0.5575489E-006  0.1745588E+03  0.7818608E-02  0.1179584E+00
          2   -1    0    0  502    0  0.00000000000E+00  0.00000000000E+00  0.36769512224E+04  0.36769512224E+04  0.00000000000E+00 0. -1.
          1   -1    0    0  501    0 -0.00000000000E+00 -0.00000000000E+00 -0.20024444872E+04  0.20024444872E+04  0.00000000000E+00 0. -1.
         25    2    1    2    0    0 -0.27615337453E+03 -0.54076525324E+02  0.67791695178E+03  0.74456747848E+03  0.12499751859E+03 0.  0.
          2    1    1    2  501    0  0.11707940168E+03  0.11247767253E+03 -0.19633452356E+04  0.19700465292E+04  0.00000000000E+00 0. -1.
          1    1    1    2  502    0  0.15907397284E+03 -0.58401147204E+02  0.29599350190E+04  0.29647817018E+04  0.00000000000E+00 0. -1.
         22    1    3    3    0    0 -0.19164882323E+03  0.21602491527E+02  0.38919842949E+03  0.43436316212E+03  0.00000000000E+00 0.  1.
         22    1    3    3    0    0 -0.84504551295E+02 -0.75679016851E+02  0.28871852229E+03  0.31020431637E+03  0.00000000000E+00 0.  1.
</event>
<event>
 7    1  0.5575489E-006  0.9107702E+02  0.7818608E-02  0.1305294E+00
          2   -1    0    0  502    0  0.00000000000E+00  0.00000000000E+00  0.21830168028E+03  0.21830168028E+03  0.00000000000E+00 0. -1.
          1   -1    0    0  501    0 -0.00000000000E+00 -0.00000000000E+00 -0.40730471905E+03  0.40730471905E+03  0.00000000000E+00 0. -1.
         25    2    1    2    0    0  0.29230208664E+02  0.31243336969E+02 -0.20445532932E+03  0.24342961351E+03  0.12500177535E+03 0.  0.
          2    1    1    2  501    0 -0.66360442102E+02  0.56212602088E+02 -0.16030821112E+03  0.18237951492E+03  0.00000000000E+00 0. -1.
          1    1    1    2  502    0  0.37130233439E+02 -0.87455939057E+02  0.17576050167E+03  0.19979727090E+03  0.00000000000E+00 0. -1.
         22    1    3    3    0    0  0.61929450711E+02 -0.63419393938E+01 -0.17456220866E+03  0.18533062821E+03  0.00000000000E+00 0. -1.
         22    1    3    3    0    0 -0.32699242047E+02  0.37585276363E+02 -0.29893120665E+02  0.58098985299E+02  0.00000000000E+00 0. -1.
</event>
<event>
 7    1  0.5575489E-006  0.8075626E+02  0.7818608E-02  0.1349113E+00
          2   -1    0    0  502    0  0.00000000000E+00  0.00000000000E+00  0.19702363654E+04  0.19702363654E+04  0.00000000000E+00 0. -1.
          1   -1    0    0  501    0 -0.00000000000E+00 -0.00000000000E+00 -0.60867458953E+03  0.60867458953E+03  0.00000000000E+00 0. -1.
         25    2    1    2    0    0  0.95247871586E+02 -0.22836516837E+02  0.22015885755E+03  0.27145484936E+03  0.12499659652E+03 0.  0.
          2    1    1    2  501    0 -0.70769281759E+02 -0.39093008713E+02 -0.57957670329E+03  0.58518861025E+03  0.00000000000E+00 0. -1.
          1    1    1    2  502    0 -0.24478589827E+02  0.61929525550E+02  0.17209796216E+04  0.17222674953E+04  0.00000000000E+00 0. -1.
         22    1    3    3    0    0  0.70466742713E+02 -0.23036678827E+01  0.22772972360E+03  0.23839399264E+03  0.00000000000E+00 0. -1.
         22    1    3    3    0    0  0.24781128873E+02 -0.20532848954E+02 -0.75708660526E+01  0.33060856722E+02  0.00000000000E+00 0. -1.
</event>
<event>
 7    1  0.5575489E-006  0.3443765E+02  0.7818608E-02  0.1630125E+00
          2   -1    0    0  502    0  0.00000000000E+00  0.00000000000E+00  0.15613088685E+04  0.15613088685E+04  0.00000000000E+00 0. -1.
          1   -1    0    0  501    0 -0.00000000000E+00 -0.00000000000E+00 -0.11441623767E+02  0.11441623767E+02  0.00000000000E+00 0. -1.
         25    2    1    2    0    0  0.15795698293E+02  0.25031119350E+02  0.11139923955E+04  0.11213742944E+04  0.12500076002E+03 0.  0.
          2    1    1    2  501    0  0.35725582100E+01 -0.34653801408E+02  0.33208722256E+02  0.48129703491E+02  0.00000000000E+00 0. -1.
          1    1    1    2  502    0 -0.19368256503E+02  0.96226820589E+01  0.40266612701E+03  0.40324649436E+03  0.00000000000E+00 0. -1.
         22    1    3    3    0    0  0.13262319576E+02  0.30134955526E+02  0.11150862896E+04  0.11155722468E+04  0.00000000000E+00 0. -1.
         22    1    3    3    0    0  0.25333787176E+01 -0.51038361761E+01 -0.10938941552E+01  0.58020475577E+01  0.00000000000E+00 0. -1.
</event>
<event>
 7    1  0.5575489E-006  0.3095196E+02  0.7818608E-02  0.1605642E+00
          2   -1    0    0  502    0  0.00000000000E+00  0.00000000000E+00  0.16113398677E+03  0.16113398677E+03  0.00000000000E+00 0. -1.
          1   -1    0    0  501    0 -0.00000000000E+00 -0.00000000000E+00 -0.14330454351E+03  0.14330454351E+03  0.00000000000E+00 0. -1.
         25    2    1    2    0    0 -0.33666513237E+02  0.11739209048E+02 -0.14161801128E+02  0.13073903958E+03  0.12498358579E+03 0.  0.
          2    1    1    2  501    0  0.27359846724E+02  0.15324146357E+02 -0.65341894311E+02  0.72477264203E+02  0.00000000000E+00 0. -1.
          1    1    1    2  502    0  0.63066665134E+01 -0.27063355405E+02  0.97333138695E+02  0.10122222649E+03  0.00000000000E+00 0. -1.
         22    1    3    3    0    0 -0.71631127661E+02 -0.24360813622E+02  0.26875191414E+01  0.75707928577E+02  0.00000000000E+00 0. -1.
         22    1    3    3    0    0  0.37964614423E+02  0.36100022669E+02 -0.16849320270E+02  0.55031111006E+02  0.00000000000E+00 0. -1.
</event>
<event>
 7    1  0.5575489E-006  0.2021704E+03  0.7818608E-02  0.1329854E+00
          2   -1    0    0  502    0  0.00000000000E+00  0.00000000000E+00  0.25406453285E+04  0.25406453285E+04  0.00000000000E+00 0. -1.
          1   -1    0    0  501    0 -0.00000000000E+00 -0.00000000000E+00 -0.23529290712E+04  0.23529290712E+04  0.00000000000E+00 0. -1.
         25    2    1    2    0    0  0.15690367148E+03  0.16526022522E+03  0.66883462482E+02  0.26839015672E+03  0.12502069633E+03 0.  0.
          2    1    1    2  501    0 -0.30057651544E+02 -0.91979228708E+01 -0.22478046613E+04  0.22480244348E+04  0.00000000000E+00 0. -1.
          1    1    1    2  502    0 -0.12684601993E+03 -0.15606230235E+03  0.23686374562E+04  0.23771598082E+04  0.00000000000E+00 0. -1.
         22    1    3    3    0    0  0.85762830337E+02  0.16162230926E+03  0.72783706553E+02  0.19691242179E+03  0.00000000000E+00 0.  1.
         22    1    3    3    0    0  0.71140841139E+02  0.36379159619E+01 -0.59002440713E+01  0.71477734929E+02  0.00000000000E+00 0.  1.
</event>
<event>
 7    1  0.5575489E-006  0.6137185E+02  0.7818608E-02  0.1415473E+00
          2   -1    0    0  502    0  0.00000000000E+00  0.00000000000E+00  0.15224091893E+03  0.15224091893E+03  0.00000000000E+00 0. -1.
          1   -1    0    0  501    0 -0.00000000000E+00 -0.00000000000E+00 -0.35612023074E+03  0.35612023074E+03  0.00000000000E+00 0. -1.
         25    2    1    2    0    0 -0.80818967968E+02 -0.80954496709E+01 -0.86118267953E+02  0.17217796371E+03  0.12502661006E+03 0.  0.
          2    1    1    2  501    0  0.43404988635E+02  0.42872007806E+02 -0.21654446916E+03  0.22497446347E+03  0.00000000000E+00 0. -1.
          1    1    1    2  502    0  0.37413979333E+02 -0.34776558135E+02  0.98783425297E+02  0.11120872249E+03  0.00000000000E+00 0. -1.
         22    1    3    3    0    0 -0.40656405374E+02 -0.22982222638E+02  0.25083398722E+02  0.53012288639E+02  0.00000000000E+00 0.  1.
         22    1    3    3    0    0 -0.40162562595E+02  0.14886772967E+02 -0.11120166667E+03  0.11916567507E+03  0.00000000000E+00 0.  1.
</event>
<event>
 7    1  0.5575489E-006  0.1040647E+03  0.7818608E-02  0.1329602E+00
          2   -1    0    0  502    0  0.00000000000E+00  0.00000000000E+00  0.24917935381E+04  0.24917935381E+04  0.00000000000E+00 0. -1.
          1   -1    0    0  501    0 -0.00000000000E+00 -0.00000000000E+00 -0.97141593407E+03  0.97141593407E+03  0.00000000000E+00 0. -1.
         25    2    1    2    0    0  0.90674667018E+02  0.12015247451E+03  0.33148494695E+03  0.38492226647E+03  0.12499747517E+03 0.  0.
          2    1    1    2  501    0 -0.33552609525E+02 -0.98179125495E+02 -0.94140768357E+03  0.94710788455E+03  0.00000000000E+00 0. -1.
          1    1    1    2  502    0 -0.57122057493E+02 -0.21973349018E+02  0.21303003406E+04  0.21311793211E+04  0.00000000000E+00 0. -1.
         22    1    3    3    0    0 -0.11009769903E+02  0.11565676908E+01  0.12663316072E+03  0.12711612831E+03  0.00000000000E+00 0.  1.
         22    1    3    3    0    0  0.10168443692E+03  0.11899590682E+03  0.20485178623E+03  0.25780613816E+03  0.00000000000E+00 0.  1.
</event>
<event>
 7    1  0.5575489E-006  0.1194016E+03  0.7818608E-02  0.1359296E+00
          2   -1    0    0  502    0  0.00000000000E+00  0.00000000000E+00  0.10215846245E+03  0.10215846245E+03  0.00000000000E+00 0. -1.
          1   -1    0    0  501    0 -0.00000000000E+00 -0.00000000000E+00 -0.29470333272E+04  0.29470333272E+04  0.00000000000E+00 0. -1.
         25    2    1    2    0    0 -0.78022341277E+02  0.37915790417E+02 -0.79412450432E+03  0.80857096707E+03  0.12501274946E+03 0.  0.
          2    1    1    2  501    0  0.11545487071E+03 -0.55398814743E+02 -0.21391835216E+04  0.21430130646E+04  0.00000000000E+00 0. -1.
          1    1    1    2  502    0 -0.37432529432E+02  0.17483024326E+02  0.88433161244E+02  0.97607757924E+02  0.00000000000E+00 0. -1.
         22    1    3    3    0    0 -0.52632826062E+02  0.57417676745E+02 -0.21694229227E+03  0.23050154481E+03  0.00000000000E+00 0.  1.
         22    1    3    3    0    0 -0.25389515215E+02 -0.19501886328E+02 -0.57718221205E+03  0.57806942226E+03  0.00000000000E+00 0.  1.
</event>
<event>
 7    1  0.5575489E-006  0.7264015E+02  0.7818608E-02  0.1377222E+00
          2   -1    0    0  502    0  0.00000000000E+00  0.00000000000E+00  0.39817880161E+03  0.39817880161E+03  0.00000000000E+00 0. -1.
          1   -1    0    0  501    0 -0.00000000000E+00 -0.00000000000E+00 -0.19896395014E+03  0.19896395014E+03  0.00000000000E+00 0. -1.
         25    2    1    2    0    0  0.11537913453E+03  0.35269514472E+02  0.21692055621E+03  0.27791280433E+03  0.12499886308E+03 0.  0.
          2    1    1    2  501    0 -0.55390479220E+02 -0.18884363307E+02 -0.15653110794E+03  0.16711287239E+03  0.00000000000E+00 0. -1.
          1    1    1    2  502    0 -0.59988655311E+02 -0.16385151165E+02  0.13882540319E+03  0.15211707503E+03  0.00000000000E+00 0. -1.
         22    1    3    3    0    0  0.62366659105E+02 -0.45439569774E+02  0.96422404502E+02  0.12349750912E+03  0.00000000000E+00 0.  1.
         22    1    3    3    0    0  0.53012475426E+02  0.80709084246E+02  0.12049815171E+03  0.15441529521E+03  0.00000000000E+00 0.  1.
</event>
<event>
 7    1  0.5575489E-006  0.1055060E+03  0.7818608E-02  0.1298376E+00
          2   -1    0    0  502    0  0.00000000000E+00  0.00000000000E+00  0.35895645619E+03  0.35895645619E+03  0.00000000000E+00 0. -1.
          1   -1    0    0  501    0 -0.00000000000E+00 -0.00000000000E+00 -0.97432943984E+03  0.97432943984E+03  0.00000000000E+00 0. -1.
         25    2    1    2    0    0  0.63531903083E+02 -0.11386166115E+03  0.66133482461E+02  0.19236887240E+03  0.12502545732E+03 0.  0.
          2    1    1    2  501    0  0.33165012864E+02  0.72805628239E+02 -0.89732733146E+03  0.90088673947E+03  0.00000000000E+00 0. -1.
          1    1    1    2  502    0 -0.96696915947E+02  0.41056032914E+02  0.21582086535E+03  0.24003028415E+03  0.00000000000E+00 0. -1.
         22    1    3    3    0    0 -0.38130090772E+02 -0.33379755750E+02  0.23650120234E+02  0.55923520126E+02  0.00000000000E+00 0. -1.
         22    1    3    3    0    0  0.10166199386E+03 -0.80481905404E+02  0.42483362226E+02  0.13644535228E+03  0.00000000000E+00 0. -1.
</event>
<event>
 7    1  0.5575489E-006  0.6402824E+02  0.7818608E-02  0.1486539E+00
          2   -1    0    0  502    0  0.00000000000E+00  0.00000000000E+00  0.12323682815E+04  0.12323682815E+04  0.00000000000E+00 0. -1.
          1   -1    0    0  501    0 -0.00000000000E+00 -0.00000000000E+00 -0.39463868321E+03  0.39463868321E+03  0.00000000000E+00 0. -1.
         25    2    1    2    0    0 -0.54550603081E+01  0.91668518619E+02  0.11455302541E+03  0.19282309160E+03  0.12500189613E+03 0.  0.
          2    1    1    2  501    0  0.63986443905E+01 -0.28303080809E+02 -0.35397867664E+03  0.35516603237E+03  0.00000000000E+00 0. -1.
          1    1    1    2  502    0 -0.94358408241E+00 -0.63365437809E+02  0.10771552495E+04  0.10790178408E+04  0.00000000000E+00 0. -1.
         22    1    3    3    0    0 -0.33554093415E+02  0.10590573306E+00  0.86870541724E+02  0.93125610980E+02  0.00000000000E+00 0.  1.
         22    1    3    3    0    0  0.28099033106E+02  0.91562612886E+02  0.27682483683E+02  0.99697480624E+02  0.00000000000E+00 0.  1.
</event>
<event>
 7    1  0.5575489E-006  0.9071644E+02  0.7818608E-02  0.1389740E+00
          2   -1    0    0  502    0  0.00000000000E+00  0.00000000000E+00  0.31927864171E+04  0.31927864171E+04  0.00000000000E+00 0. -1.
          1   -1    0    0  501    0 -0.00000000000E+00 -0.00000000000E+00 -0.55896408543E+02  0.55896408543E+02  0.00000000000E+00 0. -1.
         25    2    1    2    0    0 -0.55307016968E+02 -0.41319409260E+02  0.91558320172E+02  0.16962663714E+03  0.12499644125E+03 0.  0.
          2    1    1    2  501    0  0.13929719203E+02 -0.39977271324E+02  0.11520849492E+02  0.43874243841E+02  0.00000000000E+00 0. -1.
          1    1    1    2  502    0  0.41377297765E+02  0.81296680584E+02  0.30338108389E+04  0.30351819447E+04  0.00000000000E+00 0. -1.
         22    1    3    3    0    0  0.15989223992E+02 -0.29336660639E+02  0.91416039046E+02  0.97330299168E+02  0.00000000000E+00 0.  1.
         22    1    3    3    0    0 -0.71296240960E+02 -0.11982748621E+02  0.14228112555E+00  0.72296337967E+02  0.00000000000E+00 0.  1.
</event>
<event>
 7    1  0.5575489E-006  0.1323696E+03  0.7818608E-02  0.1383356E+00
          2   -1    0    0  502    0  0.00000000000E+00  0.00000000000E+00  0.10137835087E+04  0.10137835087E+04  0.00000000000E+00 0. -1.
          1   -1    0    0  501    0 -0.00000000000E+00 -0.00000000000E+00 -0.16163558620E+04  0.16163558620E+04  0.00000000000E+00 0. -1.
         25    2    1    2    0    0  0.13240828931E+03 -0.73266652815E+02  0.54858535538E+01  0.19635578434E+03  0.12500216783E+03 0.  0.
          2    1    1    2  501    0 -0.84273832828E+01  0.29362725019E+02 -0.15160287065E+04  0.15163364499E+04  0.00000000000E+00 0. -1.
          1    1    1    2  502    0 -0.12398090603E+03  0.43903927797E+02  0.90797049970E+03  0.91744713649E+03  0.00000000000E+00 0. -1.
         22    1    3    3    0    0  0.46860098042E+02 -0.96222472802E+02  0.11118239498E+02  0.10760226907E+03  0.00000000000E+00 0.  1.
         22    1    3    3    0    0  0.85548191266E+02  0.22955819986E+02 -0.56323859444E+01  0.88753515263E+02  0.00000000000E+00 0.  1.
</event>
<event>
 7    1  0.5575489E-006  0.5898399E+02  0.7818608E-02  0.1425181E+00
          2   -1    0    0  502    0  0.00000000000E+00  0.00000000000E+00  0.35936320585E+03  0.35936320585E+03  0.00000000000E+00 0. -1.
          1   -1    0    0  501    0 -0.00000000000E+00 -0.00000000000E+00 -0.15778022977E+04  0.15778022977E+04  0.00000000000E+00 0. -1.
         25    2    1    2    0    0 -0.46253148466E+02 -0.95276548931E+02 -0.18962273934E+03  0.25059725384E+03  0.12500090335E+03 0.  0.
          2    1    1    2  501    0  0.17126123813E+02  0.55467975040E+02 -0.13552178512E+04  0.13564606240E+04  0.00000000000E+00 0. -1.
          1    1    1    2  502    0  0.29127024653E+02  0.39808573891E+02  0.32640149873E+03  0.33010762562E+03  0.00000000000E+00 0. -1.
         22    1    3    3    0    0  0.16987955668E+02 -0.75345270254E+02 -0.16061774482E+03  0.17822334398E+03  0.00000000000E+00 0.  1.
         22    1    3    3    0    0 -0.63241104135E+02 -0.19931278676E+02 -0.29004994523E+02  0.72373909865E+02  0.00000000000E+00 0.  1.
</event>
<event>
 7    1  0.5575489E-006  0.1489646E+03  0.7818608E-02  0.1321712E+00
          2   -1    0    0  502    0  0.00000000000E+00  0.00000000000E+00  0.19677292736E+04  0.19677292736E+04  0.00000000000E+00 0. -1.
          1   -1    0    0  501    0 -0.00000000000E+00 -0.00000000000E+00 -0.28452134828E+03  0.28452134828E+03  0.00000000000E+00 0. -1.
         25    2    1    2    0    0 -0.12143795681E+02 -0.12268985087E+03 -0.13438256878E+03  0.22109384611E+03  0.12499417073E+03 0.  0.
          2    1    1    2  501    0  0.38837928336E+02 -0.24368494833E+02 -0.98813868486E+02  0.10893295563E+03  0.00000000000E+00 0. -1.
          1    1    1    2  502    0 -0.26694132654E+02  0.14705834570E+03  0.19164043625E+04  0.19222238201E+04  0.00000000000E+00 0. -1.
         22    1    3    3    0    0 -0.45114797473E+02 -0.22207816577E+01 -0.13178250544E+02  0.47052556887E+02  0.00000000000E+00 0.  1.
         22    1    3    3    0    0  0.32971001792E+02 -0.12046906921E+03 -0.12120431823E+03  0.17404128922E+03  0.00000000000E+00 0.  1.
</event>
<event>
 7    1  0.5575489E-006  0.6693221E+02  0.7818608E-02  0.1521262E+00
          2   -1    0    0  502    0  0.00000000000E+00  0.00000000000E+00  0.16363279423E+03  0.16363279423E+03  0.00000000000E+00 0. -1.
          1   -1    0    0  501    0 -0.00000000000E+00 -0.00000000000E+00 -0.10443907406E+04  0.10443907406E+04  0.00000000000E+00 0. -1.
         25    2    1    2    0    0 -0.53740082768E+02 -0.70071039966E+02 -0.47948961621E+02  0.16038512069E+03  0.12500534740E+03 0.  0.
          2    1    1    2  501    0  0.39221951860E+02  0.53683648533E+02 -0.93791901103E+03  0.94027249607E+03  0.00000000000E+00 0. -1.
          1    1    1    2  502    0  0.14518130908E+02  0.16387391432E+02  0.10511002631E+03  0.10736591803E+03  0.00000000000E+00 0. -1.
         22    1    3    3    0    0 -0.61946188945E+02 -0.99932810804E+02 -0.53067233281E+02  0.12899623346E+03  0.00000000000E+00 0. -1.
         22    1    3    3    0    0  0.82061061764E+01  0.29861770838E+02  0.51182716597E+01  0.31388887221E+02  0.00000000000E+00 0. -1.
</event>
<event>
 7    1  0.5575489E-006  0.6253924E+02  0.7818608E-02  0.1400551E+00
          2   -1    0    0  502    0  0.00000000000E+00  0.00000000000E+00  0.16948160810E+04  0.16948160810E+04  0.00000000000E+00 0. -1.
          1   -1    0    0  501    0 -0.00000000000E+00 -0.00000000000E+00 -0.34688509395E+03  0.34688509395E+03  0.00000000000E+00 0. -1.
         25    2    1    2    0    0 -0.10401320061E+03 -0.31082254627E+02  0.98834370937E+03  0.10021140725E+04  0.12499789622E+03 0.  0.
          2    1    1    2  501    0  0.62086201158E+02 -0.65463677665E+01 -0.33598558856E+03  0.34173654623E+03  0.00000000000E+00 0. -1.
          1    1    1    2  502    0  0.41926999452E+02  0.37628622394E+02  0.69557286623E+03  0.69785055617E+03  0.00000000000E+00 0. -1.
         22    1    3    3    0    0 -0.62216079307E+02  0.27531774773E+02  0.21693689846E+03  0.22735535414E+03  0.00000000000E+00 0.  1.
         22    1    3    3    0    0 -0.41797121303E+02 -0.58614029401E+02  0.77140681091E+03  0.77475871838E+03  0.00000000000E+00 0.  1.
</event>
<event>
 7    1  0.5575489E-006  0.5455838E+02  0.7818608E-02  0.1479626E+00
          2   -1    0    0  502    0  0.00000000000E+00  0.00000000000E+00  0.20997770575E+04  0.20997770575E+04  0.00000000000E+00 0. -1.
          1   -1    0    0  501    0 -0.00000000000E+00 -0.00000000000E+00 -0.55244140657E+03  0.55244140657E+03  0.00000000000E+00 0. -1.
         25    2    1    2    0    0 -0.37330495990E+01  0.56604965586E+02  0.48065383163E+03  0.49987120530E+03  0.12500023295E+03 0.  0.
          2    1    1    2  501    0  0.35938852885E+02 -0.41084166163E+02 -0.54126131940E+03  0.54400673317E+03  0.00000000000E+00 0. -1.
          1    1    1    2  502    0 -0.32205803286E+02 -0.15520799424E+02  0.16079431387E+04  0.16083405256E+04  0.00000000000E+00 0. -1.
         22    1    3    3    0    0  0.55964702945E+01  0.23539322443E+01  0.41121531581E+03  0.41126013353E+03  0.00000000000E+00 0. -1.
         22    1    3    3    0    0 -0.93295198935E+01  0.54251033342E+02  0.69438515816E+02  0.88611071762E+02  0.00000000000E+00 0. -1.
</event>
<event>
 7    1  0.5575489E-006  0.5620344E+02  0.7818608E-02  0.1420588E+00
          2   -1    0    0  502    0  0.00000000000E+00  0.00000000000E+00  0.22918113766E+04  0.22918113766E+04  0.00000000000E+00 0. -1.
          1   -1    0    0  501    0 -0.00000000000E+00 -0.00000000000E+00 -0.35467663308E+03  0.35467663308E+03  0.00000000000E+00 0. -1.
         25    2    1    2    0    0 -0.83040838899E+02  0.19764199802E+01  0.46967805966E+03  0.49307644443E+03  0.12500885236E+03 0.  0.
          2    1    1    2  501    0  0.39179647889E+02 -0.36607268034E+02 -0.34044731612E+03  0.34464403656E+03  0.00000000000E+00 0. -1.
          1    1    1    2  502    0  0.43861191009E+02  0.34630848054E+02  0.18079040000E+04  0.18087675287E+04  0.00000000000E+00 0. -1.
         22    1    3    3    0    0 -0.36230595915E+02 -0.46750968684E+01  0.21452576976E+02  0.42364202695E+02  0.00000000000E+00 0.  1.
         22    1    3    3    0    0 -0.46810242983E+02  0.66515168485E+01  0.44822548268E+03  0.45071224173E+03  0.00000000000E+00 0.  1.
</event>
<event>
 7    1  0.5575489E-006  0.1107603E+03  0.7818608E-02  0.1348241E+00
          2   -1    0    0  502    0  0.00000000000E+00  0.00000000000E+00  0.29943856949E+04  0.29943856949E+04  0.00000000000E+00 0. -1.
          1   -1    0    0  501    0 -0.00000000000E+00 -0.00000000000E+00 -0.14416429369E+03  0.14416429369E+03  0.00000000000E+00 0. -1.
         25    2    1    2    0    0 -0.12730519807E+03 -0.30668439967E+02  0.13306023512E+04  0.13428606402E+04  0.12499966200E+03 0.  0.
          2    1    1    2  501    0  0.39005895673E+02 -0.29517590431E+02 -0.13191991383E+03  0.14069687881E+03  0.00000000000E+00 0. -1.
          1    1    1    2  502    0  0.88299302401E+02  0.60186030398E+02  0.16515389638E+04  0.16549924695E+04  0.00000000000E+00 0. -1.
         22    1    3    3    0    0 -0.11964804206E+03  0.12643730241E+02  0.66424674133E+03  0.67505499868E+03  0.00000000000E+00 0. -1.
         22    1    3    3    0    0 -0.76571560161E+01 -0.43312170209E+02  0.66635560985E+03  0.66780564157E+03  0.00000000000E+00 0. -1.
</event>
<event>
 7    1  0.5575489E-006  0.1119908E+03  0.7818608E-02  0.1282367E+00
          2   -1    0    0  502    0  0.00000000000E+00  0.00000000000E+00  0.19604259872E+03  0.19604259872E+03  0.00000000000E+00 0. -1.
          1   -1    0    0  501    0 -0.00000000000E+00 -0.00000000000E+00 -0.42306681731E+03  0.42306681731E+03  0.00000000000E+00 0. -1.
         25    2    1    2    0    0 -0.15773592922E+02 -0.37227302952E+02 -0.24786086114E+03  0.28052620479E+03  0.12500106708E+03 0.  0.
          2    1    1    2  501    0  0.37941059755E+02 -0.78906625966E+02 -0.12388840209E+03  0.15170404018E+03  0.00000000000E+00 0. -1.
          1    1    1    2  502    0 -0.22167466833E+02  0.11613392892E+03  0.14472504463E+03  0.18687917106E+03  0.00000000000E+00 0. -1.
         22    1    3    3    0    0 -0.35724344627E+02 -0.29921915791E+02 -0.18427323922E+02  0.50111037812E+02  0.00000000000E+00 0. -1.
         22    1    3    3    0    0  0.19950751705E+02 -0.73053871607E+01 -0.22943353721E+03  0.23041516698E+03  0.00000000000E+00 0. -1.
</event>
<event>
 7    1  0.5575489E-006  0.6751760E+02  0.7818608E-02  0.1387675E+00
          2   -1    0    0  502    0  0.00000000000E+00  0.00000000000E+00  0.68029236095E+03  0.68029236095E+03  0.00000000000E+00 0. -1.
          1   -1    0    0  501    0 -0.00000000000E+00 -0.00000000000E+00 -0.71166215155E+03  0.71166215155E+03  0.00000000000E+00 0. -1.
         25    2    1    2    0    0  0.54811630340E+02  0.60903383644E+02 -0.98406918075E+02  0.17894863422E+03  0.12500062082E+03 0.  0.
          2    1    1    2  501    0  0.26041979348E+01 -0.67848593204E+02 -0.56965761954E+03  0.57368982643E+03  0.00000000000E+00 0. -1.
          1    1    1    2  502    0 -0.57415828274E+02  0.69452095598E+01  0.63669474701E+03  0.63931605185E+03  0.00000000000E+00 0. -1.
         22    1    3    3    0    0 -0.36618952843E+02  0.11998078986E+01 -0.43020400413E+02  0.56507894121E+02  0.00000000000E+00 0. -1.
         22    1    3    3    0    0  0.91430583182E+02  0.59703575746E+02 -0.55386517662E+02  0.12244074010E+03  0.00000000000E+00 0. -1.
</event>
<event>
 7    1  0.8791749E-006  0.7392877E+02  0.7818608E-02  0.1418084E+00
          2   -1    0    0  502    0  0.00000000000E+00  0.00000000000E+00  0.22041558836E+04  0.22041558836E+04  0.00000000000E+00 0. -1.
          1   -1    0    0  501    0 -0.00000000000E+00 -0.00000000000E+00 -0.56508555568E+03  0.56508555568E+03  0.00000000000E+00 0. -1.
         25    2    1    2    0    0  0.41326527528E+02  0.36138727381E+02 -0.11376431397E+03  0.17770888966E+03  0.12499696331E+03 0.  0.
          2    1    1    2  501    0 -0.21900535534E+02  0.35318711721E+02 -0.41768639408E+03  0.41974869703E+03  0.00000000000E+00 0. -1.
          1    1    1    2  502    0 -0.19425991994E+02 -0.71457439102E+02  0.21705210359E+04  0.21717838526E+04  0.00000000000E+00 0. -1.
         22    1    3    3    0    0  0.56936482886E+01  0.77006818712E+02 -0.89785067640E+02  0.11842223664E+03  0.00000000000E+00 0.  1.
         22    1    3    3    0    0  0.35632879240E+02 -0.40868091330E+02 -0.23979246334E+02  0.59286653023E+02  0.00000000000E+00 0.  1.
</event>
<event>
 7    1  0.5575489E-006  0.9370109E+02  0.7818608E-02  0.1466605E+00
          2   -1    0    0  502    0  0.00000000000E+00  0.00000000000E+00  0.14815063640E+03  0.14815063640E+03  0.00000000000E+00 0. -1.
          1   -1    0    0  501    0 -0.00000000000E+00 -0.00000000000E+00 -0.17964747163E+04  0.17964747163E+04  0.00000000000E+00 0. -1.
         25    2    1    2    0    0  0.31736577510E+02 -0.10101700119E+03 -0.23966402619E+03  0.29030355508E+03  0.12500265502E+03 0.  0.
          2    1    1    2  501    0 -0.44273241011E+02  0.81922967943E+02 -0.15290000837E+04  0.15318331334E+04  0.00000000000E+00 0. -1.
          1    1    1    2  502    0  0.12536663501E+02  0.19094033247E+02  0.12034003001E+03  0.12248866421E+03  0.00000000000E+00 0. -1.
         22    1    3    3    0    0  0.49220150136E+02 -0.39307529915E+02 -0.21072640012E+03  0.21993935709E+03  0.00000000000E+00 0.  1.
         22    1    3    3    0    0 -0.17483572626E+02 -0.61709471276E+02 -0.28937626065E+02  0.70364197993E+02  0.00000000000E+00 0.  1.
</event>
<event>
 7    1  0.5575489E-006  0.1015460E+03  0.7818608E-02  0.1463180E+00
          2   -1    0    0  502    0  0.00000000000E+00  0.00000000000E+00  0.27596960076E+03  0.27596960076E+03  0.00000000000E+00 0. -1.
          1   -1    0    0  501    0 -0.00000000000E+00 -0.00000000000E+00 -0.26938896117E+03  0.26938896117E+03  0.00000000000E+00 0. -1.
         25    2    1    2    0    0 -0.54050601254E+02  0.81184663704E+02  0.96489356971E+02  0.18560028760E+03  0.12499941452E+03 0.  0.
          2    1    1    2  501    0 -0.20006486530E+02 -0.81542817271E+01 -0.20413412469E+03  0.20527418902E+03  0.00000000000E+00 0. -1.
          1    1    1    2  502    0  0.74057087784E+02 -0.73030381977E+02  0.11422540731E+03  0.15448408532E+03  0.00000000000E+00 0. -1.
         22    1    3    3    0    0 -0.56992034152E+01 -0.33117494709E+02  0.13040942634E+02  0.36046020033E+02  0.00000000000E+00 0. -1.
         22    1    3    3    0    0 -0.48351397838E+02  0.11430215841E+03  0.83448414337E+02  0.14955426756E+03  0.00000000000E+00 0. -1.
</event>
<event>
 7    1  0.5575489E-006  0.4339622E+02  0.7818608E-02  0.1484792E+00
          2   -1    0    0  502    0  0.00000000000E+00  0.00000000000E+00  0.21138530305E+03  0.21138530305E+03  0.00000000000E+00 0. -1.
          1   -1    0    0  501    0 -0.00000000000E+00 -0.00000000000E+00 -0.11629866826E+04  0.11629866826E+04  0.00000000000E+00 0. -1.
         25    2    1    2    0    0  0.19787785329E+01 -0.22039275104E+01 -0.22215626293E+03  0.25492154875E+03  0.12499127168E+03 0.  0.
          2    1    1    2  501    0 -0.43499126764E+02 -0.10417180854E+02 -0.92148420373E+03  0.92256914614E+03  0.00000000000E+00 0. -1.
          1    1    1    2  502    0  0.41520348232E+02  0.12621108364E+02  0.19203908709E+03  0.19688129079E+03  0.00000000000E+00 0. -1.
         22    1    3    3    0    0 -0.12052898586E+02 -0.62100492590E+02 -0.12065901514E+03  0.13623634419E+03  0.00000000000E+00 0.  1.
         22    1    3    3    0    0  0.14031677118E+02  0.59896565080E+02 -0.10149724780E+03  0.11868520456E+03  0.00000000000E+00 0.  1.
</event>
<event>
 7    1  0.5575489E-006  0.1168735E+03  0.7818608E-02  0.1275437E+00
          2   -1    0    0  502    0  0.00000000000E+00  0.00000000000E+00  0.37368493179E+02  0.37368493179E+02  0.00000000000E+00 0. -1.
          1   -1    0    0  501    0 -0.00000000000E+00 -0.00000000000E+00 -0.15568384357E+04  0.15568384357E+04  0.00000000000E+00 0. -1.
         25    2    1    2    0    0  0.49241547532E+01  0.79250194628E+02 -0.28588263645E+03  0.32196062884E+03  0.12499969620E+03 0.  0.
          2    1    1    2  501    0  0.11907239078E+02  0.88831222056E+02 -0.82872227376E+03  0.83355466251E+03  0.00000000000E+00 0. -1.
          1    1    1    2  502    0 -0.16831393831E+02 -0.16808141668E+03 -0.40486503228E+03  0.43869163750E+03  0.00000000000E+00 0. -1.
         22    1    3    3    0    0  0.24367522682E+02  0.49441689670E+02 -0.28355944548E+02  0.61986421338E+02  0.00000000000E+00 0. -1.
         22    1    3    3    0    0 -0.19443367929E+02  0.29808504958E+02 -0.25752669191E+03  0.25997420751E+03  0.00000000000E+00 0. -1.
</event>
<event>
 7    1  0.5575489E-006  0.6581597E+02  0.7818608E-02  0.1394249E+00
          2   -1    0    0  502    0  0.00000000000E+00  0.00000000000E+00  0.13372728266E+04  0.13372728266E+04  0.00000000000E+00 0. -1.
          1   -1    0    0  501    0 -0.00000000000E+00 -0.00000000000E+00 -0.14329254616E+04  0.14329254616E+04  0.00000000000E+00 0. -1.
         25    2    1    2    0    0 -0.24654649887E+02 -0.32737605575E+02 -0.34374683619E+02  0.13596320621E+03  0.12499908795E+03 0.  0.
          2    1    1    2  501    0  0.66325575597E+02 -0.50923568859E+01 -0.13463193862E+04  0.13479617590E+04  0.00000000000E+00 0. -1.
          1    1    1    2  502    0 -0.41670925710E+02  0.37829962461E+02  0.12850414348E+04  0.12862733229E+04  0.00000000000E+00 0. -1.
         22    1    3    3    0    0  0.22929907828E+01 -0.62177924146E+02 -0.61675107556E+02  0.87608052996E+02  0.00000000000E+00 0. -1.
         22    1    3    3    0    0 -0.26947640670E+02  0.29440318571E+02  0.27300423937E+02  0.48355153214E+02  0.00000000000E+00 0. -1.
</event>
<event>
 7    1  0.5575489E-006  0.9421709E+02  0.7818608E-02  0.1309947E+00
          2   -1    0    0  502    0  0.00000000000E+00  0.00000000000E+00  0.58066521812E+03  0.58066521812E+03  0.00000000000E+00 0. -1.
          1   -1    0    0  501    0 -0.00000000000E+00 -0.00000000000E+00 -0.15752622332E+04  0.15752622332E+04  0.00000000000E+00 0. -1.
         25    2    1    2    0    0  0.10031744726E+03  0.32723703122E+01  0.15350185858E+03  0.22194939360E+03  0.12499765638E+03 0.  0.
          2    1    1    2  501    0 -0.59912549854E+02 -0.72992348844E+02 -0.15354412848E+04  0.15383423988E+04  0.00000000000E+00 0. -1.
          1    1    1    2  502    0 -0.40404897401E+02  0.69719978532E+02  0.38734241119E+03  0.39563565897E+03  0.00000000000E+00 0. -1.
         22    1    3    3    0    0 -0.12866355583E+02  0.35013737475E+02  0.64486110064E+02  0.74498075876E+02  0.00000000000E+00 0.  1.
         22    1    3    3    0    0  0.11318380284E+03 -0.31741367163E+02  0.89015748511E+02  0.14745131772E+03  0.00000000000E+00 0.  1.
</event>
<event>
 7    1  0.5575489E-006  0.1115742E+03  0.7818608E-02  0.1306924E+00
          2   -1    0    0  502    0  0.00000000000E+00  0.00000000000E+00  0.99039143139E+03  0.99039143139E+03  0.00000000000E+00 0. -1.
          1   -1    0    0  501    0 -0.00000000000E+00 -0.00000000000E+00 -0.20270286847E+03  0.20270286847E+03  0.00000000000E+00 0. -1.
         25    2    1    2    0    0 -0.59861359423E+02 -0.15867013246E+03  0.44694410170E+03  0.49410927863E+03  0.12500142360E+03 0.  0.
          2    1    1    2  501    0  0.25914916712E+02  0.64964528615E+02 -0.16726066680E+03  0.18129562472E+03  0.00000000000E+00 0. -1.
          1    1    1    2  502    0  0.33946442710E+02  0.93705603845E+02  0.50800512801E+03  0.51768939651E+03  0.00000000000E+00 0. -1.
         22    1    3    3    0    0 -0.71432503563E+02 -0.11695406487E+03  0.19420757672E+03  0.23769189871E+03  0.00000000000E+00 0.  1.
         22    1    3    3    0    0  0.11571144140E+02 -0.41716067592E+02  0.25273652498E+03  0.25641737993E+03  0.00000000000E+00 0.  1.
</event>
<event>
 7    1  0.5575489E-006  0.8044313E+02  0.7818608E-02  0.1340460E+00
          2   -1    0    0  502    0  0.00000000000E+00  0.00000000000E+00  0.15775422863E+04  0.15775422863E+04  0.00000000000E+00 0. -1.
          1   -1    0    0  501    0 -0.00000000000E+00 -0.00000000000E+00 -0.11169413118E+03  0.11169413118E+03  0.00000000000E+00 0. -1.
         25    2    1    2    0    0 -0.44548818582E+01  0.39015675929E+02 -0.11444502725E+01  0.13106585784E+03  0.12503951529E+03 0.  0.
          2    1    1    2  501    0 -0.45558561143E+02 -0.10202165290E+03  0.25718879730E+02  0.11465365641E+03  0.00000000000E+00 0. -1.
          1    1    1    2  502    0  0.50013443001E+02  0.63005976975E+02  0.14412737257E+04  0.14435169033E+04  0.00000000000E+00 0. -1.
         22    1    3    3    0    0 -0.40185710375E+02 -0.13765538575E+02 -0.38379700649E+02  0.57248430481E+02  0.00000000000E+00 0.  1.
         22    1    3    3    0    0  0.35730828517E+02  0.52781214504E+02  0.37235250377E+02  0.73817427357E+02  0.00000000000E+00 0.  1.
</event>
<event>
 7    1  0.6879139E-006  0.1121284E+03  0.7818608E-02  0.1383680E+00
          2   -1    0    0  502    0  0.00000000000E+00  0.00000000000E+00  0.22671381841E+04  0.22671381841E+04  0.00000000000E+00 0. -1.
          1   -1    0    0  501    0 -0.00000000000E+00 -0.00000000000E+00 -0.67413844249E+03  0.67413844249E+03  0.00000000000E+00 0. -1.
         25    2    1    2    0    0 -0.10441561298E+03  0.69526447072E+02 -0.38251857309E+03  0.42152419361E+03  0.12500255983E+03 0.  0.
          2    1    1    2  501    0 -0.25151337311E+01 -0.35880116127E+02 -0.26952389704E+03  0.27191329446E+03  0.00000000000E+00 0. -1.
          1    1    1    2  502    0  0.10693074671E+03 -0.33646330945E+02  0.22450422117E+04  0.22478391385E+04  0.00000000000E+00 0. -1.
         22    1    3    3    0    0 -0.15312867032E+02 -0.55804111434E+01 -0.22497311289E+03  0.22556268842E+03  0.00000000000E+00 0.  1.
         22    1    3    3    0    0 -0.89102745944E+02  0.75106858215E+02 -0.15754546021E+03  0.19596150519E+03  0.00000000000E+00 0.  1.
</event>
<event>
 7    1  0.5575489E-006  0.8933601E+02  0.7818608E-02  0.1342458E+00
          2   -1    0    0  502    0  0.00000000000E+00  0.00000000000E+00  0.22000368952E+04  0.22000368952E+04  0.00000000000E+00 0. -1.
          1   -1    0    0  501    0 -0.00000000000E+00 -0.00000000000E+00 -0.30776997138E+03  0.30776997138E+03  0.00000000000E+00 0. -1.
         25    2    1    2    0    0 -0.10763262823E+03  0.10704143651E+03  0.61263355376E+03  0.64341928387E+03  0.12500340747E+03 0.  0.
          2    1    1    2  501    0  0.57958788498E+02 -0.67106120507E+02 -0.28499046490E+03  0.29846610806E+03  0.00000000000E+00 0. -1.
          1    1    1    2  502    0  0.49673839736E+02 -0.39935316001E+02  0.15646238350E+04  0.15659214747E+04  0.00000000000E+00 0. -1.
         22    1    3    3    0    0 -0.19634710886E+02  0.10660711726E+03  0.32212470366E+03  0.33987486525E+03  0.00000000000E+00 0.  1.
         22    1    3    3    0    0 -0.87997917348E+02  0.43431925109E+00  0.29050885010E+03  0.30354441862E+03  0.00000000000E+00 0.  1.
</event>
<event>
 7    1  0.5575489E-006  0.8150125E+02  0.7818608E-02  0.1422342E+00
          2   -1    0    0  502    0  0.00000000000E+00  0.00000000000E+00  0.13918819640E+04  0.13918819640E+04  0.00000000000E+00 0. -1.
          1   -1    0    0  501    0 -0.00000000000E+00 -0.00000000000E+00 -0.10518942376E+03  0.10518942376E+03  0.00000000000E+00 0. -1.
         25    2    1    2    0    0 -0.40291292991E+02  0.82279789106E+02  0.79573656862E+02  0.17420967586E+03  0.12499476913E+03 0.  0.
          2    1    1    2  501    0  0.36469923729E+02 -0.94611936768E+00 -0.50671622004E+02  0.62438479763E+02  0.00000000000E+00 0. -1.
          1    1    1    2  502    0  0.38213692620E+01 -0.81333669739E+02  0.12577905054E+04  0.12604232321E+04  0.00000000000E+00 0. -1.
         22    1    3    3    0    0 -0.81632639503E+02  0.46271099081E+02  0.25573815405E+02  0.97256991917E+02  0.00000000000E+00 0.  1.
         22    1    3    3    0    0  0.41341346512E+02  0.36008690025E+02  0.53999841457E+02  0.76952683944E+02  0.00000000000E+00 0.  1.
</event>
<event>
 7    1  0.5575489E-006  0.2375051E+03  0.7818608E-02  0.1258219E+00
          2   -1    0    0  502    0  0.00000000000E+00  0.00000000000E+00  0.52322884223E+03  0.52322884223E+03  0.00000000000E+00 0. -1.
          1   -1    0    0  501    0 -0.00000000000E+00 -0.00000000000E+00 -0.25269813243E+04  0.25269813243E+04  0.00000000000E+00 0. -1.
         25    2    1    2    0    0  0.41644343966E+02  0.23920449538E+03  0.77718829845E+02  0.28392977410E+03  0.12499143217E+03 0.  0.
          2    1    1    2  501    0 -0.90031456144E+02 -0.21978600118E+03 -0.24160335621E+04  0.24276799053E+04  0.00000000000E+00 0. -1.
          1    1    1    2  502    0  0.48387112178E+02 -0.19418494192E+02  0.33456225025E+03  0.33860048706E+03  0.00000000000E+00 0. -1.
         22    1    3    3    0    0  0.80443242415E+02  0.11942186785E+03  0.19821430887E+02  0.14534643749E+03  0.00000000000E+00 0. -1.
         22    1    3    3    0    0 -0.38798898449E+02  0.11978262753E+03  0.57897398958E+02  0.13858333661E+03  0.00000000000E+00 0. -1.
</event>
<event>
 7    1  0.5575489E-006  0.5117735E+02  0.7818608E-02  0.1518977E+00
          2   -1    0    0  502    0  0.00000000000E+00  0.00000000000E+00  0.33580300735E+04  0.33580300735E+04  0.00000000000E+00 0. -1.
          1   -1    0    0  501    0 -0.00000000000E+00 -0.00000000000E+00 -0.11533499945E+04  0.11533499945E+04  0.00000000000E+00 0. -1.
         25    2    1    2    0    0 -0.15146726037E+02  0.18648683121E+02 -0.55376357271E+01  0.12735621605E+03  0.12494696341E+03 0.  0.
          2    1    1    2  501    0 -0.27225497517E+02  0.10202074776E+02 -0.10865093428E+04  0.10868982759E+04  0.00000000000E+00 0. -1.
          1    1    1    2  502    0  0.42372223554E+02 -0.28850757897E+02  0.32967270576E+04  0.32971255760E+04  0.00000000000E+00 0. -1.
         22    1    3    3    0    0  0.18549798445E+02 -0.23963136973E+02  0.44273643556E+02  0.53651490843E+02  0.00000000000E+00 0.  1.
         22    1    3    3    0    0 -0.33696524482E+02  0.42611820094E+02 -0.49811279283E+02  0.73704725206E+02  0.00000000000E+00 0.  1.
</event>
<event>
 7    1  0.5575489E-006  0.2890020E+02  0.7818608E-02  0.1619530E+00
          2   -1    0    0  502    0  0.00000000000E+00  0.00000000000E+00  0.76097534926E+03  0.76097534926E+03  0.00000000000E+00 0. -1.
          1   -1    0    0  501    0 -0.00000000000E+00 -0.00000000000E+00 -0.14791347850E+02  0.14791347850E+02  0.00000000000E+00 0. -1.
         25    2    1    2    0    0  0.73772063939E+01 -0.16770567568E+02  0.65980860403E+03  0.67179451038E+03  0.12499918042E+03 0.  0.
          2    1    1    2  501    0  0.19204975294E+02  0.23465479002E+02  0.41744690301E+02  0.51595338444E+02  0.00000000000E+00 0. -1.
          1    1    1    2  502    0 -0.26582181688E+02 -0.66949114341E+01  0.44630707075E+02  0.52376848286E+02  0.00000000000E+00 0. -1.
         22    1    3    3    0    0 -0.31943151018E+02 -0.37424058983E+02  0.11378552555E+03  0.12396802375E+03  0.00000000000E+00 0. -1.
         22    1    3    3    0    0  0.39320357412E+02  0.20653491415E+02  0.54602307849E+03  0.54782648663E+03  0.00000000000E+00 0. -1.
</event>
<event>
 7    1  0.5575489E-006  0.7200715E+02  0.7818608E-02  0.1515083E+00
          2   -1    0    0  502    0  0.00000000000E+00  0.00000000000E+00  0.91510102341E+03  0.91510102341E+03  0.00000000000E+00 0. -1.
          1   -1    0    0  501    0 -0.00000000000E+00 -0.00000000000E+00 -0.16362512841E+03  0.16362512841E+03  0.00000000000E+00 0. -1.
         25    2    1    2    0    0 -0.16365331938E+02 -0.55750279539E+02  0.45457112752E+03  0.47501166745E+03  0.12500102594E+03 0.  0.
          2    1    1    2  501    0 -0.16307056497E+02 -0.13564229289E+02 -0.14939030368E+03  0.15088860541E+03  0.00000000000E+00 0. -1.
          1    1    1    2  502    0  0.32672388435E+02  0.69314508828E+02  0.44629507117E+03  0.45282587896E+03  0.00000000000E+00 0. -1.
         22    1    3    3    0    0  0.22928437303E+02  0.28186580636E+02  0.21667121468E+03  0.21969663593E+03  0.00000000000E+00 0. -1.
         22    1    3    3    0    0 -0.39293769241E+02 -0.83936860175E+02  0.23789991283E+03  0.25531503153E+03  0.00000000000E+00 0. -1.
</event>
<event>
 7    1  0.5575489E-006  0.5492068E+02  0.7818608E-02  0.1433714E+00
          2   -1    0    0  502    0  0.00000000000E+00  0.00000000000E+00  0.86600533504E+03  0.86600533504E+03  0.00000000000E+00 0. -1.
          1   -1    0    0  501    0 -0.00000000000E+00 -0.00000000000E+00 -0.26938286212E+03  0.26938286212E+03  0.00000000000E+00 0. -1.
         25    2    1    2    0    0 -0.72689459687E+01  0.99903383276E+01 -0.23135196513E+02  0.12772010193E+03  0.12499817072E+03 0.  0.
          2    1    1    2  501    0  0.26092183365E+02  0.42247280355E+02 -0.18981049653E+03  0.19619801049E+03  0.00000000000E+00 0. -1.
          1    1    1    2  502    0 -0.18823237396E+02 -0.52237618683E+02  0.80956816596E+03  0.81147008473E+03  0.00000000000E+00 0. -1.
         22    1    3    3    0    0  0.23387677286E+01 -0.33535190538E+02  0.38848388927E+02  0.51373885984E+02  0.00000000000E+00 0. -1.
         22    1    3    3    0    0 -0.96077136973E+01  0.43525528866E+02 -0.61983585440E+02  0.76346215947E+02  0.00000000000E+00 0. -1.
</event>
<event>
 7    1  0.5575489E-006  0.7300299E+02  0.7818608E-02  0.1479689E+00
          2   -1    0    0  502    0  0.00000000000E+00  0.00000000000E+00  0.34586210220E+04  0.34586210220E+04  0.00000000000E+00 0. -1.
          1   -1    0    0  501    0 -0.00000000000E+00 -0.00000000000E+00 -0.77574250370E+01  0.77574250370E+01  0.00000000000E+00 0. -1.
         25    2    1    2    0    0  0.13943837698E+02 -0.93767368609E+02  0.14870457158E+04  0.14952998271E+04  0.12501944552E+03 0.  0.
          2    1    1    2  501    0 -0.81621613078E+01  0.67694567712E+02  0.32653745551E+03  0.33358040294E+03  0.00000000000E+00 0. -1.
          1    1    1    2  502    0 -0.57816763900E+01  0.26072800897E+02  0.16372804256E+04  0.16374982170E+04  0.00000000000E+00 0. -1.
         22    1    3    3    0    0  0.36729220866E+02 -0.63530906661E+02  0.13764186832E+04  0.13783735354E+04  0.00000000000E+00 0.  1.
         22    1    3    3    0    0 -0.22785383168E+02 -0.30236461947E+02  0.11062703265E+03  0.11692629161E+03  0.00000000000E+00 0.  1.
</event>
<event>
 7    1  0.5575489E-006  0.1420908E+03  0.7818608E-02  0.1405369E+00
          2   -1    0    0  502    0  0.00000000000E+00  0.00000000000E+00  0.70370195245E+03  0.70370195245E+03  0.00000000000E+00 0. -1.
          1   -1    0    0  501    0 -0.00000000000E+00 -0.00000000000E+00 -0.45656318794E+03  0.45656318794E+03  0.00000000000E+00 0. -1.
         25    2    1    2    0    0  0.11428434842E+03  0.33402561871E+02  0.44412001160E+03  0.47649207619E+03  0.12500188212E+03 0.  0.
          2    1    1    2  501    0 -0.13579818439E+03 -0.43746909514E+02 -0.42819107829E+03  0.45133417608E+03  0.00000000000E+00 0. -1.
          1    1    1    2  502    0  0.21513835971E+02  0.10344347643E+02  0.23120983120E+03  0.23243888812E+03  0.00000000000E+00 0. -1.
         22    1    3    3    0    0 -0.23765543489E+02  0.24740390258E+02  0.86722509086E+02  0.93261361504E+02  0.00000000000E+00 0. -1.
         22    1    3    3    0    0  0.13804989191E+03  0.86621716129E+01  0.35739750251E+03  0.38323071468E+03  0.00000000000E+00 0. -1.
</event>
<event>
 7    1  0.5575489E-006  0.1934130E+03  0.7818608E-02  0.1258581E+00
          2   -1    0    0  502    0  0.00000000000E+00  0.00000000000E+00  0.28803703889E+03  0.28803703889E+03  0.00000000000E+00 0. -1.
          1   -1    0    0  501    0 -0.00000000000E+00 -0.00000000000E+00 -0.62528272640E+03  0.62528272640E+03  0.00000000000E+00 0. -1.
         25    2    1    2    0    0  0.18669271504E+03  0.66683477327E+02 -0.10473928442E+03  0.25670228135E+03  0.12499955020E+03 0.  0.
          2    1    1    2  501    0 -0.15246506494E+03 -0.12052056450E+03 -0.41772369886E+03  0.46072105561E+03  0.00000000000E+00 0. -1.
          1    1    1    2  502    0 -0.34227650101E+02  0.53837087172E+02  0.18521729577E+03  0.19589642834E+03  0.00000000000E+00 0. -1.
         22    1    3    3    0    0 -0.45968143569E+01  0.30543153414E+02  0.77779067471E+01  0.31851385465E+02  0.00000000000E+00 0. -1.
         22    1    3    3    0    0  0.19128952940E+03  0.36140323914E+02 -0.11251719117E+03  0.22485089588E+03  0.00000000000E+00 0. -1.
</event>
<event>
 7    1  0.5575489E-006  0.9576234E+02  0.7818608E-02  0.1314565E+00
          2   -1    0    0  502    0  0.00000000000E+00  0.00000000000E+00  0.22093417061E+04  0.22093417061E+04  0.00000000000E+00 0. -1.
          1   -1    0    0  501    0 -0.00000000000E+00 -0.00000000000E+00 -0.29716899032E+03  0.29716899032E+03  0.00000000000E+00 0. -1.
         25    2    1    2    0    0 -0.10196659223E+02 -0.20590051246E+02  0.68116527991E+02  0.14419497873E+03  0.12499763372E+03 0.  0.
          2    1    1    2  501    0 -0.54757989022E+02 -0.52758939374E+02 -0.25238271976E+03  0.26358865734E+03  0.00000000000E+00 0. -1.
          1    1    1    2  502    0  0.64954648245E+02  0.73348990619E+02  0.20964389076E+04  0.20987270604E+04  0.00000000000E+00 0. -1.
         22    1    3    3    0    0 -0.73535475590E+01  0.52743271101E+02  0.34666612333E+02  0.63542909272E+02  0.00000000000E+00 0.  1.
         22    1    3    3    0    0 -0.28431116639E+01 -0.73333322346E+02  0.33449915658E+02  0.80652069458E+02  0.00000000000E+00 0.  1.
</event>
<event>
 7    1  0.5575489E-006  0.1083446E+03  0.7818608E-02  0.1382245E+00
          2   -1    0    0  502    0  0.00000000000E+00  0.00000000000E+00  0.38496801129E+03  0.38496801129E+03  0.00000000000E+00 0. -1.
          1   -1    0    0  501    0 -0.00000000000E+00 -0.00000000000E+00 -0.19496637666E+03  0.19496637666E+03  0.00000000000E+00 0. -1.
         25    2    1    2    0    0 -0.13456239183E+03 -0.45408759665E+02 -0.34994075330E+02  0.19240463132E+03  0.12500385633E+03 0.  0.
          2    1    1    2  501    0  0.37468711526E+02  0.37947272318E+01 -0.67085206909E+02  0.76933278132E+02  0.00000000000E+00 0. -1.
          1    1    1    2  502    0  0.97093680309E+02  0.41614032433E+02  0.29208091687E+03  0.31059647849E+03  0.00000000000E+00 0. -1.
         22    1    3    3    0    0 -0.50798571225E+02 -0.64326180122E+02 -0.61568227097E+02  0.10251340827E+03  0.00000000000E+00 0. -1.
         22    1    3    3    0    0 -0.83763820610E+02  0.18917420457E+02  0.26574151767E+02  0.89891223054E+02  0.00000000000E+00 0. -1.
</event>
<event>
 7    1  0.5575489E-006  0.1004920E+03  0.7818608E-02  0.1313881E+00
          2   -1    0    0  502    0  0.00000000000E+00  0.00000000000E+00  0.20304573370E+04  0.20304573370E+04  0.00000000000E+00 0. -1.
          1   -1    0    0  501    0 -0.00000000000E+00 -0.00000000000E+00 -0.91970702412E+03  0.91970702412E+03  0.00000000000E+00 0. -1.
         25    2    1    2    0    0  0.37702287697E+02 -0.60428482738E+02  0.62002739665E+03  0.63650029404E+03  0.12500235076E+03 0.  0.
          2    1    1    2  501    0 -0.52154705885E+02 -0.50946428384E+02 -0.90775778973E+03  0.91068098516E+03  0.00000000000E+00 0. -1.
          1    1    1    2  502    0  0.14452418188E+02  0.11137491112E+03  0.13984807060E+04  0.14029830819E+04  0.00000000000E+00 0. -1.
         22    1    3    3    0    0  0.69244503390E+02 -0.19499993959E+02  0.50874913726E+03  0.51381001905E+03  0.00000000000E+00 0.  1.
         22    1    3    3    0    0 -0.31542215693E+02 -0.40928488778E+02  0.11127825939E+03  0.12269027500E+03  0.00000000000E+00 0.  1.
</event>
<event>
 7    1  0.5575489E-006  0.7301809E+02  0.7818608E-02  0.1409052E+00
          2   -1    0    0  502    0  0.00000000000E+00  0.00000000000E+00  0.17134122060E+04  0.17134122060E+04  0.00000000000E+00 0. -1.
          1   -1    0    0  501    0 -0.00000000000E+00 -0.00000000000E+00 -0.57716460320E+02  0.57716460320E+02  0.00000000000E+00 0. -1.
         25    2    1    2    0    0  0.55602763298E+02  0.13715716173E+02  0.30065926705E+03  0.33060486842E+03  0.12499518392E+03 0.  0.
          2    1    1    2  501    0 -0.48504248000E+02 -0.58285630593E+02 -0.84439486974E+01  0.76296638702E+02  0.00000000000E+00 0. -1.
          1    1    1    2  502    0 -0.70985152981E+01  0.44569914419E+02  0.13634804273E+04  0.13642271592E+04  0.00000000000E+00 0. -1.
         22    1    3    3    0    0  0.45632293948E+02  0.48464802577E+02  0.68017543024E+02  0.95171053892E+02  0.00000000000E+00 0.  1.
         22    1    3    3    0    0  0.99704693499E+01 -0.34749086404E+02  0.23264172403E+03  0.23543381453E+03  0.00000000000E+00 0.  1.
</event>
<event>
 7    1  0.5575489E-006  0.7855651E+02  0.7818608E-02  0.1424057E+00
          2   -1    0    0  502    0  0.00000000000E+00  0.00000000000E+00  0.19361971149E+02  0.19361971149E+02  0.00000000000E+00 0. -1.
          1   -1    0    0  501    0 -0.00000000000E+00 -0.00000000000E+00 -0.18375334617E+04  0.18375334617E+04  0.00000000000E+00 0. -1.
         25    2    1    2    0    0 -0.54731109754E+02  0.87833465251E+02 -0.61833897680E+03  0.63928070432E+03  0.12500606663E+03 0.  0.
          2    1    1    2  501    0  0.56804731939E+02 -0.50534772833E+02 -0.11618686740E+04  0.11643536218E+04  0.00000000000E+00 0. -1.
          1    1    1    2  502    0 -0.20736221845E+01 -0.37298692418E+02 -0.37963839669E+02  0.53261106705E+02  0.00000000000E+00 0. -1.
         22    1    3    3    0    0  0.82539648612E+01  0.53604655863E+02 -0.82907746060E+02  0.99072102142E+02  0.00000000000E+00 0. -1.
         22    1    3    3    0    0 -0.62985074616E+02  0.34228809388E+02 -0.53543123074E+03  0.54020860218E+03  0.00000000000E+00 0. -1.
</event>
<event>
 7    1  0.5575489E-006  0.4511566E+02  0.7818608E-02  0.1498538E+00
          2   -1    0    0  502    0  0.00000000000E+00  0.00000000000E+00  0.37872850437E+03  0.37872850437E+03  0.00000000000E+00 0. -1.
          1   -1    0    0  501    0 -0.00000000000E+00 -0.00000000000E+00 -0.56138881664E+02  0.56138881664E+02  0.00000000000E+00 0. -1.
         25    2    1    2    0    0  0.75681561552E+01 -0.52109990065E+02  0.15721355173E+03  0.20763739409E+03  0.12499783408E+03 0.  0.
          2    1    1    2  501    0 -0.36466821312E+02  0.27604260451E+02 -0.10825804388E+02  0.47000237152E+02  0.00000000000E+00 0. -1.
          1    1    1    2  502    0  0.28898665157E+02  0.24505729614E+02  0.17620187537E+03  0.18022975480E+03  0.00000000000E+00 0. -1.
         22    1    3    3    0    0  0.51445032634E+02  0.15359841884E+02  0.78165220401E+02  0.94827832442E+02  0.00000000000E+00 0.  1.
         22    1    3    3    0    0 -0.43876876478E+02 -0.67469831949E+02  0.79048331328E+02  0.11280956164E+03  0.00000000000E+00 0.  1.
</event>
<event>
 7    1  0.5575489E-006  0.6634851E+02  0.7818608E-02  0.1447096E+00
          2   -1    0    0  502    0  0.00000000000E+00  0.00000000000E+00  0.28040960344E+04  0.28040960344E+04  0.00000000000E+00 0. -1.
          1   -1    0    0  501    0 -0.00000000000E+00 -0.00000000000E+00 -0.63080343923E+03  0.63080343923E+03  0.00000000000E+00 0. -1.
         25    2    1    2    0    0 -0.20623552292E+02 -0.32433360669E+02  0.10413665407E+04  0.10495460961E+04  0.12500192781E+03 0.  0.
          2    1    1    2  501    0 -0.34903574324E+02 -0.12848784069E+02 -0.62543117371E+03  0.62653611532E+03  0.00000000000E+00 0. -1.
          1    1    1    2  502    0  0.55527126616E+02  0.45282144738E+02  0.17573572281E+04  0.17588172622E+04  0.00000000000E+00 0. -1.
         22    1    3    3    0    0 -0.25888290659E+02  0.31690142782E+02  0.13924623928E+03  0.14513436497E+03  0.00000000000E+00 0. -1.
         22    1    3    3    0    0  0.52647383666E+01 -0.64123503451E+02  0.90212030142E+03  0.90441173112E+03  0.00000000000E+00 0. -1.
</event>
<event>
 7    1  0.5575489E-006  0.4506942E+02  0.7818608E-02  0.1474889E+00
          2   -1    0    0  502    0  0.00000000000E+00  0.00000000000E+00  0.14508846600E+04  0.14508846600E+04  0.00000000000E+00 0. -1.
          1   -1    0    0  501    0 -0.00000000000E+00 -0.00000000000E+00 -0.83648257278E+02  0.83648257278E+02  0.00000000000E+00 0. -1.
         25    2    1    2    0    0 -0.20861853349E+01  0.31547004806E+01  0.36440761364E+03  0.38526723868E+03  0.12499452793E+03 0.  0.
          2    1    1    2  501    0 -0.44597579821E+02  0.37630039124E+01 -0.65809178384E+02  0.79586131228E+02  0.00000000000E+00 0. -1.
          1    1    1    2  502    0  0.46683765155E+02 -0.69177043930E+01  0.10686379675E+04  0.10696795474E+04  0.00000000000E+00 0. -1.
         22    1    3    3    0    0 -0.69376686238E+01  0.63728207906E+02  0.19737404587E+03  0.20752332330E+03  0.00000000000E+00 0. -1.
         22    1    3    3    0    0  0.48514832889E+01 -0.60573507426E+02  0.16703356777E+03  0.17774391538E+03  0.00000000000E+00 0. -1.
</event>
<event>
 7    1  0.5575489E-006  0.8960436E+02  0.7818608E-02  0.1316033E+00
          2   -1    0    0  502    0  0.00000000000E+00  0.00000000000E+00  0.40120002496E+03  0.40120002496E+03  0.00000000000E+00 0. -1.
          1   -1    0    0  501    0 -0.00000000000E+00 -0.00000000000E+00 -0.12506272364E+03  0.12506272364E+03  0.00000000000E+00 0. -1.
         25    2    1    2    0    0 -0.37879612833E+02 -0.15778858761E+02  0.10522815603E+02  0.13198265231E+03  0.12499941364E+03 0.  0.
          2    1    1    2  501    0  0.11760461935E+03 -0.25121799787E+02  0.68635791882E+01  0.12045355967E+03  0.00000000000E+00 0. -1.
          1    1    1    2  502    0 -0.79725006516E+02  0.40900658549E+02  0.25875090652E+03  0.27382653663E+03  0.00000000000E+00 0. -1.
         22    1    3    3    0    0  0.33843104175E+02  0.18287870564E+02 -0.24063823199E+02  0.45374767183E+02  0.00000000000E+00 0. -1.
         22    1    3    3    0    0 -0.71722717008E+02 -0.34066729325E+02  0.34586638801E+02  0.86607885123E+02  0.00000000000E+00 0. -1.
</event>
<event>
 7    1  0.5575489E-006  0.6150553E+02  0.7818608E-02  0.1399814E+00
          2   -1    0    0  502    0  0.00000000000E+00  0.00000000000E+00  0.12433047752E+03  0.12433047752E+03  0.00000000000E+00 0. -1.
          1   -1    0    0  501    0 -0.00000000000E+00 -0.00000000000E+00 -0.26378751651E+03  0.26378751651E+03  0.00000000000E+00 0. -1.
         25    2    1    2    0    0  0.39801221767E+02  0.74316336657E+01 -0.19405930211E+02  0.13281227972E+03  0.12499258011E+03 0.  0.
          2    1    1    2  501    0  0.11598627622E+02 -0.56438839193E+02 -0.16260657047E+03  0.17251309368E+03  0.00000000000E+00 0. -1.
          1    1    1    2  502    0 -0.51399849389E+02  0.49007205528E+02  0.42555461692E+02  0.82792620629E+02  0.00000000000E+00 0. -1.
         22    1    3    3    0    0  0.38580158268E+02 -0.31393410655E+02 -0.59119656035E+02  0.77260006305E+02  0.00000000000E+00 0. -1.
         22    1    3    3    0    0  0.12210634992E+01  0.38825044321E+02  0.39713725824E+02  0.55552273414E+02  0.00000000000E+00 0. -1.
</event>
<event>
 7    1  0.5575489E-006  0.1180220E+03  0.7818608E-02  0.1286834E+00
          2   -1    0    0  502    0  0.00000000000E+00  0.00000000000E+00  0.25192862223E+04  0.25192862223E+04  0.00000000000E+00 0. -1.
          1   -1    0    0  501    0 -0.00000000000E+00 -0.00000000000E+00 -0.36094454876E+03  0.36094454876E+03  0.00000000000E+00 0. -1.
         25    2    1    2    0    0 -0.15674978781E+03  0.95620846653E+02 -0.90969851962E+02  0.24005054357E+03  0.12503962256E+03 0.  0.
          2    1    1    2  501    0  0.83218838736E+02 -0.65012503369E+02 -0.18046837476E+03  0.20909527733E+03  0.00000000000E+00 0. -1.
          1    1    1    2  502    0  0.73530949077E+02 -0.30608343284E+02  0.24297799003E+04  0.24310849502E+04  0.00000000000E+00 0. -1.
         22    1    3    3    0    0 -0.12119894283E+03  0.72474537036E+02 -0.12269998729E+03  0.18707492922E+03  0.00000000000E+00 0. -1.
         22    1    3    3    0    0 -0.35550844985E+02  0.23146309617E+02  0.31730135329E+02  0.52975614353E+02  0.00000000000E+00 0. -1.
</event>
<event>
 7    1  0.5575489E-006  0.7379682E+02  0.7818608E-02  0.1426140E+00
          2   -1    0    0  502    0  0.00000000000E+00  0.00000000000E+00  0.24356312215E+03  0.24356312215E+03  0.00000000000E+00 0. -1.
          1   -1    0    0  501    0 -0.00000000000E+00 -0.00000000000E+00 -0.85214589457E+03  0.85214589457E+03  0.00000000000E+00 0. -1.
         25    2    1    2    0    0  0.99585070229E+02 -0.75890298003E+01  0.80902780213E+02  0.17928697327E+03  0.12499511731E+03 0.  0.
          2    1    1    2  501    0 -0.32241418820E+02  0.22187839251E+02 -0.79196407781E+03  0.79293058324E+03  0.00000000000E+00 0. -1.
          1    1    1    2  502    0 -0.67343651410E+02 -0.14598809450E+02  0.10247852518E+03  0.12349146021E+03  0.00000000000E+00 0. -1.
         22    1    3    3    0    0  0.98235175527E+02 -0.19805583827E+01  0.11123218209E+03  0.14841384927E+03  0.00000000000E+00 0. -1.
         22    1    3    3    0    0  0.13498947026E+01 -0.56084714175E+01 -0.30329401875E+02  0.30873123999E+02  0.00000000000E+00 0. -1.
</event>
<event>
 7    1  0.5575489E-006  0.1249164E+03  0.7818608E-02  0.1367991E+00
          2   -1    0    0  502    0  0.00000000000E+00  0.00000000000E+00  0.29200883995E+03  0.29200883995E+03  0.00000000000E+00 0. -1.
          1   -1    0    0  501    0 -0.00000000000E+00 -0.00000000000E+00 -0.43241839220E+03  0.43241839220E+03  0.00000000000E+00 0. -1.
         25    2    1    2    0    0 -0.91218995680E+02 -0.11019642073E+03  0.13742522115E+02  0.19046760917E+03  0.12499958765E+03 0.  0.
          2    1    1    2  501    0  0.98496485529E+02  0.74202627159E+02 -0.33105913762E+03  0.35328138947E+03  0.00000000000E+00 0. -1.
          1    1    1    2  502    0 -0.72774898491E+01  0.35993793569E+02  0.17690706326E+03  0.18067823352E+03  0.00000000000E+00 0. -1.
         22    1    3    3    0    0 -0.10160852357E+03 -0.61687772801E+02 -0.31880878939E+02  0.12306934556E+03  0.00000000000E+00 0.  1.
         22    1    3    3    0    0  0.10389527885E+02 -0.48508647927E+02  0.45623401054E+02  0.67398263606E+02  0.00000000000E+00 0.  1.
</event>
<event>
 7    1  0.5575489E-006  0.5371465E+02  0.7818608E-02  0.1560775E+00
          2   -1    0    0  502    0  0.00000000000E+00  0.00000000000E+00  0.47021634511E+02  0.47021634511E+02  0.00000000000E+00 0. -1.
          1   -1    0    0  501    0 -0.00000000000E+00 -0.00000000000E+00 -0.97819317964E+03  0.97819317964E+03  0.00000000000E+00 0. -1.
         25    2    1    2    0    0  0.30886412419E+02  0.20064874324E+02 -0.30287209396E+03  0.32971727905E+03  0.12500163660E+03 0.  0.
          2    1    1    2  501    0 -0.38302372246E+02 -0.39819322793E+02 -0.65730828249E+03  0.65962627935E+03  0.00000000000E+00 0. -1.
          1    1    1    2  502    0  0.74159598271E+01  0.19754448469E+02  0.29008831317E+02  0.35871255746E+02  0.00000000000E+00 0. -1.
         22    1    3    3    0    0 -0.58824333082E+01  0.26852809289E+02 -0.31471194734E+01  0.27669129898E+02  0.00000000000E+00 0.  1.
         22    1    3    3    0    0  0.36768845728E+02 -0.67879349648E+01 -0.29972497448E+03  0.30204814915E+03  0.00000000000E+00 0.  1.
</event>
<event>
 7    1  0.5575489E-006  0.1013556E+03  0.7818608E-02  0.1452508E+00
          2   -1    0    0  502    0  0.00000000000E+00  0.00000000000E+00  0.32187036807E+04  0.32187036807E+04  0.00000000000E+00 0. -1.
          1   -1    0    0  501    0 -0.00000000000E+00 -0.00000000000E+00 -0.35683959925E+03  0.35683959925E+03  0.00000000000E+00 0. -1.
         25    2    1    2    0    0  0.50039394832E+02  0.10379864200E+03  0.52036696901E+02  0.17779095067E+03  0.12499482070E+03 0.  0.
          2    1    1    2  501    0  0.89865846754E+01 -0.21600406894E+02 -0.29267070914E+03  0.29360429198E+03  0.00000000000E+00 0. -1.
          1    1    1    2  502    0 -0.59025979508E+02 -0.82198235101E+02  0.31024980937E+04  0.31041480373E+04  0.00000000000E+00 0. -1.
         22    1    3    3    0    0  0.73204272892E+02  0.82705092404E+02 -0.73010776775E+01  0.11069012429E+03  0.00000000000E+00 0. -1.
         22    1    3    3    0    0 -0.23164878060E+02  0.21093549591E+02  0.59337774578E+02  0.67100826387E+02  0.00000000000E+00 0. -1.
</event>
<event>
 7    1  0.5575489E-006  0.9419287E+02  0.7818608E-02  0.1439982E+00
          2   -1    0    0  502    0  0.00000000000E+00  0.00000000000E+00  0.13237783559E+03  0.13237783559E+03  0.00000000000E+00 0. -1.
          1   -1    0    0  501    0 -0.00000000000E+00 -0.00000000000E+00 -0.50104580174E+03  0.50104580174E+03  0.00000000000E+00 0. -1.
         25    2    1    2    0    0 -0.75749547549E+02 -0.49920318263E+02 -0.16916535206E+03  0.22906401165E+03  0.12499349170E+03 0.  0.
          2    1    1    2  501    0 -0.15324406943E+02  0.22980772180E+02 -0.27908596996E+03  0.28044951768E+03  0.00000000000E+00 0. -1.
          1    1    1    2  502    0  0.91073954492E+02  0.26939546083E+02  0.79583355876E+02  0.12391010799E+03  0.00000000000E+00 0. -1.
         22    1    3    3    0    0 -0.10642701690E+03 -0.16030027434E+02 -0.13077802466E+03  0.16937108206E+03  0.00000000000E+00 0.  1.
         22    1    3    3    0    0  0.30677469346E+02 -0.33890290829E+02 -0.38387327403E+02  0.59692929590E+02  0.00000000000E+00 0.  1.
</event>
<event>
 7    1  0.5575489E-006  0.1123965E+03  0.7818608E-02  0.1292275E+00
          2   -1    0    0  502    0  0.00000000000E+00  0.00000000000E+00  0.71935585856E+03  0.71935585856E+03  0.00000000000E+00 0. -1.
          1   -1    0    0  501    0 -0.00000000000E+00 -0.00000000000E+00 -0.47434883135E+03  0.47434883135E+03  0.00000000000E+00 0. -1.
         25    2    1    2    0    0  0.49870698994E+02 -0.68170941800E+01 -0.63051424634E+02  0.14876908398E+03  0.12499279503E+03 0.  0.
          2    1    1    2  501    0 -0.12397894928E+03  0.35529798513E+02 -0.35470502405E+03  0.37742390032E+03  0.00000000000E+00 0. -1.
          1    1    1    2  502    0  0.74108250285E+02 -0.28712704333E+02  0.66276347589E+03  0.66751170561E+03  0.00000000000E+00 0. -1.
         22    1    3    3    0    0  0.14973134409E+02 -0.49854515967E+02  0.13962397898E+02  0.53894490177E+02  0.00000000000E+00 0. -1.
         22    1    3    3    0    0  0.34897564585E+02  0.43037421787E+02 -0.77013822532E+02  0.94874593802E+02  0.00000000000E+00 0. -1.
</event>
<event>
 7    1  0.5575489E-006  0.8528689E+02  0.7818608E-02  0.1357855E+00
          2   -1    0    0  502    0  0.00000000000E+00  0.00000000000E+00  0.58444726383E+03  0.58444726383E+03  0.00000000000E+00 0. -1.
          1   -1    0    0  501    0 -0.00000000000E+00 -0.00000000000E+00 -0.12383401222E+03  0.12383401222E+03  0.00000000000E+00 0. -1.
         25    2    1    2    0    0  0.48181546236E+01  0.13815076174E+03  0.21667487255E+03  0.28580049505E+03  0.12500029996E+03 0.  0.
          2    1    1    2  501    0 -0.13364799081E+02 -0.80232512180E+02 -0.67431596316E+02  0.10565459785E+03  0.00000000000E+00 0. -1.
          1    1    1    2  502    0  0.85466444575E+01 -0.57918249561E+02  0.31136997538E+03  0.31682618315E+03  0.00000000000E+00 0. -1.
         22    1    3    3    0    0  0.32649587668E+02  0.52873551717E+01  0.10479421440E+03  0.10988984972E+03  0.00000000000E+00 0.  1.
         22    1    3    3    0    0 -0.27831433044E+02  0.13286340657E+03  0.11188065815E+03  0.17591064532E+03  0.00000000000E+00 0.  1.
</event>
<event>
 7    1  0.5575489E-006  0.1012201E+03  0.7818608E-02  0.1300442E+00
          2   -1    0    0  502    0  0.00000000000E+00  0.00000000000E+00  0.35471459522E+04  0.35471459522E+04  0.00000000000E+00 0. -1.
          1   -1    0    0  501    0 -0.00000000000E+00 -0.00000000000E+00 -0.68386823992E+03  0.68386823992E+03  0.00000000000E+00 0. -1.
         25    2    1    2    0    0 -0.21647329739E+02 -0.14538561991E+03  0.15755818082E+04  0.15873530139E+04  0.12500388450E+03 0.  0.
          2    1    1    2  501    0 -0.39167848268E+02  0.71831389326E+02 -0.67435017495E+03  0.67929524309E+03  0.00000000000E+00 0. -1.
          1    1    1    2  502    0  0.60815178006E+02  0.73554230586E+02  0.19620460790E+04  0.19643659351E+04  0.00000000000E+00 0. -1.
         22    1    3    3    0    0 -0.66148965849E+02 -0.94492323357E+02  0.12169938877E+04  0.12224477934E+04  0.00000000000E+00 0.  1.
         22    1    3    3    0    0  0.44501636111E+02 -0.50893296555E+02  0.35858792041E+03  0.36490522045E+03  0.00000000000E+00 0.  1.
</event>
<event>
 7    1  0.5575489E-006  0.9033051E+02  0.7818608E-02  0.1356597E+00
          2   -1    0    0  502    0  0.00000000000E+00  0.00000000000E+00  0.36288882039E+03  0.36288882039E+03  0.00000000000E+00 0. -1.
          1   -1    0    0  501    0 -0.00000000000E+00 -0.00000000000E+00 -0.70865790054E+02  0.70865790054E+02  0.00000000000E+00 0. -1.
         25    2    1    2    0    0 -0.21335098434E+02  0.90772864104E+02  0.16208477295E+03  0.22492697365E+03  0.12500308225E+03 0.  0.
          2    1    1    2  501    0  0.69668631914E+02 -0.62755643051E+02  0.37847319651E+02  0.10111581781E+03  0.00000000000E+00 0. -1.
          1    1    1    2  502    0 -0.48333533480E+02 -0.28017221053E+02  0.92090937730E+02  0.10771181897E+03  0.00000000000E+00 0. -1.
         22    1    3    3    0    0  0.21996380469E+02  0.81881828631E+01 -0.12795873402E+02  0.26732404838E+02  0.00000000000E+00 0.  1.
         22    1    3    3    0    0 -0.43331478903E+02  0.82584681241E+02  0.17488064635E+03  0.19819456882E+03  0.00000000000E+00 0.  1.
</event>
<event>
 7    1  0.5575489E-006  0.1707057E+03  0.7818608E-02  0.1221108E+00
          2   -1    0    0  502    0  0.00000000000E+00  0.00000000000E+00  0.36630145979E+03  0.36630145979E+03  0.00000000000E+00 0. -1.
          1   -1    0    0  501    0 -0.00000000000E+00 -0.00000000000E+00 -0.24536551480E+04  0.24536551480E+04  0.00000000000E+00 0. -1.
         25    2    1    2    0    0  0.10505308572E+03 -0.74597756540E+02 -0.92306053549E+01  0.17975375030E+03  0.12500092228E+03 0.  0.
          2    1    1    2  501    0  0.85114905786E+02  0.62796635133E+02 -0.23255285574E+04  0.23279327816E+04  0.00000000000E+00 0. -1.
          1    1    1    2  502    0 -0.19016799151E+03  0.11801121407E+02  0.24740547452E+03  0.31227007587E+03  0.00000000000E+00 0. -1.
         22    1    3    3    0    0  0.23921724433E+02  0.19828505357E+02 -0.40834412427E+02  0.51311477886E+02  0.00000000000E+00 0. -1.
         22    1    3    3    0    0  0.81131361287E+02 -0.94426261898E+02  0.31603807072E+02  0.12844227241E+03  0.00000000000E+00 0. -1.
</event>
<event>
 7    1  0.5575489E-006  0.6717193E+02  0.7818608E-02  0.1382864E+00
          2   -1    0    0  502    0  0.00000000000E+00  0.00000000000E+00  0.85285538115E+03  0.85285538115E+03  0.00000000000E+00 0. -1.
          1   -1    0    0  501    0 -0.00000000000E+00 -0.00000000000E+00 -0.65858611731E+03  0.65858611731E+03  0.00000000000E+00 0. -1.
         25    2    1    2    0    0 -0.70381938381E+02  0.89115891667E+01 -0.20847075500E+02  0.14523235626E+03  0.12499921230E+03 0.  0.
          2    1    1    2  501    0  0.22151830561E+02 -0.56233810613E+02 -0.57250918538E+03  0.57569063949E+03  0.00000000000E+00 0. -1.
          1    1    1    2  502    0  0.48230107820E+02  0.47322221447E+02  0.78762552472E+03  0.79051850272E+03  0.00000000000E+00 0. -1.
         22    1    3    3    0    0 -0.98998790761E+02  0.21435484781E+02  0.94286548375E+01  0.10173072354E+03  0.00000000000E+00 0.  1.
         22    1    3    3    0    0  0.28616852380E+02 -0.12523895614E+02 -0.30275730338E+02  0.43501632716E+02  0.00000000000E+00 0.  1.
</event>
<event>
 7    1  0.5575489E-006  0.1045277E+03  0.7818608E-02  0.1326147E+00
          2   -1    0    0  502    0  0.00000000000E+00  0.00000000000E+00  0.91796793401E+03  0.91796793401E+03  0.00000000000E+00 0. -1.
          1   -1    0    0  501    0 -0.00000000000E+00 -0.00000000000E+00 -0.16118965212E+03  0.16118965212E+03  0.00000000000E+00 0. -1.
         25    2    1    2    0    0 -0.15933094932E+03  0.22652297636E+02  0.12455117765E+03  0.23882614460E+03  0.12500181395E+03 0.  0.
          2    1    1    2  501    0  0.62477552101E+02  0.65324154930E+01 -0.90717706156E+02  0.11034409444E+03  0.00000000000E+00 0. -1.
          1    1    1    2  502    0  0.96853397222E+02 -0.29184713129E+02  0.72294481039E+03  0.72998734709E+03  0.00000000000E+00 0. -1.
         22    1    3    3    0    0 -0.13452753344E+03 -0.33887103524E+02  0.10525728167E+03  0.17414100144E+03  0.00000000000E+00 0. -1.
         22    1    3    3    0    0 -0.24803415877E+02  0.56539401160E+02  0.19293895980E+02  0.64685143154E+02  0.00000000000E+00 0. -1.
</event>
<event>
 7    1  0.5575489E-006  0.1061556E+03  0.7818608E-02  0.1366294E+00
          2   -1    0    0  502    0  0.00000000000E+00  0.00000000000E+00  0.15423889435E+04  0.15423889435E+04  0.00000000000E+00 0. -1.
          1   -1    0    0  501    0 -0.00000000000E+00 -0.00000000000E+00 -0.42060862497E+03  0.42060862497E+03  0.00000000000E+00 0. -1.
         25    2    1    2    0    0  0.41293132149E+02  0.87055609052E+02 -0.97771249496E+02  0.18566440776E+03  0.12501301232E+03 0.  0.
          2    1    1    2  501    0 -0.82732143897E+02 -0.72789608057E+02 -0.26767035786E+03  0.28946563726E+03  0.00000000000E+00 0. -1.
          1    1    1    2  502    0  0.41439011748E+02 -0.14266000996E+02  0.14872219259E+04  0.14878675235E+04  0.00000000000E+00 0. -1.
         22    1    3    3    0    0 -0.11997467960E+02 -0.52600484364E+01  0.21828585470E+02  0.25457700026E+02  0.00000000000E+00 0.  1.
         22    1    3    3    0    0  0.53290600109E+02  0.92315657489E+02 -0.11959983497E+03  0.16020670773E+03  0.00000000000E+00 0.  1.
</event>
<event>
 7    1  0.5575489E-006  0.7216219E+02  0.7818608E-02  0.1356984E+00
          2   -1    0    0  502    0  0.00000000000E+00  0.00000000000E+00  0.16529949262E+03  0.16529949262E+03  0.00000000000E+00 0. -1.
          1   -1    0    0  501    0 -0.00000000000E+00 -0.00000000000E+00 -0.13308953370E+04  0.13308953370E+04  0.00000000000E+00 0. -1.
         25    2    1    2    0    0 -0.26581726987E+02  0.63889342391E+01 -0.64292698598E+03  0.65553626801E+03  0.12500113073E+03 0.  0.
          2    1    1    2  501    0  0.95335734468E+02 -0.17856168326E+02 -0.67036238515E+03  0.67734295039E+03  0.00000000000E+00 0. -1.
          1    1    1    2  502    0 -0.68754007481E+02  0.11467234087E+02  0.14769352679E+03  0.16331561119E+03  0.00000000000E+00 0. -1.
         22    1    3    3    0    0 -0.39168805876E+02  0.56202684644E+02 -0.24823612017E+03  0.25751525871E+03  0.00000000000E+00 0. -1.
         22    1    3    3    0    0  0.12587078889E+02 -0.49813750405E+02 -0.39469086582E+03  0.39802100930E+03  0.00000000000E+00 0. -1.
</event>
<event>
 7    1  0.5575489E-006  0.7970108E+02  0.7818608E-02  0.1422933E+00
          2   -1    0    0  502    0  0.00000000000E+00  0.00000000000E+00  0.16407994251E+04  0.16407994251E+04  0.00000000000E+00 0. -1.
          1   -1    0    0  501    0 -0.00000000000E+00 -0.00000000000E+00 -0.86429831250E+03  0.86429831250E+03  0.00000000000E+00 0. -1.
         25    2    1    2    0    0  0.39595924565E+02 -0.85146801164E+02  0.57233039841E+02  0.16648868121E+03  0.12500018053E+03 0.  0.
          2    1    1    2  501    0  0.19349036073E+02  0.31698932184E+02 -0.80820857789E+03  0.80906137769E+03  0.00000000000E+00 0. -1.
          1    1    1    2  502    0 -0.58944960638E+02  0.53447868980E+02  0.15274766507E+04  0.15295476787E+04  0.00000000000E+00 0. -1.
         22    1    3    3    0    0 -0.96486661321E+01  0.26383752656E+02 -0.66187314432E+01  0.28861856632E+02  0.00000000000E+00 0.  1.
         22    1    3    3    0    0  0.49244590697E+02 -0.11153055382E+03  0.63851771284E+02  0.13762682458E+03  0.00000000000E+00 0.  1.
</event>
<event>
 7    1  0.5575489E-006  0.8803773E+02  0.7818608E-02  0.1310008E+00
          2   -1    0    0  502    0  0.00000000000E+00  0.00000000000E+00  0.19599829074E+04  0.19599829074E+04  0.00000000000E+00 0. -1.
          1   -1    0    0  501    0 -0.00000000000E+00 -0.00000000000E+00 -0.22828739457E+02  0.22828739457E+02  0.00000000000E+00 0. -1.
         25    2    1    2    0    0 -0.45303623407E+01 -0.67044222381E+02  0.64289903207E+03  0.65837654178E+03  0.12500021361E+03 0.  0.
          2    1    1    2  501    0  0.87259501307E+02  0.11679968438E+02  0.13662706310E+03  0.16253490888E+03  0.00000000000E+00 0. -1.
          1    1    1    2  502    0 -0.82729138967E+02  0.55364253943E+02  0.11576280728E+04  0.11619001962E+04  0.00000000000E+00 0. -1.
         22    1    3    3    0    0  0.29674633871E+02 -0.49512014379E+02  0.59090591169E+03  0.59371863701E+03  0.00000000000E+00 0. -1.
         22    1    3    3    0    0 -0.34204996211E+02 -0.17532208002E+02  0.51993120377E+02  0.64657904774E+02  0.00000000000E+00 0. -1.
</event>
<event>
 7    1  0.5575489E-006  0.7310067E+02  0.7818608E-02  0.1355580E+00
          2   -1    0    0  502    0  0.00000000000E+00  0.00000000000E+00  0.33881381438E+03  0.33881381438E+03  0.00000000000E+00 0. -1.
          1   -1    0    0  501    0 -0.00000000000E+00 -0.00000000000E+00 -0.15550464659E+04  0.15550464659E+04  0.00000000000E+00 0. -1.
         25    2    1    2    0    0  0.29393927194E+02 -0.23560406439E+02 -0.13514099785E+04  0.13577013970E+04  0.12500023104E+03 0.  0.
          2    1    1    2  501    0 -0.52200666374E+02 -0.46080860085E+02 -0.19024532865E+03  0.20258736464E+03  0.00000000000E+00 0. -1.
          1    1    1    2  502    0  0.22806739180E+02  0.69641266525E+02  0.32542265554E+03  0.33357151871E+03  0.00000000000E+00 0. -1.
         22    1    3    3    0    0  0.70403795114E+02 -0.40859740519E+02 -0.68775072556E+03  0.69255127844E+03  0.00000000000E+00 0.  1.
         22    1    3    3    0    0 -0.41009867920E+02  0.17299334080E+02 -0.66365925291E+03  0.66515011854E+03  0.00000000000E+00 0.  1.
</event>
<event>
 7    1  0.5575489E-006  0.3675863E+02  0.7818608E-02  0.1549811E+00
          2   -1    0    0  502    0  0.00000000000E+00  0.00000000000E+00  0.32071715475E+03  0.32071715475E+03  0.00000000000E+00 0. -1.
          1   -1    0    0  501    0 -0.00000000000E+00 -0.00000000000E+00 -0.80812487651E+03  0.80812487651E+03  0.00000000000E+00 0. -1.
         25    2    1    2    0    0  0.49396618058E+01 -0.21211179624E+02  0.24810925260E+03  0.27867052690E+03  0.12499898775E+03 0.  0.
          2    1    1    2  501    0  0.30592095552E+02 -0.12552490734E+02 -0.78195346772E+03  0.78265232832E+03  0.00000000000E+00 0. -1.
          1    1    1    2  502    0 -0.35531757358E+02  0.33763670358E+02  0.46436493361E+02  0.67519176037E+02  0.00000000000E+00 0. -1.
         22    1    3    3    0    0  0.46838945601E+02  0.32845278521E+02  0.13290251903E+03  0.14469201329E+03  0.00000000000E+00 0. -1.
         22    1    3    3    0    0 -0.41899283795E+02 -0.54056458145E+02  0.11520673357E+03  0.13397851361E+03  0.00000000000E+00 0. -1.
</event>
<event>
 7    1  0.5575489E-006  0.1295748E+03  0.7818608E-02  0.1403643E+00
          2   -1    0    0  502    0  0.00000000000E+00  0.00000000000E+00  0.23732279171E+04  0.23732279171E+04  0.00000000000E+00 0. -1.
          1   -1    0    0  501    0 -0.00000000000E+00 -0.00000000000E+00 -0.20911093741E+03  0.20911093741E+03  0.00000000000E+00 0. -1.
         25    2    1    2    0    0  0.32524313243E+02  0.11187114630E+03  0.11506607697E+04  0.11632791092E+04  0.12500037911E+03 0.  0.
          2    1    1    2  501    0 -0.58769139095E+02 -0.11578465966E+03 -0.18185570227E+03  0.22345334092E+03  0.00000000000E+00 0. -1.
          1    1    1    2  502    0  0.26244825852E+02  0.39135133597E+01  0.11953119123E+04  0.11956064044E+04  0.00000000000E+00 0. -1.
         22    1    3    3    0    0 -0.40002530384E+02  0.43499143498E+02  0.65724959852E+03  0.65990106280E+03  0.00000000000E+00 0. -1.
         22    1    3    3    0    0  0.72526843627E+02  0.68372002800E+02  0.49341117117E+03  0.50337804645E+03  0.00000000000E+00 0. -1.
</event>
<event>
 7    1  0.5575489E-006  0.1015221E+03  0.7818608E-02  0.1333365E+00
          2   -1    0    0  502    0  0.00000000000E+00  0.00000000000E+00  0.33824905668E+03  0.33824905668E+03  0.00000000000E+00 0. -1.
          1   -1    0    0  501    0 -0.00000000000E+00 -0.00000000000E+00 -0.32629139175E+03  0.32629139175E+03  0.00000000000E+00 0. -1.
         25    2    1    2    0    0  0.15347999102E+03  0.95420659574E+01  0.19719934700E+02  0.19915216098E+03  0.12500219492E+03 0.  0.
          2    1    1    2  501    0 -0.59816877270E+02  0.10301049428E+02 -0.22231007195E+03  0.23044725756E+03  0.00000000000E+00 0. -1.
          1    1    1    2  502    0 -0.93663113747E+02 -0.19843115385E+02  0.21454780218E+03  0.23494102989E+03  0.00000000000E+00 0. -1.
         22    1    3    3    0    0  0.13696760754E+03 -0.39957411212E+02 -0.18493852586E+01  0.14268896402E+03  0.00000000000E+00 0. -1.
         22    1    3    3    0    0  0.16512383473E+02  0.49499477170E+02  0.21569319959E+02  0.56463196965E+02  0.00000000000E+00 0. -1.
</event>
<event>
 7    1  0.5575489E-006  0.2058787E+03  0.7818608E-02  0.1283529E+00
          2   -1    0    0  502    0  0.00000000000E+00  0.00000000000E+00  0.46019502500E+03  0.46019502500E+03  0.00000000000E+00 0. -1.
          1   -1    0    0  501    0 -0.00000000000E+00 -0.00000000000E+00 -0.99710613027E+03  0.99710613027E+03  0.00000000000E+00 0. -1.
         25    2    1    2    0    0 -0.18691149143E+03  0.45050349846E+02 -0.40399476835E+02  0.23285875947E+03  0.12500257790E+03 0.  0.
          2    1    1    2  501    0 -0.22790226025E+02 -0.41225159329E+02 -0.82953785709E+03  0.83087421702E+03  0.00000000000E+00 0. -1.
          1    1    1    2  502    0  0.20970171745E+03 -0.38251905171E+01  0.33302622865E+03  0.39356817879E+03  0.00000000000E+00 0. -1.
         22    1    3    3    0    0 -0.70795781037E+01 -0.27054841445E+02  0.14473490272E+02  0.31489153568E+02  0.00000000000E+00 0. -1.
         22    1    3    3    0    0 -0.17983191332E+03  0.72105191291E+02 -0.54872967107E+02  0.20136960590E+03  0.00000000000E+00 0. -1.
</event>
<event>
 7    1  0.5575489E-006  0.1423381E+03  0.7818608E-02  0.1228024E+00
          2   -1    0    0  502    0  0.00000000000E+00  0.00000000000E+00  0.35918621428E+03  0.35918621428E+03  0.00000000000E+00 0. -1.
          1   -1    0    0  501    0 -0.00000000000E+00 -0.00000000000E+00 -0.98894491373E+03  0.98894491373E+03  0.00000000000E+00 0. -1.
         25    2    1    2    0    0  0.56775349529E+02 -0.17311058544E+03 -0.32062895278E+03  0.38938322921E+03  0.12500263487E+03 0.  0.
          2    1    1    2  501    0 -0.12027076559E+03  0.73609311300E+02 -0.61496580562E+03  0.63092497957E+03  0.00000000000E+00 0. -1.
          1    1    1    2  502    0  0.63495416057E+02  0.99501274137E+02  0.30583605895E+03  0.32782291923E+03  0.00000000000E+00 0. -1.
         22    1    3    3    0    0  0.23567720764E+02 -0.75528493733E+02 -0.36497947688E+02  0.87132605912E+02  0.00000000000E+00 0.  1.
         22    1    3    3    0    0  0.33207628764E+02 -0.97582091703E+02 -0.28413100509E+03  0.30225062330E+03  0.00000000000E+00 0.  1.
</event>
<event>
 7    1  0.5575489E-006  0.1412741E+03  0.7818608E-02  0.1285496E+00
          2   -1    0    0  502    0  0.00000000000E+00  0.00000000000E+00  0.58503648632E+03  0.58503648632E+03  0.00000000000E+00 0. -1.
          1   -1    0    0  501    0 -0.00000000000E+00 -0.00000000000E+00 -0.69772437217E+03  0.69772437217E+03  0.00000000000E+00 0. -1.
         25    2    1    2    0    0 -0.18373896478E+03 -0.54288246229E+02  0.24628162485E+03  0.33613670322E+03  0.12500409457E+03 0.  0.
          2    1    1    2  501    0  0.14010533327E+03  0.29410463398E+01 -0.64126480123E+03  0.65639827808E+03  0.00000000000E+00 0. -1.
          1    1    1    2  502    0  0.43633631503E+02  0.51347199889E+02  0.28229529053E+03  0.29022587719E+03  0.00000000000E+00 0. -1.
         22    1    3    3    0    0 -0.19500898307E+03 -0.53441876585E+02  0.18577928192E+03  0.27458783521E+03  0.00000000000E+00 0. -1.
         22    1    3    3    0    0  0.11270018298E+02 -0.84636964387E+00  0.60502342929E+02  0.61548868015E+02  0.00000000000E+00 0. -1.
</event>
<event>
 7    1  0.5575489E-006  0.7727531E+02  0.7818608E-02  0.1400285E+00
          2   -1    0    0  502    0  0.00000000000E+00  0.00000000000E+00  0.22450217892E+04  0.22450217892E+04  0.00000000000E+00 0. -1.
          1   -1    0    0  501    0 -0.00000000000E+00 -0.00000000000E+00 -0.18389012585E+03  0.18389012585E+03  0.00000000000E+00 0. -1.
         25    2    1    2    0    0  0.43338919200E+02 -0.20991622846E+00  0.59030984689E+03  0.60495350287E+03  0.12499887726E+03 0.  0.
          2    1    1    2  501    0  0.32951844288E+02  0.31649256384E+02 -0.17256008824E+03  0.17850625627E+03  0.00000000000E+00 0. -1.
          1    1    1    2  502    0 -0.76290763488E+02 -0.31439340156E+02  0.16433819047E+04  0.16454521559E+04  0.00000000000E+00 0. -1.
         22    1    3    3    0    0  0.14166378778E+02  0.11100567226E+02  0.56339261993E+03  0.56368000946E+03  0.00000000000E+00 0. -1.
         22    1    3    3    0    0  0.29172540422E+02 -0.11310483455E+02  0.26917226967E+02  0.41273493410E+02  0.00000000000E+00 0. -1.
</event>
<event>
 7    1  0.5575489E-006  0.6026596E+02  0.7818608E-02  0.1427525E+00
          2   -1    0    0  502    0  0.00000000000E+00  0.00000000000E+00  0.15630638158E+03  0.15630638158E+03  0.00000000000E+00 0. -1.
          1   -1    0    0  501    0 -0.00000000000E+00 -0.00000000000E+00 -0.14206578688E+04  0.14206578688E+04  0.00000000000E+00 0. -1.
         25    2    1    2    0    0 -0.64395503511E+02 -0.43937650188E+02  0.22086733903E+02  0.14896270486E+03  0.12499906259E+03 0.  0.
          2    1    1    2  501    0  0.60161799255E+02 -0.32955870539E+01 -0.13485278959E+04  0.13498732493E+04  0.00000000000E+00 0. -1.
          1    1    1    2  502    0  0.42337042563E+01  0.47233237242E+02  0.62089674826E+02  0.78128296232E+02  0.00000000000E+00 0. -1.
         22    1    3    3    0    0 -0.28758302082E+02 -0.86601122463E+02  0.19509858789E+02  0.93313605334E+02  0.00000000000E+00 0. -1.
         22    1    3    3    0    0 -0.35637201430E+02  0.42663472275E+02  0.25768751142E+01  0.55649099523E+02  0.00000000000E+00 0. -1.
</event>
<event>
 7    1  0.5575489E-006  0.7291475E+02  0.7818608E-02  0.1506922E+00
          2   -1    0    0  502    0  0.00000000000E+00  0.00000000000E+00  0.23216656241E+03  0.23216656241E+03  0.00000000000E+00 0. -1.
          1   -1    0    0  501    0 -0.00000000000E+00 -0.00000000000E+00 -0.12766968094E+04  0.12766968094E+04  0.00000000000E+00 0. -1.
         25    2    1    2    0    0 -0.95024601359E+01  0.93274020827E+02 -0.12311459625E+03  0.19893070459E+03  0.12500352678E+03 0.  0.
          2    1    1    2  501    0  0.26379154414E+01 -0.72228528223E+02 -0.11138684453E+04  0.11162109265E+04  0.00000000000E+00 0. -1.
          1    1    1    2  502    0  0.68645446945E+01 -0.21045492604E+02  0.19245279453E+03  0.19372174079E+03  0.00000000000E+00 0. -1.
         22    1    3    3    0    0  0.11691155632E+02  0.11918378877E+03 -0.11113426754E+03  0.16337773424E+03  0.00000000000E+00 0. -1.
         22    1    3    3    0    0 -0.21193615768E+02 -0.25909767942E+02 -0.11980328715E+02  0.35552970344E+02  0.00000000000E+00 0. -1.
</event>
<event>
 7    1  0.5575489E-006  0.4809875E+02  0.7818608E-02  0.1506673E+00
          2   -1    0    0  502    0  0.00000000000E+00  0.00000000000E+00  0.77142483713E+03  0.77142483713E+03  0.00000000000E+00 0. -1.
          1   -1    0    0  501    0 -0.00000000000E+00 -0.00000000000E+00 -0.78271835466E+03  0.78271835466E+03  0.00000000000E+00 0. -1.
         25    2    1    2    0    0  0.23252257159E+01 -0.22727751851E+02 -0.12382404998E+03  0.17743072376E+03  0.12500923567E+03 0.  0.
          2    1    1    2  501    0  0.24976716634E+02  0.42337863531E+02 -0.63075484424E+03  0.63266737279E+03  0.00000000000E+00 0. -1.
          1    1    1    2  502    0 -0.27301942350E+02 -0.19610111680E+02  0.74328537669E+03  0.74404509523E+03  0.00000000000E+00 0. -1.
         22    1    3    3    0    0  0.50116339574E+00 -0.72354065274E+02 -0.48132634973E+02  0.86902891068E+02  0.00000000000E+00 0. -1.
         22    1    3    3    0    0  0.18240623202E+01  0.49626313423E+02 -0.75691415004E+02  0.90527832697E+02  0.00000000000E+00 0. -1.
</event>
<event>
 7    1  0.5575489E-006  0.6249846E+02  0.7818608E-02  0.1413028E+00
          2   -1    0    0  502    0  0.00000000000E+00  0.00000000000E+00  0.25045390391E+04  0.25045390391E+04  0.00000000000E+00 0. -1.
          1   -1    0    0  501    0 -0.00000000000E+00 -0.00000000000E+00 -0.23712113140E+03  0.23712113140E+03  0.00000000000E+00 0. -1.
         25    2    1    2    0    0  0.75682144879E+02 -0.73219255870E+02  0.11232417963E+04  0.11350715818E+04  0.12500606547E+03 0.  0.
          2    1    1    2  501    0 -0.24811464226E+02  0.44694840281E+02 -0.22775343703E+03  0.23341993399E+03  0.00000000000E+00 0. -1.
          1    1    1    2  502    0 -0.50870680654E+02  0.28524415589E+02  0.13719295484E+04  0.13731686547E+04  0.00000000000E+00 0. -1.
         22    1    3    3    0    0 -0.30588999899E+01  0.26971782423E+02  0.38139685576E+03  0.38236160306E+03  0.00000000000E+00 0. -1.
         22    1    3    3    0    0  0.78741044869E+02 -0.10019103829E+03  0.74184494057E+03  0.75270997878E+03  0.00000000000E+00 0. -1.
</event>
<event>
 7    1  0.5575489E-006  0.2078913E+03  0.7818608E-02  0.1242240E+00
          2   -1    0    0  502    0  0.00000000000E+00  0.00000000000E+00  0.12891104426E+04  0.12891104426E+04  0.00000000000E+00 0. -1.
          1   -1    0    0  501    0 -0.00000000000E+00 -0.00000000000E+00 -0.25859119537E+04  0.25859119537E+04  0.00000000000E+00 0. -1.
         25    2    1    2    0    0  0.88493942497E+02 -0.15766900899E+03  0.47932568412E+03  0.52732227131E+03  0.12499988841E+03 0.  0.
          2    1    1    2  501    0 -0.28748239842E+02 -0.63681704135E+02 -0.25447000224E+04  0.25456590551E+04  0.00000000000E+00 0. -1.
          1    1    1    2  502    0 -0.59745702655E+02  0.22135071313E+03  0.76857282720E+03  0.80204106996E+03  0.00000000000E+00 0. -1.
         22    1    3    3    0    0  0.11543384885E+03 -0.88125881191E+02  0.31577298488E+03  0.34756829887E+03  0.00000000000E+00 0. -1.
         22    1    3    3    0    0 -0.26939906356E+02 -0.69543127802E+02  0.16355269924E+03  0.17975397244E+03  0.00000000000E+00 0. -1.
</event>
<event>
 7    1  0.5575489E-006  0.6314085E+02  0.7818608E-02  0.1473363E+00
          2   -1    0    0  502    0  0.00000000000E+00  0.00000000000E+00  0.18432697620E+03  0.18432697620E+03  0.00000000000E+00 0. -1.
          1   -1    0    0  501    0 -0.00000000000E+00 -0.00000000000E+00 -0.29369140856E+03  0.29369140856E+03  0.00000000000E+00 0. -1.
         25    2    1    2    0    0  0.71966775622E+01  0.41012155933E+02 -0.14605145052E+02  0.13255978601E+03  0.12499999001E+03 0.  0.
          2    1    1    2  501    0  0.28950609909E+02  0.14313062247E+02 -0.21007773409E+03  0.21254565609E+03  0.00000000000E+00 0. -1.
          1    1    1    2  502    0 -0.36147287471E+02 -0.55325218180E+02  0.11531844678E+03  0.13291294266E+03  0.00000000000E+00 0. -1.
         22    1    3    3    0    0 -0.32345605658E+02 -0.39161300789E+01  0.39966638101E+02  0.51564585146E+02  0.00000000000E+00 0. -1.
         22    1    3    3    0    0  0.39542283221E+02  0.44928286012E+02 -0.54571783152E+02  0.80995200862E+02  0.00000000000E+00 0. -1.
</event>
<event>
 7    1  0.5575489E-006  0.6843209E+02  0.7818608E-02  0.1465167E+00
          2   -1    0    0  502    0  0.00000000000E+00  0.00000000000E+00  0.95245045557E+02  0.95245045557E+02  0.00000000000E+00 0. -1.
          1   -1    0    0  501    0 -0.00000000000E+00 -0.00000000000E+00 -0.26675526423E+03  0.26675526423E+03  0.00000000000E+00 0. -1.
         25    2    1    2    0    0  0.42047516057E+02 -0.60732512516E+01 -0.84478863993E+02  0.15673695341E+03  0.12499966446E+03 0.  0.
          2    1    1    2  501    0  0.31459641910E+02  0.29967352103E+01 -0.12039995568E+03  0.12447826645E+03  0.00000000000E+00 0. -1.
          1    1    1    2  502    0 -0.73507157967E+02  0.30765160412E+01  0.33368600992E+02  0.80785089933E+02  0.00000000000E+00 0. -1.
         22    1    3    3    0    0  0.76410145311E+02  0.27938160969E+02 -0.66765729309E+02  0.10524596788E+03  0.00000000000E+00 0.  1.
         22    1    3    3    0    0 -0.34362629255E+02 -0.34011412221E+02 -0.17713134683E+02  0.51490985530E+02  0.00000000000E+00 0.  1.
</event>
<event>
 7    1  0.5575489E-006  0.6693995E+02  0.7818608E-02  0.1449097E+00
          2   -1    0    0  502    0  0.00000000000E+00  0.00000000000E+00  0.23755840557E+04  0.23755840557E+04  0.00000000000E+00 0. -1.
          1   -1    0    0  501    0 -0.00000000000E+00 -0.00000000000E+00 -0.13288555256E+03  0.13288555256E+03  0.00000000000E+00 0. -1.
         25    2    1    2    0    0 -0.70812322903E+02  0.11068924804E+02  0.50824931400E+02  0.15278089680E+03  0.12498768981E+03 0.  0.
          2    1    1    2  501    0  0.18764920294E+02  0.31101384730E+02 -0.77361713765E+02  0.85464923346E+02  0.00000000000E+00 0. -1.
          1    1    1    2  502    0  0.52047402609E+02 -0.42170309534E+02  0.22692352855E+04  0.22702237881E+04  0.00000000000E+00 0. -1.
         22    1    3    3    0    0 -0.73486615381E+02  0.13979041325E+02 -0.23455406620E+02  0.78395486708E+02  0.00000000000E+00 0.  1.
         22    1    3    3    0    0  0.26742924780E+01 -0.29101165210E+01  0.74280338019E+02  0.74385410093E+02  0.00000000000E+00 0.  1.
</event>
<event>
 7    1  0.5575489E-006  0.7045876E+02  0.7818608E-02  0.1460579E+00
          2   -1    0    0  502    0  0.00000000000E+00  0.00000000000E+00  0.10546747464E+04  0.10546747464E+04  0.00000000000E+00 0. -1.
          1   -1    0    0  501    0 -0.00000000000E+00 -0.00000000000E+00 -0.15146963537E+04  0.15146963537E+04  0.00000000000E+00 0. -1.
         25    2    1    2    0    0 -0.72349630029E+02 -0.70776186268E+02  0.10697310513E+03  0.19316503624E+03  0.12500299395E+03 0.  0.
          2    1    1    2  501    0  0.21958732850E+02  0.22902762128E+02 -0.14700938132E+04  0.14704361741E+04  0.00000000000E+00 0. -1.
          1    1    1    2  502    0  0.50390897179E+02  0.47873424141E+02  0.90309910079E+03  0.90576988971E+03  0.00000000000E+00 0. -1.
         22    1    3    3    0    0 -0.22033339922E+02  0.28911997166E+02  0.63827507794E+02  0.73452858348E+02  0.00000000000E+00 0. -1.
         22    1    3    3    0    0 -0.50316290107E+02 -0.99688183434E+02  0.43145597339E+02  0.11971217789E+03  0.00000000000E+00 0. -1.
</event>
<event>
 7    1  0.5575489E-006  0.5824882E+02  0.7818608E-02  0.1458060E+00
          2   -1    0    0  502    0  0.00000000000E+00  0.00000000000E+00  0.79610363882E+02  0.79610363882E+02  0.00000000000E+00 0. -1.
          1   -1    0    0  501    0 -0.00000000000E+00 -0.00000000000E+00 -0.17206861212E+04  0.17206861212E+04  0.00000000000E+00 0. -1.
         25    2    1    2    0    0  0.15836714649E+02 -0.69908580451E+02 -0.20776465080E+02  0.14558633281E+03  0.12500283056E+03 0.  0.
          2    1    1    2  501    0  0.20145645618E+02  0.54636474587E+02 -0.16140790029E+04  0.16151291029E+04  0.00000000000E+00 0. -1.
          1    1    1    2  502    0 -0.35982360267E+02  0.15272105864E+02 -0.62202892902E+01  0.39581049339E+02  0.00000000000E+00 0. -1.
         22    1    3    3    0    0 -0.10050835744E+02 -0.87903345202E+02 -0.50823096979E+02  0.10203433042E+03  0.00000000000E+00 0.  1.
         22    1    3    3    0    0  0.25887550393E+02  0.17994764751E+02  0.30046631899E+02  0.43552002392E+02  0.00000000000E+00 0.  1.
</event>
<event>
 7    1  0.5575489E-006  0.5730948E+02  0.7818608E-02  0.1459403E+00
          2   -1    0    0  502    0  0.00000000000E+00  0.00000000000E+00  0.82393941964E+03  0.82393941964E+03  0.00000000000E+00 0. -1.
          1   -1    0    0  501    0 -0.00000000000E+00 -0.00000000000E+00 -0.63458908922E+03  0.63458908922E+03  0.00000000000E+00 0. -1.
         25    2    1    2    0    0  0.80490290419E+02  0.52669225772E+02 -0.36615460528E+03  0.39868200432E+03  0.12500164561E+03 0.  0.
          2    1    1    2  501    0 -0.34982388006E+02 -0.18004185402E+02 -0.24961507493E+03  0.25269666360E+03  0.00000000000E+00 0. -1.
          1    1    1    2  502    0 -0.45507902414E+02 -0.34665040370E+02  0.80512001063E+03  0.80714984094E+03  0.00000000000E+00 0. -1.
         22    1    3    3    0    0 -0.22249376044E+02  0.23955117166E+02 -0.24767966043E+02  0.41016271341E+02  0.00000000000E+00 0. -1.
         22    1    3    3    0    0  0.10273966646E+03  0.28714108606E+02 -0.34138663924E+03  0.35766573298E+03  0.00000000000E+00 0. -1.
</event>
<event>
 7    1  0.5575489E-006  0.1083316E+03  0.7818608E-02  0.1392327E+00
          2   -1    0    0  502    0  0.00000000000E+00  0.00000000000E+00  0.38058990813E+03  0.38058990813E+03  0.00000000000E+00 0. -1.
          1   -1    0    0  501    0 -0.00000000000E+00 -0.00000000000E+00 -0.31634193775E+03  0.31634193775E+03  0.00000000000E+00 0. -1.
         25    2    1    2    0    0 -0.70300338673E+02 -0.10862546025E+03 -0.71709932809E+02  0.19367277102E+03  0.12500079815E+03 0.  0.
          2    1    1    2  501    0 -0.66157605385E+01  0.34086671793E+02 -0.17290223902E+03  0.17635434143E+03  0.00000000000E+00 0. -1.
          1    1    1    2  502    0  0.76916099212E+02  0.74538788454E+02  0.30886014221E+03  0.32690473344E+03  0.00000000000E+00 0. -1.
         22    1    3    3    0    0 -0.24509467341E+02 -0.11556346799E+03 -0.12929939546E+02  0.11883943983E+03  0.00000000000E+00 0.  1.
         22    1    3    3    0    0 -0.45790871332E+02  0.69380077391E+01 -0.58779993263E+02  0.74833331188E+02  0.00000000000E+00 0.  1.
</event>
<event>
 7    1  0.5575489E-006  0.1308387E+03  0.7818608E-02  0.1321296E+00
          2   -1    0    0  502    0  0.00000000000E+00  0.00000000000E+00  0.40695256110E+02  0.40695256110E+02  0.00000000000E+00 0. -1.
          1   -1    0    0  501    0 -0.00000000000E+00 -0.00000000000E+00 -0.24629490710E+04  0.24629490710E+04  0.00000000000E+00 0. -1.
         25    2    1    2    0    0 -0.99642425482E+01  0.16331950402E+03 -0.43938892165E+03  0.48524314578E+03  0.12500295814E+03 0.  0.
          2    1    1    2  501    0  0.23822713399E+02 -0.46666801373E+02 -0.18018330343E+04  0.18025946842E+04  0.00000000000E+00 0. -1.
          1    1    1    2  502    0 -0.13858470851E+02 -0.11665270264E+03 -0.18103185896E+03  0.21580649714E+03  0.00000000000E+00 0. -1.
         22    1    3    3    0    0 -0.96563612450E+01 -0.19946438108E+02 -0.37879429482E+02  0.43885725283E+02  0.00000000000E+00 0. -1.
         22    1    3    3    0    0 -0.30788130317E+00  0.18326594213E+03 -0.40150949216E+03  0.44135742050E+03  0.00000000000E+00 0. -1.
</event>
<event>
 7    1  0.5575489E-006  0.4830223E+02  0.7818608E-02  0.1564737E+00
          2   -1    0    0  502    0  0.00000000000E+00  0.00000000000E+00  0.33709686598E+03  0.33709686598E+03  0.00000000000E+00 0. -1.
          1   -1    0    0  501    0 -0.00000000000E+00 -0.00000000000E+00 -0.25723838006E+03  0.25723838006E+03  0.00000000000E+00 0. -1.
         25    2    1    2    0    0 -0.55485997720E+02 -0.37849732172E+02 -0.13372661575E+03  0.19496962094E+03  0.12497618638E+03 0.  0.
          2    1    1    2  501    0  0.22734973595E+02  0.26174268363E+01 -0.89554895795E+02  0.92432728557E+02  0.00000000000E+00 0. -1.
          1    1    1    2  502    0  0.32751024125E+02  0.35232305336E+02  0.30313999746E+03  0.30693289654E+03  0.00000000000E+00 0. -1.
         22    1    3    3    0    0 -0.33808368575E+02 -0.72311901799E+02 -0.13195114577E+03  0.15421777394E+03  0.00000000000E+00 0. -1.
         22    1    3    3    0    0 -0.21677629145E+02  0.34462169626E+02 -0.17754699768E+01  0.40751847005E+02  0.00000000000E+00 0. -1.
</event>
<event>
 7    1  0.5575489E-006  0.5585770E+02  0.7818608E-02  0.1476621E+00
          2   -1    0    0  502    0  0.00000000000E+00  0.00000000000E+00  0.33903576807E+04  0.33903576807E+04  0.00000000000E+00 0. -1.
          1   -1    0    0  501    0 -0.00000000000E+00 -0.00000000000E+00 -0.20427868469E+03  0.20427868469E+03  0.00000000000E+00 0. -1.
         25    2    1    2    0    0  0.34395336946E+02 -0.17334405905E+02  0.42989587932E+02  0.13767020866E+03  0.12498584260E+03 0.  0.
          2    1    1    2  501    0  0.20291021253E+02  0.29336672188E+02 -0.15467082713E+03  0.15873068589E+03  0.00000000000E+00 0. -1.
          1    1    1    2  502    0 -0.54686358200E+02 -0.12002266283E+02  0.32977602352E+04  0.32982354709E+04  0.00000000000E+00 0. -1.
         22    1    3    3    0    0  0.67149214739E+02 -0.51311225417E+01 -0.15892821500E+02  0.69194849764E+02  0.00000000000E+00 0. -1.
         22    1    3    3    0    0 -0.32753877793E+02 -0.12203283363E+02  0.58882409431E+02  0.68475358895E+02  0.00000000000E+00 0. -1.
</event>
<event>
 7    1  0.5575489E-006  0.1060775E+03  0.7818608E-02  0.1349816E+00
          2   -1    0    0  502    0  0.00000000000E+00  0.00000000000E+00  0.85238414241E+03  0.85238414241E+03  0.00000000000E+00 0. -1.
          1   -1    0    0  501    0 -0.00000000000E+00 -0.00000000000E+00 -0.51848989568E+03  0.51848989568E+03  0.00000000000E+00 0. -1.
         25    2    1    2    0    0  0.39629981571E+02 -0.10616775167E+03  0.83536101779E+02  0.18827069033E+03  0.12500178240E+03 0.  0.
          2    1    1    2  501    0  0.10760239076E+02  0.10570815846E+03 -0.45916206873E+03  0.47129587614E+03  0.00000000000E+00 0. -1.
          1    1    1    2  502    0 -0.50390220647E+02  0.45959321079E+00  0.70952021368E+03  0.71130747162E+03  0.00000000000E+00 0. -1.
         22    1    3    3    0    0  0.82102207185E+02 -0.63559468545E+02  0.73660251252E+02  0.12730440323E+03  0.00000000000E+00 0.  1.
         22    1    3    3    0    0 -0.42472225614E+02 -0.42608283123E+02  0.98758505271E+01  0.60966287101E+02  0.00000000000E+00 0.  1.
</event>
<event>
 7    1  0.5575489E-006  0.1627872E+03  0.7818608E-02  0.1201170E+00
          2   -1    0    0  502    0  0.00000000000E+00  0.00000000000E+00  0.92182424658E+03  0.92182424658E+03  0.00000000000E+00 0. -1.
          1   -1    0    0  501    0 -0.00000000000E+00 -0.00000000000E+00 -0.73502315287E+03  0.73502315287E+03  0.00000000000E+00 0. -1.
         25    2    1    2    0    0 -0.16300856677E+03 -0.22963373710E+03  0.26407554764E+03  0.40579002432E+03  0.12500481159E+03 0.  0.
          2    1    1    2  501    0  0.95134038116E+02  0.98827738799E+02 -0.64761593251E+03  0.66198474545E+03  0.00000000000E+00 0. -1.
          1    1    1    2  502    0  0.67874528656E+02  0.13080599831E+03  0.57034147859E+03  0.58907262968E+03  0.00000000000E+00 0. -1.
         22    1    3    3    0    0 -0.82681903403E+02 -0.17114013641E+03  0.10207323734E+03  0.21574102350E+03  0.00000000000E+00 0.  1.
         22    1    3    3    0    0 -0.80326663370E+02 -0.58493600696E+02  0.16200231030E+03  0.19004900082E+03  0.00000000000E+00 0.  1.
</event>
<event>
 7    1  0.5575489E-006  0.6192919E+02  0.7818608E-02  0.1497459E+00
          2   -1    0    0  502    0  0.00000000000E+00  0.00000000000E+00  0.20801896172E+04  0.20801896172E+04  0.00000000000E+00 0. -1.
          1   -1    0    0  501    0 -0.00000000000E+00 -0.00000000000E+00 -0.67983332016E+02  0.67983332016E+02  0.00000000000E+00 0. -1.
         25    2    1    2    0    0 -0.44410099702E+02 -0.19180222303E+02  0.46242351549E+02  0.14178903226E+03  0.12500254682E+03 0.  0.
          2    1    1    2  501    0 -0.17662685861E+02  0.21479767018E+02 -0.99187540701E+01  0.29525117193E+02  0.00000000000E+00 0. -1.
          1    1    1    2  502    0  0.62072785562E+02 -0.22995447150E+01  0.19758826877E+04  0.19768587998E+04  0.00000000000E+00 0. -1.
         22    1    3    3    0    0  0.41730597719E+02 -0.50445259514E+01 -0.19446117991E+01  0.42079348179E+02  0.00000000000E+00 0. -1.
         22    1    3    3    0    0 -0.86140697421E+02 -0.14135696352E+02  0.48186963348E+02  0.99709684085E+02  0.00000000000E+00 0. -1.
</event>
<event>
 7    1  0.5575489E-006  0.1500735E+03  0.7818608E-02  0.1292777E+00
          2   -1    0    0  502    0  0.00000000000E+00  0.00000000000E+00  0.19357771115E+04  0.19357771115E+04  0.00000000000E+00 0. -1.
          1   -1    0    0  501    0 -0.00000000000E+00 -0.00000000000E+00 -0.55691687714E+03  0.55691687714E+03  0.00000000000E+00 0. -1.
         25    2    1    2    0    0  0.15429956825E+02 -0.17154352139E+03 -0.12439291075E+03  0.24650419091E+03  0.12500182635E+03 0.  0.
          2    1    1    2  501    0 -0.53009754331E+02  0.26456812586E+02 -0.36608761230E+03  0.37085055867E+03  0.00000000000E+00 0. -1.
          1    1    1    2  502    0  0.37579797506E+02  0.14508670880E+03  0.18693407574E+04  0.18753392390E+04  0.00000000000E+00 0. -1.
         22    1    3    3    0    0 -0.37659207336E+02 -0.56369845343E+01 -0.15749483585E+02  0.41207253306E+02  0.00000000000E+00 0.  1.
         22    1    3    3    0    0  0.53089164162E+02 -0.16590653685E+03 -0.10864342717E+03  0.20529693760E+03  0.00000000000E+00 0.  1.
</event>
<event>
 7    1  0.5575489E-006  0.5399677E+02  0.7818608E-02  0.1488030E+00
          2   -1    0    0  502    0  0.00000000000E+00  0.00000000000E+00  0.15470085659E+03  0.15470085659E+03  0.00000000000E+00 0. -1.
          1   -1    0    0  501    0 -0.00000000000E+00 -0.00000000000E+00 -0.64371865642E+03  0.64371865642E+03  0.00000000000E+00 0. -1.
         25    2    1    2    0    0 -0.19882254483E+02 -0.20400861073E+02 -0.47430947656E+02  0.13669663238E+03  0.12499910133E+03 0.  0.
          2    1    1    2  501    0 -0.33847472594E+02  0.37204651862E+01 -0.54389848062E+03  0.54496334784E+03  0.00000000000E+00 0. -1.
          1    1    1    2  502    0  0.53729727077E+02  0.16680395887E+02  0.10231162846E+03  0.11675953278E+03  0.00000000000E+00 0. -1.
         22    1    3    3    0    0 -0.24697172714E+02  0.45345060950E+02  0.58093974254E+01  0.51960311691E+02  0.00000000000E+00 0. -1.
         22    1    3    3    0    0  0.48149182304E+01 -0.65745922023E+02 -0.53240345081E+02  0.84736320693E+02  0.00000000000E+00 0. -1.
</event>
<event>
 7    1  0.5575489E-006  0.1622997E+03  0.7818608E-02  0.1292206E+00
          2   -1    0    0  502    0  0.00000000000E+00  0.00000000000E+00  0.61880962475E+03  0.61880962475E+03  0.00000000000E+00 0. -1.
          1   -1    0    0  501    0 -0.00000000000E+00 -0.00000000000E+00 -0.77168145263E+03  0.77168145263E+03  0.00000000000E+00 0. -1.
         25    2    1    2    0    0  0.10539912780E+03 -0.79025802783E+02  0.17902365522E+02  0.18248213656E+03  0.12500072731E+03 0.  0.
          2    1    1    2  501    0 -0.38270083902E+01 -0.54941388155E+02 -0.67461510140E+03  0.67685946633E+03  0.00000000000E+00 0. -1.
          1    1    1    2  502    0 -0.10157211941E+03  0.13396719094E+03  0.50384090799E+03  0.53114947449E+03  0.00000000000E+00 0. -1.
         22    1    3    3    0    0  0.49571631163E+02 -0.97135339562E+02 -0.22342036699E+02  0.11131840554E+03  0.00000000000E+00 0.  1.
         22    1    3    3    0    0  0.55827496633E+02  0.18109536780E+02  0.40244402221E+02  0.71163731021E+02  0.00000000000E+00 0.  1.
</event>
<event>
 7    1  0.5575489E-006  0.8522411E+02  0.7818608E-02  0.1462794E+00
          2   -1    0    0  502    0  0.00000000000E+00  0.00000000000E+00  0.62893951962E+03  0.62893951962E+03  0.00000000000E+00 0. -1.
          1   -1    0    0  501    0 -0.00000000000E+00 -0.00000000000E+00 -0.14502308757E+03  0.14502308757E+03  0.00000000000E+00 0. -1.
         25    2    1    2    0    0 -0.60903286049E+02  0.21378664177E+01  0.50090388002E+03  0.51984939618E+03  0.12499966788E+03 0.  0.
          2    1    1    2  501    0  0.85747640087E+02  0.48710508076E+01 -0.12019471448E+03  0.14772662017E+03  0.00000000000E+00 0. -1.
          1    1    1    2  502    0 -0.24844354038E+02 -0.70089172253E+01  0.10320726652E+03  0.10638659084E+03  0.00000000000E+00 0. -1.
         22    1    3    3    0    0  0.19748694473E+02 -0.16171915685E+02  0.31908494698E+03  0.32010427235E+03  0.00000000000E+00 0.  1.
         22    1    3    3    0    0 -0.80651980522E+02  0.18309782103E+02  0.18181893304E+03  0.19974512383E+03  0.00000000000E+00 0.  1.
</event>
<event>
 7    1  0.5575489E-006  0.6260079E+02  0.7818608E-02  0.1466656E+00
          2   -1    0    0  502    0  0.00000000000E+00  0.00000000000E+00  0.12964257495E+04  0.12964257495E+04  0.00000000000E+00 0. -1.
          1   -1    0    0  501    0 -0.00000000000E+00 -0.00000000000E+00 -0.10327249371E+03  0.10327249371E+03  0.00000000000E+00 0. -1.
         25    2    1    2    0    0  0.15683076751E+02  0.68366607371E+02  0.17183202677E+02  0.14436277127E+03  0.12500158149E+03 0.  0.
          2    1    1    2  501    0  0.26260308400E+02 -0.21874090021E+02 -0.31358913792E+02  0.46383845094E+02  0.00000000000E+00 0. -1.
          1    1    1    2  502    0 -0.41943385150E+02 -0.46492517350E+02  0.12073289669E+04  0.12089516269E+04  0.00000000000E+00 0. -1.
         22    1    3    3    0    0 -0.53126872511E+01 -0.15067781610E+02  0.49839725599E+02  0.52337949294E+02  0.00000000000E+00 0.  1.
         22    1    3    3    0    0  0.20995764002E+02  0.83434388981E+02 -0.32656522922E+02  0.92024821978E+02  0.00000000000E+00 0.  1.
</event>
<event>
 7    1  0.5575489E-006  0.1374127E+03  0.7818608E-02  0.1360731E+00
          2   -1    0    0  502    0  0.00000000000E+00  0.00000000000E+00  0.11524378077E+03  0.11524378077E+03  0.00000000000E+00 0. -1.
          1   -1    0    0  501    0 -0.00000000000E+00 -0.00000000000E+00 -0.12215902630E+04  0.12215902630E+04  0.00000000000E+00 0. -1.
         25    2    1    2    0    0 -0.85300059883E+02  0.97356996332E+02 -0.51299242659E+03  0.54363671737E+03  0.12500066312E+03 0.  0.
          2    1    1    2  501    0  0.65328678719E+02 -0.12666834757E+03 -0.68251690937E+03  0.69723886733E+03  0.00000000000E+00 0. -1.
          1    1    1    2  502    0  0.19971381164E+02  0.29311351237E+02  0.89162853747E+02  0.95958459060E+02  0.00000000000E+00 0. -1.
         22    1    3    3    0    0 -0.24348482354E+02 -0.21047178361E+02 -0.35482190246E+02  0.47904260088E+02  0.00000000000E+00 0. -1.
         22    1    3    3    0    0 -0.60951577529E+02  0.11840417469E+03 -0.47751023635E+03  0.49573245728E+03  0.00000000000E+00 0. -1.
</event>
<event>
 7    1  0.5575489E-006  0.1116357E+03  0.7818608E-02  0.1332794E+00
          2   -1    0    0  502    0  0.00000000000E+00  0.00000000000E+00  0.55268548543E+03  0.55268548543E+03  0.00000000000E+00 0. -1.
          1   -1    0    0  501    0 -0.00000000000E+00 -0.00000000000E+00 -0.21287637130E+03  0.21287637130E+03  0.00000000000E+00 0. -1.
         25    2    1    2    0    0 -0.46391923171E+02 -0.93118645735E+02  0.13957402160E+03  0.21430933101E+03  0.12499715651E+03 0.  0.
          2    1    1    2  501    0  0.93786234837E+02  0.64286743647E+02 -0.15470936549E+03  0.19199903912E+03  0.00000000000E+00 0. -1.
          1    1    1    2  502    0 -0.47394311667E+02  0.28831902087E+02  0.35494445801E+03  0.35925348659E+03  0.00000000000E+00 0. -1.
         22    1    3    3    0    0  0.10643591389E+01 -0.11162516122E+03  0.93127150612E+02  0.14537529247E+03  0.00000000000E+00 0. -1.
         22    1    3    3    0    0 -0.47456282310E+02  0.18506515488E+02  0.46446870988E+02  0.68934038549E+02  0.00000000000E+00 0. -1.
</event>
<event>
 7    1  0.5575489E-006  0.1177038E+03  0.7818608E-02  0.1360178E+00
          2   -1    0    0  502    0  0.00000000000E+00  0.00000000000E+00  0.85335993432E+02  0.85335993432E+02  0.00000000000E+00 0. -1.
          1   -1    0    0  501    0 -0.00000000000E+00 -0.00000000000E+00 -0.14870365564E+04  0.14870365564E+04  0.00000000000E+00 0. -1.
         25    2    1    2    0    0 -0.10444343611E+03  0.87936532571E+02 -0.65529693171E+03  0.68094170724E+03  0.12500509929E+03 0.  0.
          2    1    1    2  501    0  0.63252494814E+02 -0.93757787055E+02 -0.80867317162E+03  0.81654375219E+03  0.00000000000E+00 0. -1.
          1    1    1    2  502    0  0.41190941298E+02  0.58212544833E+01  0.62269540375E+02  0.74887090392E+02  0.00000000000E+00 0. -1.
         22    1    3    3    0    0 -0.12580040776E+03  0.96573043162E+02 -0.51829549442E+03  0.54201689530E+03  0.00000000000E+00 0. -1.
         22    1    3    3    0    0  0.21356971646E+02 -0.86365105905E+01 -0.13700143729E+03  0.13892481194E+03  0.00000000000E+00 0. -1.
</event>
<event>
 7    1  0.5575489E-006  0.5502039E+02  0.7818608E-02  0.1497726E+00
          2   -1    0    0  502    0  0.00000000000E+00  0.00000000000E+00  0.28027747647E+04  0.28027747647E+04  0.00000000000E+00 0. -1.
          1   -1    0    0  501    0 -0.00000000000E+00 -0.00000000000E+00 -0.17686411245E+03  0.17686411245E+03  0.00000000000E+00 0. -1.
         25    2    1    2    0    0  0.54851103230E+01 -0.26285093043E+02  0.54806173363E+00  0.12785236411E+03  0.12499973634E+03 0.  0.
          2    1    1    2  501    0  0.23412982824E+02 -0.20687823709E+02 -0.11077319059E+03  0.11509497629E+03  0.00000000000E+00 0. -1.
          1    1    1    2  502    0 -0.28898093147E+02  0.46972916752E+02  0.27361357811E+04  0.27366915367E+04  0.00000000000E+00 0. -1.
         22    1    3    3    0    0 -0.48611836078E+02 -0.47722190612E+02 -0.95679690406E+01  0.68790000110E+02  0.00000000000E+00 0.  1.
         22    1    3    3    0    0  0.54096946401E+02  0.21437097568E+02  0.10116030774E+02  0.59062363995E+02  0.00000000000E+00 0.  1.
</event>
<event>
 7    1  0.5575489E-006  0.1393973E+03  0.7818608E-02  0.1369803E+00
          2   -1    0    0  502    0  0.00000000000E+00  0.00000000000E+00  0.15422903767E+04  0.15422903767E+04  0.00000000000E+00 0. -1.
          1   -1    0    0  501    0 -0.00000000000E+00 -0.00000000000E+00 -0.68860616473E+03  0.68860616473E+03  0.00000000000E+00 0. -1.
         25    2    1    2    0    0  0.67957914179E+02  0.86908290324E+02  0.40803367232E+02  0.17164324936E+03  0.12500064499E+03 0.  0.
          2    1    1    2  501    0  0.91162444368E+01  0.31108336911E+02 -0.61930247860E+03  0.62015029996E+03  0.00000000000E+00 0. -1.
          1    1    1    2  502    0 -0.77074158616E+02 -0.11801662723E+03  0.14321833234E+04  0.14391029921E+04  0.00000000000E+00 0. -1.
         22    1    3    3    0    0 -0.88406712818E+01  0.83763038915E+01  0.59052694555E+02  0.60295444851E+02  0.00000000000E+00 0.  1.
         22    1    3    3    0    0  0.76798585461E+02  0.78531986432E+02 -0.18249327323E+02  0.11134780451E+03  0.00000000000E+00 0.  1.
</event>
<event>
 7    1  0.5575489E-006  0.1971158E+03  0.7818608E-02  0.1253875E+00
          2   -1    0    0  502    0  0.00000000000E+00  0.00000000000E+00  0.98400145623E+03  0.98400145623E+03  0.00000000000E+00 0. -1.
          1   -1    0    0  501    0 -0.00000000000E+00 -0.00000000000E+00 -0.53949468365E+03  0.53949468365E+03  0.00000000000E+00 0. -1.
         25    2    1    2    0    0  0.18068411062E+03 -0.99576542172E+02  0.41601632873E+03  0.48088945194E+03  0.12499137424E+03 0.  0.
          2    1    1    2  501    0  0.11935752161E+02  0.64484182758E+02 -0.48689137928E+03  0.49128798807E+03  0.00000000000E+00 0. -1.
          1    1    1    2  502    0 -0.19261986278E+03  0.35092359414E+02  0.51538182313E+03  0.55131869988E+03  0.00000000000E+00 0. -1.
         22    1    3    3    0    0  0.17898307256E+03 -0.87642073869E+02  0.42254253304E+03  0.46718119141E+03  0.00000000000E+00 0.  1.
         22    1    3    3    0    0  0.17010380574E+01 -0.11934468303E+02 -0.65262043096E+01  0.13708260533E+02  0.00000000000E+00 0.  1.
</event>
<event>
 7    1  0.5575489E-006  0.2022792E+03  0.7818608E-02  0.1370263E+00
          2   -1    0    0  502    0  0.00000000000E+00  0.00000000000E+00  0.39847012277E+03  0.39847012277E+03  0.00000000000E+00 0. -1.
          1   -1    0    0  501    0 -0.00000000000E+00 -0.00000000000E+00 -0.13322020787E+04  0.13322020787E+04  0.00000000000E+00 0. -1.
         25    2    1    2    0    0 -0.10027187106E+03  0.18782312114E+03 -0.51167288566E+02  0.25214141816E+03  0.12500092147E+03 0.  0.
          2    1    1    2  501    0  0.21940866814E+02 -0.37229239747E+01 -0.11468446293E+04  0.11470605326E+04  0.00000000000E+00 0. -1.
          1    1    1    2  502    0  0.78331004244E+02 -0.18410019717E+03  0.26427996191E+03  0.33147025069E+03  0.00000000000E+00 0. -1.
         22    1    3    3    0    0 -0.27352278243E+02  0.12534469489E+03 -0.80836036843E+02  0.15163741133E+03  0.00000000000E+00 0. -1.
         22    1    3    3    0    0 -0.72919592815E+02  0.62478426251E+02  0.29668748278E+02  0.10050400682E+03  0.00000000000E+00 0. -1.
</event>
<event>
 7    1  0.5575489E-006  0.2615859E+02  0.7818608E-02  0.1685629E+00
          2   -1    0    0  502    0  0.00000000000E+00  0.00000000000E+00  0.89347617832E+03  0.89347617832E+03  0.00000000000E+00 0. -1.
          1   -1    0    0  501    0 -0.00000000000E+00 -0.00000000000E+00 -0.12966678750E+04  0.12966678750E+04  0.00000000000E+00 0. -1.
         25    2    1    2    0    0 -0.14363834286E+02  0.28009037515E+02  0.15784656841E+03  0.20379214656E+03  0.12499949569E+03 0.  0.
          2    1    1    2  501    0  0.24312049011E+02 -0.96587796456E+01 -0.12734078706E+04  0.12736765573E+04  0.00000000000E+00 0. -1.
          1    1    1    2  502    0 -0.99482147242E+01 -0.18350257869E+02  0.71236960548E+03  0.71267534948E+03  0.00000000000E+00 0. -1.
         22    1    3    3    0    0  0.99212421332E+01 -0.47770767804E+02  0.69164082016E+02  0.84641287461E+02  0.00000000000E+00 0. -1.
         22    1    3    3    0    0 -0.24285076420E+02  0.75779805319E+02  0.88682486397E+02  0.11915085910E+03  0.00000000000E+00 0. -1.
</event>
<event>
 7    1  0.5575489E-006  0.4548561E+02  0.7818608E-02  0.1559400E+00
          2   -1    0    0  502    0  0.00000000000E+00  0.00000000000E+00  0.23306723388E+04  0.23306723388E+04  0.00000000000E+00 0. -1.
          1   -1    0    0  501    0 -0.00000000000E+00 -0.00000000000E+00 -0.71830960989E+03  0.71830960989E+03  0.00000000000E+00 0. -1.
         25    2    1    2    0    0 -0.20815521005E+02  0.49451747134E+02 -0.48748661916E+03  0.50610933192E+03  0.12499876312E+03 0.  0.
          2    1    1    2  501    0 -0.14367891367E+02 -0.20624882466E+02 -0.22057496075E+03  0.22200255717E+03  0.00000000000E+00 0. -1.
          1    1    1    2  502    0  0.35183412372E+02 -0.28826864668E+02  0.23204243088E+04  0.23208700596E+04  0.00000000000E+00 0. -1.
         22    1    3    3    0    0 -0.43792045829E+02 -0.29351797740E+02 -0.22466577457E+03  0.23076824213E+03  0.00000000000E+00 0. -1.
         22    1    3    3    0    0  0.22976524825E+02  0.78803544874E+02 -0.26282084459E+03  0.27534108979E+03  0.00000000000E+00 0. -1.
</event>
<event>
 7    1  0.5575489E-006  0.1303274E+03  0.7818608E-02  0.1436501E+00
          2   -1    0    0  502    0  0.00000000000E+00  0.00000000000E+00  0.47699456739E+03  0.47699456739E+03  0.00000000000E+00 0. -1.
          1   -1    0    0  501    0 -0.00000000000E+00 -0.00000000000E+00 -0.75324400136E+03  0.75324400136E+03  0.00000000000E+00 0. -1.
         25    2    1    2    0    0 -0.98278290649E+02 -0.10095160391E+03  0.18144672218E+03  0.26153055494E+03  0.12500187772E+03 0.  0.
          2    1    1    2  501    0  0.10194232950E+03  0.80791065505E+02 -0.70684719251E+03  0.71871579110E+03  0.00000000000E+00 0. -1.
          1    1    1    2  502    0 -0.36640388519E+01  0.20160538403E+02  0.24915103637E+03  0.24999222271E+03  0.00000000000E+00 0. -1.
         22    1    3    3    0    0 -0.44787426108E+02 -0.60583272366E+02  0.82136650815E+01  0.75787272824E+02  0.00000000000E+00 0. -1.
         22    1    3    3    0    0 -0.53490864541E+02 -0.40368331542E+02  0.17323305710E+03  0.18574328212E+03  0.00000000000E+00 0. -1.
</event>
<event>
 7    1  0.5575489E-006  0.8494482E+02  0.7818608E-02  0.1361421E+00
          2   -1    0    0  502    0  0.00000000000E+00  0.00000000000E+00  0.14023271972E+04  0.14023271972E+04  0.00000000000E+00 0. -1.
          1   -1    0    0  501    0 -0.00000000000E+00 -0.00000000000E+00 -0.41687460680E+03  0.41687460680E+03  0.00000000000E+00 0. -1.
         25    2    1    2    0    0 -0.25930155410E+02 -0.26542171527E+02 -0.24444021345E+03  0.27704492694E+03  0.12500405498E+03 0.  0.
          2    1    1    2  501    0  0.72035246016E+01 -0.56588462303E+02 -0.14956248663E+03  0.16007211575E+03  0.00000000000E+00 0. -1.
          1    1    1    2  502    0  0.18726630808E+02  0.83130633829E+02  0.13794552905E+04  0.13820847613E+04  0.00000000000E+00 0. -1.
         22    1    3    3    0    0 -0.62800296141E+02  0.22525144207E+02 -0.10125018170E+03  0.12125534467E+03  0.00000000000E+00 0.  1.
         22    1    3    3    0    0  0.36870140731E+02 -0.49067315734E+02 -0.14319003175E+03  0.15578958227E+03  0.00000000000E+00 0.  1.
</event>
<event>
 7    1  0.5575489E-006  0.7560766E+02  0.7818608E-02  0.1426344E+00
          2   -1    0    0  502    0  0.00000000000E+00  0.00000000000E+00  0.75064549425E+03  0.75064549425E+03  0.00000000000E+00 0. -1.
          1   -1    0    0  501    0 -0.00000000000E+00 -0.00000000000E+00 -0.29781057891E+04  0.29781057891E+04  0.00000000000E+00 0. -1.
         25    2    1    2    0    0  0.50145918263E+02 -0.19592014791E+02 -0.48011718708E+03  0.49903527410E+03  0.12500092522E+03 0.  0.
          2    1    1    2  501    0 -0.11339353468E+01 -0.38124561025E+02 -0.24864490645E+04  0.24867415865E+04  0.00000000000E+00 0. -1.
          1    1    1    2  502    0 -0.49011982917E+02  0.57716575817E+02  0.73910595670E+03  0.74297442273E+03  0.00000000000E+00 0. -1.
         22    1    3    3    0    0  0.56779984948E+02  0.34400882393E+02 -0.14428184203E+03  0.15882266003E+03  0.00000000000E+00 0.  1.
         22    1    3    3    0    0 -0.66340666850E+01 -0.53992897184E+02 -0.33583534505E+03  0.34021261407E+03  0.00000000000E+00 0.  1.
</event>
<event>
 7    1  0.5575489E-006  0.1132408E+03  0.7818608E-02  0.1282096E+00
          2   -1    0    0  502    0  0.00000000000E+00  0.00000000000E+00  0.12596249509E+04  0.12596249509E+04  0.00000000000E+00 0. -1.
          1   -1    0    0  501    0 -0.00000000000E+00 -0.00000000000E+00 -0.22039502860E+03  0.22039502860E+03  0.00000000000E+00 0. -1.
         25    2    1    2    0    0 -0.83125080296E+02  0.11925302069E+03  0.14880770891E+03  0.24269227243E+03  0.12499897178E+03 0.  0.
          2    1    1    2  501    0  0.10682650606E+03 -0.35740287115E+02 -0.15316926472E+03  0.19013178107E+03  0.00000000000E+00 0. -1.
          1    1    1    2  502    0 -0.23701425763E+02 -0.83512733572E+02  0.10435914781E+04  0.10471959260E+04  0.00000000000E+00 0. -1.
         22    1    3    3    0    0 -0.77849824198E+02  0.81712336857E+02  0.28289028488E+02  0.11635192416E+03  0.00000000000E+00 0. -1.
         22    1    3    3    0    0 -0.52752560987E+01  0.37540683830E+02  0.12051868042E+03  0.12634034827E+03  0.00000000000E+00 0. -1.
</event>
<event>
 7    1  0.5575489E-006  0.4917079E+02  0.7818608E-02  0.1458982E+00
          2   -1    0    0  502    0  0.00000000000E+00  0.00000000000E+00  0.18507016898E+04  0.18507016898E+04  0.00000000000E+00 0. -1.
          1   -1    0    0  501    0 -0.00000000000E+00 -0.00000000000E+00 -0.43328391484E+03  0.43328391484E+03  0.00000000000E+00 0. -1.
         25    2    1    2    0    0 -0.11525617845E+02  0.54663016872E+02  0.32109632156E+03  0.34906469673E+03  0.12498971759E+03 0.  0.
          2    1    1    2  501    0  0.43999323771E+02 -0.22088089606E+02 -0.41750404997E+03  0.42039678393E+03  0.00000000000E+00 0. -1.
          1    1    1    2  502    0 -0.32473705926E+02 -0.32574927266E+02  0.15138255034E+04  0.15145241240E+04  0.00000000000E+00 0. -1.
         22    1    3    3    0    0  0.22888257384E+02 -0.30584827766E+02  0.50788078981E+02  0.63551026602E+02  0.00000000000E+00 0.  1.
         22    1    3    3    0    0 -0.34413875229E+02  0.85247844638E+02  0.27030824258E+03  0.28551367013E+03  0.00000000000E+00 0.  1.
</event>
<event>
 7    1  0.5575489E-006  0.7620254E+02  0.7818608E-02  0.1351920E+00
          2   -1    0    0  502    0  0.00000000000E+00  0.00000000000E+00  0.22474219678E+04  0.22474219678E+04  0.00000000000E+00 0. -1.
          1   -1    0    0  501    0 -0.00000000000E+00 -0.00000000000E+00 -0.30144196094E+03  0.30144196094E+03  0.00000000000E+00 0. -1.
         25    2    1    2    0    0  0.13692709540E+02 -0.27650453544E+02  0.96537832496E+03  0.97392759621E+03  0.12501045748E+03 0.  0.
          2    1    1    2  501    0 -0.76519490220E+02 -0.64012058598E+00 -0.29129311897E+03  0.30117656499E+03  0.00000000000E+00 0. -1.
          1    1    1    2  502    0  0.62826780680E+02  0.28290574130E+02  0.12718948008E+04  0.12737597675E+04  0.00000000000E+00 0. -1.
         22    1    3    3    0    0  0.13655057551E+02 -0.44145425714E+02  0.12309137664E+03  0.13147914744E+03  0.00000000000E+00 0. -1.
         22    1    3    3    0    0  0.37651988442E-01  0.16494972169E+02  0.84228694832E+03  0.84244844877E+03  0.00000000000E+00 0. -1.
</event>
<event>
 7    1  0.5575489E-006  0.8871529E+02  0.7818608E-02  0.1468914E+00
          2   -1    0    0  502    0  0.00000000000E+00  0.00000000000E+00  0.12185216936E+04  0.12185216936E+04  0.00000000000E+00 0. -1.
          1   -1    0    0  501    0 -0.00000000000E+00 -0.00000000000E+00 -0.35257407914E+03  0.35257407914E+03  0.00000000000E+00 0. -1.
         25    2    1    2    0    0  0.97472125381E+02 -0.46650181367E+02  0.34295261929E+03  0.38068098101E+03  0.12499782230E+03 0.  0.
          2    1    1    2  501    0 -0.73828174004E+02  0.48653135298E+02 -0.32768487658E+03  0.33940404416E+03  0.00000000000E+00 0. -1.
          1    1    1    2  502    0 -0.23643951377E+02 -0.20029539308E+01  0.85067987173E+03  0.85101074754E+03  0.00000000000E+00 0. -1.
         22    1    3    3    0    0  0.52706198821E+02 -0.51691278746E+02  0.32314391995E+03  0.33146934201E+03  0.00000000000E+00 0. -1.
         22    1    3    3    0    0  0.44765926560E+02  0.50410973795E+01  0.19808699339E+02  0.49211639000E+02  0.00000000000E+00 0. -1.
</event>
<event>
 7    1  0.5575489E-006  0.1344714E+03  0.7818608E-02  0.1379067E+00
          2   -1    0    0  502    0  0.00000000000E+00  0.00000000000E+00  0.31865544313E+04  0.31865544313E+04  0.00000000000E+00 0. -1.
          1   -1    0    0  501    0 -0.00000000000E+00 -0.00000000000E+00 -0.30785012836E+02  0.30785012836E+02  0.00000000000E+00 0. -1.
         25    2    1    2    0    0  0.10572574122E+03  0.56480382553E+02  0.11271829763E+04  0.11404095871E+04  0.12499839316E+03 0.  0.
          2    1    1    2  501    0 -0.10578862525E+03 -0.87619620799E+02  0.17216872753E+03  0.22025099754E+03  0.00000000000E+00 0. -1.
          1    1    1    2  502    0  0.62884026320E-01  0.31139238246E+02  0.18564177147E+04  0.18566788595E+04  0.00000000000E+00 0. -1.
         22    1    3    3    0    0  0.10429556563E+03  0.32702339580E+02  0.10946206249E+04  0.11000642347E+04  0.00000000000E+00 0.  1.
         22    1    3    3    0    0  0.14301755920E+01  0.23778042974E+02  0.32562351381E+02  0.40345352363E+02  0.00000000000E+00 0.  1.
</event>
<event>
 7    1  0.5575489E-006  0.6067817E+02  0.7818608E-02  0.1451760E+00
          2   -1    0    0  502    0  0.00000000000E+00  0.00000000000E+00  0.65517559769E+02  0.65517559769E+02  0.00000000000E+00 0. -1.
          1   -1    0    0  501    0 -0.00000000000E+00 -0.00000000000E+00 -0.13028237506E+04  0.13028237506E+04  0.00000000000E+00 0. -1.
         25    2    1    2    0    0  0.92729485375E+02 -0.73456952436E+01 -0.19505761280E+03  0.24965063860E+03  0.12500100938E+03 0.  0.
          2    1    1    2  501    0 -0.37862322919E+02 -0.10510803741E+02 -0.10581188139E+04  0.10588481746E+04  0.00000000000E+00 0. -1.
          1    1    1    2  502    0 -0.54867162456E+02  0.17856498984E+02  0.15870235942E+02  0.59842497114E+02  0.00000000000E+00 0. -1.
         22    1    3    3    0    0  0.89748519647E+02 -0.26399602077E+02 -0.55516995783E+02  0.10878360441E+03  0.00000000000E+00 0.  1.
         22    1    3    3    0    0  0.29809657277E+01  0.19053906833E+02 -0.13954061702E+03  0.14086703419E+03  0.00000000000E+00 0.  1.
</event>
<event>
 7    1  0.5575489E-006  0.1643830E+03  0.7818608E-02  0.1377306E+00
          2   -1    0    0  502    0  0.00000000000E+00  0.00000000000E+00  0.10831769467E+04  0.10831769467E+04  0.00000000000E+00 0. -1.
          1   -1    0    0  501    0 -0.00000000000E+00 -0.00000000000E+00 -0.38054380573E+03  0.38054380573E+03  0.00000000000E+00 0. -1.
         25    2    1    2    0    0 -0.16644356126E+03 -0.45152818686E+02  0.20348692050E+03  0.29457286579E+03  0.12499604123E+03 0.  0.
          2    1    1    2  501    0  0.16269286456E+03  0.19583848317E+02 -0.31474434547E+03  0.35484714779E+03  0.00000000000E+00 0. -1.
          1    1    1    2  502    0  0.37506967063E+01  0.25568970369E+02  0.81389056594E+03  0.81430073885E+03  0.00000000000E+00 0. -1.
         22    1    3    3    0    0 -0.21434760942E+02  0.14411821784E+02 -0.11685733620E+02  0.28349708182E+02  0.00000000000E+00 0. -1.
         22    1    3    3    0    0 -0.14500880032E+03 -0.59564640470E+02  0.21517265412E+03  0.26622315760E+03  0.00000000000E+00 0. -1.
</event>
<event>
 7    1  0.5575489E-006  0.4505159E+02  0.7818608E-02  0.1501671E+00
          2   -1    0    0  502    0  0.00000000000E+00  0.00000000000E+00  0.69145458772E+03  0.69145458772E+03  0.00000000000E+00 0. -1.
          1   -1    0    0  501    0 -0.00000000000E+00 -0.00000000000E+00 -0.85648837234E+03  0.85648837234E+03  0.00000000000E+00 0. -1.
         25    2    1    2    0    0 -0.10627529420E+02 -0.41738579069E+02  0.10901700830E+03  0.17135831689E+03  0.12499564514E+03 0.  0.
          2    1    1    2  501    0 -0.26173494304E+02  0.36761523890E+02 -0.82407425976E+03  0.82530894036E+03  0.00000000000E+00 0. -1.
          1    1    1    2  502    0  0.36801023724E+02  0.49770551798E+01  0.55002346684E+03  0.55127570280E+03  0.00000000000E+00 0. -1.
         22    1    3    3    0    0 -0.40839475295E+02 -0.47404280575E+01 -0.10683576188E+02  0.42479091335E+02  0.00000000000E+00 0.  1.
         22    1    3    3    0    0  0.30211945875E+02 -0.36998151012E+02  0.11970058449E+03  0.12887922555E+03  0.00000000000E+00 0.  1.
</event>
<event>
 7    1  0.5575489E-006  0.7377431E+02  0.7818608E-02  0.1464780E+00
          2   -1    0    0  502    0  0.00000000000E+00  0.00000000000E+00  0.92622659553E+03  0.92622659553E+03  0.00000000000E+00 0. -1.
          1   -1    0    0  501    0 -0.00000000000E+00 -0.00000000000E+00 -0.19993439952E+04  0.19993439952E+04  0.00000000000E+00 0. -1.
         25    2    1    2    0    0 -0.65919741844E+02 -0.21954063410E+02 -0.10703202245E+03  0.17861629972E+03  0.12498214045E+03 0.  0.
          2    1    1    2  501    0 -0.76819599038E+01  0.28373948112E+02 -0.18548706608E+04  0.18551035717E+04  0.00000000000E+00 0. -1.
          1    1    1    2  502    0  0.73601701748E+02 -0.64198847021E+01  0.88878528352E+03  0.89185071936E+03  0.00000000000E+00 0. -1.
         22    1    3    3    0    0 -0.38824310422E+02  0.26744845497E+02 -0.11312439094E+03  0.12255505565E+03  0.00000000000E+00 0. -1.
         22    1    3    3    0    0 -0.27095431422E+02 -0.48698908907E+02  0.60923684936E+01  0.56061244069E+02  0.00000000000E+00 0. -1.
</event>
<event>
 7    1  0.5575489E-006  0.4839105E+02  0.7818608E-02  0.1513305E+00
          2   -1    0    0  502    0  0.00000000000E+00  0.00000000000E+00  0.47494715270E+03  0.47494715270E+03  0.00000000000E+00 0. -1.
          1   -1    0    0  501    0 -0.00000000000E+00 -0.00000000000E+00 -0.67145488914E+03  0.67145488914E+03  0.00000000000E+00 0. -1.
         25    2    1    2    0    0 -0.40327834066E+02  0.61707424585E+02 -0.38553757709E+03  0.41194502110E+03  0.12500134643E+03 0.  0.
          2    1    1    2  501    0  0.28244760773E+02 -0.14919609747E+02 -0.27050698363E+03  0.27238647077E+03  0.00000000000E+00 0. -1.
          1    1    1    2  502    0  0.12083073292E+02 -0.46787814838E+02  0.45953682428E+03  0.46207054997E+03  0.00000000000E+00 0. -1.
         22    1    3    3    0    0 -0.21713251752E+02 -0.25210735220E+02 -0.23326935740E+03  0.23563030275E+03  0.00000000000E+00 0.  1.
         22    1    3    3    0    0 -0.18614582314E+02  0.86918159805E+02 -0.15226821969E+03  0.17631471835E+03  0.00000000000E+00 0.  1.
</event>
<event>
 7    1  0.5575489E-006  0.5797772E+02  0.7818608E-02  0.1502783E+00
          2   -1    0    0  502    0  0.00000000000E+00  0.00000000000E+00  0.67486016122E+02  0.67486016122E+02  0.00000000000E+00 0. -1.
          1   -1    0    0  501    0 -0.00000000000E+00 -0.00000000000E+00 -0.10055420946E+04  0.10055420946E+04  0.00000000000E+00 0. -1.
         25    2    1    2    0    0 -0.23026120391E+02  0.82446470729E+02 -0.17708767866E+03  0.23305219183E+03  0.12500262168E+03 0.  0.
          2    1    1    2  501    0  0.14840276474E+02 -0.55003624375E+02 -0.79412395477E+03  0.79616486235E+03  0.00000000000E+00 0. -1.
          1    1    1    2  502    0  0.81858439169E+01 -0.27442846354E+02  0.33155554917E+02  0.43811056578E+02  0.00000000000E+00 0. -1.
         22    1    3    3    0    0 -0.36598751666E+02  0.50143468160E+02 -0.18667414720E+03  0.19672588355E+03  0.00000000000E+00 0.  1.
         22    1    3    3    0    0  0.13572631275E+02  0.32303002569E+02  0.95864685403E+01  0.36326308287E+02  0.00000000000E+00 0.  1.
</event>
<event>
 7    1  0.5575489E-006  0.3919938E+02  0.7818608E-02  0.1585017E+00
          2   -1    0    0  502    0  0.00000000000E+00  0.00000000000E+00  0.99835192530E+02  0.99835192530E+02  0.00000000000E+00 0. -1.
          1   -1    0    0  501    0 -0.00000000000E+00 -0.00000000000E+00 -0.41388668245E+03  0.41388668245E+03  0.00000000000E+00 0. -1.
         25    2    1    2    0    0 -0.17445961163E+02 -0.20763913869E+02  0.26973634583E+02  0.13072414177E+03  0.12500289036E+03 0.  0.
          2    1    1    2  501    0  0.10337793319E+01  0.39435650605E+02 -0.35314472986E+03  0.35534129997E+03  0.00000000000E+00 0. -1.
          1    1    1    2  502    0  0.16412181831E+02 -0.18671736736E+02  0.12119605360E+02  0.27656433235E+02  0.00000000000E+00 0. -1.
         22    1    3    3    0    0  0.10138205520E+02 -0.39872450026E+02 -0.39011636862E+02  0.56696589782E+02  0.00000000000E+00 0. -1.
         22    1    3    3    0    0 -0.27584166683E+02  0.19108536158E+02  0.65985271445E+02  0.74027551988E+02  0.00000000000E+00 0. -1.
</event>
<event>
 7    1  0.5575489E-006  0.3429674E+02  0.7818608E-02  0.1585416E+00
          2   -1    0    0  502    0  0.00000000000E+00  0.00000000000E+00  0.22716136465E+03  0.22716136465E+03  0.00000000000E+00 0. -1.
          1   -1    0    0  501    0 -0.00000000000E+00 -0.00000000000E+00 -0.29938423873E+03  0.29938423873E+03  0.00000000000E+00 0. -1.
         25    2    1    2    0    0 -0.33599041425E+02  0.46706726492E+02 -0.64387517015E+02  0.15192373681E+03  0.12499862229E+03 0.  0.
          2    1    1    2  501    0  0.24712869408E+02 -0.13879601049E+02 -0.18858375341E+03  0.19070186494E+03  0.00000000000E+00 0. -1.
          1    1    1    2  502    0  0.88861720167E+01 -0.32827125443E+02  0.18074839634E+03  0.18392000163E+03  0.00000000000E+00 0. -1.
         22    1    3    3    0    0 -0.42087393935E+02  0.85697994963E+02 -0.57431255547E+02  0.11141743213E+03  0.00000000000E+00 0. -1.
         22    1    3    3    0    0  0.84883525103E+01 -0.38991268471E+02 -0.69562614684E+01  0.40506304681E+02  0.00000000000E+00 0. -1.
</event>
<event>
 7    1  0.5575489E-006  0.2242034E+03  0.7818608E-02  0.1335828E+00
          2   -1    0    0  502    0  0.00000000000E+00  0.00000000000E+00  0.61541774853E+03  0.61541774853E+03  0.00000000000E+00 0. -1.
          1   -1    0    0  501    0 -0.00000000000E+00 -0.00000000000E+00 -0.27470949173E+03  0.27470949173E+03  0.00000000000E+00 0. -1.
         25    2    1    2    0    0 -0.11248782943E+03 -0.20908546579E+03  0.33517813675E+02  0.27040468948E+03  0.12500003394E+03 0.  0.
          2    1    1    2  501    0  0.11840131352E+03  0.18284383565E+03 -0.79658040422E+02  0.23193995491E+03  0.00000000000E+00 0. -1.
          1    1    1    2  502    0 -0.59134840929E+01  0.26241630138E+02  0.38684848354E+03  0.38778259588E+03  0.00000000000E+00 0. -1.
         22    1    3    3    0    0  0.47641457211E+01 -0.53861828083E+02 -0.34711851426E+02  0.64255009441E+02  0.00000000000E+00 0. -1.
         22    1    3    3    0    0 -0.11725197515E+03 -0.15522363770E+03  0.68229665100E+02  0.20614968004E+03  0.00000000000E+00 0. -1.
</event>
<event>
 7    1  0.5575489E-006  0.5920984E+02  0.7818608E-02  0.1409713E+00
          2   -1    0    0  502    0  0.00000000000E+00  0.00000000000E+00  0.23901046647E+03  0.23901046647E+03  0.00000000000E+00 0. -1.
          1   -1    0    0  501    0 -0.00000000000E+00 -0.00000000000E+00 -0.81081343125E+02  0.81081343125E+02  0.00000000000E+00 0. -1.
         25    2    1    2    0    0 -0.85965993133E+01 -0.83858232467E+01  0.59930848580E+02  0.13914304800E+03  0.12499943057E+03 0.  0.
          2    1    1    2  501    0  0.61872187377E+01 -0.58885681926E+02 -0.33249720627E+01  0.59303125135E+02  0.00000000000E+00 0. -1.
          1    1    1    2  502    0  0.24093805757E+01  0.67271505173E+02  0.10132324683E+03  0.12164563646E+03  0.00000000000E+00 0. -1.
         22    1    3    3    0    0 -0.59533637183E+02 -0.29586857299E+02  0.49760106093E+02  0.83040377163E+02  0.00000000000E+00 0.  1.
         22    1    3    3    0    0  0.50937037869E+02  0.21201034052E+02  0.10170742487E+02  0.56102670832E+02  0.00000000000E+00 0.  1.
</event>
<event>
 7    1  0.5575489E-006  0.1869140E+03  0.7818608E-02  0.1241057E+00
          2   -1    0    0  502    0  0.00000000000E+00  0.00000000000E+00  0.82133073567E+03  0.82133073567E+03  0.00000000000E+00 0. -1.
          1   -1    0    0  501    0 -0.00000000000E+00 -0.00000000000E+00 -0.29106610193E+03  0.29106610193E+03  0.00000000000E+00 0. -1.
         25    2    1    2    0    0 -0.11884690927E+03 -0.83437774590E+02 -0.23169415176E+01  0.19161684518E+03  0.12500078827E+03 0.  0.
          2    1    1    2  501    0  0.19748747436E+03  0.84504300537E+02 -0.13162890971E+03  0.25192945284E+03  0.00000000000E+00 0. -1.
          1    1    1    2  502    0 -0.78640565093E+02 -0.10665259471E+01  0.66421048496E+03  0.66885053958E+03  0.00000000000E+00 0. -1.
         22    1    3    3    0    0 -0.39973298145E+02  0.18653100356E+02  0.36108935330E+02  0.57005771008E+02  0.00000000000E+00 0.  1.
         22    1    3    3    0    0 -0.78873611120E+02 -0.10209087495E+03 -0.38425876848E+02  0.13461107417E+03  0.00000000000E+00 0.  1.
</event>
<event>
 7    1  0.5575489E-006  0.6940219E+02  0.7818608E-02  0.1364110E+00
          2   -1    0    0  502    0  0.00000000000E+00  0.00000000000E+00  0.17576274157E+04  0.17576274157E+04  0.00000000000E+00 0. -1.
          1   -1    0    0  501    0 -0.00000000000E+00 -0.00000000000E+00 -0.20183920967E+04  0.20183920967E+04  0.00000000000E+00 0. -1.
         25    2    1    2    0    0 -0.12517375335E+02 -0.25453891309E+02 -0.86445930958E+02  0.15460487554E+03  0.12500073317E+03 0.  0.
          2    1    1    2  501    0 -0.52020722771E+02  0.47706131488E+02 -0.18965339559E+04  0.18978469581E+04  0.00000000000E+00 0. -1.
          1    1    1    2  502    0  0.64538098106E+02 -0.22252240179E+02  0.17222152058E+04  0.17235676788E+04  0.00000000000E+00 0. -1.
         22    1    3    3    0    0  0.14218915233E+02  0.46514993487E+02 -0.18362128008E+02  0.51990286732E+02  0.00000000000E+00 0.  1.
         22    1    3    3    0    0 -0.26736290568E+02 -0.71968884796E+02 -0.68083802950E+02  0.10261458881E+03  0.00000000000E+00 0.  1.
</event>
<event>
 7    1  0.5575489E-006  0.1384465E+03  0.7818608E-02  0.1273241E+00
          2   -1    0    0  502    0  0.00000000000E+00  0.00000000000E+00  0.16893112859E+04  0.16893112859E+04  0.00000000000E+00 0. -1.
          1   -1    0    0  501    0 -0.00000000000E+00 -0.00000000000E+00 -0.12955995155E+04  0.12955995155E+04  0.00000000000E+00 0. -1.
         25    2    1    2    0    0 -0.76509180576E+02  0.14026156871E+03  0.29156764298E+03  0.35519528979E+03  0.12500016434E+03 0.  0.
          2    1    1    2  501    0  0.77240769757E+02 -0.22055729856E+01 -0.12591097536E+04  0.12614786454E+04  0.00000000000E+00 0. -1.
          1    1    1    2  502    0 -0.73158918155E+00 -0.13805599572E+03  0.13612538811E+04  0.13682368662E+04  0.00000000000E+00 0. -1.
         22    1    3    3    0    0 -0.10116434201E+01  0.91932135792E+02  0.68080680136E+02  0.11440069939E+03  0.00000000000E+00 0. -1.
         22    1    3    3    0    0 -0.75497537155E+02  0.48329432915E+02  0.22348696284E+03  0.24079459040E+03  0.00000000000E+00 0. -1.
</event>
<event>
 7    1  0.5575489E-006  0.1576873E+03  0.7818608E-02  0.1330595E+00
          2   -1    0    0  502    0  0.00000000000E+00  0.00000000000E+00  0.12509065506E+04  0.12509065506E+04  0.00000000000E+00 0. -1.
          1   -1    0    0  501    0 -0.00000000000E+00 -0.00000000000E+00 -0.36388372747E+03  0.36388372747E+03  0.00000000000E+00 0. -1.
         25    2    1    2    0    0 -0.12499270898E+03 -0.74919703879E+02  0.16168413279E+03  0.25100490089E+03  0.12500224857E+03 0.  0.
          2    1    1    2  501    0 -0.28014816893E+02  0.28606197797E+02 -0.31181928077E+03  0.31437940196E+03  0.00000000000E+00 0. -1.
          1    1    1    2  502    0  0.15300752587E+03  0.46313506082E+02  0.10371579711E+04  0.10494059752E+04  0.00000000000E+00 0. -1.
         22    1    3    3    0    0 -0.58111361483E+02 -0.92695362333E+02  0.51568635279E+02  0.12094909953E+03  0.00000000000E+00 0. -1.
         22    1    3    3    0    0 -0.66881347494E+02  0.17775658453E+02  0.11011549751E+03  0.13005580136E+03  0.00000000000E+00 0. -1.
</event>
<event>
 7    1  0.5575489E-006  0.6158165E+02  0.7818608E-02  0.1416341E+00
          2   -1    0    0  502    0  0.00000000000E+00  0.00000000000E+00  0.75733709064E+03  0.75733709064E+03  0.00000000000E+00 0. -1.
          1   -1    0    0  501    0 -0.00000000000E+00 -0.00000000000E+00 -0.40368732036E+03  0.40368732036E+03  0.00000000000E+00 0. -1.
         25    2    1    2    0    0 -0.11045943420E+03  0.93310051234E+01  0.40991617038E+02  0.17202806726E+03  0.12499995599E+03 0.  0.
          2    1    1    2  501    0  0.50561741166E+02 -0.64330589810E+00 -0.33485966661E+03  0.33865601993E+03  0.00000000000E+00 0. -1.
          1    1    1    2  502    0  0.59897693033E+02 -0.86876992253E+01  0.64751781985E+03  0.65034032381E+03  0.00000000000E+00 0. -1.
         22    1    3    3    0    0 -0.11838415162E+03 -0.28093486088E+02  0.51855128166E+02  0.13226112668E+03  0.00000000000E+00 0.  1.
         22    1    3    3    0    0  0.79247174173E+01  0.37424491212E+02 -0.10863511128E+02  0.39766940574E+02  0.00000000000E+00 0.  1.
</event>
<event>
 7    1  0.5575489E-006  0.1359077E+03  0.7818608E-02  0.1231621E+00
          2   -1    0    0  502    0  0.00000000000E+00  0.00000000000E+00  0.10140902495E+04  0.10140902495E+04  0.00000000000E+00 0. -1.
          1   -1    0    0  501    0 -0.00000000000E+00 -0.00000000000E+00 -0.21136966457E+04  0.21136966457E+04  0.00000000000E+00 0. -1.
         25    2    1    2    0    0 -0.17675706465E+03  0.70257220520E+02  0.19620448416E+01  0.22761448564E+03  0.12500147005E+03 0.  0.
          2    1    1    2  501    0  0.12983204221E+03  0.39221306633E+02 -0.19946133826E+04  0.19992191516E+04  0.00000000000E+00 0. -1.
          1    1    1    2  502    0  0.46925022438E+02 -0.10947852715E+03  0.89304494153E+03  0.90095325807E+03  0.00000000000E+00 0. -1.
         22    1    3    3    0    0 -0.14312338785E+03 -0.27503668139E+01 -0.19357934130E+02  0.14445275450E+03  0.00000000000E+00 0. -1.
         22    1    3    3    0    0 -0.33633676796E+02  0.73007587334E+02  0.21319978971E+02  0.83161731142E+02  0.00000000000E+00 0. -1.
</event>
<event>
 7    1  0.5575489E-006  0.8538918E+02  0.7818608E-02  0.1352597E+00
          2   -1    0    0  502    0  0.00000000000E+00  0.00000000000E+00  0.34498982407E+02  0.34498982407E+02  0.00000000000E+00 0. -1.
          1   -1    0    0  501    0 -0.00000000000E+00 -0.00000000000E+00 -0.16221676386E+04  0.16221676386E+04  0.00000000000E+00 0. -1.
         25    2    1    2    0    0  0.32385317517E+02 -0.17592654836E+02 -0.20255767028E+03  0.24084494522E+03  0.12497346740E+03 0.  0.
          2    1    1    2  501    0 -0.89517137735E+02 -0.41705482415E+01 -0.13314891340E+04  0.13345014145E+04  0.00000000000E+00 0. -1.
          1    1    1    2  502    0  0.57131820218E+02  0.21763203078E+02 -0.53621851939E+02  0.81320261282E+02  0.00000000000E+00 0. -1.
         22    1    3    3    0    0  0.34849952520E+02  0.14221037261E+02 -0.20539000830E+03  0.20881047052E+03  0.00000000000E+00 0.  1.
         22    1    3    3    0    0 -0.24646350030E+01 -0.31813692097E+02  0.28323380179E+01  0.32034474698E+02  0.00000000000E+00 0.  1.
</event>
<event>
 7    1  0.5575489E-006  0.8502572E+02  0.7818608E-02  0.1351120E+00
          2   -1    0    0  502    0  0.00000000000E+00  0.00000000000E+00  0.23622034031E+04  0.23622034031E+04  0.00000000000E+00 0. -1.
          1   -1    0    0  501    0 -0.00000000000E+00 -0.00000000000E+00 -0.22708604321E+04  0.22708604321E+04  0.00000000000E+00 0. -1.
         25    2    1    2    0    0  0.11057321240E+03 -0.92797401228E+02 -0.44718198894E+02  0.19611808123E+03  0.12499916599E+03 0.  0.
          2    1    1    2  501    0 -0.55864381488E+02  0.63257400156E+02 -0.21491913073E+04  0.21508476476E+04  0.00000000000E+00 0. -1.
          1    1    1    2  502    0 -0.54708830913E+02  0.29540001072E+02  0.22852524771E+04  0.22860981064E+04  0.00000000000E+00 0. -1.
         22    1    3    3    0    0  0.12101899298E+03 -0.98600835103E+02 -0.67750775577E+02  0.17017017640E+03  0.00000000000E+00 0.  1.
         22    1    3    3    0    0 -0.10445780576E+02  0.58034338754E+01  0.23032576683E+02  0.25947904833E+02  0.00000000000E+00 0.  1.
</event>
<event>
 7    1  0.5575489E-006  0.1889466E+03  0.7818608E-02  0.1162405E+00
          2   -1    0    0  502    0  0.00000000000E+00  0.00000000000E+00  0.96295044284E+03  0.96295044284E+03  0.00000000000E+00 0. -1.
          1   -1    0    0  501    0 -0.00000000000E+00 -0.00000000000E+00 -0.71345624411E+03  0.71345624411E+03  0.00000000000E+00 0. -1.
         25    2    1    2    0    0 -0.11567359834E+03  0.13551764346E+03 -0.47380718468E+01  0.21770430860E+03  0.12500921412E+03 0.  0.
          2    1    1    2  501    0  0.20082023953E+03  0.25895791003E+02 -0.57500841940E+03  0.60961794837E+03  0.00000000000E+00 0. -1.
          1    1    1    2  502    0 -0.85146641183E+02 -0.16141343447E+03  0.82924068998E+03  0.84908442998E+03  0.00000000000E+00 0. -1.
         22    1    3    3    0    0 -0.87085505898E+02  0.11535411403E+03  0.49831085850E+02  0.15288425059E+03  0.00000000000E+00 0.  1.
         22    1    3    3    0    0 -0.28588092447E+02  0.20163529433E+02 -0.54569157697E+02  0.64820058012E+02  0.00000000000E+00 0.  1.
</event>
<event>
 7    1  0.5575489E-006  0.5098538E+02  0.7818608E-02  0.1447790E+00
          2   -1    0    0  502    0  0.00000000000E+00  0.00000000000E+00  0.12611581235E+04  0.12611581235E+04  0.00000000000E+00 0. -1.
          1   -1    0    0  501    0 -0.00000000000E+00 -0.00000000000E+00 -0.20609512480E+03  0.20609512480E+03  0.00000000000E+00 0. -1.
         25    2    1    2    0    0 -0.91169268222E+02 -0.34465542777E+02  0.22117997647E+03  0.27211293153E+03  0.12500062563E+03 0.  0.
          2    1    1    2  501    0  0.44114283320E+02  0.24241031871E+02 -0.17653732852E+03  0.18357321694E+03  0.00000000000E+00 0. -1.
          1    1    1    2  502    0  0.47054984901E+02  0.10224510907E+02  0.10104203508E+04  0.10115670999E+04  0.00000000000E+00 0. -1.
         22    1    3    3    0    0 -0.90973958046E+02 -0.39775878383E+02  0.71538261502E+02  0.12237689489E+03  0.00000000000E+00 0.  1.
         22    1    3    3    0    0 -0.19531017590E+00  0.53103356057E+01  0.14964171497E+03  0.14973603664E+03  0.00000000000E+00 0.  1.
</event>
<event>
 7    1  0.5575489E-006  0.6481512E+02  0.7818608E-02  0.1403950E+00
          2   -1    0    0  502    0  0.00000000000E+00  0.00000000000E+00  0.22488835655E+04  0.22488835655E+04  0.00000000000E+00 0. -1.
          1   -1    0    0  501    0 -0.00000000000E+00 -0.00000000000E+00 -0.37609045625E+03  0.37609045625E+03  0.00000000000E+00 0. -1.
         25    2    1    2    0    0 -0.71173595418E+01 -0.11335667538E+02  0.33944415510E+02  0.13019252730E+03  0.12497486410E+03 0.  0.
          2    1    1    2  501    0 -0.44096376167E+02 -0.29257224267E+02 -0.32533523984E+03  0.32961112518E+03  0.00000000000E+00 0. -1.
          1    1    1    2  502    0  0.51213735709E+02  0.40592891805E+02  0.21641839336E+04  0.21651703693E+04  0.00000000000E+00 0. -1.
         22    1    3    3    0    0 -0.57931549002E+02 -0.63217604015E+01 -0.14235590895E+02  0.59989007930E+02  0.00000000000E+00 0. -1.
         22    1    3    3    0    0  0.50814189460E+02 -0.50139071362E+01  0.48180006405E+02  0.70203519374E+02  0.00000000000E+00 0. -1.
</event>
<event>
 7    1  0.5575489E-006  0.1286867E+03  0.7818608E-02  0.1275680E+00
          2   -1    0    0  502    0  0.00000000000E+00  0.00000000000E+00  0.21578095677E+02  0.21578095677E+02  0.00000000000E+00 0. -1.
          1   -1    0    0  501    0 -0.00000000000E+00 -0.00000000000E+00 -0.20244139295E+04  0.20244139295E+04  0.00000000000E+00 0. -1.
         25    2    1    2    0    0  0.20789649084E+02  0.84520851003E+02 -0.70274459363E+03  0.71906239896E+03  0.12499914382E+03 0.  0.
          2    1    1    2  501    0  0.44104220232E+02  0.68188321097E+02 -0.68697059509E+03  0.69175387812E+03  0.00000000000E+00 0. -1.
          1    1    1    2  502    0 -0.64893869316E+02 -0.15270917210E+03 -0.61312064507E+03  0.63517574807E+03  0.00000000000E+00 0. -1.
         22    1    3    3    0    0  0.37550182255E+02  0.45188121115E+02 -0.64254141633E+03  0.64522201929E+03  0.00000000000E+00 0. -1.
         22    1    3    3    0    0 -0.16760533171E+02  0.39332729889E+02 -0.60203177306E+02  0.73840379675E+02  0.00000000000E+00 0. -1.
</event>
<event>
 7    1  0.5575489E-006  0.4710595E+02  0.7818608E-02  0.1513536E+00
          2   -1    0    0  502    0  0.00000000000E+00  0.00000000000E+00  0.20294386352E+03  0.20294386352E+03  0.00000000000E+00 0. -1.
          1   -1    0    0  501    0 -0.00000000000E+00 -0.00000000000E+00 -0.64267059380E+03  0.64267059380E+03  0.00000000000E+00 0. -1.
         25    2    1    2    0    0 -0.68953101568E+02  0.22457614624E+02 -0.14346892176E+03  0.20363937819E+03  0.12500716047E+03 0.  0.
          2    1    1    2  501    0  0.22260202294E+02 -0.24040057245E+02 -0.46537313222E+03  0.46652501879E+03  0.00000000000E+00 0. -1.
          1    1    1    2  502    0  0.46692899274E+02  0.15824426211E+01  0.16911532370E+03  0.17545006035E+03  0.00000000000E+00 0. -1.
         22    1    3    3    0    0 -0.49948030329E+02 -0.13993771295E+02  0.25601602366E+01  0.51934437411E+02  0.00000000000E+00 0. -1.
         22    1    3    3    0    0 -0.19005071239E+02  0.36451385919E+02 -0.14602908199E+03  0.15170494078E+03  0.00000000000E+00 0. -1.
</event>
<event>
 7    1  0.5575489E-006  0.4860358E+02  0.7818608E-02  0.1579700E+00
          2   -1    0    0  502    0  0.00000000000E+00  0.00000000000E+00  0.28994751163E+03  0.28994751163E+03  0.00000000000E+00 0. -1.
          1   -1    0    0  501    0 -0.00000000000E+00 -0.00000000000E+00 -0.14249569403E+04  0.14249569403E+04  0.00000000000E+00 0. -1.
         25    2    1    2    0    0 -0.47847042603E+02 -0.74613970465E+00 -0.73792436427E+03  0.74995936231E+03  0.12496712179E+03 0.  0.
          2    1    1    2  501    0  0.40303978094E+01 -0.20320676786E+02 -0.67877464261E+03  0.67909070783E+03  0.00000000000E+00 0. -1.
          1    1    1    2  502    0  0.43816644793E+02  0.21066816491E+02  0.28168957821E+03  0.28585438179E+03  0.00000000000E+00 0. -1.
         22    1    3    3    0    0  0.33119697795E+01  0.56673953747E+02 -0.29651555260E+03  0.30190127378E+03  0.00000000000E+00 0.  1.
         22    1    3    3    0    0 -0.51159012382E+02 -0.57420093451E+02 -0.44140881167E+03  0.44805808853E+03  0.00000000000E+00 0.  1.
</event>
<event>
 7    1  0.5575489E-006  0.1117030E+03  0.7818608E-02  0.1321830E+00
          2   -1    0    0  502    0  0.00000000000E+00  0.00000000000E+00  0.82915854366E+03  0.82915854366E+03  0.00000000000E+00 0. -1.
          1   -1    0    0  501    0 -0.00000000000E+00 -0.00000000000E+00 -0.80661383696E+02  0.80661383696E+02  0.00000000000E+00 0. -1.
         25    2    1    2    0    0 -0.60370749126E+01  0.10417413116E+03  0.82743883417E+02  0.18264435737E+03  0.12499486053E+03 0.  0.
          2    1    1    2  501    0  0.60921233380E+02 -0.43976675138E+01  0.10346888100E+02  0.61949933410E+02  0.00000000000E+00 0. -1.
          1    1    1    2  502    0 -0.54884158468E+02 -0.99776463642E+02  0.65540638844E+03  0.66522563658E+03  0.00000000000E+00 0. -1.
         22    1    3    3    0    0 -0.36605689607E+02 -0.89599218137E+01 -0.24395884338E+01  0.37765173140E+02  0.00000000000E+00 0.  1.
         22    1    3    3    0    0  0.30568614695E+02  0.11313405297E+03  0.85183471850E+02  0.14487918423E+03  0.00000000000E+00 0.  1.
</event>
<event>
 7    1  0.5575489E-006  0.1821213E+03  0.7818608E-02  0.1194820E+00
          2   -1    0    0  502    0  0.00000000000E+00  0.00000000000E+00  0.34425183093E+04  0.34425183093E+04  0.00000000000E+00 0. -1.
          1   -1    0    0  501    0 -0.00000000000E+00 -0.00000000000E+00 -0.11585715395E+03  0.11585715395E+03  0.00000000000E+00 0. -1.
         25    2    1    2    0    0 -0.16222720370E+03 -0.13224008847E+03  0.21605661822E+04  0.21742762605E+04  0.12500369065E+03 0.  0.
          2    1    1    2  501    0  0.18270779091E+03  0.24478441977E+01 -0.26193538021E+02  0.18459206439E+03  0.00000000000E+00 0. -1.
          1    1    1    2  502    0 -0.20480587210E+02  0.12979224427E+03  0.11922885112E+04  0.11995071384E+04  0.00000000000E+00 0. -1.
         22    1    3    3    0    0 -0.11803190855E+03 -0.12631213214E+03  0.11695913014E+04  0.11822986503E+04  0.00000000000E+00 0. -1.
         22    1    3    3    0    0 -0.44195295154E+02 -0.59279563259E+01  0.99097488081E+03  0.99197761022E+03  0.00000000000E+00 0. -1.
</event>
<event>
 7    1  0.5575489E-006  0.1199592E+03  0.7818608E-02  0.1393480E+00
          2   -1    0    0  502    0  0.00000000000E+00  0.00000000000E+00  0.62206442388E+03  0.62206442388E+03  0.00000000000E+00 0. -1.
          1   -1    0    0  501    0 -0.00000000000E+00 -0.00000000000E+00 -0.16108025448E+03  0.16108025448E+03  0.00000000000E+00 0. -1.
         25    2    1    2    0    0  0.11851983632E+03  0.70620797183E+02 -0.21007893256E+02  0.18735130228E+03  0.12499972116E+03 0.  0.
          2    1    1    2  501    0 -0.97947743900E+02 -0.47338276092E+02 -0.39501394839E+01  0.10885897538E+03  0.00000000000E+00 0. -1.
          1    1    1    2  502    0 -0.20572092423E+02 -0.23282521091E+02  0.48594220214E+03  0.48693440071E+03  0.00000000000E+00 0. -1.
         22    1    3    3    0    0  0.27121375597E+02  0.68952077935E+02 -0.52340997847E+02  0.90716801759E+02  0.00000000000E+00 0. -1.
         22    1    3    3    0    0  0.91398460726E+02  0.16687192487E+01  0.31333104591E+02  0.96634500518E+02  0.00000000000E+00 0. -1.
</event>
<event>
 7    1  0.5575489E-006  0.8420298E+02  0.7818608E-02  0.1343633E+00
          2   -1    0    0  502    0  0.00000000000E+00  0.00000000000E+00  0.41582034254E+03  0.41582034254E+03  0.00000000000E+00 0. -1.
          1   -1    0    0  501    0 -0.00000000000E+00 -0.00000000000E+00 -0.12906465630E+04  0.12906465630E+04  0.00000000000E+00 0. -1.
         25    2    1    2    0    0 -0.58101789241E+02 -0.10453157503E+03 -0.37565213592E+02  0.17704293476E+03  0.12502154769E+03 0.  0.
          2    1    1    2  501    0 -0.15391889720E+02  0.65146399593E+02 -0.11773556235E+04  0.11792570660E+04  0.00000000000E+00 0. -1.
          1    1    1    2  502    0  0.73493678961E+02  0.39385175435E+02  0.34009461664E+03  0.35016690471E+03  0.00000000000E+00 0. -1.
         22    1    3    3    0    0 -0.24558243699E+02 -0.48580011155E+02  0.45833404882E+02  0.71160563660E+02  0.00000000000E+00 0.  1.
         22    1    3    3    0    0 -0.33543545542E+02 -0.55951563874E+02 -0.83398618473E+02  0.10588237110E+03  0.00000000000E+00 0.  1.
</event>
<event>
 7    1  0.5575489E-006  0.4900491E+02  0.7818608E-02  0.1483456E+00
          2   -1    0    0  502    0  0.00000000000E+00  0.00000000000E+00  0.10664621252E+03  0.10664621252E+03  0.00000000000E+00 0. -1.
          1   -1    0    0  501    0 -0.00000000000E+00 -0.00000000000E+00 -0.13173149460E+04  0.13173149460E+04  0.00000000000E+00 0. -1.
         25    2    1    2    0    0 -0.51355629274E+02  0.34819544696E+02 -0.73265576011E+02  0.15761298568E+03  0.12499682907E+03 0.  0.
          2    1    1    2  501    0  0.36856313473E+02  0.11939623193E+02 -0.11922221321E+04  0.11928514387E+04  0.00000000000E+00 0. -1.
          1    1    1    2  502    0  0.14499315801E+02 -0.46759167889E+02  0.54818974684E+02  0.73496734117E+02  0.00000000000E+00 0. -1.
         22    1    3    3    0    0 -0.30161407780E+02  0.22246720214E+02 -0.10840107988E+03  0.11469708452E+03  0.00000000000E+00 0. -1.
         22    1    3    3    0    0 -0.21194221494E+02  0.12572824483E+02  0.35135503868E+02  0.42915901159E+02  0.00000000000E+00 0. -1.
</event>
<event>
 7    1  0.5575489E-006  0.9379825E+02  0.7818608E-02  0.1303008E+00
          2   -1    0    0  502    0  0.00000000000E+00  0.00000000000E+00  0.24700290701E+03  0.24700290701E+03  0.00000000000E+00 0. -1.
          1   -1    0    0  501    0 -0.00000000000E+00 -0.00000000000E+00 -0.15720400175E+04  0.15720400175E+04  0.00000000000E+00 0. -1.
         25    2    1    2    0    0 -0.52706636184E+01 -0.38751604937E+02 -0.42034447161E+03  0.44027754314E+03  0.12500149360E+03 0.  0.
          2    1    1    2  501    0  0.84779813469E+02  0.72130522993E+02 -0.11310629661E+04  0.11365271059E+04  0.00000000000E+00 0. -1.
          1    1    1    2  502    0 -0.79509149851E+02 -0.33378918057E+02  0.22637032720E+03  0.24223827550E+03  0.00000000000E+00 0. -1.
         22    1    3    3    0    0  0.34432491932E+02  0.32047504401E+02 -0.11310947470E+03  0.12250058084E+03  0.00000000000E+00 0. -1.
         22    1    3    3    0    0 -0.39703155550E+02 -0.70799109338E+02 -0.30723499691E+03  0.31777696230E+03  0.00000000000E+00 0. -1.
</event>
<event>
 7    1  0.5575489E-006  0.3443277E+02  0.7818608E-02  0.1614602E+00
          2   -1    0    0  502    0  0.00000000000E+00  0.00000000000E+00  0.39448340350E+03  0.39448340350E+03  0.00000000000E+00 0. -1.
          1   -1    0    0  501    0 -0.00000000000E+00 -0.00000000000E+00 -0.33522751327E+03  0.33522751327E+03  0.00000000000E+00 0. -1.
         25    2    1    2    0    0  0.36477228073E+02  0.57387976249E+01  0.25617194415E+03  0.28742424346E+03  0.12500043516E+03 0.  0.
          2    1    1    2  501    0 -0.12606840764E+02  0.20051085615E+02 -0.31663352743E+03  0.31751813989E+03  0.00000000000E+00 0. -1.
          1    1    1    2  502    0 -0.23870387310E+02 -0.25789883240E+02  0.11971747351E+03  0.12476853342E+03  0.00000000000E+00 0. -1.
         22    1    3    3    0    0  0.74041010442E+02  0.20245359304E+02  0.22102843295E+03  0.23397759289E+03  0.00000000000E+00 0. -1.
         22    1    3    3    0    0 -0.37563782368E+02 -0.14506561679E+02  0.35143511199E+02  0.53446650568E+02  0.00000000000E+00 0. -1.
</event>
<event>
 7    1  0.5575489E-006  0.1756301E+03  0.7818608E-02  0.1290241E+00
          2   -1    0    0  502    0  0.00000000000E+00  0.00000000000E+00  0.73120042424E+03  0.73120042424E+03  0.00000000000E+00 0. -1.
          1   -1    0    0  501    0 -0.00000000000E+00 -0.00000000000E+00 -0.16986198891E+03  0.16986198891E+03  0.00000000000E+00 0. -1.
         25    2    1    2    0    0  0.14130895191E+03  0.50487166537E+02  0.25481053528E+01  0.19531878374E+03  0.12500304222E+03 0.  0.
          2    1    1    2  501    0  0.37755537784E+02 -0.35519961715E+02 -0.49374253130E+02  0.71588862162E+02  0.00000000000E+00 0. -1.
          1    1    1    2  502    0 -0.17906448970E+03 -0.14967204822E+02  0.60816458310E+03  0.63415476725E+03  0.00000000000E+00 0. -1.
         22    1    3    3    0    0  0.96942106439E+02  0.91395872086E+02  0.13746576392E+02  0.13394008286E+03  0.00000000000E+00 0. -1.
         22    1    3    3    0    0  0.44366845474E+02 -0.40908705550E+02 -0.11198471039E+02  0.61378700871E+02  0.00000000000E+00 0. -1.
</event>
<event>
 7    1  0.5575489E-006  0.8833396E+02  0.7818608E-02  0.1349955E+00
          2   -1    0    0  502    0  0.00000000000E+00  0.00000000000E+00  0.22087887419E+04  0.22087887419E+04  0.00000000000E+00 0. -1.
          1   -1    0    0  501    0 -0.00000000000E+00 -0.00000000000E+00 -0.27729198775E+03  0.27729198775E+03  0.00000000000E+00 0. -1.
         25    2    1    2    0    0  0.23930851305E+02 -0.52435524385E+02  0.51083416016E+03  0.52905460535E+03  0.12500026560E+03 0.  0.
          2    1    1    2  501    0 -0.81806946619E+02  0.35006965461E+02 -0.26024253149E+03  0.27503461481E+03  0.00000000000E+00 0. -1.
          1    1    1    2  502    0  0.57876095313E+02  0.17428558924E+02  0.16809051255E+04  0.16819915095E+04  0.00000000000E+00 0. -1.
         22    1    3    3    0    0  0.73334268632E+02 -0.45458004614E+02  0.35945497643E+03  0.36966501758E+03  0.00000000000E+00 0. -1.
         22    1    3    3    0    0 -0.49403417327E+02 -0.69775197710E+01  0.15137918372E+03  0.15938958777E+03  0.00000000000E+00 0. -1.
</event>
<event>
 7    1  0.5575489E-006  0.1300229E+03  0.7818608E-02  0.1381726E+00
          2   -1    0    0  502    0  0.00000000000E+00  0.00000000000E+00  0.32764416074E+03  0.32764416074E+03  0.00000000000E+00 0. -1.
          1   -1    0    0  501    0 -0.00000000000E+00 -0.00000000000E+00 -0.15039142159E+04  0.15039142159E+04  0.00000000000E+00 0. -1.
         25    2    1    2    0    0  0.61693715559E+02 -0.10540033094E+03 -0.26929627346E+03  0.32103039871E+03  0.12499875877E+03 0.  0.
          2    1    1    2  501    0  0.29252635205E+02  0.11723195260E+02 -0.11944114252E+04  0.11948271015E+04  0.00000000000E+00 0. -1.
          1    1    1    2  502    0 -0.90946350764E+02  0.93677135680E+02  0.28743764348E+03  0.31570087640E+03  0.00000000000E+00 0. -1.
         22    1    3    3    0    0  0.70926415883E+02 -0.11952758071E+02 -0.68333893421E+02  0.99211621727E+02  0.00000000000E+00 0. -1.
         22    1    3    3    0    0 -0.92327003243E+01 -0.93447572870E+02 -0.20096238004E+03  0.22181877698E+03  0.00000000000E+00 0. -1.
</event>
<event>
 7    1  0.5575489E-006  0.5146092E+02  0.7818608E-02  0.1438319E+00
          2   -1    0    0  502    0  0.00000000000E+00  0.00000000000E+00  0.19430979458E+03  0.19430979458E+03  0.00000000000E+00 0. -1.
          1   -1    0    0  501    0 -0.00000000000E+00 -0.00000000000E+00 -0.46178611254E+03  0.46178611254E+03  0.00000000000E+00 0. -1.
         25    2    1    2    0    0  0.21525220001E+02 -0.42060069839E+02 -0.26243117728E+03  0.29449584505E+03  0.12500118148E+03 0.  0.
          2    1    1    2  501    0  0.29375429188E+02  0.49633092201E+02 -0.17487733945E+03  0.18414245446E+03  0.00000000000E+00 0. -1.
          1    1    1    2  502    0 -0.50900649190E+02 -0.75730223628E+01  0.16983219878E+03  0.17745760761E+03  0.00000000000E+00 0. -1.
         22    1    3    3    0    0 -0.22199713989E+02 -0.75116286534E+02 -0.16662741344E+03  0.18411946859E+03  0.00000000000E+00 0. -1.
         22    1    3    3    0    0  0.43724933991E+02  0.33056216696E+02 -0.95803763836E+02  0.11037637646E+03  0.00000000000E+00 0. -1.
</event>
<event>
 7    1  0.5575489E-006  0.8219133E+02  0.7818608E-02  0.1335080E+00
          2   -1    0    0  502    0  0.00000000000E+00  0.00000000000E+00  0.21431342493E+04  0.21431342493E+04  0.00000000000E+00 0. -1.
          1   -1    0    0  501    0 -0.00000000000E+00 -0.00000000000E+00 -0.89380034740E+03  0.89380034740E+03  0.00000000000E+00 0. -1.
         25    2    1    2    0    0 -0.31260593159E+02 -0.12778326256E+03  0.47105741090E+03  0.50480261606E+03  0.12499923976E+03 0.  0.
          2    1    1    2  501    0  0.57362961484E+02  0.58691999567E+02 -0.87418094263E+03  0.87802481777E+03  0.00000000000E+00 0. -1.
          1    1    1    2  502    0 -0.26102368325E+02  0.69091262998E+02  0.16524574336E+04  0.16541071629E+04  0.00000000000E+00 0. -1.
         22    1    3    3    0    0  0.46736738400E+02 -0.51448890938E+02  0.22818787276E+03  0.23853933925E+03  0.00000000000E+00 0. -1.
         22    1    3    3    0    0 -0.77997331559E+02 -0.76334371627E+02  0.24286953814E+03  0.26626327681E+03  0.00000000000E+00 0. -1.
</event>
<event>
 7    1  0.5575489E-006  0.1011978E+03  0.7818608E-02  0.1328860E+00
          2   -1    0    0  502    0  0.00000000000E+00  0.00000000000E+00  0.13879223620E+04  0.13879223620E+04  0.00000000000E+00 0. -1.
          1   -1    0    0  501    0 -0.00000000000E+00 -0.00000000000E+00 -0.36246705165E+04  0.36246705165E+04  0.00000000000E+00 0. -1.
         25    2    1    2    0    0 -0.27484301627E+02  0.14778271074E+03  0.47155986352E+03  0.51047424559E+03  0.12498053486E+03 0.  0.
          2    1    1    2  501    0 -0.13809482365E+02 -0.61825825477E+02 -0.36023992944E+04  0.36029562599E+04  0.00000000000E+00 0. -1.
          1    1    1    2  502    0  0.41293783992E+02 -0.85956885267E+02  0.89409127636E+03  0.89916237309E+03  0.00000000000E+00 0. -1.
         22    1    3    3    0    0  0.47097228650E+02  0.38561826826E+02  0.18754057006E+03  0.19717157212E+03  0.00000000000E+00 0. -1.
         22    1    3    3    0    0 -0.74581530277E+02  0.10922088392E+03  0.28401929346E+03  0.31330267347E+03  0.00000000000E+00 0. -1.
</event>
<event>
 7    1  0.5575489E-006  0.6870878E+02  0.7818608E-02  0.1397573E+00
          2   -1    0    0  502    0  0.00000000000E+00  0.00000000000E+00  0.12761565078E+04  0.12761565078E+04  0.00000000000E+00 0. -1.
          1   -1    0    0  501    0 -0.00000000000E+00 -0.00000000000E+00 -0.23733303163E+04  0.23733303163E+04  0.00000000000E+00 0. -1.
         25    2    1    2    0    0  0.46123678757E+01 -0.20344291343E+02 -0.83560903922E+02  0.15179806123E+03  0.12500025040E+03 0.  0.
          2    1    1    2  501    0  0.43711864223E+02 -0.29082945595E+02 -0.22543831683E+04  0.22549944599E+04  0.00000000000E+00 0. -1.
          1    1    1    2  502    0 -0.48324232098E+02  0.49427236938E+02  0.12407702638E+04  0.12426943030E+04  0.00000000000E+00 0. -1.
         22    1    3    3    0    0  0.11847021210E+02  0.39304832457E+02  0.84436905121E+01  0.41910830050E+02  0.00000000000E+00 0. -1.
         22    1    3    3    0    0 -0.72346533343E+01 -0.59649123799E+02 -0.92004594434E+02  0.10988723118E+03  0.00000000000E+00 0. -1.
</event>
<event>
 7    1  0.5575489E-006  0.1134030E+03  0.7818608E-02  0.1375410E+00
          2   -1    0    0  502    0  0.00000000000E+00  0.00000000000E+00  0.18446087695E+04  0.18446087695E+04  0.00000000000E+00 0. -1.
          1   -1    0    0  501    0 -0.00000000000E+00 -0.00000000000E+00 -0.95921721853E+02  0.95921721853E+02  0.00000000000E+00 0. -1.
         25    2    1    2    0    0  0.20323126858E+02 -0.13751837370E+03  0.11751739246E+03  0.22081614371E+03  0.12500039681E+03 0.  0.
          2    1    1    2  501    0 -0.28472767068E+02  0.25236087058E+02 -0.33830691411E+02  0.50912417305E+02  0.00000000000E+00 0. -1.
          1    1    1    2  502    0  0.81496402101E+01  0.11228228664E+03  0.16650003466E+04  0.16688019303E+04  0.00000000000E+00 0. -1.
         22    1    3    3    0    0  0.28436872688E+02  0.11735798944E+02  0.14066973868E+00  0.30763687898E+02  0.00000000000E+00 0.  1.
         22    1    3    3    0    0 -0.81137458296E+01 -0.14925417265E+03  0.11737672272E+03  0.19005245581E+03  0.00000000000E+00 0.  1.
</event>
<event>
 7    1  0.5575489E-006  0.9048318E+02  0.7818608E-02  0.1455126E+00
          2   -1    0    0  502    0  0.00000000000E+00  0.00000000000E+00  0.23780389627E+02  0.23780389627E+02  0.00000000000E+00 0. -1.
          1   -1    0    0  501    0 -0.00000000000E+00 -0.00000000000E+00 -0.16080543739E+04  0.16080543739E+04  0.00000000000E+00 0. -1.
         25    2    1    2    0    0 -0.92517880778E+00 -0.98775373668E+02 -0.14029073122E+04  0.14119246613E+04  0.12499956831E+03 0.  0.
          2    1    1    2  501    0  0.23001305420E+02  0.11483409501E+02 -0.81440066007E+02  0.85401481814E+02  0.00000000000E+00 0. -1.
          1    1    1    2  502    0 -0.22076126612E+02  0.87291964167E+02 -0.99926606073E+02  0.13450862045E+03  0.00000000000E+00 0. -1.
         22    1    3    3    0    0  0.47644170306E+02 -0.19790238843E+01 -0.30728961027E+03  0.31096750325E+03  0.00000000000E+00 0.  1.
         22    1    3    3    0    0 -0.48569349114E+02 -0.96796349784E+02 -0.10956177020E+04  0.11009571580E+04  0.00000000000E+00 0.  1.
</event>
<event>
 7    1  0.5575489E-006  0.6558021E+02  0.7818608E-02  0.1411523E+00
          2   -1    0    0  502    0  0.00000000000E+00  0.00000000000E+00  0.54231313873E+03  0.54231313873E+03  0.00000000000E+00 0. -1.
          1   -1    0    0  501    0 -0.00000000000E+00 -0.00000000000E+00 -0.11193770918E+04  0.11193770918E+04  0.00000000000E+00 0. -1.
         25    2    1    2    0    0  0.15894805748E+02  0.78490539570E+01 -0.24319855954E+02  0.12857464727E+03  0.12500292808E+03 0.  0.
          2    1    1    2  501    0  0.44635529181E+02  0.20911863539E+02 -0.10400529042E+04  0.10412202841E+04  0.00000000000E+00 0. -1.
          1    1    1    2  502    0 -0.60530334930E+02 -0.28760917496E+02  0.48730880710E+03  0.49189529913E+03  0.00000000000E+00 0. -1.
         22    1    3    3    0    0  0.62776608695E+02 -0.25613054501E+02 -0.56945948394E+01  0.68039397194E+02  0.00000000000E+00 0. -1.
         22    1    3    3    0    0 -0.46881802947E+02  0.33462108458E+02 -0.18625261114E+02  0.60535250075E+02  0.00000000000E+00 0. -1.
</event>
<event>
 7    1  0.5575489E-006  0.6008013E+02  0.7818608E-02  0.1474642E+00
          2   -1    0    0  502    0  0.00000000000E+00  0.00000000000E+00  0.21218588759E+04  0.21218588759E+04  0.00000000000E+00 0. -1.
          1   -1    0    0  501    0 -0.00000000000E+00 -0.00000000000E+00 -0.10756298109E+03  0.10756298109E+03  0.00000000000E+00 0. -1.
         25    2    1    2    0    0 -0.18680387344E+02 -0.20569465105E+02  0.49303814657E+03  0.50938883781E+03  0.12497325454E+03 0.  0.
          2    1    1    2  501    0  0.47822852072E+02  0.37359019862E+02 -0.89932219480E+02  0.10849205338E+03  0.00000000000E+00 0. -1.
          1    1    1    2  502    0 -0.29142464728E+02 -0.16789554757E+02  0.16111899677E+04  0.16115409658E+04  0.00000000000E+00 0. -1.
         22    1    3    3    0    0  0.66479113947E+01 -0.59689508886E+02  0.12802108324E+03  0.14140873365E+03  0.00000000000E+00 0. -1.
         22    1    3    3    0    0 -0.25328298739E+02  0.39120043782E+02  0.36501706332E+03  0.36798010416E+03  0.00000000000E+00 0. -1.
</event>
<event>
 7    1  0.5575489E-006  0.3592070E+02  0.7818608E-02  0.1599216E+00
          2   -1    0    0  502    0  0.00000000000E+00  0.00000000000E+00  0.16967077587E+04  0.16967077587E+04  0.00000000000E+00 0. -1.
          1   -1    0    0  501    0 -0.00000000000E+00 -0.00000000000E+00 -0.96547334774E+01  0.96547334774E+01  0.00000000000E+00 0. -1.
         25    2    1    2    0    0 -0.21330407427E+02 -0.26337372249E+02  0.52919412998E+03  0.54481847608E+03  0.12502840162E+03 0.  0.
          2    1    1    2  501    0 -0.14481642174E+02  0.20237853871E+02  0.99601373094E+02  0.10266314924E+03  0.00000000000E+00 0. -1.
          1    1    1    2  502    0  0.35812049601E+02  0.60995183776E+01  0.10582575221E+04  0.10588808669E+04  0.00000000000E+00 0. -1.
         22    1    3    3    0    0  0.93405960111E+01  0.27033768119E+02  0.40691847337E+03  0.40792243787E+03  0.00000000000E+00 0.  1.
         22    1    3    3    0    0 -0.30671003438E+02 -0.53371140368E+02  0.12227565661E+03  0.13689603821E+03  0.00000000000E+00 0.  1.
</event>
<event>
 7    1  0.5575489E-006  0.1352615E+03  0.7818608E-02  0.1417973E+00
          2   -1    0    0  502    0  0.00000000000E+00  0.00000000000E+00  0.70578243905E+02  0.70578243905E+02  0.00000000000E+00 0. -1.
          1   -1    0    0  501    0 -0.00000000000E+00 -0.00000000000E+00 -0.14939619125E+04  0.14939619125E+04  0.00000000000E+00 0. -1.
         25    2    1    2    0    0  0.14947169592E+03  0.36658257373E+02 -0.39643894086E+03  0.44325451231E+03  0.12500045254E+03 0.  0.
          2    1    1    2  501    0 -0.21783884640E+02 -0.65007655863E+01 -0.98249759159E+03  0.98276055836E+03  0.00000000000E+00 0. -1.
          1    1    1    2  502    0 -0.12768781128E+03 -0.30157491787E+02 -0.44447136109E+02  0.13852508570E+03  0.00000000000E+00 0. -1.
         22    1    3    3    0    0  0.26889605958E+02 -0.21910718904E+02 -0.14005146154E+02  0.37406879451E+02  0.00000000000E+00 0.  1.
         22    1    3    3    0    0  0.12258208996E+03  0.58568976277E+02 -0.38243379470E+03  0.40584763286E+03  0.00000000000E+00 0.  1.
</event>
<event>
 7    1  0.5575489E-006  0.6673414E+02  0.7818608E-02  0.1475775E+00
          2   -1    0    0  502    0  0.00000000000E+00  0.00000000000E+00  0.24176048057E+04  0.24176048057E+04  0.00000000000E+00 0. -1.
          1   -1    0    0  501    0 -0.00000000000E+00 -0.00000000000E+00 -0.10739442577E+04  0.10739442577E+04  0.00000000000E+00 0. -1.
         25    2    1    2    0    0 -0.21403423312E+02  0.47141030451E+02  0.56179821694E+03  0.57786116396E+03  0.12500361986E+03 0.  0.
          2    1    1    2  501    0  0.51142880053E+02 -0.42927362326E+02 -0.10647448654E+04  0.10668364359E+04  0.00000000000E+00 0. -1.
          1    1    1    2  502    0 -0.29739456741E+02 -0.42136681249E+01  0.18466071965E+04  0.18468514635E+04  0.00000000000E+00 0. -1.
         22    1    3    3    0    0 -0.53352246572E+02  0.10359904614E+02  0.47682267729E+03  0.47991004930E+03  0.00000000000E+00 0.  1.
         22    1    3    3    0    0  0.31948823260E+02  0.36781125836E+02  0.84975539648E+02  0.97951114664E+02  0.00000000000E+00 0.  1.
</event>
<event>
 7    1  0.5575489E-006  0.7871390E+02  0.7818608E-02  0.1402234E+00
          2   -1    0    0  502    0  0.00000000000E+00  0.00000000000E+00  0.33381518017E+03  0.33381518017E+03  0.00000000000E+00 0. -1.
          1   -1    0    0  501    0 -0.00000000000E+00 -0.00000000000E+00 -0.11439446626E+04  0.11439446626E+04  0.00000000000E+00 0. -1.
         25    2    1    2    0    0  0.18639404451E+01 -0.63181558821E+02  0.16052908743E+03  0.21305108801E+03  0.12500317813E+03 0.  0.
          2    1    1    2  501    0  0.42164118378E+02  0.66700860027E+02 -0.11129376447E+04  0.11157316069E+04  0.00000000000E+00 0. -1.
          1    1    1    2  502    0 -0.44028058823E+02 -0.35193012059E+01  0.14227907485E+03  0.14897714786E+03  0.00000000000E+00 0. -1.
         22    1    3    3    0    0 -0.56474398529E+02 -0.19671913360E+02  0.10746166728E+03  0.12298110343E+03  0.00000000000E+00 0. -1.
         22    1    3    3    0    0  0.58338338974E+02 -0.43509645461E+02  0.53067420143E+02  0.90069984585E+02  0.00000000000E+00 0. -1.
</event>
<event>
 7    1  0.5575489E-006  0.6610438E+02  0.7818608E-02  0.1463842E+00
          2   -1    0    0  502    0  0.00000000000E+00  0.00000000000E+00  0.53691720651E+03  0.53691720651E+03  0.00000000000E+00 0. -1.
          1   -1    0    0  501    0 -0.00000000000E+00 -0.00000000000E+00 -0.80400930780E+03  0.80400930780E+03  0.00000000000E+00 0. -1.
         25    2    1    2    0    0 -0.13804500694E+02 -0.34451612148E+02  0.29094822350E+02  0.13359520142E+03  0.12499476523E+03 0.  0.
          2    1    1    2  501    0  0.54327682492E+01 -0.32579401937E+02 -0.74888898203E+03  0.74961699541E+03  0.00000000000E+00 0. -1.
          1    1    1    2  502    0  0.83717324452E+01  0.67031014085E+02  0.45270205839E+03  0.45771431748E+03  0.00000000000E+00 0. -1.
         22    1    3    3    0    0 -0.53513253276E+02  0.52428431685E+01 -0.21602738905E+02  0.57946820524E+02  0.00000000000E+00 0. -1.
         22    1    3    3    0    0  0.39708752582E+02 -0.39694455316E+02  0.50697561255E+02  0.75648380892E+02  0.00000000000E+00 0. -1.
</event>
<event>
 7    1  0.5575489E-006  0.1294833E+03  0.7818608E-02  0.1266989E+00
          2   -1    0    0  502    0  0.00000000000E+00  0.00000000000E+00  0.12162900902E+04  0.12162900902E+04  0.00000000000E+00 0. -1.
          1   -1    0    0  501    0 -0.00000000000E+00 -0.00000000000E+00 -0.49569361817E+03  0.49569361817E+03  0.00000000000E+00 0. -1.
         25    2    1    2    0    0 -0.93677403050E+02  0.12310567418E+02  0.28103719013E+03  0.32176594497E+03  0.12499766075E+03 0.  0.
          2    1    1    2  501    0  0.10824376136E+03  0.74241136318E+02 -0.46410104156E+03  0.48230512642E+03  0.00000000000E+00 0. -1.
          1    1    1    2  502    0 -0.14566358311E+02 -0.86551703736E+02  0.90366032346E+03  0.90791263700E+03  0.00000000000E+00 0. -1.
         22    1    3    3    0    0  0.24357437738E+02 -0.40807513646E+00  0.10890738068E+02  0.26684442549E+02  0.00000000000E+00 0.  1.
         22    1    3    3    0    0 -0.11803484079E+03  0.12718642555E+02  0.27014645207E+03  0.29508150242E+03  0.00000000000E+00 0.  1.
</event>
<event>
 7    1  0.5575489E-006  0.1135789E+03  0.7818608E-02  0.1293058E+00
          2   -1    0    0  502    0  0.00000000000E+00  0.00000000000E+00  0.27434360927E+04  0.27434360927E+04  0.00000000000E+00 0. -1.
          1   -1    0    0  501    0 -0.00000000000E+00 -0.00000000000E+00 -0.42298572454E+02  0.42298572454E+02  0.00000000000E+00 0. -1.
         25    2    1    2    0    0  0.17242667176E+03 -0.59998366802E+01  0.62408974044E+03  0.65945407274E+03  0.12499885903E+03 0.  0.
          2    1    1    2  501    0 -0.67957760435E+02  0.38441469884E+02  0.42693297021E+02  0.88987198072E+02  0.00000000000E+00 0. -1.
          1    1    1    2  502    0 -0.10446891133E+03 -0.32441633204E+02  0.20343544828E+04  0.20372933943E+04  0.00000000000E+00 0. -1.
         22    1    3    3    0    0  0.33480365843E+02  0.52006630710E+02  0.15939778890E+03  0.17097742436E+03  0.00000000000E+00 0.  1.
         22    1    3    3    0    0  0.13894630592E+03 -0.58006467390E+02  0.46469195154E+03  0.48847664838E+03  0.00000000000E+00 0.  1.
</event>
<event>
 7    1  0.5575489E-006  0.1110381E+03  0.7818608E-02  0.1295493E+00
          2   -1    0    0  502    0  0.00000000000E+00  0.00000000000E+00  0.28271589855E+04  0.28271589855E+04  0.00000000000E+00 0. -1.
          1   -1    0    0  501    0 -0.00000000000E+00 -0.00000000000E+00 -0.33985483233E+03  0.33985483233E+03  0.00000000000E+00 0. -1.
         25    2    1    2    0    0  0.52901239838E+02 -0.17326277141E+02  0.50309200413E+03  0.52136917982E+03  0.12500206394E+03 0.  0.
          2    1    1    2  501    0  0.30006647066E+02 -0.72078385352E+02 -0.32447700639E+03  0.33373795136E+03  0.00000000000E+00 0. -1.
          1    1    1    2  502    0 -0.82907886904E+02  0.89404662493E+02  0.23086891554E+04  0.23119066866E+04  0.00000000000E+00 0. -1.
         22    1    3    3    0    0  0.39219204332E+02  0.51185310791E+02  0.19237732076E+03  0.20289681016E+03  0.00000000000E+00 0.  1.
         22    1    3    3    0    0  0.13682035506E+02 -0.68511587932E+02  0.31071468337E+03  0.31847236966E+03  0.00000000000E+00 0.  1.
</event>
<event>
 7    1  0.5575489E-006  0.2336048E+03  0.7818608E-02  0.1279025E+00
          2   -1    0    0  502    0  0.00000000000E+00  0.00000000000E+00  0.18051240070E+04  0.18051240070E+04  0.00000000000E+00 0. -1.
          1   -1    0    0  501    0 -0.00000000000E+00 -0.00000000000E+00 -0.17353416746E+04  0.17353416746E+04  0.00000000000E+00 0. -1.
         25    2    1    2    0    0 -0.19215350087E+03 -0.16364962152E+03 -0.56476492390E+02  0.28726043579E+03  0.12499918901E+03 0.  0.
          2    1    1    2  501    0 -0.68900361342E+01  0.42776946082E+02 -0.15551467969E+04  0.15557502691E+04  0.00000000000E+00 0. -1.
          1    1    1    2  502    0  0.19904353701E+03  0.12087267544E+03  0.16814056217E+04  0.16974549767E+04  0.00000000000E+00 0. -1.
         22    1    3    3    0    0 -0.16450490438E+03 -0.14273718362E+03  0.36816136053E+01  0.21782865154E+03  0.00000000000E+00 0. -1.
         22    1    3    3    0    0 -0.27648596496E+02 -0.20912437903E+02 -0.60158105996E+02  0.69431784250E+02  0.00000000000E+00 0. -1.
</event>
<event>
 7    1  0.5575489E-006  0.1959655E+03  0.7818608E-02  0.1284766E+00
          2   -1    0    0  502    0  0.00000000000E+00  0.00000000000E+00  0.47974851855E+03  0.47974851855E+03  0.00000000000E+00 0. -1.
          1   -1    0    0  501    0 -0.00000000000E+00 -0.00000000000E+00 -0.81928866726E+03  0.81928866726E+03  0.00000000000E+00 0. -1.
         25    2    1    2    0    0  0.14295790482E+03  0.11049306179E+03 -0.14849622120E+03  0.26518483651E+03  0.12500476211E+03 0.  0.
          2    1    1    2  501    0 -0.18348010326E+03 -0.83099291224E+02 -0.59436977386E+03  0.62757140516E+03  0.00000000000E+00 0. -1.
          1    1    1    2  502    0  0.40522198440E+02 -0.27393770570E+02  0.40332584635E+03  0.40628094413E+03  0.00000000000E+00 0. -1.
         22    1    3    3    0    0  0.31684051873E+01  0.74652158773E+02 -0.40928886031E+02  0.85194819752E+02  0.00000000000E+00 0.  1.
         22    1    3    3    0    0  0.13978949964E+03  0.35840903021E+02 -0.10756733517E+03  0.17999001676E+03  0.00000000000E+00 0.  1.
</event>
<event>
 7    1  0.5575489E-006  0.8484215E+02  0.7818608E-02  0.1391746E+00
          2   -1    0    0  502    0  0.00000000000E+00  0.00000000000E+00  0.13058101504E+03  0.13058101504E+03  0.00000000000E+00 0. -1.
          1   -1    0    0  501    0 -0.00000000000E+00 -0.00000000000E+00 -0.29243827630E+04  0.29243827630E+04  0.00000000000E+00 0. -1.
         25    2    1    2    0    0 -0.11801839839E+02 -0.41933940382E+02 -0.22370981060E+03  0.25993852532E+03  0.12499687519E+03 0.  0.
          2    1    1    2  501    0 -0.19210130081E+02 -0.40187641111E+02 -0.26652152637E+04  0.26655874545E+04  0.00000000000E+00 0. -1.
          1    1    1    2  502    0  0.31011969920E+02  0.82121581494E+02  0.95123326289E+02  0.12943779830E+03  0.00000000000E+00 0. -1.
         22    1    3    3    0    0 -0.15917888668E+02 -0.52268499174E+02 -0.23664910542E+03  0.24287481196E+03  0.00000000000E+00 0.  1.
         22    1    3    3    0    0  0.41160488296E+01  0.10334558792E+02  0.12939294820E+02  0.17063713366E+02  0.00000000000E+00 0.  1.
</event>
<event>
 7    1  0.5575489E-006  0.5184772E+02  0.7818608E-02  0.1458170E+00
          2   -1    0    0  502    0  0.00000000000E+00  0.00000000000E+00  0.13892199260E+04  0.13892199260E+04  0.00000000000E+00 0. -1.
          1   -1    0    0  501    0 -0.00000000000E+00 -0.00000000000E+00 -0.35593543588E+03  0.35593543588E+03  0.00000000000E+00 0. -1.
         25    2    1    2    0    0 -0.74363600577E+02 -0.54751776854E+02  0.43489722711E+03  0.46182933917E+03  0.12499215258E+03 0.  0.
          2    1    1    2  501    0  0.47695721026E+02  0.19905285947E+02 -0.34000388586E+03  0.34390950061E+03  0.00000000000E+00 0. -1.
          1    1    1    2  502    0  0.26667879551E+02  0.34846490907E+02  0.93839114883E+03  0.93941652207E+03  0.00000000000E+00 0. -1.
         22    1    3    3    0    0  0.23344469662E+02 -0.45616242384E+02  0.21510346931E+03  0.22112283541E+03  0.00000000000E+00 0. -1.
         22    1    3    3    0    0 -0.97708070239E+02 -0.91355344698E+01  0.21979375781E+03  0.24070650376E+03  0.00000000000E+00 0. -1.
</event>
<event>
 7    1  0.5575489E-006  0.8983928E+02  0.7818608E-02  0.1317185E+00
          2   -1    0    0  502    0  0.00000000000E+00  0.00000000000E+00  0.21732080965E+03  0.21732080965E+03  0.00000000000E+00 0. -1.
          1   -1    0    0  501    0 -0.00000000000E+00 -0.00000000000E+00 -0.93285506475E+03  0.93285506475E+03  0.00000000000E+00 0. -1.
         25    2    1    2    0    0 -0.11448296586E+03 -0.54716423578E+02 -0.26046086374E+03  0.31554319431E+03  0.12500963744E+03 0.  0.
          2    1    1    2  501    0  0.86227145898E+02 -0.19233957378E+02 -0.63339598257E+03  0.63952758857E+03  0.00000000000E+00 0. -1.
          1    1    1    2  502    0  0.28255819958E+02  0.73950380956E+02  0.17832259121E+03  0.19510509153E+03  0.00000000000E+00 0. -1.
         22    1    3    3    0    0 -0.88386283595E+02  0.67802497995E+01 -0.22061336723E+03  0.23775694462E+03  0.00000000000E+00 0.  1.
         22    1    3    3    0    0 -0.26096682261E+02 -0.61496673377E+02 -0.39847496506E+02  0.77786249681E+02  0.00000000000E+00 0.  1.
</event>
<event>
 7    1  0.5575489E-006  0.5990601E+02  0.7818608E-02  0.1515003E+00
          2   -1    0    0  502    0  0.00000000000E+00  0.00000000000E+00  0.84819160365E+03  0.84819160365E+03  0.00000000000E+00 0. -1.
          1   -1    0    0  501    0 -0.00000000000E+00 -0.00000000000E+00 -0.12651282115E+03  0.12651282115E+03  0.00000000000E+00 0. -1.
         25    2    1    2    0    0  0.14336650231E+02 -0.45080988104E+02 -0.25800414931E+02  0.13612191607E+03  0.12500271835E+03 0.  0.
          2    1    1    2  501    0 -0.20843337740E+02 -0.14706852835E+02 -0.40742593743E+02  0.48069691006E+02  0.00000000000E+00 0. -1.
          1    1    1    2  502    0  0.65066875086E+01  0.59787840939E+02  0.78822179117E+03  0.79051281772E+03  0.00000000000E+00 0. -1.
         22    1    3    3    0    0  0.58895369973E+02 -0.54465433222E+02  0.62114286375E+01  0.80459492081E+02  0.00000000000E+00 0.  1.
         22    1    3    3    0    0 -0.44558719742E+02  0.93844451175E+01 -0.32011843569E+02  0.55662423984E+02  0.00000000000E+00 0.  1.
</event>
<event>
 7    1  0.5575489E-006  0.6864395E+02  0.7818608E-02  0.1424318E+00
          2   -1    0    0  502    0  0.00000000000E+00  0.00000000000E+00  0.77237520060E+03  0.77237520060E+03  0.00000000000E+00 0. -1.
          1   -1    0    0  501    0 -0.00000000000E+00 -0.00000000000E+00 -0.15993086141E+03  0.15993086141E+03  0.00000000000E+00 0. -1.
         25    2    1    2    0    0 -0.26148318767E+02  0.29361753075E+02  0.24535048762E+03  0.27815043327E+03  0.12499981854E+03 0.  0.
          2    1    1    2  501    0  0.66663471659E+01  0.42141444108E+02 -0.13759320306E+03  0.14405634670E+03  0.00000000000E+00 0. -1.
          1    1    1    2  502    0  0.19481971601E+02 -0.71503197183E+02  0.50468705464E+03  0.51009928204E+03  0.00000000000E+00 0. -1.
         22    1    3    3    0    0 -0.62276887613E+02  0.34697141422E+02  0.73238808905E+02  0.10220677807E+03  0.00000000000E+00 0. -1.
         22    1    3    3    0    0  0.36128568846E+02 -0.53353883474E+01  0.17211167871E+03  0.17594365520E+03  0.00000000000E+00 0. -1.
</event>
<event>
 7    1  0.5575489E-006  0.4979578E+02  0.7818608E-02  0.1529328E+00
          2   -1    0    0  502    0  0.00000000000E+00  0.00000000000E+00  0.17186301504E+04  0.17186301504E+04  0.00000000000E+00 0. -1.
          1   -1    0    0  501    0 -0.00000000000E+00 -0.00000000000E+00 -0.57948251652E+02  0.57948251652E+02  0.00000000000E+00 0. -1.
         25    2    1    2    0    0 -0.60004766468E+01  0.45397107191E+02  0.15097315181E+03  0.20128667312E+03  0.12500611643E+03 0.  0.
          2    1    1    2  501    0  0.33104309638E+02 -0.38807626721E+02 -0.12749249814E+02  0.52578232941E+02  0.00000000000E+00 0. -1.
          1    1    1    2  502    0 -0.27103832991E+02 -0.65894804697E+01  0.15224579968E+04  0.15227134960E+04  0.00000000000E+00 0. -1.
         22    1    3    3    0    0  0.55466647894E+01  0.83715205365E+02  0.13337381674E+03  0.15756768733E+03  0.00000000000E+00 0.  1.
         22    1    3    3    0    0 -0.11547141436E+02 -0.38318098174E+02  0.17599335075E+02  0.43718985786E+02  0.00000000000E+00 0.  1.
</event>
<event>
 7    1  0.5575489E-006  0.8185052E+02  0.7818608E-02  0.1334341E+00
          2   -1    0    0  502    0  0.00000000000E+00  0.00000000000E+00  0.80184313770E+02  0.80184313770E+02  0.00000000000E+00 0. -1.
          1   -1    0    0  501    0 -0.00000000000E+00 -0.00000000000E+00 -0.91497147271E+03  0.91497147271E+03  0.00000000000E+00 0. -1.
         25    2    1    2    0    0  0.95201314306E+02  0.13649742139E+02 -0.25452824541E+03  0.29943010830E+03  0.12499662531E+03 0.  0.
          2    1    1    2  501    0 -0.49237498285E+02  0.56103997865E+02 -0.60422611418E+03  0.60881950271E+03  0.00000000000E+00 0. -1.
          1    1    1    2  502    0 -0.45963816020E+02 -0.69753740004E+02  0.23967200656E+02  0.86906175471E+02  0.00000000000E+00 0. -1.
         22    1    3    3    0    0  0.18348381053E+02  0.54233437063E+02 -0.16502010442E+03  0.17466987046E+03  0.00000000000E+00 0.  1.
         22    1    3    3    0    0  0.76852933253E+02 -0.40583694924E+02 -0.89508140994E+02  0.12476023785E+03  0.00000000000E+00 0.  1.
</event>
<event>
 7    1  0.5575489E-006  0.2047280E+03  0.7818608E-02  0.1259567E+00
          2   -1    0    0  502    0  0.00000000000E+00  0.00000000000E+00  0.14576477075E+04  0.14576477075E+04  0.00000000000E+00 0. -1.
          1   -1    0    0  501    0 -0.00000000000E+00 -0.00000000000E+00 -0.17275681305E+04  0.17275681305E+04  0.00000000000E+00 0. -1.
         25    2    1    2    0    0 -0.45048576571E+02  0.16898939849E+03 -0.71619145989E+02  0.22658893489E+03  0.12500580903E+03 0.  0.
          2    1    1    2  501    0 -0.58923601623E+02  0.95225297709E+01 -0.15701634942E+04  0.15712975746E+04  0.00000000000E+00 0. -1.
          1    1    1    2  502    0  0.10397217819E+03 -0.17851192826E+03  0.13718622172E+04  0.13873293284E+04  0.00000000000E+00 0. -1.
         22    1    3    3    0    0  0.87353704479E+01  0.47018974946E+02 -0.79803162093E+02  0.93035667257E+02  0.00000000000E+00 0. -1.
         22    1    3    3    0    0 -0.53783947019E+02  0.12197042354E+03  0.81840161047E+01  0.13355326764E+03  0.00000000000E+00 0. -1.
</event>
<event>
 7    1  0.5575489E-006  0.6469442E+02  0.7818608E-02  0.1507177E+00
          2   -1    0    0  502    0  0.00000000000E+00  0.00000000000E+00  0.90296011232E+03  0.90296011232E+03  0.00000000000E+00 0. -1.
          1   -1    0    0  501    0 -0.00000000000E+00 -0.00000000000E+00 -0.53802123174E+03  0.53802123174E+03  0.00000000000E+00 0. -1.
         25    2    1    2    0    0  0.29287855282E+02  0.82279305211E+02  0.26234616406E+03  0.30344492459E+03  0.12500259967E+03 0.  0.
          2    1    1    2  501    0 -0.12264132145E+02 -0.21677459672E+02 -0.51557288780E+03  0.51617412162E+03  0.00000000000E+00 0. -1.
          1    1    1    2  502    0 -0.17023723137E+02 -0.60601845539E+02  0.61816560432E+03  0.62136229786E+03  0.00000000000E+00 0. -1.
         22    1    3    3    0    0  0.78181633230E+02  0.60294346917E+02  0.16351346496E+03  0.19100897693E+03  0.00000000000E+00 0. -1.
         22    1    3    3    0    0 -0.48893777949E+02  0.21984958295E+02  0.98832699107E+02  0.11243594766E+03  0.00000000000E+00 0. -1.
</event>
<event>
 7    1  0.5575489E-006  0.2072099E+03  0.7818608E-02  0.1257506E+00
          2   -1    0    0  502    0  0.00000000000E+00  0.00000000000E+00  0.22393010235E+03  0.22393010235E+03  0.00000000000E+00 0. -1.
          1   -1    0    0  501    0 -0.00000000000E+00 -0.00000000000E+00 -0.32419141347E+04  0.32419141347E+04  0.00000000000E+00 0. -1.
         25    2    1    2    0    0 -0.18613113864E+02  0.18330237109E+03 -0.92293835923E+03  0.94941285585E+03  0.12499339443E+03 0.  0.
          2    1    1    2  501    0  0.74922433661E+02 -0.20454459225E+03 -0.22961782278E+04  0.23064878745E+04  0.00000000000E+00 0. -1.
          1    1    1    2  502    0 -0.56309319797E+02  0.21242221166E+02  0.20113255469E+03  0.20994350671E+03  0.00000000000E+00 0. -1.
         22    1    3    3    0    0  0.40487281518E+02  0.85327932077E+02 -0.58636109866E+03  0.59391869307E+03  0.00000000000E+00 0.  1.
         22    1    3    3    0    0 -0.59100395381E+02  0.97974439011E+02 -0.33657726057E+03  0.35549416277E+03  0.00000000000E+00 0.  1.
</event>
<event>
 7    1  0.5575489E-006  0.1304269E+03  0.7818608E-02  0.1245239E+00
          2   -1    0    0  502    0  0.00000000000E+00  0.00000000000E+00  0.71983612631E+03  0.71983612631E+03  0.00000000000E+00 0. -1.
          1   -1    0    0  501    0 -0.00000000000E+00 -0.00000000000E+00 -0.41393758788E+03  0.41393758788E+03  0.00000000000E+00 0. -1.
         25    2    1    2    0    0 -0.45041620499E+02 -0.10610681661E+03  0.82317554824E+02  0.18891331744E+03  0.12499863025E+03 0.  0.
          2    1    1    2  501    0  0.12981494019E+03  0.39115701066E+02 -0.34260528874E+03  0.36845670117E+03  0.00000000000E+00 0. -1.
          1    1    1    2  502    0 -0.84773319690E+02  0.66991115546E+02  0.56618627234E+03  0.57640369558E+03  0.00000000000E+00 0. -1.
         22    1    3    3    0    0 -0.19547228618E+02 -0.62163281840E+02  0.11236203492E+03  0.12989070270E+03  0.00000000000E+00 0. -1.
         22    1    3    3    0    0 -0.25494391880E+02 -0.43943534772E+02 -0.30044480100E+02  0.59022614735E+02  0.00000000000E+00 0. -1.
</event>
<event>
 7    1  0.5575489E-006  0.1187164E+03  0.7818608E-02  0.1301879E+00
          2   -1    0    0  502    0  0.00000000000E+00  0.00000000000E+00  0.19453960791E+04  0.19453960791E+04  0.00000000000E+00 0. -1.
          1   -1    0    0  501    0 -0.00000000000E+00 -0.00000000000E+00 -0.90750080478E+02  0.90750080478E+02  0.00000000000E+00 0. -1.
         25    2    1    2    0    0  0.14928085104E+03  0.57689343728E+02  0.13694531300E+04  0.13844271715E+04  0.12499554010E+03 0.  0.
          2    1    1    2  501    0 -0.68693692512E+02 -0.45187815059E+01 -0.64064988942E+02  0.94040233865E+02  0.00000000000E+00 0. -1.
          1    1    1    2  502    0 -0.80587158532E+02 -0.53170562222E+02  0.54925785750E+03  0.55767875415E+03  0.00000000000E+00 0. -1.
         22    1    3    3    0    0  0.13354604661E+03  0.48299487206E+02  0.13509246404E+04  0.13583684224E+04  0.00000000000E+00 0. -1.
         22    1    3    3    0    0  0.15734804434E+02  0.93898565214E+01  0.18528489619E+02  0.26058749080E+02  0.00000000000E+00 0. -1.
</event>
<event>
 7    1  0.5575489E-006  0.7730162E+02  0.7818608E-02  0.1397599E+00
          2   -1    0    0  502    0  0.00000000000E+00  0.00000000000E+00  0.14390093152E+03  0.14390093152E+03  0.00000000000E+00 0. -1.
          1   -1    0    0  501    0 -0.00000000000E+00 -0.00000000000E+00 -0.13680382299E+04  0.13680382299E+04  0.00000000000E+00 0. -1.
         25    2    1    2    0    0  0.27702578857E+02  0.57503137056E+02 -0.71946403664E+03  0.73302632057E+03  0.12500017192E+03 0.  0.
          2    1    1    2  501    0 -0.42732927899E+02  0.18728974337E+02 -0.62985323916E+03  0.63157895824E+03  0.00000000000E+00 0. -1.
          1    1    1    2  502    0  0.15030349042E+02 -0.76232111393E+02  0.12517997746E+03  0.14733388258E+03  0.00000000000E+00 0. -1.
         22    1    3    3    0    0  0.77846775647E+02  0.33735683629E+02 -0.44090692308E+03  0.44899569224E+03  0.00000000000E+00 0.  1.
         22    1    3    3    0    0 -0.50144196790E+02  0.23767453427E+02 -0.27855711356E+03  0.28403062833E+03  0.00000000000E+00 0.  1.
</event>
<event>
 7    1  0.5575489E-006  0.9925467E+02  0.7818608E-02  0.1287726E+00
          2   -1    0    0  502    0  0.00000000000E+00  0.00000000000E+00  0.96691425601E+02  0.96691425601E+02  0.00000000000E+00 0. -1.
          1   -1    0    0  501    0 -0.00000000000E+00 -0.00000000000E+00 -0.52956743217E+03  0.52956743217E+03  0.00000000000E+00 0. -1.
         25    2    1    2    0    0  0.81046175945E+01  0.51258820849E+02 -0.33168857733E+03  0.35823928895E+03  0.12499969711E+03 0.  0.
          2    1    1    2  501    0 -0.92412388851E+02  0.16738890217E+02 -0.12575722201E+03  0.15695578660E+03  0.00000000000E+00 0. -1.
          1    1    1    2  502    0  0.84307771256E+02 -0.67997711066E+02  0.24569792769E+02  0.11106378222E+03  0.00000000000E+00 0. -1.
         22    1    3    3    0    0  0.10422154798E+02  0.80329759893E+02 -0.31366606268E+03  0.32395661826E+03  0.00000000000E+00 0. -1.
         22    1    3    3    0    0 -0.23175372031E+01 -0.29070939044E+02 -0.18022514642E+02  0.34282670689E+02  0.00000000000E+00 0. -1.
</event>
<event>
 7    1  0.5575489E-006  0.8755003E+02  0.7818608E-02  0.1426805E+00
          2   -1    0    0  502    0  0.00000000000E+00  0.00000000000E+00  0.37191238428E+03  0.37191238428E+03  0.00000000000E+00 0. -1.
          1   -1    0    0  501    0 -0.00000000000E+00 -0.00000000000E+00 -0.73965105841E+02  0.73965105841E+02  0.00000000000E+00 0. -1.
         25    2    1    2    0    0  0.63550100271E+02 -0.47403482910E+01  0.12386631424E+03  0.18716353333E+03  0.12500495295E+03 0.  0.
          2    1    1    2  501    0  0.32394219262E+02  0.52899248321E+01 -0.22618438931E+02  0.39861792810E+02  0.00000000000E+00 0. -1.
          1    1    1    2  502    0 -0.95944319533E+02 -0.54957654112E+00  0.19669940314E+03  0.21885216398E+03  0.00000000000E+00 0. -1.
         22    1    3    3    0    0  0.48389546215E+02 -0.42739807631E+02  0.89469883913E+01  0.65178891832E+02  0.00000000000E+00 0.  1.
         22    1    3    3    0    0  0.15160554057E+02  0.37999459340E+02  0.11491932584E+03  0.12198464150E+03  0.00000000000E+00 0.  1.
</event>
<event>
 7    1  0.5575489E-006  0.1144429E+03  0.7818608E-02  0.1340361E+00
          2   -1    0    0  502    0  0.00000000000E+00  0.00000000000E+00  0.18908956818E+04  0.18908956818E+04  0.00000000000E+00 0. -1.
          1   -1    0    0  501    0 -0.00000000000E+00 -0.00000000000E+00 -0.88238653816E+02  0.88238653816E+02  0.00000000000E+00 0. -1.
         25    2    1    2    0    0 -0.11020240354E+03 -0.73683965359E+02  0.87797148553E+03  0.89667861645E+03  0.12499886122E+03 0.  0.
          2    1    1    2  501    0  0.47515451756E+02 -0.17581076838E+02 -0.67340122460E+02  0.84270424890E+02  0.00000000000E+00 0. -1.
          1    1    1    2  502    0  0.62686951787E+02  0.91265042197E+02  0.99202566487E+03  0.99818529423E+03  0.00000000000E+00 0. -1.
         22    1    3    3    0    0 -0.34053418980E+02  0.15709033902E+02  0.48727410960E+03  0.48871511843E+03  0.00000000000E+00 0.  1.
         22    1    3    3    0    0 -0.76148984562E+02 -0.89392999260E+02  0.39069737593E+03  0.40796349803E+03  0.00000000000E+00 0.  1.
</event>
<event>
 7    1  0.5575489E-006  0.5853522E+02  0.7818608E-02  0.1529860E+00
          2   -1    0    0  502    0  0.00000000000E+00  0.00000000000E+00  0.33360838279E+02  0.33360838279E+02  0.00000000000E+00 0. -1.
          1   -1    0    0  501    0 -0.00000000000E+00 -0.00000000000E+00 -0.11410284661E+04  0.11410284661E+04  0.00000000000E+00 0. -1.
         25    2    1    2    0    0  0.56315965750E+01  0.45442053892E+02 -0.26956808733E+03  0.30064536485E+03  0.12499594618E+03 0.  0.
          2    1    1    2  501    0  0.14531370924E+02 -0.57794091886E+02 -0.84654151652E+03  0.84863646928E+03  0.00000000000E+00 0. -1.
          1    1    1    2  502    0 -0.20162967499E+02  0.12352037994E+02  0.84419760552E+01  0.25107470217E+02  0.00000000000E+00 0. -1.
         22    1    3    3    0    0 -0.12221267549E+02 -0.19059314622E+02 -0.20948750420E+03  0.21070745423E+03  0.00000000000E+00 0. -1.
         22    1    3    3    0    0  0.17852864124E+02  0.64501368514E+02 -0.60080583127E+02  0.89937910619E+02  0.00000000000E+00 0. -1.
</event>
<event>
 7    1  0.5575489E-006  0.9753945E+02  0.7818608E-02  0.1466926E+00
          2   -1    0    0  502    0  0.00000000000E+00  0.00000000000E+00  0.17463113774E+03  0.17463113774E+03  0.00000000000E+00 0. -1.
          1   -1    0    0  501    0 -0.00000000000E+00 -0.00000000000E+00 -0.64998831522E+03  0.64998831522E+03  0.00000000000E+00 0. -1.
         25    2    1    2    0    0 -0.86001666774E+02 -0.23408686154E+02 -0.25501104065E+03  0.29765952494E+03  0.12500523453E+03 0.  0.
          2    1    1    2  501    0  0.10040801779E+03  0.69243966183E+01 -0.36604288351E+03  0.37962759367E+03  0.00000000000E+00 0. -1.
          1    1    1    2  502    0 -0.14406351014E+02  0.16484289536E+02  0.14569674668E+03  0.14733233435E+03  0.00000000000E+00 0. -1.
         22    1    3    3    0    0 -0.58915827095E+02 -0.66114964733E+01 -0.25885480580E+03  0.26555714461E+03  0.00000000000E+00 0. -1.
         22    1    3    3    0    0 -0.27085839679E+02 -0.16797189681E+02  0.38437651518E+01  0.32102380330E+02  0.00000000000E+00 0. -1.
</event>
<event>
 7    1  0.5575489E-006  0.8995728E+02  0.7818608E-02  0.1450527E+00
          2   -1    0    0  502    0  0.00000000000E+00  0.00000000000E+00  0.22414366140E+03  0.22414366140E+03  0.00000000000E+00 0. -1.
          1   -1    0    0  501    0 -0.00000000000E+00 -0.00000000000E+00 -0.84408734665E+03  0.84408734665E+03  0.00000000000E+00 0. -1.
         25    2    1    2    0    0 -0.27581175204E+02  0.11059625014E+03 -0.15215039602E+03  0.22752358902E+03  0.12499995512E+03 0.  0.
          2    1    1    2  501    0 -0.11067986751E+01 -0.26723492913E+02 -0.64342134259E+03  0.64397701371E+03  0.00000000000E+00 0. -1.
          1    1    1    2  502    0  0.28687973879E+02 -0.83872757223E+02  0.17562805336E+03  0.19673040532E+03  0.00000000000E+00 0. -1.
         22    1    3    3    0    0  0.31921805464E+02  0.29667340248E+01 -0.22530207765E+00  0.32060161196E+02  0.00000000000E+00 0. -1.
         22    1    3    3    0    0 -0.59502980668E+02  0.10762951611E+03 -0.15192509394E+03  0.19546342782E+03  0.00000000000E+00 0. -1.
</event>
<event>
 7    1  0.5575489E-006  0.2818728E+03  0.7818608E-02  0.1203785E+00
          2   -1    0    0  502    0  0.00000000000E+00  0.00000000000E+00  0.33203562583E+03  0.33203562583E+03  0.00000000000E+00 0. -1.
          1   -1    0    0  501    0 -0.00000000000E+00 -0.00000000000E+00 -0.18922370647E+04  0.18922370647E+04  0.00000000000E+00 0. -1.
         25    2    1    2    0    0 -0.11126516388E+02 -0.30216875060E+03 -0.14927489775E+03  0.35963684615E+03  0.12500365116E+03 0.  0.
          2    1    1    2  501    0 -0.67919031872E+02  0.36305119310E+02 -0.15516869933E+04  0.15535969818E+04  0.00000000000E+00 0. -1.
          1    1    1    2  502    0  0.79045548260E+02  0.26586363129E+03  0.14076045221E+03  0.31103886260E+03  0.00000000000E+00 0. -1.
         22    1    3    3    0    0 -0.56828841986E+02 -0.22855578742E+03 -0.13605075393E+03  0.27198726604E+03  0.00000000000E+00 0.  1.
         22    1    3    3    0    0  0.45702325598E+02 -0.73612963181E+02 -0.13224143826E+02  0.87649580109E+02  0.00000000000E+00 0.  1.
</event>
<event>
 7    1  0.5575489E-006  0.8929500E+02  0.7818608E-02  0.1389410E+00
          2   -1    0    0  502    0  0.00000000000E+00  0.00000000000E+00  0.86762069470E+03  0.86762069470E+03  0.00000000000E+00 0. -1.
          1   -1    0    0  501    0 -0.00000000000E+00 -0.00000000000E+00 -0.36966728420E+03  0.36966728420E+03  0.00000000000E+00 0. -1.
         25    2    1    2    0    0 -0.69994206115E+02 -0.25137932504E+02  0.47742775978E+03  0.49909210025E+03  0.12499821674E+03 0.  0.
          2    1    1    2  501    0 -0.30931628699E+02  0.30047051742E+02 -0.35076268690E+03  0.35340352784E+03  0.00000000000E+00 0. -1.
          1    1    1    2  502    0  0.10092583481E+03 -0.49091192381E+01  0.37128833762E+03  0.38479235081E+03  0.00000000000E+00 0. -1.
         22    1    3    3    0    0 -0.10463820091E+03 -0.18002829093E+02  0.30164102413E+03  0.31978205450E+03  0.00000000000E+00 0.  1.
         22    1    3    3    0    0  0.34643994797E+02 -0.71351034108E+01  0.17578673565E+03  0.17931004575E+03  0.00000000000E+00 0.  1.
</event>
<event>
 7    1  0.5575489E-006  0.1277347E+03  0.7818608E-02  0.1378812E+00
          2   -1    0    0  502    0  0.00000000000E+00  0.00000000000E+00  0.68152880028E+03  0.68152880028E+03  0.00000000000E+00 0. -1.
          1   -1    0    0  501    0 -0.00000000000E+00 -0.00000000000E+00 -0.19429820853E+04  0.19429820853E+04  0.00000000000E+00 0. -1.
         25    2    1    2    0    0  0.75473922264E+01  0.98084793124E+02  0.28463096849E+02  0.16154811449E+03  0.12494020827E+03 0.  0.
          2    1    1    2  501    0  0.52949084990E+01 -0.12832038690E+03 -0.18737798086E+04  0.18781759579E+04  0.00000000000E+00 0. -1.
          1    1    1    2  502    0 -0.12842300725E+02  0.30235593780E+02  0.58386342672E+03  0.58478681319E+03  0.00000000000E+00 0. -1.
         22    1    3    3    0    0  0.25584845055E+02  0.10714222997E+03 -0.17325028912E+02  0.11150873673E+03  0.00000000000E+00 0. -1.
         22    1    3    3    0    0 -0.18037452829E+02 -0.90574368460E+01  0.45788125761E+02  0.50039377769E+02  0.00000000000E+00 0. -1.
</event>
<event>
 7    1  0.5575489E-006  0.1376423E+03  0.7818608E-02  0.1277839E+00
          2   -1    0    0  502    0  0.00000000000E+00  0.00000000000E+00  0.15356730092E+04  0.15356730092E+04  0.00000000000E+00 0. -1.
          1   -1    0    0  501    0 -0.00000000000E+00 -0.00000000000E+00 -0.29885952929E+03  0.29885952929E+03  0.00000000000E+00 0. -1.
         25    2    1    2    0    0 -0.55497284254E+02 -0.13609690662E+03  0.37817740140E+03  0.42455215515E+03  0.12499627579E+03 0.  0.
          2    1    1    2  501    0  0.74356082726E+02 -0.16021884280E+01 -0.26630024391E+03  0.27649089307E+03  0.00000000000E+00 0. -1.
          1    1    1    2  502    0 -0.18858798472E+02  0.13769909505E+03  0.11249363224E+04  0.11334894902E+04  0.00000000000E+00 0. -1.
         22    1    3    3    0    0 -0.94776863970E+02 -0.80108379070E+02  0.22965432047E+03  0.26103852829E+03  0.00000000000E+00 0.  1.
         22    1    3    3    0    0  0.39279579716E+02 -0.55988527550E+02  0.14852308092E+03  0.16351362685E+03  0.00000000000E+00 0.  1.
</event>
<event>
 7    1  0.9024734E-006  0.1008983E+03  0.7818608E-02  0.1302628E+00
          2   -1    0    0  502    0  0.00000000000E+00  0.00000000000E+00  0.17675885328E+04  0.17675885328E+04  0.00000000000E+00 0. -1.
          1   -1    0    0  501    0 -0.00000000000E+00 -0.00000000000E+00 -0.65264567392E+03  0.65264567392E+03  0.00000000000E+00 0. -1.
         25    2    1    2    0    0 -0.38014589214E+02 -0.72029479585E+02 -0.48937266843E+02  0.15701217634E+03  0.12499845003E+03 0.  0.
          2    1    1    2  501    0 -0.38109463272E+02  0.98036350976E+02 -0.54368350357E+03  0.55376457937E+03  0.00000000000E+00 0. -1.
          1    1    1    2  502    0  0.76124052487E+02 -0.26006871392E+02  0.17075636293E+04  0.17094574510E+04  0.00000000000E+00 0. -1.
         22    1    3    3    0    0 -0.60614030710E+02 -0.40795158163E+02 -0.79381934222E+02  0.10788789149E+03  0.00000000000E+00 0.  1.
         22    1    3    3    0    0  0.22599441495E+02 -0.31234321422E+02  0.30444667379E+02  0.49124284854E+02  0.00000000000E+00 0.  1.
</event>
<event>
 7    1  0.5575489E-006  0.5484831E+02  0.7818608E-02  0.1475716E+00
          2   -1    0    0  502    0  0.00000000000E+00  0.00000000000E+00  0.53477174160E+02  0.53477174160E+02  0.00000000000E+00 0. -1.
          1   -1    0    0  501    0 -0.00000000000E+00 -0.00000000000E+00 -0.26814343483E+03  0.26814343483E+03  0.00000000000E+00 0. -1.
         25    2    1    2    0    0 -0.39240664020E+02 -0.10832784133E+02 -0.96879157331E+02  0.16330490131E+03  0.12500296293E+03 0.  0.
          2    1    1    2  501    0  0.36938365034E+02  0.47321106807E+02 -0.10229371676E+03  0.11860748058E+03  0.00000000000E+00 0. -1.
          1    1    1    2  502    0  0.23022989864E+01 -0.36488322674E+02 -0.15493386582E+02  0.39708227107E+02  0.00000000000E+00 0. -1.
         22    1    3    3    0    0 -0.67440985053E+02 -0.12364020427E+01 -0.60585249106E+01  0.67723857532E+02  0.00000000000E+00 0. -1.
         22    1    3    3    0    0  0.28200321033E+02 -0.95963820901E+01 -0.90820632421E+02  0.95581043774E+02  0.00000000000E+00 0. -1.
</event>
<event>
 7    1  0.5575489E-006  0.1707283E+03  0.7818608E-02  0.1356222E+00
          2   -1    0    0  502    0  0.00000000000E+00  0.00000000000E+00  0.80798963965E+03  0.80798963965E+03  0.00000000000E+00 0. -1.
          1   -1    0    0  501    0 -0.00000000000E+00 -0.00000000000E+00 -0.13164318536E+03  0.13164318536E+03  0.00000000000E+00 0. -1.
         25    2    1    2    0    0  0.15114812520E+03 -0.27624356079E+02  0.55014468937E+03  0.58471645255E+03  0.12500115934E+03 0.  0.
          2    1    1    2  501    0 -0.17271872724E+03  0.72782541895E+01 -0.47038029668E+02  0.17915721576E+03  0.00000000000E+00 0. -1.
          1    1    1    2  502    0  0.21570602040E+02  0.20346101890E+02  0.17323979458E+03  0.17575915669E+03  0.00000000000E+00 0. -1.
         22    1    3    3    0    0  0.97914999848E+02  0.44945696286E+02  0.31664542876E+03  0.33447240598E+03  0.00000000000E+00 0. -1.
         22    1    3    3    0    0  0.53233125352E+02 -0.72570052366E+02  0.23349926062E+03  0.25024404657E+03  0.00000000000E+00 0. -1.
</event>
<event>
 7    1  0.5575489E-006  0.4115541E+02  0.7818608E-02  0.1603528E+00
          2   -1    0    0  502    0  0.00000000000E+00  0.00000000000E+00  0.13138141491E+04  0.13138141491E+04  0.00000000000E+00 0. -1.
          1   -1    0    0  501    0 -0.00000000000E+00 -0.00000000000E+00 -0.43492683377E+03  0.43492683377E+03  0.00000000000E+00 0. -1.
         25    2    1    2    0    0 -0.24228154942E+02 -0.17236423965E+01  0.10139818750E+04  0.10219477256E+04  0.12501174554E+03 0.  0.
          2    1    1    2  501    0  0.38880262704E+02 -0.13549662070E+02 -0.42957977950E+03  0.43154843891E+03  0.00000000000E+00 0. -1.
          1    1    1    2  502    0 -0.14652107762E+02  0.15273304467E+02  0.29448521988E+03  0.29524481844E+03  0.00000000000E+00 0. -1.
         22    1    3    3    0    0  0.23143583990E+02 -0.25963270983E+02  0.82177494771E+03  0.82251065744E+03  0.00000000000E+00 0. -1.
         22    1    3    3    0    0 -0.47371738932E+02  0.24239628586E+02  0.19220692730E+03  0.19943706813E+03  0.00000000000E+00 0. -1.
</event>
<event>
 7    1  0.5575489E-006  0.5428446E+02  0.7818608E-02  0.1434542E+00
          2   -1    0    0  502    0  0.00000000000E+00  0.00000000000E+00  0.10575582827E+04  0.10575582827E+04  0.00000000000E+00 0. -1.
          1   -1    0    0  501    0 -0.00000000000E+00 -0.00000000000E+00 -0.65826308713E+03  0.65826308713E+03  0.00000000000E+00 0. -1.
         25    2    1    2    0    0  0.17450355371E+02 -0.10147273105E+03 -0.10170039387E+03  0.19123285251E+03  0.12500321481E+03 0.  0.
          2    1    1    2  501    0 -0.12488860776E+01  0.49909079281E+02 -0.50985526154E+03  0.51229372788E+03  0.00000000000E+00 0. -1.
          1    1    1    2  502    0 -0.16201469294E+02  0.51563651773E+02  0.10108508509E+04  0.10122947894E+04  0.00000000000E+00 0. -1.
         22    1    3    3    0    0 -0.24819685127E+01 -0.91299531672E+02 -0.44507445341E+01  0.91441641380E+02  0.00000000000E+00 0.  1.
         22    1    3    3    0    0  0.19932323884E+02 -0.10173199382E+02 -0.97249649341E+02  0.99791211126E+02  0.00000000000E+00 0.  1.
</event>
<event>
 7    1  0.5575489E-006  0.7928264E+02  0.7818608E-02  0.1359968E+00
          2   -1    0    0  502    0  0.00000000000E+00  0.00000000000E+00  0.85250782166E+03  0.85250782166E+03  0.00000000000E+00 0. -1.
          1   -1    0    0  501    0 -0.00000000000E+00 -0.00000000000E+00 -0.59237370678E+02  0.59237370678E+02  0.00000000000E+00 0. -1.
         25    2    1    2    0    0 -0.63997588163E+02  0.12046903444E+03  0.54042841643E+03  0.57122388802E+03  0.12500150967E+03 0.  0.
          2    1    1    2  501    0  0.42989192751E+02 -0.62275680215E+02 -0.45390651394E+01  0.75808536142E+02  0.00000000000E+00 0. -1.
          1    1    1    2  502    0  0.21008395411E+02 -0.58193354222E+02  0.25738109970E+03  0.26471276818E+03  0.00000000000E+00 0. -1.
         22    1    3    3    0    0 -0.31809297720E+02 -0.16608265759E+02  0.19369469170E+03  0.19699060766E+03  0.00000000000E+00 0.  1.
         22    1    3    3    0    0 -0.32188290442E+02  0.13707730020E+03  0.34673372473E+03  0.37423328037E+03  0.00000000000E+00 0.  1.
</event>
<event>
 7    1  0.5575489E-006  0.1367690E+03  0.7818608E-02  0.1314880E+00
          2   -1    0    0  502    0  0.00000000000E+00  0.00000000000E+00  0.16225016532E+04  0.16225016532E+04  0.00000000000E+00 0. -1.
          1   -1    0    0  501    0 -0.00000000000E+00 -0.00000000000E+00 -0.67653756223E+03  0.67653756223E+03  0.00000000000E+00 0. -1.
         25    2    1    2    0    0 -0.86337445411E+02 -0.16768496275E+03 -0.28727588516E+02  0.22808483716E+03  0.12500006956E+03 0.  0.
          2    1    1    2  501    0  0.25714876060E+02  0.46446125224E+02 -0.54381973530E+03  0.54640497976E+03  0.00000000000E+00 0. -1.
          1    1    1    2  502    0  0.60622569350E+02  0.12123883752E+03  0.15185114148E+04  0.15245493985E+04  0.00000000000E+00 0. -1.
         22    1    3    3    0    0 -0.26171331651E+02 -0.79053967036E+02  0.48185528056E+02  0.96209736610E+02  0.00000000000E+00 0. -1.
         22    1    3    3    0    0 -0.60166113760E+02 -0.88630995710E+02 -0.76913116572E+02  0.13187510055E+03  0.00000000000E+00 0. -1.
</event>
<event>
 7    1  0.5575489E-006  0.7931234E+02  0.7818608E-02  0.1402032E+00
          2   -1    0    0  502    0  0.00000000000E+00  0.00000000000E+00  0.82760720073E+03  0.82760720073E+03  0.00000000000E+00 0. -1.
          1   -1    0    0  501    0 -0.00000000000E+00 -0.00000000000E+00 -0.15662758674E+03  0.15662758674E+03  0.00000000000E+00 0. -1.
         25    2    1    2    0    0  0.84205456152E+02 -0.24412398862E+02  0.13914484254E+03  0.20657142885E+03  0.12499577571E+03 0.  0.
          2    1    1    2  501    0 -0.55112869977E+02  0.57295315556E+02 -0.10922956331E+03  0.13509729502E+03  0.00000000000E+00 0. -1.
          1    1    1    2  502    0 -0.29092586175E+02 -0.32882916695E+02  0.64106433476E+03  0.64256606359E+03  0.00000000000E+00 0. -1.
         22    1    3    3    0    0 -0.10483563001E+02  0.19835269365E+02  0.86850699695E+02  0.89701655734E+02  0.00000000000E+00 0. -1.
         22    1    3    3    0    0  0.94689019152E+02 -0.44247668227E+02  0.52294142847E+02  0.11686977311E+03  0.00000000000E+00 0. -1.
</event>
<event>
 7    1  0.5575489E-006  0.1183562E+03  0.7818608E-02  0.1385716E+00
          2   -1    0    0  502    0  0.00000000000E+00  0.00000000000E+00  0.92464792667E+03  0.92464792667E+03  0.00000000000E+00 0. -1.
          1   -1    0    0  501    0 -0.00000000000E+00 -0.00000000000E+00 -0.62036294126E+03  0.62036294126E+03  0.00000000000E+00 0. -1.
         25    2    1    2    0    0  0.11910400702E+03 -0.16341564613E+02  0.23740870303E+03  0.29400880216E+03  0.12500188898E+03 0.  0.
          2    1    1    2  501    0 -0.11717355005E+03 -0.17121069737E+02 -0.58570732606E+03  0.59755823454E+03  0.00000000000E+00 0. -1.
          1    1    1    2  502    0 -0.19304569677E+01  0.33462634350E+02  0.65258360844E+03  0.65344383123E+03  0.00000000000E+00 0. -1.
         22    1    3    3    0    0 -0.98769673231E+00 -0.64700130879E+01 -0.13867719614E+02  0.15334609923E+02  0.00000000000E+00 0. -1.
         22    1    3    3    0    0  0.12009170375E+03 -0.98715515251E+01  0.25127642265E+03  0.27867419223E+03  0.00000000000E+00 0. -1.
</event>
<event>
 7    1  0.5575489E-006  0.1222331E+03  0.7818608E-02  0.1374613E+00
          2   -1    0    0  502    0  0.00000000000E+00  0.00000000000E+00  0.80155668483E+02  0.80155668483E+02  0.00000000000E+00 0. -1.
          1   -1    0    0  501    0 -0.00000000000E+00 -0.00000000000E+00 -0.24744816497E+04  0.24744816497E+04  0.00000000000E+00 0. -1.
         25    2    1    2    0    0 -0.11736643133E+03  0.30110912753E+02 -0.73561958105E+03  0.75593904733E+03  0.12500451588E+03 0.  0.
          2    1    1    2  501    0  0.12328162424E+03  0.49235802040E+01 -0.17218392683E+04  0.17262540562E+04  0.00000000000E+00 0. -1.
          1    1    1    2  502    0 -0.59151929138E+01 -0.35034492957E+02  0.63132868135E+02  0.72444214696E+02  0.00000000000E+00 0. -1.
         22    1    3    3    0    0 -0.11799754643E+03  0.13477596559E+02 -0.34323373445E+03  0.36320030704E+03  0.00000000000E+00 0.  1.
         22    1    3    3    0    0  0.63111509562E+00  0.16633316194E+02 -0.39238584660E+03  0.39273874029E+03  0.00000000000E+00 0.  1.
</event>
<event>
 7    1  0.5575489E-006  0.5195606E+02  0.7818608E-02  0.1466402E+00
          2   -1    0    0  502    0  0.00000000000E+00  0.00000000000E+00  0.59027299998E+03  0.59027299998E+03  0.00000000000E+00 0. -1.
          1   -1    0    0  501    0 -0.00000000000E+00 -0.00000000000E+00 -0.70402812888E+03  0.70402812888E+03  0.00000000000E+00 0. -1.
         25    2    1    2    0    0 -0.45181902962E+02 -0.79982662425E+01  0.45779750143E+03  0.47676844680E+03  0.12499689168E+03 0.  0.
          2    1    1    2  501    0 -0.92339871751E+01  0.40207979969E+02 -0.68575377342E+03  0.68699358507E+03  0.00000000000E+00 0. -1.
          1    1    1    2  502    0  0.54415890137E+02 -0.32209713726E+02  0.11420114310E+03  0.13053909699E+03  0.00000000000E+00 0. -1.
         22    1    3    3    0    0  0.42579688362E+02  0.84447338502E+01  0.13181660709E+03  0.13878026263E+03  0.00000000000E+00 0.  1.
         22    1    3    3    0    0 -0.87761591324E+02 -0.16443000093E+02  0.32598089434E+03  0.33798818417E+03  0.00000000000E+00 0.  1.
</event>
<event>
 7    1  0.5575489E-006  0.9983666E+02  0.7818608E-02  0.1288225E+00
          2   -1    0    0  502    0  0.00000000000E+00  0.00000000000E+00  0.12244269979E+04  0.12244269979E+04  0.00000000000E+00 0. -1.
          1   -1    0    0  501    0 -0.00000000000E+00 -0.00000000000E+00 -0.12785465590E+04  0.12785465590E+04  0.00000000000E+00 0. -1.
         25    2    1    2    0    0 -0.56278477270E+02  0.12235625551E+03  0.25181637264E+03  0.31172708548E+03  0.12499588005E+03 0.  0.
          2    1    1    2  501    0 -0.32367612385E+02 -0.94459343430E+02 -0.12442959242E+04  0.12482958691E+04  0.00000000000E+00 0. -1.
          1    1    1    2  502    0  0.88646089655E+02 -0.27896912076E+02  0.93835999043E+03  0.94295060239E+03  0.00000000000E+00 0. -1.
         22    1    3    3    0    0 -0.33385698633E+02  0.13019027061E+03  0.25406675939E+03  0.28742656395E+03  0.00000000000E+00 0.  1.
         22    1    3    3    0    0 -0.22892778637E+02 -0.78340151084E+01 -0.22503867489E+01  0.24300521537E+02  0.00000000000E+00 0.  1.
</event>
<event>
 7    1  0.5575489E-006  0.1290237E+03  0.7818608E-02  0.1268601E+00
          2   -1    0    0  502    0  0.00000000000E+00  0.00000000000E+00  0.72746899159E+03  0.72746899159E+03  0.00000000000E+00 0. -1.
          1   -1    0    0  501    0 -0.00000000000E+00 -0.00000000000E+00 -0.22861747085E+04  0.22861747085E+04  0.00000000000E+00 0. -1.
         25    2    1    2    0    0  0.11991465091E+03 -0.10486491038E+03 -0.13770425423E+03  0.24487561305E+03  0.12500172521E+03 0.  0.
          2    1    1    2  501    0  0.75957519344E+01  0.86381014577E+02 -0.20878179971E+04  0.20896179948E+04  0.00000000000E+00 0. -1.
          1    1    1    2  502    0 -0.12751040285E+03  0.18483895798E+02  0.66681653442E+03  0.67915009226E+03  0.00000000000E+00 0. -1.
         22    1    3    3    0    0  0.13920950714E+03 -0.10343030061E+03 -0.94421644364E+02  0.19746534098E+03  0.00000000000E+00 0.  1.
         22    1    3    3    0    0 -0.19294856225E+02 -0.14346097615E+01 -0.43282609862E+02  0.47410272077E+02  0.00000000000E+00 0.  1.
</event>
<event>
 7    1  0.5575489E-006  0.1426417E+03  0.7818608E-02  0.1293375E+00
          2   -1    0    0  502    0  0.00000000000E+00  0.00000000000E+00  0.18764763201E+04  0.18764763201E+04  0.00000000000E+00 0. -1.
          1   -1    0    0  501    0 -0.00000000000E+00 -0.00000000000E+00 -0.14034167819E+03  0.14034167819E+03  0.00000000000E+00 0. -1.
         25    2    1    2    0    0  0.15713811203E+03 -0.11994086053E+03  0.80005223076E+03  0.83353900446E+03  0.12500201494E+03 0.  0.
          2    1    1    2  501    0 -0.98665314588E+02  0.99370367372E+02 -0.82688296698E+02  0.16262431745E+03  0.00000000000E+00 0. -1.
          1    1    1    2  502    0 -0.58472797445E+02  0.20570493159E+02  0.10187707079E+04  0.10206546764E+04  0.00000000000E+00 0. -1.
         22    1    3    3    0    0  0.52687585201E+02 -0.91265766462E+02  0.56482531770E+03  0.57457206796E+03  0.00000000000E+00 0. -1.
         22    1    3    3    0    0  0.10445052683E+03 -0.28675094068E+02  0.23522691306E+03  0.25896693650E+03  0.00000000000E+00 0. -1.
</event>
<event>
 7    1  0.5575489E-006  0.7964947E+02  0.7818608E-02  0.1451439E+00
          2   -1    0    0  502    0  0.00000000000E+00  0.00000000000E+00  0.71749858388E+03  0.71749858388E+03  0.00000000000E+00 0. -1.
          1   -1    0    0  501    0 -0.00000000000E+00 -0.00000000000E+00 -0.66512419221E+03  0.66512419221E+03  0.00000000000E+00 0. -1.
         25    2    1    2    0    0 -0.29994944721E+02 -0.89831921901E+02  0.20889203478E+03  0.26121370673E+03  0.12500898963E+03 0.  0.
          2    1    1    2  501    0  0.46319144230E+02  0.64655228996E+02 -0.63601756853E+03  0.64097122340E+03  0.00000000000E+00 0. -1.
          1    1    1    2  502    0 -0.16324199508E+02  0.25176692905E+02  0.47949992542E+03  0.48043784596E+03  0.00000000000E+00 0. -1.
         22    1    3    3    0    0  0.12004642797E+02 -0.10027483069E+03  0.18742886218E+03  0.21290545201E+03  0.00000000000E+00 0. -1.
         22    1    3    3    0    0 -0.41999587519E+02  0.10442908794E+02  0.21463172600E+02  0.48308254718E+02  0.00000000000E+00 0. -1.
</event>
<event>
 7    1  0.5575489E-006  0.2033822E+03  0.7818608E-02  0.1241793E+00
          2   -1    0    0  502    0  0.00000000000E+00  0.00000000000E+00  0.25668536596E+03  0.25668536596E+03  0.00000000000E+00 0. -1.
          1   -1    0    0  501    0 -0.00000000000E+00 -0.00000000000E+00 -0.22424788452E+04  0.22424788452E+04  0.00000000000E+00 0. -1.
         25    2    1    2    0    0  0.12433373491E+03 -0.83929649364E+02 -0.50686565624E+03  0.54317855190E+03  0.12500832806E+03 0.  0.
          2    1    1    2  501    0  0.16228653088E+02 -0.69882886749E+02 -0.16710357587E+04  0.16725751086E+04  0.00000000000E+00 0. -1.
          1    1    1    2  502    0 -0.14056238800E+03  0.15381253611E+03  0.19210793579E+03  0.28341055058E+03  0.00000000000E+00 0. -1.
         22    1    3    3    0    0  0.11368527146E+03 -0.10253388933E+03 -0.31620135561E+03  0.35131301812E+03  0.00000000000E+00 0.  1.
         22    1    3    3    0    0  0.10648463450E+02  0.18604239962E+02 -0.19066430063E+03  0.19186553378E+03  0.00000000000E+00 0.  1.
</event>
<event>
 7    1  0.5575489E-006  0.5201426E+02  0.7818608E-02  0.1478183E+00
          2   -1    0    0  502    0  0.00000000000E+00  0.00000000000E+00  0.40572460352E+04  0.40572460352E+04  0.00000000000E+00 0. -1.
          1   -1    0    0  501    0 -0.00000000000E+00 -0.00000000000E+00 -0.16053874529E+03  0.16053874529E+03  0.00000000000E+00 0. -1.
         25    2    1    2    0    0 -0.23972210300E+02 -0.36557374164E+02  0.14796543359E+04  0.14855681997E+04  0.12499925470E+03 0.  0.
          2    1    1    2  501    0  0.34158274989E+02 -0.16383777868E+02 -0.15501830988E+03  0.15958036322E+03  0.00000000000E+00 0. -1.
          1    1    1    2  502    0 -0.10186064690E+02  0.52941152033E+02  0.25720712639E+04  0.25726362176E+04  0.00000000000E+00 0. -1.
         22    1    3    3    0    0 -0.73057305934E+02 -0.38887808901E+02  0.99055990688E+03  0.99401134840E+03  0.00000000000E+00 0. -1.
         22    1    3    3    0    0  0.49085095635E+02  0.23304347367E+01  0.48909442905E+03  0.49155685131E+03  0.00000000000E+00 0. -1.
</event>
<event>
 7    1  0.5575489E-006  0.1621183E+03  0.7818608E-02  0.1393933E+00
          2   -1    0    0  502    0  0.00000000000E+00  0.00000000000E+00  0.89183958726E+03  0.89183958726E+03  0.00000000000E+00 0. -1.
          1   -1    0    0  501    0 -0.00000000000E+00 -0.00000000000E+00 -0.39252203350E+03  0.39252203350E+03  0.00000000000E+00 0. -1.
         25    2    1    2    0    0  0.83201317546E+02  0.12696582572E+03 -0.20378916925E+03  0.28319228306E+03  0.12500025415E+03 0.  0.
          2    1    1    2  501    0  0.22612752118E+02 -0.36569280506E+01 -0.14034862357E+03  0.14220564623E+03  0.00000000000E+00 0. -1.
          1    1    1    2  502    0 -0.10581406966E+03 -0.12330889767E+03  0.84345534659E+03  0.85896369147E+03  0.00000000000E+00 0. -1.
         22    1    3    3    0    0  0.36976018985E+02  0.11921858232E+02  0.61911299814E+01  0.39340650403E+02  0.00000000000E+00 0. -1.
         22    1    3    3    0    0  0.46225298560E+02  0.11504396749E+03 -0.20998029923E+03  0.24385163265E+03  0.00000000000E+00 0. -1.
</event>
<event>
 7    1  0.5575489E-006  0.6015579E+02  0.7818608E-02  0.1526316E+00
          2   -1    0    0  502    0  0.00000000000E+00  0.00000000000E+00  0.41956806610E+03  0.41956806610E+03  0.00000000000E+00 0. -1.
          1   -1    0    0  501    0 -0.00000000000E+00 -0.00000000000E+00 -0.26722747257E+03  0.26722747257E+03  0.00000000000E+00 0. -1.
         25    2    1    2    0    0  0.61644039246E+01  0.58959273940E+02 -0.11295524460E+02  0.13881242737E+03  0.12500842076E+03 0.  0.
          2    1    1    2  501    0 -0.28990791213E+02 -0.53148513562E+02 -0.18700041845E+03  0.19655632010E+03  0.00000000000E+00 0. -1.
          1    1    1    2  502    0  0.22826387288E+02 -0.58107603778E+01  0.35063653644E+03  0.35142679121E+03  0.00000000000E+00 0. -1.
         22    1    3    3    0    0 -0.23190775015E+02  0.89073557625E+02  0.83001111479E+01  0.92416462596E+02  0.00000000000E+00 0.  1.
         22    1    3    3    0    0  0.29355178940E+02 -0.30114283685E+02 -0.19595635608E+02  0.46395964774E+02  0.00000000000E+00 0.  1.
</event>
<event>
 7    1  0.5575489E-006  0.1187173E+03  0.7818608E-02  0.1342089E+00
          2   -1    0    0  502    0  0.00000000000E+00  0.00000000000E+00  0.89449836133E+02  0.89449836133E+02  0.00000000000E+00 0. -1.
          1   -1    0    0  501    0 -0.00000000000E+00 -0.00000000000E+00 -0.18280589286E+04  0.18280589286E+04  0.00000000000E+00 0. -1.
         25    2    1    2    0    0 -0.42724740369E+02  0.97412176250E+02 -0.55435790453E+03  0.57814538364E+03  0.12499945115E+03 0.  0.
          2    1    1    2  501    0 -0.45550308303E+02 -0.15499233340E+02 -0.12142943936E+04  0.12152472716E+04  0.00000000000E+00 0. -1.
          1    1    1    2  502    0  0.88275048672E+02 -0.81912942911E+02  0.30043205641E+02  0.12411610951E+03  0.00000000000E+00 0. -1.
         22    1    3    3    0    0 -0.78275071861E+02  0.32251285737E+02 -0.36658229895E+03  0.37623093202E+03  0.00000000000E+00 0. -1.
         22    1    3    3    0    0  0.35550331492E+02  0.65160890513E+02 -0.18777560558E+03  0.20191445162E+03  0.00000000000E+00 0. -1.
</event>
<event>
 7    1  0.5575489E-006  0.2501720E+03  0.7818608E-02  0.1352969E+00
          2   -1    0    0  502    0  0.00000000000E+00  0.00000000000E+00  0.91792727592E+03  0.91792727592E+03  0.00000000000E+00 0. -1.
          1   -1    0    0  501    0 -0.00000000000E+00 -0.00000000000E+00 -0.73139803665E+03  0.73139803665E+03  0.00000000000E+00 0. -1.
         25    2    1    2    0    0 -0.41858167686E+01  0.23380072378E+03  0.58737445065E+03  0.64444799371E+03  0.12499668723E+03 0.  0.
          2    1    1    2  501    0  0.16982670129E+02 -0.25020003649E+03 -0.68009337130E+03  0.72485547734E+03  0.00000000000E+00 0. -1.
          1    1    1    2  502    0 -0.12796853360E+02  0.16399312708E+02  0.27924815992E+03  0.28002184152E+03  0.00000000000E+00 0. -1.
         22    1    3    3    0    0 -0.16226099890E+02  0.86694480450E+01  0.37283391958E+01  0.18770885972E+02  0.00000000000E+00 0.  1.
         22    1    3    3    0    0  0.12040283121E+02  0.22513127574E+03  0.58364611146E+03  0.62567710774E+03  0.00000000000E+00 0.  1.
</event>
<event>
 7    1  0.5575489E-006  0.5670317E+02  0.7818608E-02  0.1458631E+00
          2   -1    0    0  502    0  0.00000000000E+00  0.00000000000E+00  0.23327092029E+03  0.23327092029E+03  0.00000000000E+00 0. -1.
          1   -1    0    0  501    0 -0.00000000000E+00 -0.00000000000E+00 -0.98627397995E+03  0.98627397995E+03  0.00000000000E+00 0. -1.
         25    2    1    2    0    0 -0.92926524888E+01  0.60481927312E+02 -0.64507734293E+03  0.65991991007E+03  0.12500036966E+03 0.  0.
          2    1    1    2  501    0 -0.32980458917E+02 -0.22612892788E+02 -0.32897991852E+03  0.33140132827E+03  0.00000000000E+00 0. -1.
          1    1    1    2  502    0  0.42273111406E+02 -0.37869034523E+02  0.22105420179E+03  0.22822366191E+03  0.00000000000E+00 0. -1.
         22    1    3    3    0    0 -0.60344643383E+02  0.18398570627E+02 -0.43826918594E+03  0.44278647532E+03  0.00000000000E+00 0. -1.
         22    1    3    3    0    0  0.51051990894E+02  0.42083356684E+02 -0.20680815700E+03  0.21713343474E+03  0.00000000000E+00 0. -1.
</event>
<event>
 7    1  0.5575489E-006  0.1127135E+03  0.7818608E-02  0.1317015E+00
          2   -1    0    0  502    0  0.00000000000E+00  0.00000000000E+00  0.20972832971E+03  0.20972832971E+03  0.00000000000E+00 0. -1.
          1   -1    0    0  501    0 -0.00000000000E+00 -0.00000000000E+00 -0.32854855097E+04  0.32854855097E+04  0.00000000000E+00 0. -1.
         25    2    1    2    0    0  0.10615915394E+02  0.16876005485E+03 -0.22106416721E+03  0.30509782122E+03  0.12499064252E+03 0.  0.
          2    1    1    2  501    0 -0.19515172783E+02 -0.60106810608E+02 -0.30043210298E+04  0.30049856107E+04  0.00000000000E+00 0. -1.
          1    1    1    2  502    0  0.88992573883E+01 -0.10865324425E+03  0.14962801705E+03  0.18513040742E+03  0.00000000000E+00 0. -1.
         22    1    3    3    0    0 -0.16102851870E+02  0.43270405076E+01  0.10597821641E+02  0.19756997278E+02  0.00000000000E+00 0.  1.
         22    1    3    3    0    0  0.26718767264E+02  0.16443301435E+03 -0.23166198885E+03  0.28534082394E+03  0.00000000000E+00 0.  1.
</event>
<event>
 7    1  0.5575489E-006  0.1118738E+03  0.7818608E-02  0.1333617E+00
          2   -1    0    0  502    0  0.00000000000E+00  0.00000000000E+00  0.95174196288E+03  0.95174196288E+03  0.00000000000E+00 0. -1.
          1   -1    0    0  501    0 -0.00000000000E+00 -0.00000000000E+00 -0.11967592553E+03  0.11967592553E+03  0.00000000000E+00 0. -1.
         25    2    1    2    0    0 -0.31990362297E+02  0.85931801304E+02  0.23794352593E+03  0.28398499592E+03  0.12499079413E+03 0.  0.
          2    1    1    2  501    0  0.44976578897E+02  0.31585975578E+02 -0.83285090977E+02  0.99784632492E+02  0.00000000000E+00 0. -1.
          1    1    1    2  502    0 -0.12986216601E+02 -0.11751777688E+03  0.67740760240E+03  0.68764826001E+03  0.00000000000E+00 0. -1.
         22    1    3    3    0    0  0.31676427337E+02  0.80017637735E+02  0.17086301455E+03  0.19131227911E+03  0.00000000000E+00 0.  1.
         22    1    3    3    0    0 -0.63666789633E+02  0.59141635695E+01  0.67080511377E+02  0.92672716802E+02  0.00000000000E+00 0.  1.
</event>
<event>
 7    1  0.5575489E-006  0.5971716E+02  0.7818608E-02  0.1454485E+00
          2   -1    0    0  502    0  0.00000000000E+00  0.00000000000E+00  0.43850298134E+03  0.43850298134E+03  0.00000000000E+00 0. -1.
          1   -1    0    0  501    0 -0.00000000000E+00 -0.00000000000E+00 -0.25370288468E+03  0.25370288468E+03  0.00000000000E+00 0. -1.
         25    2    1    2    0    0  0.24191737676E+02  0.90472142400E+02  0.92505462901E+02  0.18152548171E+03  0.12499516440E+03 0.  0.
          2    1    1    2  501    0 -0.21307123688E+02 -0.32827878067E+02 -0.20455839370E+03  0.20826857548E+03  0.00000000000E+00 0. -1.
          1    1    1    2  502    0 -0.28846139874E+01 -0.57644264333E+02  0.29685302746E+03  0.30241180883E+03  0.00000000000E+00 0. -1.
         22    1    3    3    0    0 -0.35861382442E+02 -0.10429915345E+02  0.12276220004E+02  0.39313197051E+02  0.00000000000E+00 0. -1.
         22    1    3    3    0    0  0.60053120118E+02  0.10090205774E+03  0.80229242897E+02  0.14221228466E+03  0.00000000000E+00 0. -1.
</event>
<event>
 7    1  0.5575489E-006  0.8278999E+02  0.7818608E-02  0.1322953E+00
          2   -1    0    0  502    0  0.00000000000E+00  0.00000000000E+00  0.15646215998E+04  0.15646215998E+04  0.00000000000E+00 0. -1.
          1   -1    0    0  501    0 -0.00000000000E+00 -0.00000000000E+00 -0.13339177122E+03  0.13339177122E+03  0.00000000000E+00 0. -1.
         25    2    1    2    0    0  0.54491475194E+02 -0.45129124572E+02  0.61222819049E+02  0.15613761068E+03  0.12499904457E+03 0.  0.
          2    1    1    2  501    0  0.20595812761E+02  0.80187253096E+02 -0.64517055293E+02  0.10496015190E+03  0.00000000000E+00 0. -1.
          1    1    1    2  502    0 -0.75087287955E+02 -0.35058128524E+02  0.14345240649E+04  0.14369156085E+04  0.00000000000E+00 0. -1.
         22    1    3    3    0    0  0.44034039178E+02 -0.80047846477E+02  0.81092133972E+01  0.91719211040E+02  0.00000000000E+00 0. -1.
         22    1    3    3    0    0  0.10457436016E+02  0.34918721904E+02  0.53113605651E+02  0.64418399644E+02  0.00000000000E+00 0. -1.
</event>
<event>
 7    1  0.5575489E-006  0.8150239E+02  0.7818608E-02  0.1503370E+00
          2   -1    0    0  502    0  0.00000000000E+00  0.00000000000E+00  0.45747916359E+03  0.45747916359E+03  0.00000000000E+00 0. -1.
          1   -1    0    0  501    0 -0.00000000000E+00 -0.00000000000E+00 -0.15002716407E+04  0.15002716407E+04  0.00000000000E+00 0. -1.
         25    2    1    2    0    0 -0.43103468580E+02 -0.46775065184E+02 -0.66275122980E+03  0.67742942278E+03  0.12500245810E+03 0.  0.
          2    1    1    2  501    0 -0.19515844449E+02 -0.55513970265E+01 -0.82635733634E+03  0.82660639576E+03  0.00000000000E+00 0. -1.
          1    1    1    2  502    0  0.62619313030E+02  0.52326462210E+02  0.44631608900E+03  0.45371498577E+03  0.00000000000E+00 0. -1.
         22    1    3    3    0    0 -0.28858936226E+01  0.27548028892E+01 -0.53127761074E+03  0.53129259075E+03  0.00000000000E+00 0.  1.
         22    1    3    3    0    0 -0.40217574958E+02 -0.49529868073E+02 -0.13147361906E+03  0.14613683203E+03  0.00000000000E+00 0.  1.
</event>
<event>
 7    1  0.5575489E-006  0.5580807E+02  0.7818608E-02  0.1436264E+00
          2   -1    0    0  502    0  0.00000000000E+00  0.00000000000E+00  0.99360339941E+03  0.99360339941E+03  0.00000000000E+00 0. -1.
          1   -1    0    0  501    0 -0.00000000000E+00 -0.00000000000E+00 -0.10358889513E+04  0.10358889513E+04  0.00000000000E+00 0. -1.
         25    2    1    2    0    0  0.35374419073E+02  0.62501352018E+02 -0.28928435578E+02  0.14703809462E+03  0.12500231341E+03 0.  0.
          2    1    1    2  501    0 -0.52895237609E+02 -0.17881347292E+02 -0.94646764900E+03  0.94811321019E+03  0.00000000000E+00 0. -1.
          1    1    1    2  502    0  0.17520818537E+02 -0.44620004726E+02  0.93311053266E+03  0.93434104591E+03  0.00000000000E+00 0. -1.
         22    1    3    3    0    0  0.20326221516E+01  0.62639874410E+02  0.37269802749E+02  0.72917238126E+02  0.00000000000E+00 0. -1.
         22    1    3    3    0    0  0.33341796921E+02 -0.13852239193E+00 -0.66198238327E+02  0.74120856498E+02  0.00000000000E+00 0. -1.
</event>
<event>
 7    1  0.5575489E-006  0.1344617E+03  0.7818608E-02  0.1295529E+00
          2   -1    0    0  502    0  0.00000000000E+00  0.00000000000E+00  0.22788983695E+03  0.22788983695E+03  0.00000000000E+00 0. -1.
          1   -1    0    0  501    0 -0.00000000000E+00 -0.00000000000E+00 -0.22650653502E+04  0.22650653502E+04  0.00000000000E+00 0. -1.
         25    2    1    2    0    0  0.54126504659E+02  0.15191826939E+03  0.86215543944E+02  0.22150768350E+03  0.12499477890E+03 0.  0.
          2    1    1    2  501    0  0.22119547400E+02 -0.60537784160E+02 -0.21487892039E+04  0.21497556001E+04  0.00000000000E+00 0. -1.
          1    1    1    2  502    0 -0.76246052059E+02 -0.91380485226E+02  0.25398146645E+02  0.12169190354E+03  0.00000000000E+00 0. -1.
         22    1    3    3    0    0  0.49077174007E+02  0.50059629956E+02  0.96203176186E+02  0.11903607297E+03  0.00000000000E+00 0. -1.
         22    1    3    3    0    0  0.50493306525E+01  0.10185863943E+03 -0.99876322422E+01  0.10247161053E+03  0.00000000000E+00 0. -1.
</event>
<event>
 7    1  0.5575489E-006  0.2381083E+03  0.7818608E-02  0.1291464E+00
          2   -1    0    0  502    0  0.00000000000E+00  0.00000000000E+00  0.16019142872E+04  0.16019142872E+04  0.00000000000E+00 0. -1.
          1   -1    0    0  501    0 -0.00000000000E+00 -0.00000000000E+00 -0.24412974410E+04  0.24412974410E+04  0.00000000000E+00 0. -1.
         25    2    1    2    0    0 -0.22022549556E+03 -0.13904210489E+03  0.81935889443E+03  0.86879561127E+03  0.12499936183E+03 0.  0.
          2    1    1    2  501    0  0.28081724449E+02  0.25304891174E+02 -0.23999804099E+04  0.24002780857E+04  0.00000000000E+00 0. -1.
          1    1    1    2  502    0  0.19214377111E+03  0.11373721371E+03  0.74123836172E+03  0.77413803126E+03  0.00000000000E+00 0. -1.
         22    1    3    3    0    0 -0.88932394123E+02 -0.12095218587E+03  0.52363613841E+03  0.54473223463E+03  0.00000000000E+00 0. -1.
         22    1    3    3    0    0 -0.13129310144E+03 -0.18089919015E+02  0.29572275602E+03  0.32406337664E+03  0.00000000000E+00 0. -1.
</event>
<event>
 7    1  0.5575489E-006  0.3821532E+02  0.7818608E-02  0.1561145E+00
          2   -1    0    0  502    0  0.00000000000E+00  0.00000000000E+00  0.71307992482E+03  0.71307992482E+03  0.00000000000E+00 0. -1.
          1   -1    0    0  501    0 -0.00000000000E+00 -0.00000000000E+00 -0.87778183910E+03  0.87778183910E+03  0.00000000000E+00 0. -1.
         25    2    1    2    0    0 -0.38864310623E+02  0.50344563757E+02 -0.40068261542E+03  0.42451880541E+03  0.12499859240E+03 0.  0.
          2    1    1    2  501    0  0.25817735964E+02 -0.14455270895E+02 -0.46418978891E+03  0.46513188503E+03  0.00000000000E+00 0. -1.
          1    1    1    2  502    0  0.13046574659E+02 -0.35889292862E+02  0.70017049004E+03  0.70121107349E+03  0.00000000000E+00 0. -1.
         22    1    3    3    0    0  0.17727282400E+02 -0.30360973632E+02 -0.56910349949E+02  0.66894194012E+02  0.00000000000E+00 0. -1.
         22    1    3    3    0    0 -0.56591593023E+02  0.80705537389E+02 -0.34377226547E+03  0.35762461139E+03  0.00000000000E+00 0. -1.
</event>
<event>
 7    1  0.5575489E-006  0.1240349E+03  0.7818608E-02  0.1299310E+00
          2   -1    0    0  502    0  0.00000000000E+00  0.00000000000E+00  0.16073052385E+04  0.16073052385E+04  0.00000000000E+00 0. -1.
          1   -1    0    0  501    0 -0.00000000000E+00 -0.00000000000E+00 -0.10017683965E+03  0.10017683965E+03  0.00000000000E+00 0. -1.
         25    2    1    2    0    0  0.92323345104E+02 -0.16277619676E+03  0.75940347487E+03  0.79204712197E+03  0.12500126201E+03 0.  0.
          2    1    1    2  501    0 -0.52029860336E+02  0.10866245513E+03 -0.38378327192E+02  0.12644181080E+03  0.00000000000E+00 0. -1.
          1    1    1    2  502    0 -0.40293484768E+02  0.54113741626E+02  0.78610325117E+03  0.78899314537E+03  0.00000000000E+00 0. -1.
         22    1    3    3    0    0  0.92428261874E+01 -0.95268199718E+02  0.53405393311E+03  0.54256341858E+03  0.00000000000E+00 0. -1.
         22    1    3    3    0    0  0.83080518917E+02 -0.67507997037E+02  0.22534954176E+03  0.24948370339E+03  0.00000000000E+00 0. -1.
</event>
<event>
 7    1  0.5575489E-006  0.1584447E+03  0.7818608E-02  0.1228977E+00
          2   -1    0    0  502    0  0.00000000000E+00  0.00000000000E+00  0.35676790048E+04  0.35676790048E+04  0.00000000000E+00 0. -1.
          1   -1    0    0  501    0 -0.00000000000E+00 -0.00000000000E+00 -0.14510571836E+03  0.14510571836E+03  0.00000000000E+00 0. -1.
         25    2    1    2    0    0  0.13490525996E+02  0.18826945098E+03  0.69555503113E+03  0.73147046946E+03  0.12499946360E+03 0.  0.
          2    1    1    2  501    0 -0.91847817594E+02 -0.50872001942E+02 -0.10288095331E+03  0.14699820656E+03  0.00000000000E+00 0. -1.
          1    1    1    2  502    0  0.78357291598E+02 -0.13739744904E+03  0.28298992086E+04  0.28343160471E+04  0.00000000000E+00 0. -1.
         22    1    3    3    0    0  0.51963035802E+02  0.51551836307E+02  0.35532505457E+03  0.36278594697E+03  0.00000000000E+00 0. -1.
         22    1    3    3    0    0 -0.38472509805E+02  0.13671761467E+03  0.34022997656E+03  0.36868452249E+03  0.00000000000E+00 0. -1.
</event>
<event>
 7    1  0.5575489E-006  0.1103546E+03  0.7818608E-02  0.1318586E+00
          2   -1    0    0  502    0  0.00000000000E+00  0.00000000000E+00  0.25790312147E+03  0.25790312147E+03  0.00000000000E+00 0. -1.
          1   -1    0    0  501    0 -0.00000000000E+00 -0.00000000000E+00 -0.27719732573E+03  0.27719732573E+03  0.00000000000E+00 0. -1.
         25    2    1    2    0    0 -0.72666726718E+01  0.18112746776E+01 -0.10032583657E+03  0.16045667134E+03  0.12499993859E+03 0.  0.
          2    1    1    2  501    0  0.70465605401E+01 -0.11216568749E+03 -0.10792922358E+03  0.15581884600E+03  0.00000000000E+00 0. -1.
          1    1    1    2  502    0  0.22011213166E+00  0.11035441282E+03  0.18896085588E+03  0.21882492987E+03  0.00000000000E+00 0. -1.
         22    1    3    3    0    0  0.13647102558E+02 -0.59044664429E+02 -0.43367593954E+02  0.74520225517E+02  0.00000000000E+00 0.  1.
         22    1    3    3    0    0 -0.20913775229E+02  0.60855939107E+02 -0.56958242613E+02  0.85936445822E+02  0.00000000000E+00 0.  1.
</event>
<event>
 7    1  0.5575489E-006  0.5986305E+02  0.7818608E-02  0.1502982E+00
          2   -1    0    0  502    0  0.00000000000E+00  0.00000000000E+00  0.22289392378E+04  0.22289392378E+04  0.00000000000E+00 0. -1.
          1   -1    0    0  501    0 -0.00000000000E+00 -0.00000000000E+00 -0.33282223758E+02  0.33282223758E+02  0.00000000000E+00 0. -1.
         25    2    1    2    0    0 -0.35434969311E+01 -0.65065101662E+02  0.14510112027E+04  0.14578422423E+04  0.12499787654E+03 0.  0.
          2    1    1    2  501    0 -0.24684941932E+02  0.12563047513E+02 -0.22029327288E+02  0.35390221556E+02  0.00000000000E+00 0. -1.
          1    1    1    2  502    0  0.28228438863E+02  0.52502054149E+02  0.76667513858E+03  0.76898899769E+03  0.00000000000E+00 0. -1.
         22    1    3    3    0    0 -0.12743551927E+02 -0.10156272769E+03  0.11319405149E+04  0.11365591560E+04  0.00000000000E+00 0. -1.
         22    1    3    3    0    0  0.92000549960E+01  0.36497626027E+02  0.31907068780E+03  0.32128308629E+03  0.00000000000E+00 0. -1.
</event>
<event>
 7    1  0.5575489E-006  0.5138487E+02  0.7818608E-02  0.1528678E+00
          2   -1    0    0  502    0  0.00000000000E+00  0.00000000000E+00  0.45517499672E+02  0.45517499672E+02  0.00000000000E+00 0. -1.
          1   -1    0    0  501    0 -0.00000000000E+00 -0.00000000000E+00 -0.28006085747E+04  0.28006085747E+04  0.00000000000E+00 0. -1.
         25    2    1    2    0    0  0.76188431300E+02  0.14571337840E+02 -0.20107715555E+03  0.24914612003E+03  0.12499906277E+03 0.  0.
          2    1    1    2  501    0 -0.49041793643E+02 -0.14397291740E+02 -0.25665635129E+04  0.25670723880E+04  0.00000000000E+00 0. -1.
          1    1    1    2  502    0 -0.27146637658E+02 -0.17404609916E+00  0.12549593428E+02  0.29907566323E+02  0.00000000000E+00 0. -1.
         22    1    3    3    0    0 -0.32301210919E+02  0.19968106189E+02 -0.43309446293E+02  0.57600361369E+02  0.00000000000E+00 0.  1.
         22    1    3    3    0    0  0.10848964222E+03 -0.53967683493E+01 -0.15776770925E+03  0.19154575866E+03  0.00000000000E+00 0.  1.
</event>
<event>
 7    1  0.5575489E-006  0.8111898E+02  0.7818608E-02  0.1374819E+00
          2   -1    0    0  502    0  0.00000000000E+00  0.00000000000E+00  0.44522431446E+04  0.44522431446E+04  0.00000000000E+00 0. -1.
          1   -1    0    0  501    0 -0.00000000000E+00 -0.00000000000E+00 -0.11395234927E+03  0.11395234927E+03  0.00000000000E+00 0. -1.
         25    2    1    2    0    0  0.20310279644E+02 -0.25593516634E+02  0.51613416074E+02  0.13912864308E+03  0.12500119621E+03 0.  0.
          2    1    1    2  501    0  0.52087857313E+02 -0.11980066083E+02 -0.59582222849E+02  0.80041914909E+02  0.00000000000E+00 0. -1.
          1    1    1    2  502    0 -0.72398136957E+02  0.37573582717E+02  0.43462596021E+04  0.43470249358E+04  0.00000000000E+00 0. -1.
         22    1    3    3    0    0  0.32787179791E+02  0.18908312151E+02 -0.27994703062E+02  0.47076818357E+02  0.00000000000E+00 0.  1.
         22    1    3    3    0    0 -0.12476900147E+02 -0.44501828786E+02  0.79608119136E+02  0.92051824724E+02  0.00000000000E+00 0.  1.
</event>
<event>
 7    1  0.5575489E-006  0.5646667E+02  0.7818608E-02  0.1419555E+00
          2   -1    0    0  502    0  0.00000000000E+00  0.00000000000E+00  0.44613193739E+03  0.44613193739E+03  0.00000000000E+00 0. -1.
          1   -1    0    0  501    0 -0.00000000000E+00 -0.00000000000E+00 -0.19358360790E+03  0.19358360790E+03  0.00000000000E+00 0. -1.
         25    2    1    2    0    0 -0.31512207920E+02 -0.24295194340E+02 -0.18331875112E+02  0.13244160021E+03  0.12498577561E+03 0.  0.
          2    1    1    2  501    0 -0.78565303725E+01  0.60957318966E+02 -0.10817733181E+03  0.12441806509E+03  0.00000000000E+00 0. -1.
          1    1    1    2  502    0  0.39368738293E+02 -0.36662124626E+02  0.37905753641E+03  0.38285587999E+03  0.00000000000E+00 0. -1.
         22    1    3    3    0    0 -0.89887460901E+01 -0.55284346765E+01 -0.71205932997E+02  0.71983651201E+02  0.00000000000E+00 0.  1.
         22    1    3    3    0    0 -0.22523461830E+02 -0.18766759664E+02  0.52874057884E+02  0.60457949008E+02  0.00000000000E+00 0.  1.
</event>
<event>
 7    1  0.5723535E-006  0.7675357E+02  0.7818608E-02  0.1446392E+00
          2   -1    0    0  502    0  0.00000000000E+00  0.00000000000E+00  0.21875983048E+04  0.21875983048E+04  0.00000000000E+00 0. -1.
          1   -1    0    0  501    0 -0.00000000000E+00 -0.00000000000E+00 -0.10725983554E+04  0.10725983554E+04  0.00000000000E+00 0. -1.
         25    2    1    2    0    0  0.78135177210E+01 -0.45594348642E+02 -0.69832142682E+02  0.15047210692E+03  0.12500172448E+03 0.  0.
          2    1    1    2  501    0 -0.50397255359E+01  0.77794340007E+02 -0.96074570738E+03  0.96390335222E+03  0.00000000000E+00 0. -1.
          1    1    1    2  502    0 -0.27737921851E+01 -0.32199991365E+02  0.21455777995E+04  0.21458212011E+04  0.00000000000E+00 0. -1.
         22    1    3    3    0    0 -0.15907536461E+02  0.10159404537E+02  0.28966919941E+02  0.34573771383E+02  0.00000000000E+00 0. -1.
         22    1    3    3    0    0  0.23721054182E+02 -0.55753753179E+02 -0.98799062623E+02  0.11589833554E+03  0.00000000000E+00 0. -1.
</event>
<event>
 7    1  0.5575489E-006  0.1728582E+03  0.7818608E-02  0.1218712E+00
          2   -1    0    0  502    0  0.00000000000E+00  0.00000000000E+00  0.91498890306E+03  0.91498890306E+03  0.00000000000E+00 0. -1.
          1   -1    0    0  501    0 -0.00000000000E+00 -0.00000000000E+00 -0.28967847478E+03  0.28967847478E+03  0.00000000000E+00 0. -1.
         25    2    1    2    0    0 -0.98664115158E+02  0.89298856470E+02 -0.92716077607E+00  0.18257707565E+03  0.12499854214E+03 0.  0.
          2    1    1    2  501    0  0.67047063988E+02 -0.19164347172E+03 -0.14114094004E+03  0.24727170076E+03  0.00000000000E+00 0. -1.
          1    1    1    2  502    0  0.31617051170E+02  0.10234461525E+03  0.76737852910E+03  0.77481860143E+03  0.00000000000E+00 0. -1.
         22    1    3    3    0    0 -0.31860764018E+02  0.17183230996E+02 -0.58398223422E+02  0.68707526590E+02  0.00000000000E+00 0. -1.
         22    1    3    3    0    0 -0.66803351140E+02  0.72115625474E+02  0.57471062646E+02  0.11386954906E+03  0.00000000000E+00 0. -1.
</event>
<event>
 7    1  0.5575489E-006  0.1995433E+03  0.7818608E-02  0.1331775E+00
          2   -1    0    0  502    0  0.00000000000E+00  0.00000000000E+00  0.16343063072E+04  0.16343063072E+04  0.00000000000E+00 0. -1.
          1   -1    0    0  501    0 -0.00000000000E+00 -0.00000000000E+00 -0.62356103686E+03  0.62356103686E+03  0.00000000000E+00 0. -1.
         25    2    1    2    0    0  0.45212153379E+02 -0.16525906757E+03 -0.14006184587E+03  0.25415837503E+03  0.12499784278E+03 0.  0.
          2    1    1    2  501    0 -0.43870231303E+01 -0.31005482060E+02 -0.41949532450E+03  0.42066246941E+03  0.00000000000E+00 0. -1.
          1    1    1    2  502    0 -0.40825130249E+02  0.19626454963E+03  0.15703024407E+04  0.15830464996E+04  0.00000000000E+00 0. -1.
         22    1    3    3    0    0  0.35099039051E+02  0.31997049073E+01 -0.54609255679E+02  0.64995011036E+02  0.00000000000E+00 0. -1.
         22    1    3    3    0    0  0.10113114329E+02 -0.16845877248E+03 -0.85452590193E+02  0.18916336399E+03  0.00000000000E+00 0. -1.
</event>
<event>
 7    1  0.5575489E-006  0.1593681E+03  0.7818608E-02  0.1269232E+00
          2   -1    0    0  502    0  0.00000000000E+00  0.00000000000E+00  0.79753396819E+03  0.79753396819E+03  0.00000000000E+00 0. -1.
          1   -1    0    0  501    0 -0.00000000000E+00 -0.00000000000E+00 -0.22658892574E+03  0.22658892574E+03  0.00000000000E+00 0. -1.
         25    2    1    2    0    0  0.19585882759E+03  0.50193514964E+02  0.10439254821E+03  0.25961980116E+03  0.12499827095E+03 0.  0.
          2    1    1    2  501    0 -0.41135520979E+02 -0.56361165476E+02 -0.13034571405E+03  0.14784693852E+03  0.00000000000E+00 0. -1.
          1    1    1    2  502    0 -0.15472330661E+03  0.61676505115E+01  0.59689820829E+03  0.61665615425E+03  0.00000000000E+00 0. -1.
         22    1    3    3    0    0  0.66603617606E+02  0.35059547867E+02 -0.21783663801E+02  0.78356504411E+02  0.00000000000E+00 0. -1.
         22    1    3    3    0    0  0.12925520998E+03  0.15133967097E+02  0.12617621202E+03  0.18126329674E+03  0.00000000000E+00 0. -1.
</event>
<event>
 7    1  0.6755018E-006  0.9496082E+02  0.7818608E-02  0.1312211E+00
          2   -1    0    0  502    0  0.00000000000E+00  0.00000000000E+00  0.22279306951E+04  0.22279306951E+04  0.00000000000E+00 0. -1.
          1   -1    0    0  501    0 -0.00000000000E+00 -0.00000000000E+00 -0.11891168707E+04  0.11891168707E+04  0.00000000000E+00 0. -1.
         25    2    1    2    0    0 -0.70685743880E+02 -0.15111004343E+03 -0.18676197053E+03  0.27988615309E+03  0.12500202177E+03 0.  0.
          2    1    1    2  501    0  0.11118986390E+02  0.77534287020E+02 -0.95315852343E+03  0.95637145937E+03  0.00000000000E+00 0. -1.
          1    1    1    2  502    0  0.59566757490E+02  0.73575756405E+02  0.21787343184E+04  0.21807899534E+04  0.00000000000E+00 0. -1.
         22    1    3    3    0    0 -0.18175202268E+02 -0.77634898748E+02 -0.17036361921E+03  0.18809911811E+03  0.00000000000E+00 0.  1.
         22    1    3    3    0    0 -0.52510541612E+02 -0.73475144677E+02 -0.16398351312E+02  0.91787034986E+02  0.00000000000E+00 0.  1.
</event>
<event>
 7    1  0.5575489E-006  0.6323655E+02  0.7818608E-02  0.1448161E+00
          2   -1    0    0  502    0  0.00000000000E+00  0.00000000000E+00  0.20546018661E+02  0.20546018661E+02  0.00000000000E+00 0. -1.
          1   -1    0    0  501    0 -0.00000000000E+00 -0.00000000000E+00 -0.13375858583E+04  0.13375858583E+04  0.00000000000E+00 0. -1.
         25    2    1    2    0    0 -0.34275194464E+02 -0.30692174127E+02 -0.90755895486E+03  0.91728237694E+03  0.12500761571E+03 0.  0.
          2    1    1    2  501    0  0.37321562527E+02  0.69289864984E+02 -0.38932380831E+03  0.39719895787E+03  0.00000000000E+00 0. -1.
          1    1    1    2  502    0 -0.30463680632E+01 -0.38597690857E+02 -0.20157076463E+02  0.43650542143E+02  0.00000000000E+00 0. -1.
         22    1    3    3    0    0  0.19537904574E+01 -0.40800035214E+02 -0.89738545912E+02  0.98597498918E+02  0.00000000000E+00 0.  1.
         22    1    3    3    0    0 -0.36228984921E+02  0.10107861088E+02 -0.81782040895E+03  0.81868487802E+03  0.00000000000E+00 0.  1.
</event>
<event>
 7    1  0.5575489E-006  0.7939087E+02  0.7818608E-02  0.1363287E+00
          2   -1    0    0  502    0  0.00000000000E+00  0.00000000000E+00  0.63088674571E+03  0.63088674571E+03  0.00000000000E+00 0. -1.
          1   -1    0    0  501    0 -0.00000000000E+00 -0.00000000000E+00 -0.19985954556E+04  0.19985954556E+04  0.00000000000E+00 0. -1.
         25    2    1    2    0    0 -0.18162177737E+02 -0.17194607090E+02  0.39666350433E+02  0.13350433044E+03  0.12499787068E+03 0.  0.
          2    1    1    2  501    0  0.20627231061E+02  0.77233363660E+02 -0.19491962570E+04  0.19508348274E+04  0.00000000000E+00 0. -1.
          1    1    1    2  502    0 -0.24650533243E+01 -0.60038756570E+02  0.54182119668E+03  0.54514304356E+03  0.00000000000E+00 0. -1.
         22    1    3    3    0    0  0.52743754392E+02 -0.17891927764E+02  0.97514097619E+01  0.56543034043E+02  0.00000000000E+00 0. -1.
         22    1    3    3    0    0 -0.70905932129E+02  0.69732067366E+00  0.29914940671E+02  0.76961296393E+02  0.00000000000E+00 0. -1.
</event>
<event>
 7    1  0.5575489E-006  0.3482026E+02  0.7818608E-02  0.1628970E+00
          2   -1    0    0  502    0  0.00000000000E+00  0.00000000000E+00  0.12495425908E+04  0.12495425908E+04  0.00000000000E+00 0. -1.
          1   -1    0    0  501    0 -0.00000000000E+00 -0.00000000000E+00 -0.37423283596E+02  0.37423283596E+02  0.00000000000E+00 0. -1.
         25    2    1    2    0    0 -0.29898874285E+00 -0.30891275014E+02  0.30608099935E+03  0.33206055673E+03  0.12499709959E+03 0.  0.
          2    1    1    2  501    0 -0.21068363248E+02  0.28226312055E+02 -0.11547591619E+02  0.37066797735E+02  0.00000000000E+00 0. -1.
          1    1    1    2  502    0  0.21367351991E+02  0.26649629589E+01  0.91758589950E+03  0.91783851996E+03  0.00000000000E+00 0. -1.
         22    1    3    3    0    0  0.28047972582E+02  0.41908697489E+02  0.12932989622E+03  0.13881372320E+03  0.00000000000E+00 0.  1.
         22    1    3    3    0    0 -0.28346961325E+02 -0.72799972503E+02  0.17675110313E+03  0.19324683353E+03  0.00000000000E+00 0.  1.
</event>
<event>
 7    1  0.5575489E-006  0.5384016E+02  0.7818608E-02  0.1428922E+00
          2   -1    0    0  502    0  0.00000000000E+00  0.00000000000E+00  0.16179315178E+03  0.16179315178E+03  0.00000000000E+00 0. -1.
          1   -1    0    0  501    0 -0.00000000000E+00 -0.00000000000E+00 -0.40642158972E+03  0.40642158972E+03  0.00000000000E+00 0. -1.
         25    2    1    2    0    0  0.20671878082E+01  0.17129621628E+02  0.32162593278E+02  0.13022238342E+03  0.12500295811E+03 0.  0.
          2    1    1    2  501    0  0.44471521631E+02  0.27943989707E+02 -0.34203571573E+03  0.34604481448E+03  0.00000000000E+00 0. -1.
          1    1    1    2  502    0 -0.46538709439E+02 -0.45073611334E+02  0.65244684510E+02  0.91947543588E+02  0.00000000000E+00 0. -1.
         22    1    3    3    0    0 -0.17991770431E+02 -0.26511327879E+02 -0.35130434733E+02  0.47546837473E+02  0.00000000000E+00 0.  1.
         22    1    3    3    0    0  0.20058958239E+02  0.43640949507E+02  0.67293028010E+02  0.82675545951E+02  0.00000000000E+00 0.  1.
</event>
<event>
 7    1  0.5575489E-006  0.4838197E+02  0.7818608E-02  0.1462086E+00
          2   -1    0    0  502    0  0.00000000000E+00  0.00000000000E+00  0.30065354941E+03  0.30065354941E+03  0.00000000000E+00 0. -1.
          1   -1    0    0  501    0 -0.00000000000E+00 -0.00000000000E+00 -0.34768638215E+03  0.34768638215E+03  0.00000000000E+00 0. -1.
         25    2    1    2    0    0  0.61141996783E+02 -0.42697645170E+02 -0.27804596116E+02  0.14818932798E+03  0.12500219473E+03 0.  0.
          2    1    1    2  501    0 -0.47906561541E+02 -0.10486033728E+01 -0.25526803819E+03  0.25972660535E+03  0.00000000000E+00 0. -1.
          1    1    1    2  502    0 -0.13235435242E+02  0.43746248542E+02  0.23603980156E+03  0.24042399824E+03  0.00000000000E+00 0. -1.
         22    1    3    3    0    0  0.28271929700E+02 -0.86379604195E+02 -0.17653875721E+02  0.92587241874E+02  0.00000000000E+00 0. -1.
         22    1    3    3    0    0  0.32870067084E+02  0.43681959025E+02 -0.10150720396E+02  0.55602086102E+02  0.00000000000E+00 0. -1.
</event>
<event>
 7    1  0.5575489E-006  0.1102077E+03  0.7818608E-02  0.1344418E+00
          2   -1    0    0  502    0  0.00000000000E+00  0.00000000000E+00  0.33704824346E+04  0.33704824346E+04  0.00000000000E+00 0. -1.
          1   -1    0    0  501    0 -0.00000000000E+00 -0.00000000000E+00 -0.31015860507E+02  0.31015860507E+02  0.00000000000E+00 0. -1.
         25    2    1    2    0    0  0.14517111409E+02 -0.71856411601E+02  0.10353794942E+04  0.10454711043E+04  0.12500016988E+03 0.  0.
          2    1    1    2  501    0  0.13170313301E+02  0.11444827871E+03  0.10354293736E+03  0.15489675764E+03  0.00000000000E+00 0. -1.
          1    1    1    2  502    0 -0.27687424710E+02 -0.42591867105E+02  0.22005441426E+04  0.22011304332E+04  0.00000000000E+00 0. -1.
         22    1    3    3    0    0  0.23047119541E+02 -0.39652333536E+02  0.97834649273E+03  0.97942091927E+03  0.00000000000E+00 0. -1.
         22    1    3    3    0    0 -0.85300081322E+01 -0.32204078065E+02  0.57033001443E+02  0.66050184983E+02  0.00000000000E+00 0. -1.
</event>
<event>
 7    1  0.5575489E-006  0.5710897E+02  0.7818608E-02  0.1418839E+00
          2   -1    0    0  502    0  0.00000000000E+00  0.00000000000E+00  0.10087406107E+02  0.10087406107E+02  0.00000000000E+00 0. -1.
          1   -1    0    0  501    0 -0.00000000000E+00 -0.00000000000E+00 -0.22129181206E+04  0.22129181206E+04  0.00000000000E+00 0. -1.
         25    2    1    2    0    0  0.21078035227E+02  0.24562733407E+02 -0.12878637451E+04  0.12943204747E+04  0.12499941487E+03 0.  0.
          2    1    1    2  501    0 -0.41048014674E+02  0.34288909042E+02 -0.75767728284E+03  0.75956272534E+03  0.00000000000E+00 0. -1.
          1    1    1    2  502    0  0.19969979446E+02 -0.58851642449E+02 -0.15728968655E+03  0.16912232671E+03  0.00000000000E+00 0. -1.
         22    1    3    3    0    0 -0.21279804565E+02  0.58689251923E+02 -0.95529776597E+03  0.95733540624E+03  0.00000000000E+00 0. -1.
         22    1    3    3    0    0  0.42357839792E+02 -0.34126518516E+02 -0.33256597913E+03  0.33698506841E+03  0.00000000000E+00 0. -1.
</event>
<event>
 7    1  0.5575489E-006  0.1056120E+03  0.7818608E-02  0.1390374E+00
          2   -1    0    0  502    0  0.00000000000E+00  0.00000000000E+00  0.70170665396E+03  0.70170665396E+03  0.00000000000E+00 0. -1.
          1   -1    0    0  501    0 -0.00000000000E+00 -0.00000000000E+00 -0.81856465946E+02  0.81856465946E+02  0.00000000000E+00 0. -1.
         25    2    1    2    0    0  0.11143127458E+03  0.44043278660E+00  0.31884582720E+03  0.36014466976E+03  0.12499759476E+03 0.  0.
          2    1    1    2  501    0 -0.99957386182E+02  0.33871052811E+02 -0.13892024404E+02  0.10645053130E+03  0.00000000000E+00 0. -1.
          1    1    1    2  502    0 -0.11473888399E+02 -0.34311485598E+02  0.31489638522E+03  0.31696791885E+03  0.00000000000E+00 0. -1.
         22    1    3    3    0    0  0.47348179211E+01  0.43557887231E+02  0.43606677132E+02  0.61816262676E+02  0.00000000000E+00 0.  1.
         22    1    3    3    0    0  0.10669645666E+03 -0.43117454445E+02  0.27523915007E+03  0.29832840708E+03  0.00000000000E+00 0.  1.
</event>
<event>
 7    1  0.5575489E-006  0.7662673E+02  0.7818608E-02  0.1391991E+00
          2   -1    0    0  502    0  0.00000000000E+00  0.00000000000E+00  0.64679975763E+03  0.64679975763E+03  0.00000000000E+00 0. -1.
          1   -1    0    0  501    0 -0.00000000000E+00 -0.00000000000E+00 -0.80926945048E+03  0.80926945048E+03  0.00000000000E+00 0. -1.
         25    2    1    2    0    0  0.35071574754E+02 -0.85697968686E+02 -0.21573342075E+03  0.26596930209E+03  0.12499841451E+03 0.  0.
          2    1    1    2  501    0  0.27173480862E+02  0.41041137958E+02 -0.56498399149E+03  0.56712404614E+03  0.00000000000E+00 0. -1.
          1    1    1    2  502    0 -0.62245055616E+02  0.44656830729E+02  0.61824771939E+03  0.62297585989E+03  0.00000000000E+00 0. -1.
         22    1    3    3    0    0  0.60260843613E+02  0.55739320480E+00 -0.12228049971E+03  0.13632388115E+03  0.00000000000E+00 0. -1.
         22    1    3    3    0    0 -0.25189268859E+02 -0.86255361891E+02 -0.93452921037E+02  0.12964542094E+03  0.00000000000E+00 0. -1.
</event>
<event>
 7    1  0.5575489E-006  0.1045001E+03  0.7818608E-02  0.1444462E+00
          2   -1    0    0  502    0  0.00000000000E+00  0.00000000000E+00  0.11592261048E+04  0.11592261048E+04  0.00000000000E+00 0. -1.
          1   -1    0    0  501    0 -0.00000000000E+00 -0.00000000000E+00 -0.10053772400E+03  0.10053772400E+03  0.00000000000E+00 0. -1.
         25    2    1    2    0    0  0.41769832761E+02  0.11756260895E+03  0.41978879454E+03  0.45542672884E+03  0.12500074946E+03 0.  0.
          2    1    1    2  501    0 -0.25454115659E+02 -0.99852591796E+02 -0.50334684503E+02  0.11468231144E+03  0.00000000000E+00 0. -1.
          1    1    1    2  502    0 -0.16315717102E+02 -0.17710017156E+02  0.68923427078E+03  0.68965478854E+03  0.00000000000E+00 0. -1.
         22    1    3    3    0    0  0.80818009299E+02  0.44327845930E+02  0.24968179646E+03  0.26615316650E+03  0.00000000000E+00 0.  1.
         22    1    3    3    0    0 -0.39048176538E+02  0.73234763023E+02  0.17010699808E+03  0.18927356234E+03  0.00000000000E+00 0.  1.
</event>
<event>
 7    1  0.5575489E-006  0.4914573E+02  0.7818608E-02  0.1541842E+00
          2   -1    0    0  502    0  0.00000000000E+00  0.00000000000E+00  0.78971410008E+02  0.78971410008E+02  0.00000000000E+00 0. -1.
          1   -1    0    0  501    0 -0.00000000000E+00 -0.00000000000E+00 -0.24703751919E+03  0.24703751919E+03  0.00000000000E+00 0. -1.
         25    2    1    2    0    0  0.32818924420E+02 -0.42549946499E+02 -0.91303165254E+02  0.16385531223E+03  0.12499886245E+03 0.  0.
          2    1    1    2  501    0 -0.75275654153E+01  0.48744856774E+02 -0.10963449040E+03  0.12021832967E+03  0.00000000000E+00 0. -1.
          1    1    1    2  502    0 -0.25291359005E+02 -0.61949102758E+01  0.32871546472E+02  0.41935287302E+02  0.00000000000E+00 0. -1.
         22    1    3    3    0    0  0.64709533800E+02 -0.68898728349E+02 -0.67240079420E+02  0.11599821901E+03  0.00000000000E+00 0.  1.
         22    1    3    3    0    0 -0.31890609379E+02  0.26348781850E+02 -0.24063085834E+02  0.47857093220E+02  0.00000000000E+00 0.  1.
</event>
<event>
 7    1  0.5575489E-006  0.3838620E+02  0.7818608E-02  0.1564024E+00
          2   -1    0    0  502    0  0.00000000000E+00  0.00000000000E+00  0.66793675663E+02  0.66793675663E+02  0.00000000000E+00 0. -1.
          1   -1    0    0  501    0 -0.00000000000E+00 -0.00000000000E+00 -0.41270084177E+03  0.41270084177E+03  0.00000000000E+00 0. -1.
         25    2    1    2    0    0 -0.25495590166E+01  0.59757590525E+02 -0.12711367726E+03  0.18804359752E+03  0.12500015098E+03 0.  0.
          2    1    1    2  501    0  0.15861900027E+02 -0.34076344278E+02 -0.24771248682E+03  0.25054794599E+03  0.00000000000E+00 0. -1.
          1    1    1    2  502    0 -0.13312341011E+02 -0.25681246248E+02  0.28918997977E+02  0.40902973926E+02  0.00000000000E+00 0. -1.
         22    1    3    3    0    0 -0.55521303229E+02  0.50924120203E+01 -0.26102164187E+02  0.61561926121E+02  0.00000000000E+00 0. -1.
         22    1    3    3    0    0  0.52971744212E+02  0.54665178505E+02 -0.10101151308E+03  0.12648167140E+03  0.00000000000E+00 0. -1.
</event>
<event>
 7    1  0.5575489E-006  0.1097719E+03  0.7818608E-02  0.1385544E+00
          2   -1    0    0  502    0  0.00000000000E+00  0.00000000000E+00  0.19726397779E+04  0.19726397779E+04  0.00000000000E+00 0. -1.
          1   -1    0    0  501    0 -0.00000000000E+00 -0.00000000000E+00 -0.20091942454E+03  0.20091942454E+03  0.00000000000E+00 0. -1.
         25    2    1    2    0    0  0.75528365088E+02  0.45130898064E+02  0.35421926271E+02  0.15691065419E+03  0.12499963458E+03 0.  0.
          2    1    1    2  501    0 -0.77680875426E+00  0.36181359964E+02 -0.13618443593E+03  0.14091094645E+03  0.00000000000E+00 0. -1.
          1    1    1    2  502    0 -0.74751556334E+02 -0.81312258027E+02  0.18724828631E+04  0.18757376018E+04  0.00000000000E+00 0. -1.
         22    1    3    3    0    0  0.22422647322E+02  0.78005371322E+02 -0.69120939938E+01  0.81457903922E+02  0.00000000000E+00 0. -1.
         22    1    3    3    0    0  0.53105717765E+02 -0.32874473258E+02  0.42334020265E+02  0.75452750269E+02  0.00000000000E+00 0. -1.
</event>
<event>
 7    1  0.5575489E-006  0.6389331E+02  0.7818608E-02  0.1463288E+00
          2   -1    0    0  502    0  0.00000000000E+00  0.00000000000E+00  0.56809968412E+02  0.56809968412E+02  0.00000000000E+00 0. -1.
          1   -1    0    0  501    0 -0.00000000000E+00 -0.00000000000E+00 -0.54040945516E+03  0.54040945516E+03  0.00000000000E+00 0. -1.
         25    2    1    2    0    0 -0.81326786741E+00 -0.43489390414E+02 -0.17640108537E+03  0.22053245379E+03  0.12500092708E+03 0.  0.
          2    1    1    2  501    0  0.28872557872E+02 -0.18533764701E+02 -0.30669712998E+03  0.30861019842E+03  0.00000000000E+00 0. -1.
          1    1    1    2  502    0 -0.28059290005E+02  0.62023155115E+02 -0.50127139591E+00  0.68076771361E+02  0.00000000000E+00 0. -1.
         22    1    3    3    0    0  0.30798742918E+02 -0.55831849117E+02 -0.17534635666E+03  0.18658001698E+03  0.00000000000E+00 0.  1.
         22    1    3    3    0    0 -0.31612010785E+02  0.12342458703E+02 -0.10547287108E+01  0.33952436810E+02  0.00000000000E+00 0.  1.
</event>
<event>
 7    1  0.5575489E-006  0.2675656E+03  0.7818608E-02  0.1249888E+00
          2   -1    0    0  502    0  0.00000000000E+00  0.00000000000E+00  0.91465263484E+03  0.91465263484E+03  0.00000000000E+00 0. -1.
          1   -1    0    0  501    0 -0.00000000000E+00 -0.00000000000E+00 -0.79096296279E+03  0.79096296279E+03  0.00000000000E+00 0. -1.
         25    2    1    2    0    0  0.18319583498E+03 -0.24740589952E+03 -0.20767894662E+03  0.39182123440E+03  0.12499176690E+03 0.  0.
          2    1    1    2  501    0 -0.45582985771E+02  0.21194397935E+02 -0.46852586493E+03  0.47121491615E+03  0.00000000000E+00 0. -1.
          1    1    1    2  502    0 -0.13761284920E+03  0.22621150158E+03  0.79989448361E+03  0.84257944707E+03  0.00000000000E+00 0. -1.
         22    1    3    3    0    0  0.13019157600E+02  0.10623166274E+02  0.38981606746E+01  0.17249515440E+02  0.00000000000E+00 0.  1.
         22    1    3    3    0    0  0.17017667738E+03 -0.25802906579E+03 -0.21157710730E+03  0.37457171896E+03  0.00000000000E+00 0.  1.
</event>
<event>
 7    1  0.5575489E-006  0.6857136E+02  0.7818608E-02  0.1418647E+00
          2   -1    0    0  502    0  0.00000000000E+00  0.00000000000E+00  0.51805275578E+03  0.51805275578E+03  0.00000000000E+00 0. -1.
          1   -1    0    0  501    0 -0.00000000000E+00 -0.00000000000E+00 -0.47129644545E+02  0.47129644545E+02  0.00000000000E+00 0. -1.
         25    2    1    2    0    0 -0.45040857051E+02  0.63496333717E+02  0.18864732213E+03  0.23931943860E+03  0.12500207338E+03 0.  0.
          2    1    1    2  501    0  0.76703741341E+00 -0.68965339205E+02  0.40448739137E+02  0.79955655558E+02  0.00000000000E+00 0. -1.
          1    1    1    2  502    0  0.44273819637E+02  0.54690054871E+01  0.24182704997E+03  0.24590730616E+03  0.00000000000E+00 0. -1.
         22    1    3    3    0    0 -0.76375796987E+02 -0.23236732989E-01  0.10122405744E+03  0.12680525506E+03  0.00000000000E+00 0.  1.
         22    1    3    3    0    0  0.31334939936E+02  0.63519570450E+02  0.87423264685E+02  0.11251418355E+03  0.00000000000E+00 0.  1.
</event>
<event>
 7    1  0.5575489E-006  0.7777256E+02  0.7818608E-02  0.1488200E+00
          2   -1    0    0  502    0  0.00000000000E+00  0.00000000000E+00  0.50045228148E+02  0.50045228148E+02  0.00000000000E+00 0. -1.
          1   -1    0    0  501    0 -0.00000000000E+00 -0.00000000000E+00 -0.51444652261E+03  0.51444652261E+03  0.00000000000E+00 0. -1.
         25    2    1    2    0    0 -0.30185959984E+02  0.82255444124E+02 -0.16189441970E+03  0.22251308187E+03  0.12500047282E+03 0.  0.
          2    1    1    2  501    0  0.43735871522E+02 -0.62916352657E+02 -0.30828799865E+03  0.31766772578E+03  0.00000000000E+00 0. -1.
          1    1    1    2  502    0 -0.13549911539E+02 -0.19339091468E+02  0.57811238884E+01  0.24310943110E+02  0.00000000000E+00 0. -1.
         22    1    3    3    0    0  0.25406044676E+02  0.57638094084E+02 -0.16793378106E+02  0.65189221071E+02  0.00000000000E+00 0. -1.
         22    1    3    3    0    0 -0.55592004660E+02  0.24617350041E+02 -0.14510104160E+03  0.15732386080E+03  0.00000000000E+00 0. -1.
</event>
<event>
 7    1  0.5575489E-006  0.9909695E+02  0.7818608E-02  0.1371232E+00
          2   -1    0    0  502    0  0.00000000000E+00  0.00000000000E+00  0.34557445328E+04  0.34557445328E+04  0.00000000000E+00 0. -1.
          1   -1    0    0  501    0 -0.00000000000E+00 -0.00000000000E+00 -0.21550770678E+03  0.21550770678E+03  0.00000000000E+00 0. -1.
         25    2    1    2    0    0  0.64195229841E+01  0.11241736872E+03  0.92933286290E+03  0.94443846862E+03  0.12500230354E+03 0.  0.
          2    1    1    2  501    0 -0.40362362356E+02 -0.20041092837E+02 -0.20453996685E+03  0.20944537172E+03  0.00000000000E+00 0. -1.
          1    1    1    2  502    0  0.33942839372E+02 -0.92376275879E+02  0.25154439300E+04  0.25173683993E+04  0.00000000000E+00 0. -1.
         22    1    3    3    0    0  0.36646840914E+02  0.10006218634E+03  0.87176604681E+03  0.87825478789E+03  0.00000000000E+00 0.  1.
         22    1    3    3    0    0 -0.30227317930E+02  0.12355182375E+02  0.57566816088E+02  0.66183680732E+02  0.00000000000E+00 0.  1.
</event>
<event>
 7    1  0.5575489E-006  0.6361112E+02  0.7818608E-02  0.1499409E+00
          2   -1    0    0  502    0  0.00000000000E+00  0.00000000000E+00  0.19769032665E+04  0.19769032665E+04  0.00000000000E+00 0. -1.
          1   -1    0    0  501    0 -0.00000000000E+00 -0.00000000000E+00 -0.48251749727E+03  0.48251749727E+03  0.00000000000E+00 0. -1.
         25    2    1    2    0    0  0.87249614340E+01 -0.63207024256E+02 -0.41397623856E+02  0.14631654226E+03  0.12499405751E+03 0.  0.
          2    1    1    2  501    0  0.25052963399E+02  0.92694102421E+01 -0.38767451713E+03  0.38859375211E+03  0.00000000000E+00 0. -1.
          1    1    1    2  502    0 -0.33777924833E+02  0.53937614014E+02  0.19234579102E+04  0.19245104694E+04  0.00000000000E+00 0. -1.
         22    1    3    3    0    0 -0.18838638588E+02 -0.86742765913E+02 -0.58429461735E+02  0.10626948640E+03  0.00000000000E+00 0. -1.
         22    1    3    3    0    0  0.27563600022E+02  0.23535741657E+02  0.17031837878E+02  0.40047055860E+02  0.00000000000E+00 0. -1.
</event>
<event>
 7    1  0.5575489E-006  0.1431782E+03  0.7818608E-02  0.1262803E+00
          2   -1    0    0  502    0  0.00000000000E+00  0.00000000000E+00  0.64627479819E+03  0.64627479819E+03  0.00000000000E+00 0. -1.
          1   -1    0    0  501    0 -0.00000000000E+00 -0.00000000000E+00 -0.15613977594E+03  0.15613977594E+03  0.00000000000E+00 0. -1.
         25    2    1    2    0    0 -0.13295270038E+03 -0.14552727803E+03  0.19021669464E+03  0.30110112210E+03  0.12499954249E+03 0.  0.
          2    1    1    2  501    0  0.11814682604E+03  0.64183257952E+02 -0.48716562067E+02  0.14300862395E+03  0.00000000000E+00 0. -1.
          1    1    1    2  502    0  0.14805874338E+02  0.81344020078E+02  0.34863488968E+03  0.35830482807E+03  0.00000000000E+00 0. -1.
         22    1    3    3    0    0 -0.10724050198E+03 -0.36364594975E+02  0.56410711679E+02  0.12651117510E+03  0.00000000000E+00 0. -1.
         22    1    3    3    0    0 -0.25712198391E+02 -0.10916268305E+03  0.13380598296E+03  0.17458994700E+03  0.00000000000E+00 0. -1.
</event>
<event>
 7    1  0.5575489E-006  0.3237864E+02  0.7818608E-02  0.1605645E+00
          2   -1    0    0  502    0  0.00000000000E+00  0.00000000000E+00  0.12138425996E+04  0.12138425996E+04  0.00000000000E+00 0. -1.
          1   -1    0    0  501    0 -0.00000000000E+00 -0.00000000000E+00 -0.24103779484E+03  0.24103779484E+03  0.00000000000E+00 0. -1.
         25    2    1    2    0    0  0.31597258575E+02 -0.12027413109E+02  0.48933149646E+03  0.50617522696E+03  0.12500000617E+03 0.  0.
          2    1    1    2  501    0 -0.21768776981E+01  0.26474257977E+02 -0.23148089922E+03  0.23300006832E+03  0.00000000000E+00 0. -1.
          1    1    1    2  502    0 -0.29420380876E+02 -0.14446844868E+02  0.71495420754E+03  0.71570509920E+03  0.00000000000E+00 0. -1.
         22    1    3    3    0    0  0.19098511738E+02  0.10136156353E+01  0.48765971849E+03  0.48803461107E+03  0.00000000000E+00 0. -1.
         22    1    3    3    0    0  0.12498746836E+02 -0.13041028744E+02  0.16717779715E+01  0.18140615887E+02  0.00000000000E+00 0. -1.
</event>
<event>
 7    1  0.5575489E-006  0.5725038E+02  0.7818608E-02  0.1416090E+00
          2   -1    0    0  502    0  0.00000000000E+00  0.00000000000E+00  0.10511921239E+04  0.10511921239E+04  0.00000000000E+00 0. -1.
          1   -1    0    0  501    0 -0.00000000000E+00 -0.00000000000E+00 -0.61702533653E+03  0.61702533653E+03  0.00000000000E+00 0. -1.
         25    2    1    2    0    0 -0.96401191043E+02  0.16116875537E+02  0.11243143840E+02  0.15907193333E+03  0.12499811349E+03 0.  0.
          2    1    1    2  501    0  0.45080581991E+02 -0.34450871686E+02 -0.54085726823E+03  0.54382506932E+03  0.00000000000E+00 0. -1.
          1    1    1    2  502    0  0.51320609052E+02  0.18333996149E+02  0.96378091175E+03  0.96532045777E+03  0.00000000000E+00 0. -1.
         22    1    3    3    0    0 -0.12683597340E+03  0.11226374197E+02  0.39368258141E+01  0.12739267728E+03  0.00000000000E+00 0.  1.
         22    1    3    3    0    0  0.30434782359E+02  0.48905013402E+01  0.73063180259E+01  0.31679256047E+02  0.00000000000E+00 0.  1.
</event>
<event>
 7    1  0.5575489E-006  0.1038328E+03  0.7818608E-02  0.1469247E+00
          2   -1    0    0  502    0  0.00000000000E+00  0.00000000000E+00  0.74093685046E+03  0.74093685046E+03  0.00000000000E+00 0. -1.
          1   -1    0    0  501    0 -0.00000000000E+00 -0.00000000000E+00 -0.56091456567E+03  0.56091456567E+03  0.00000000000E+00 0. -1.
         25    2    1    2    0    0  0.23049066512E+02 -0.94364540947E+02  0.27664872407E+03  0.31874101532E+03  0.12500156903E+03 0.  0.
          2    1    1    2  501    0  0.20040913625E+02 -0.27256499332E+01 -0.53330992953E+03  0.53369330923E+03  0.00000000000E+00 0. -1.
          1    1    1    2  502    0 -0.43089980138E+02  0.97090190880E+02  0.43668349025E+03  0.44941709158E+03  0.00000000000E+00 0. -1.
         22    1    3    3    0    0  0.39066843687E+02  0.19082439665E+02  0.84419875942E+02  0.94958271010E+02  0.00000000000E+00 0. -1.
         22    1    3    3    0    0 -0.16017777174E+02 -0.11344698061E+03  0.19222884813E+03  0.22378274431E+03  0.00000000000E+00 0. -1.
</event>
<event>
 7    1  0.5575489E-006  0.5669204E+02  0.7818608E-02  0.1456070E+00
          2   -1    0    0  502    0  0.00000000000E+00  0.00000000000E+00  0.28798079036E+04  0.28798079036E+04  0.00000000000E+00 0. -1.
          1   -1    0    0  501    0 -0.00000000000E+00 -0.00000000000E+00 -0.38921912988E+03  0.38921912988E+03  0.00000000000E+00 0. -1.
         25    2    1    2    0    0  0.75312151040E+01 -0.25742400513E+02  0.35995577689E+03  0.38198531218E+03  0.12500090808E+03 0.  0.
          2    1    1    2  501    0  0.23949671824E+02  0.51617143693E+02 -0.37589749143E+03  0.38018001048E+03  0.00000000000E+00 0. -1.
          1    1    1    2  502    0 -0.31480886928E+02 -0.25874743180E+02  0.25065304883E+04  0.25068617109E+04  0.00000000000E+00 0. -1.
         22    1    3    3    0    0  0.22980857702E+02  0.42484859875E+02  0.22330838373E+03  0.22847257468E+03  0.00000000000E+00 0. -1.
         22    1    3    3    0    0 -0.15449642598E+02 -0.68227260388E+02  0.13664739316E+03  0.15351273750E+03  0.00000000000E+00 0. -1.
</event>
<event>
 7    1  0.5575489E-006  0.1069798E+03  0.7818608E-02  0.1414836E+00
          2   -1    0    0  502    0  0.00000000000E+00  0.00000000000E+00  0.98729376916E+02  0.98729376916E+02  0.00000000000E+00 0. -1.
          1   -1    0    0  501    0 -0.00000000000E+00 -0.00000000000E+00 -0.27251477175E+04  0.27251477175E+04  0.00000000000E+00 0. -1.
         25    2    1    2    0    0  0.18764137171E+02  0.92466004523E+02 -0.16623652051E+03  0.22839760350E+03  0.12501531784E+03 0.  0.
          2    1    1    2  501    0  0.66434360318E+01 -0.10735497113E+03 -0.25234248999E+04  0.25257162252E+04  0.00000000000E+00 0. -1.
          1    1    1    2  502    0 -0.25407573203E+02  0.14888966603E+02  0.63243079782E+02  0.69763265712E+02  0.00000000000E+00 0. -1.
         22    1    3    3    0    0  0.51534492541E+02  0.31765449688E+02 -0.14353078178E+03  0.15577526451E+03  0.00000000000E+00 0. -1.
         22    1    3    3    0    0 -0.32770355370E+02  0.60700554835E+02 -0.22705738732E+02  0.72622338985E+02  0.00000000000E+00 0. -1.
</event>
<event>
 7    1  0.5575489E-006  0.1426963E+03  0.7818608E-02  0.1342896E+00
          2   -1    0    0  502    0  0.00000000000E+00  0.00000000000E+00  0.67100276788E+02  0.67100276788E+02  0.00000000000E+00 0. -1.
          1   -1    0    0  501    0 -0.00000000000E+00 -0.00000000000E+00 -0.85218766798E+03  0.85218766798E+03  0.00000000000E+00 0. -1.
         25    2    1    2    0    0 -0.12100332569E+03 -0.99288561292E+02 -0.18830047781E+03  0.27492147935E+03  0.12499890654E+03 0.  0.
          2    1    1    2  501    0  0.39375071404E+02 -0.54603145352E+01 -0.42684170663E+03  0.42868876099E+03  0.00000000000E+00 0. -1.
          1    1    1    2  502    0  0.81628254287E+02  0.10474887583E+03 -0.16994520676E+03  0.21567770443E+03  0.00000000000E+00 0. -1.
         22    1    3    3    0    0  0.40014708493E+01 -0.34306173854E+02  0.58591412228E+01  0.35032197609E+02  0.00000000000E+00 0. -1.
         22    1    3    3    0    0 -0.12500479654E+03 -0.64982387438E+02 -0.19415961903E+03  0.23988928175E+03  0.00000000000E+00 0. -1.
</event>
<event>
 7    1  0.5575489E-006  0.1033532E+03  0.7818608E-02  0.1407400E+00
          2   -1    0    0  502    0  0.00000000000E+00  0.00000000000E+00  0.25053329864E+02  0.25053329864E+02  0.00000000000E+00 0. -1.
          1   -1    0    0  501    0 -0.00000000000E+00 -0.00000000000E+00 -0.33880258480E+04  0.33880258480E+04  0.00000000000E+00 0. -1.
         25    2    1    2    0    0 -0.51492822313E+02  0.65029105922E+02 -0.13006108526E+04  0.13092341478E+04  0.12500067318E+03 0.  0.
          2    1    1    2  501    0  0.79608682939E+01  0.31303556199E+02 -0.19474013923E+04  0.19476692406E+04  0.00000000000E+00 0. -1.
          1    1    1    2  502    0  0.43531954019E+02 -0.96332662122E+02 -0.11496027319E+03  0.15617578949E+03  0.00000000000E+00 0. -1.
         22    1    3    3    0    0 -0.45169332517E+02  0.68841149394E+02 -0.12990885417E+04  0.13016952069E+04  0.00000000000E+00 0. -1.
         22    1    3    3    0    0 -0.63234897960E+01 -0.38120434714E+01 -0.15223109127E+01  0.75389408502E+01  0.00000000000E+00 0. -1.
</event>
<event>
 7    1  0.5575489E-006  0.1037558E+03  0.7818608E-02  0.1326677E+00
          2   -1    0    0  502    0  0.00000000000E+00  0.00000000000E+00  0.14818546227E+04  0.14818546227E+04  0.00000000000E+00 0. -1.
          1   -1    0    0  501    0 -0.00000000000E+00 -0.00000000000E+00 -0.73651377158E+03  0.73651377158E+03  0.00000000000E+00 0. -1.
         25    2    1    2    0    0  0.13079704455E+03 -0.89398125513E+02  0.43227767929E+03  0.47706295336E+03  0.12500071097E+03 0.  0.
          2    1    1    2  501    0 -0.58756676506E+02  0.22701409052E+02 -0.71037855046E+03  0.71316574929E+03  0.00000000000E+00 0. -1.
          1    1    1    2  502    0 -0.72040368043E+02  0.66696716461E+02  0.10234417223E+04  0.10281396916E+04  0.00000000000E+00 0. -1.
         22    1    3    3    0    0 -0.15303026487E+02  0.97171781475E+01  0.13531187361E+02  0.22620769267E+02  0.00000000000E+00 0. -1.
         22    1    3    3    0    0  0.14610007104E+03 -0.99115303660E+02  0.41874649193E+03  0.45444218409E+03  0.00000000000E+00 0. -1.
</event>
<event>
 7    1  0.5575489E-006  0.1359538E+03  0.7818608E-02  0.1272521E+00
          2   -1    0    0  502    0  0.00000000000E+00  0.00000000000E+00  0.79434198144E+03  0.79434198144E+03  0.00000000000E+00 0. -1.
          1   -1    0    0  501    0 -0.00000000000E+00 -0.00000000000E+00 -0.16193553975E+04  0.16193553975E+04  0.00000000000E+00 0. -1.
         25    2    1    2    0    0 -0.52359321151E+02  0.37639664183E+02 -0.12133864058E+03  0.18575901413E+03  0.12500041119E+03 0.  0.
          2    1    1    2  501    0 -0.33136772351E+02  0.71974830806E+02 -0.14583830408E+04  0.14605339831E+04  0.00000000000E+00 0. -1.
          1    1    1    2  502    0  0.85496093502E+02 -0.10961449499E+03  0.75470826529E+03  0.76740438180E+03  0.00000000000E+00 0. -1.
         22    1    3    3    0    0 -0.35440053345E+02  0.38100719378E+02 -0.14648187053E+03  0.15544967222E+03  0.00000000000E+00 0.  1.
         22    1    3    3    0    0 -0.16919267805E+02 -0.46105519495E+00  0.25143229945E+02  0.30309341910E+02  0.00000000000E+00 0.  1.
</event>
<event>
 7    1  0.5575489E-006  0.6147267E+02  0.7818608E-02  0.1439272E+00
          2   -1    0    0  502    0  0.00000000000E+00  0.00000000000E+00  0.11743057561E+04  0.11743057561E+04  0.00000000000E+00 0. -1.
          1   -1    0    0  501    0 -0.00000000000E+00 -0.00000000000E+00 -0.18156674882E+04  0.18156674882E+04  0.00000000000E+00 0. -1.
         25    2    1    2    0    0  0.88206948574E+02 -0.14884715500E+02  0.41419885179E+03  0.44180080774E+03  0.12500097746E+03 0.  0.
          2    1    1    2  501    0 -0.50623028974E+02  0.34831613283E+02 -0.18007355521E+04  0.18017836887E+04  0.00000000000E+00 0. -1.
          1    1    1    2  502    0 -0.37583919600E+02 -0.19946897783E+02  0.74517496821E+03  0.74638874790E+03  0.00000000000E+00 0. -1.
         22    1    3    3    0    0 -0.10162909877E+02 -0.26436026695E+02  0.18345962666E+02  0.33744963932E+02  0.00000000000E+00 0. -1.
         22    1    3    3    0    0  0.98369858451E+02  0.11551311195E+02  0.39585288912E+03  0.40805584381E+03  0.00000000000E+00 0. -1.
</event>
<event>
 7    1  0.5575489E-006  0.6292668E+02  0.7818608E-02  0.1386192E+00
          2   -1    0    0  502    0  0.00000000000E+00  0.00000000000E+00  0.43847849263E+02  0.43847849263E+02  0.00000000000E+00 0. -1.
          1   -1    0    0  501    0 -0.00000000000E+00 -0.00000000000E+00 -0.14358751398E+04  0.14358751398E+04  0.00000000000E+00 0. -1.
         25    2    1    2    0    0 -0.67092868882E+01  0.19418097431E+02 -0.81061024088E+03  0.82044883015E+03  0.12500097298E+03 0.  0.
          2    1    1    2  501    0 -0.57863158894E+02 -0.24730991135E+02 -0.59050575197E+03  0.59384914767E+03  0.00000000000E+00 0. -1.
          1    1    1    2  502    0  0.64572445782E+02  0.53128937039E+01  0.90887022573E+01  0.65425011292E+02  0.00000000000E+00 0. -1.
         22    1    3    3    0    0 -0.45798619755E+02 -0.33415319420E+01 -0.69175551208E+03  0.69327798746E+03  0.00000000000E+00 0.  1.
         22    1    3    3    0    0  0.39089332867E+02  0.22759629373E+02 -0.11885472880E+03  0.12717084269E+03  0.00000000000E+00 0.  1.
</event>
<event>
 7    1  0.5575489E-006  0.8109903E+02  0.7818608E-02  0.1388926E+00
          2   -1    0    0  502    0  0.00000000000E+00  0.00000000000E+00  0.12456147313E+03  0.12456147313E+03  0.00000000000E+00 0. -1.
          1   -1    0    0  501    0 -0.00000000000E+00 -0.00000000000E+00 -0.12547028041E+04  0.12547028041E+04  0.00000000000E+00 0. -1.
         25    2    1    2    0    0  0.10820059291E+03 -0.27119553639E+02 -0.42183437497E+03  0.45388609107E+03  0.12500202102E+03 0.  0.
          2    1    1    2  501    0 -0.28633139190E+02  0.38107640536E+02 -0.80117576814E+03  0.80259246220E+03  0.00000000000E+00 0. -1.
          1    1    1    2  502    0 -0.79567453717E+02 -0.10988086896E+02  0.92868812131E+02  0.12278572397E+03  0.00000000000E+00 0. -1.
         22    1    3    3    0    0  0.67405204518E+02 -0.67520965364E+00 -0.64621892112E+02  0.93380439302E+02  0.00000000000E+00 0.  1.
         22    1    3    3    0    0  0.40795388389E+02 -0.26444343986E+02 -0.35721248286E+03  0.36050565176E+03  0.00000000000E+00 0.  1.
</event>
<event>
 7    1  0.5575489E-006  0.8266560E+02  0.7818608E-02  0.1453055E+00
          2   -1    0    0  502    0  0.00000000000E+00  0.00000000000E+00  0.12818973378E+04  0.12818973378E+04  0.00000000000E+00 0. -1.
          1   -1    0    0  501    0 -0.00000000000E+00 -0.00000000000E+00 -0.79773466234E+03  0.79773466234E+03  0.00000000000E+00 0. -1.
         25    2    1    2    0    0  0.55511860979E+02 -0.67388939381E+02  0.23456940856E+03  0.27976954946E+03  0.12500143002E+03 0.  0.
          2    1    1    2  501    0  0.15021614366E+02  0.24301992758E+02 -0.77320368784E+03  0.77373133492E+03  0.00000000000E+00 0. -1.
          1    1    1    2  502    0 -0.70533475346E+02  0.43086946623E+02  0.10227969547E+04  0.10261311157E+04  0.00000000000E+00 0. -1.
         22    1    3    3    0    0  0.85908935441E+02 -0.20318659644E+02  0.96627960462E+02  0.13088222133E+03  0.00000000000E+00 0. -1.
         22    1    3    3    0    0 -0.30397074462E+02 -0.47070279737E+02  0.13794144810E+03  0.14888732812E+03  0.00000000000E+00 0. -1.
</event>
<event>
 7    1  0.5575489E-006  0.5590631E+02  0.7818608E-02  0.1422901E+00
          2   -1    0    0  502    0  0.00000000000E+00  0.00000000000E+00  0.65133454533E+03  0.65133454533E+03  0.00000000000E+00 0. -1.
          1   -1    0    0  501    0 -0.00000000000E+00 -0.00000000000E+00 -0.94443317853E+02  0.94443317853E+02  0.00000000000E+00 0. -1.
         25    2    1    2    0    0  0.14359348755E+01 -0.25540316380E+02  0.13221153546E+03  0.18373399841E+03  0.12499568950E+03 0.  0.
          2    1    1    2  501    0 -0.54378829611E+02  0.24312019688E+02 -0.54026350131E+02  0.80417522467E+02  0.00000000000E+00 0. -1.
          1    1    1    2  502    0  0.52942894736E+02  0.12282966915E+01  0.47870604215E+03  0.48162634231E+03  0.00000000000E+00 0. -1.
         22    1    3    3    0    0 -0.42281304607E+02  0.97699093876E+01  0.37965054766E+01  0.43561144413E+02  0.00000000000E+00 0.  1.
         22    1    3    3    0    0  0.43717239483E+02 -0.35310225767E+02  0.12841502999E+03  0.14017285400E+03  0.00000000000E+00 0.  1.
</event>
<event>
 7    1  0.5575489E-006  0.4552727E+02  0.7818608E-02  0.1534038E+00
          2   -1    0    0  502    0  0.00000000000E+00  0.00000000000E+00  0.16165391763E+04  0.16165391763E+04  0.00000000000E+00 0. -1.
          1   -1    0    0  501    0 -0.00000000000E+00 -0.00000000000E+00 -0.37853641073E+02  0.37853641073E+02  0.00000000000E+00 0. -1.
         25    2    1    2    0    0  0.17125074346E+02  0.37202976996E+01  0.17278014543E+03  0.21397518444E+03  0.12500116846E+03 0.  0.
          2    1    1    2  501    0  0.23508083427E+02  0.17949639695E+02 -0.39238609705E+01  0.29836491693E+02  0.00000000000E+00 0. -1.
          1    1    1    2  502    0 -0.40633157774E+02 -0.21669937395E+02  0.14098292508E+04  0.14105811412E+04  0.00000000000E+00 0. -1.
         22    1    3    3    0    0  0.46659553802E+02 -0.46870536866E+02  0.75046792243E+02  0.10002990659E+03  0.00000000000E+00 0. -1.
         22    1    3    3    0    0 -0.29534479456E+02  0.50590834566E+02  0.97733353183E+02  0.11394527784E+03  0.00000000000E+00 0. -1.
</event>
<event>
 7    1  0.5575489E-006  0.1288107E+03  0.7818608E-02  0.1324299E+00
          2   -1    0    0  502    0  0.00000000000E+00  0.00000000000E+00  0.77474895164E+03  0.77474895164E+03  0.00000000000E+00 0. -1.
          1   -1    0    0  501    0 -0.00000000000E+00 -0.00000000000E+00 -0.23959424884E+03  0.23959424884E+03  0.00000000000E+00 0. -1.
         25    2    1    2    0    0  0.66389225524E+02 -0.13094600589E+03  0.47869527830E+03  0.51607037835E+03  0.12500032085E+03 0.  0.
          2    1    1    2  501    0  0.19451715501E+02  0.48028265694E+02 -0.20468829872E+03  0.21114540766E+03  0.00000000000E+00 0. -1.
          1    1    1    2  502    0 -0.85840941026E+02  0.82917740194E+02  0.26114772322E+03  0.28712741447E+03  0.00000000000E+00 0. -1.
         22    1    3    3    0    0  0.20056243073E+02 -0.14270866093E+03  0.33669034266E+03  0.36623544562E+03  0.00000000000E+00 0. -1.
         22    1    3    3    0    0  0.46332982451E+02  0.11762655047E+02  0.14200493565E+03  0.14983493273E+03  0.00000000000E+00 0. -1.
</event>
<event>
 7    1  0.5575489E-006  0.1198878E+03  0.7818608E-02  0.1313114E+00
          2   -1    0    0  502    0  0.00000000000E+00  0.00000000000E+00  0.18487192677E+04  0.18487192677E+04  0.00000000000E+00 0. -1.
          1   -1    0    0  501    0 -0.00000000000E+00 -0.00000000000E+00 -0.81075502965E+02  0.81075502965E+02  0.00000000000E+00 0. -1.
         25    2    1    2    0    0 -0.10928078085E+03  0.74841777155E+02  0.26365562131E+03  0.32043793372E+03  0.12499040783E+03 0.  0.
          2    1    1    2  501    0 -0.98880668664E+01 -0.60738003910E+02 -0.31538188670E+02  0.69148653855E+02  0.00000000000E+00 0. -1.
          1    1    1    2  502    0  0.11916884772E+03 -0.14103773245E+02  0.15355263321E+04  0.15402081831E+04  0.00000000000E+00 0. -1.
         22    1    3    3    0    0  0.14201339606E+02  0.27509682556E+02  0.12521574784E+03  0.12898621705E+03  0.00000000000E+00 0. -1.
         22    1    3    3    0    0 -0.12348212046E+03  0.47332094599E+02  0.13843987346E+03  0.19145171667E+03  0.00000000000E+00 0. -1.
</event>
<event>
 7    1  0.5575489E-006  0.1265258E+03  0.7818608E-02  0.1263743E+00
          2   -1    0    0  502    0  0.00000000000E+00  0.00000000000E+00  0.24518550008E+04  0.24518550008E+04  0.00000000000E+00 0. -1.
          1   -1    0    0  501    0 -0.00000000000E+00 -0.00000000000E+00 -0.22650586038E+03  0.22650586038E+03  0.00000000000E+00 0. -1.
         25    2    1    2    0    0 -0.85186935461E+02  0.17777345642E+02 -0.56128690584E+02  0.16232117282E+03  0.12499954099E+03 0.  0.
          2    1    1    2  501    0  0.17756896254E+03 -0.10026555791E+02 -0.48398626117E+02  0.18431954669E+03  0.00000000000E+00 0. -1.
          1    1    1    2  502    0 -0.92382027084E+02 -0.77507898501E+01  0.23298764571E+04  0.23317201417E+04  0.00000000000E+00 0. -1.
         22    1    3    3    0    0 -0.44239627114E+02 -0.21058944737E+02 -0.85617692403E+02  0.98645897091E+02  0.00000000000E+00 0. -1.
         22    1    3    3    0    0 -0.40947308347E+02  0.38836290378E+02  0.29489001818E+02  0.63675275731E+02  0.00000000000E+00 0. -1.
</event>
<event>
 7    1  0.5575489E-006  0.5839378E+02  0.7818608E-02  0.1413132E+00
          2   -1    0    0  502    0  0.00000000000E+00  0.00000000000E+00  0.88906511067E+02  0.88906511067E+02  0.00000000000E+00 0. -1.
          1   -1    0    0  501    0 -0.00000000000E+00 -0.00000000000E+00 -0.10977026263E+04  0.10977026263E+04  0.00000000000E+00 0. -1.
         25    2    1    2    0    0  0.86202696059E+02  0.43301361587E+02 -0.24639880746E+03  0.29264757269E+03  0.12499726700E+03 0.  0.
          2    1    1    2  501    0 -0.31708604729E+02 -0.47674176411E+02 -0.81564145763E+03  0.81764861042E+03  0.00000000000E+00 0. -1.
          1    1    1    2  502    0 -0.54494091330E+02  0.43728148236E+01  0.53244149839E+02  0.76312954283E+02  0.00000000000E+00 0. -1.
         22    1    3    3    0    0 -0.16150627052E+02  0.45959967042E+02 -0.12304233651E+03  0.13233509700E+03  0.00000000000E+00 0.  1.
         22    1    3    3    0    0  0.10235332311E+03 -0.26586054544E+01 -0.12335647095E+03  0.16031247569E+03  0.00000000000E+00 0.  1.
</event>
<event>
 7    1  0.5575489E-006  0.9974893E+02  0.7818608E-02  0.1396201E+00
          2   -1    0    0  502    0  0.00000000000E+00  0.00000000000E+00  0.10328195688E+04  0.10328195688E+04  0.00000000000E+00 0. -1.
          1   -1    0    0  501    0 -0.00000000000E+00 -0.00000000000E+00 -0.98161974810E+02  0.98161974810E+02  0.00000000000E+00 0. -1.
         25    2    1    2    0    0  0.87429961255E+02  0.91910387263E+02  0.42612191576E+03  0.46184221069E+03  0.12500729208E+03 0.  0.
          2    1    1    2  501    0 -0.80500514501E+02 -0.56011282627E+02 -0.49536895518E+02  0.10987038106E+03  0.00000000000E+00 0. -1.
          1    1    1    2  502    0 -0.69294467546E+01 -0.35899104636E+02  0.55807257370E+03  0.55926895181E+03  0.00000000000E+00 0. -1.
         22    1    3    3    0    0  0.71132479932E+02  0.25013273637E+02  0.35473792018E+03  0.36266304688E+03  0.00000000000E+00 0. -1.
         22    1    3    3    0    0  0.16297481323E+02  0.66897113626E+02  0.71383995580E+02  0.99179163809E+02  0.00000000000E+00 0. -1.
</event>
<event>
 7    1  0.5575489E-006  0.1221980E+03  0.7818608E-02  0.1246597E+00
          2   -1    0    0  502    0  0.00000000000E+00  0.00000000000E+00  0.55000974288E+03  0.55000974288E+03  0.00000000000E+00 0. -1.
          1   -1    0    0  501    0 -0.00000000000E+00 -0.00000000000E+00 -0.86146348981E+03  0.86146348981E+03  0.00000000000E+00 0. -1.
         25    2    1    2    0    0 -0.16492255292E+03 -0.12353631040E+03 -0.24806703025E+03  0.34586706600E+03  0.12500442951E+03 0.  0.
          2    1    1    2  501    0  0.53448972413E+02  0.10084517518E+03 -0.55212742204E+03  0.56380070254E+03  0.00000000000E+00 0. -1.
          1    1    1    2  502    0  0.11147358050E+03  0.22691135220E+02  0.48874070537E+03  0.50180546415E+03  0.00000000000E+00 0. -1.
         22    1    3    3    0    0 -0.12934593133E+03 -0.21244079887E+02 -0.15566906447E+03  0.20350562281E+03  0.00000000000E+00 0.  1.
         22    1    3    3    0    0 -0.35576621585E+02 -0.10229223051E+03 -0.92397965782E+02  0.14236144319E+03  0.00000000000E+00 0.  1.
</event>
<event>
 7    1  0.5575489E-006  0.6694688E+02  0.7818608E-02  0.1456605E+00
          2   -1    0    0  502    0  0.00000000000E+00  0.00000000000E+00  0.16168144620E+04  0.16168144620E+04  0.00000000000E+00 0. -1.
          1   -1    0    0  501    0 -0.00000000000E+00 -0.00000000000E+00 -0.32323562898E+03  0.32323562898E+03  0.00000000000E+00 0. -1.
         25    2    1    2    0    0 -0.85045963637E+02 -0.54159959877E+02  0.10233807882E+04  0.10359050132E+04  0.12499936564E+03 0.  0.
          2    1    1    2  501    0  0.58483913520E+02  0.32343058863E+02 -0.31293906163E+03  0.31999577792E+03  0.00000000000E+00 0. -1.
          1    1    1    2  502    0  0.26562050117E+02  0.21816901014E+02  0.58313710639E+03  0.58414929986E+03  0.00000000000E+00 0. -1.
         22    1    3    3    0    0 -0.34556686691E+02 -0.91470226539E+02  0.61244149547E+03  0.62019799445E+03  0.00000000000E+00 0.  1.
         22    1    3    3    0    0 -0.50489276946E+02  0.37310266663E+02  0.41093929274E+03  0.41570701871E+03  0.00000000000E+00 0.  1.
</event>
<event>
 7    1  0.5575489E-006  0.1433447E+03  0.7818608E-02  0.1245546E+00
          2   -1    0    0  502    0  0.00000000000E+00  0.00000000000E+00  0.29669914437E+03  0.29669914437E+03  0.00000000000E+00 0. -1.
          1   -1    0    0  501    0 -0.00000000000E+00 -0.00000000000E+00 -0.16731796658E+04  0.16731796658E+04  0.00000000000E+00 0. -1.
         25    2    1    2    0    0 -0.85018805072E+02 -0.18342872489E+02 -0.52504378578E+03  0.54668092700E+03  0.12499760304E+03 0.  0.
          2    1    1    2  501    0  0.18233140171E+03  0.66954115018E+01 -0.11213216200E+04  0.11360685472E+04  0.00000000000E+00 0. -1.
          1    1    1    2  502    0 -0.97312596636E+02  0.11647460987E+02  0.26988488429E+03  0.28712933598E+03  0.00000000000E+00 0. -1.
         22    1    3    3    0    0 -0.63428281301E+02  0.32824642471E+02 -0.13522643703E+03  0.15292741185E+03  0.00000000000E+00 0.  1.
         22    1    3    3    0    0 -0.21590523771E+02 -0.51167514959E+02 -0.38981734875E+03  0.39375351515E+03  0.00000000000E+00 0.  1.
</event>
<event>
 7    1  0.5575489E-006  0.5567325E+02  0.7818608E-02  0.1455296E+00
          2   -1    0    0  502    0  0.00000000000E+00  0.00000000000E+00  0.84616244228E+02  0.84616244228E+02  0.00000000000E+00 0. -1.
          1   -1    0    0  501    0 -0.00000000000E+00 -0.00000000000E+00 -0.20428243417E+04  0.20428243417E+04  0.00000000000E+00 0. -1.
         25    2    1    2    0    0 -0.58192168329E+02  0.11854111087E+02 -0.48881273089E+02  0.14676840438E+03  0.12499894903E+03 0.  0.
          2    1    1    2  501    0  0.82860210588E+01 -0.40899998714E+02 -0.19212563236E+04  0.19217094809E+04  0.00000000000E+00 0. -1.
          1    1    1    2  502    0  0.49906147270E+02  0.29045887626E+02  0.11929499162E+02  0.58962700698E+02  0.00000000000E+00 0. -1.
         22    1    3    3    0    0  0.18824963870E+02  0.38486087033E+02  0.12631713455E+02  0.44666747639E+02  0.00000000000E+00 0.  1.
         22    1    3    3    0    0 -0.77017132199E+02 -0.26631975946E+02 -0.61512986544E+02  0.10210165674E+03  0.00000000000E+00 0.  1.
</event>
<event>
 7    1  0.5575489E-006  0.1243565E+03  0.7818608E-02  0.1377098E+00
          2   -1    0    0  502    0  0.00000000000E+00  0.00000000000E+00  0.12449642729E+04  0.12449642729E+04  0.00000000000E+00 0. -1.
          1   -1    0    0  501    0 -0.00000000000E+00 -0.00000000000E+00 -0.11966964385E+04  0.11966964385E+04  0.00000000000E+00 0. -1.
         25    2    1    2    0    0  0.34352414239E+02  0.11976275728E+03 -0.80031213203E+02  0.19378921946E+03  0.12500424032E+03 0.  0.
          2    1    1    2  501    0  0.31230962088E+02 -0.13983759782E+02 -0.10562488685E+04  0.10568030047E+04  0.00000000000E+00 0. -1.
          1    1    1    2  502    0 -0.65583376327E+02 -0.10577899750E+03  0.11845479161E+04  0.11910684872E+04  0.00000000000E+00 0. -1.
         22    1    3    3    0    0  0.41471595250E+02  0.11310065390E+03 -0.10947242069E+03  0.16277549575E+03  0.00000000000E+00 0.  1.
         22    1    3    3    0    0 -0.71191810108E+01  0.66621033855E+01  0.29441207492E+02  0.31013723710E+02  0.00000000000E+00 0.  1.
</event>
<event>
 7    1  0.5575489E-006  0.1066914E+03  0.7818608E-02  0.1374546E+00
          2   -1    0    0  502    0  0.00000000000E+00  0.00000000000E+00  0.47800104085E+03  0.47800104085E+03  0.00000000000E+00 0. -1.
          1   -1    0    0  501    0 -0.00000000000E+00 -0.00000000000E+00 -0.18265272038E+04  0.18265272038E+04  0.00000000000E+00 0. -1.
         25    2    1    2    0    0 -0.10332333568E+03 -0.23200010497E+02  0.25388606196E+02  0.16578020023E+03  0.12499816510E+03 0.  0.
          2    1    1    2  501    0 -0.27837164025E+01  0.40633230563E+02 -0.17485306592E+04  0.17490049384E+04  0.00000000000E+00 0. -1.
          1    1    1    2  502    0  0.10610705208E+03 -0.17433220066E+02  0.37461589001E+03  0.38974310604E+03  0.00000000000E+00 0. -1.
         22    1    3    3    0    0 -0.55337754611E+02  0.28063491854E+02 -0.36666393087E+02  0.72071152637E+02  0.00000000000E+00 0. -1.
         22    1    3    3    0    0 -0.47985581069E+02 -0.51263502351E+02  0.62054999283E+02  0.93709047588E+02  0.00000000000E+00 0. -1.
</event>
<event>
 7    1  0.5575489E-006  0.4622759E+02  0.7818608E-02  0.1480074E+00
          2   -1    0    0  502    0  0.00000000000E+00  0.00000000000E+00  0.17891053327E+03  0.17891053327E+03  0.00000000000E+00 0. -1.
          1   -1    0    0  501    0 -0.00000000000E+00 -0.00000000000E+00 -0.29762320138E+04  0.29762320138E+04  0.00000000000E+00 0. -1.
         25    2    1    2    0    0 -0.36321843428E+02  0.23024029752E+02 -0.27946305307E+03  0.30914789371E+03  0.12499375945E+03 0.  0.
          2    1    1    2  501    0  0.14257381320E+01 -0.46504000930E+02 -0.26790256340E+04  0.26794296039E+04  0.00000000000E+00 0. -1.
          1    1    1    2  502    0  0.34896105296E+02  0.23479971177E+02  0.16116720656E+03  0.16656504940E+03  0.00000000000E+00 0. -1.
         22    1    3    3    0    0 -0.11290437326E+02  0.59032882618E+02 -0.58491390193E+02  0.83866548349E+02  0.00000000000E+00 0. -1.
         22    1    3    3    0    0 -0.25031406103E+02 -0.36008852866E+02 -0.22097166287E+03  0.22528134536E+03  0.00000000000E+00 0. -1.
</event>
<event>
 7    1  0.5575489E-006  0.2667876E+03  0.7818608E-02  0.1323852E+00
          2   -1    0    0  502    0  0.00000000000E+00  0.00000000000E+00  0.39390355956E+03  0.39390355956E+03  0.00000000000E+00 0. -1.
          1   -1    0    0  501    0 -0.00000000000E+00 -0.00000000000E+00 -0.22063070212E+04  0.22063070212E+04  0.00000000000E+00 0. -1.
         25    2    1    2    0    0 -0.13709266074E+03 -0.25336989452E+03 -0.18958028082E+03  0.36682002047E+03  0.12500217383E+03 0.  0.
          2    1    1    2  501    0  0.11830077247E+03  0.23670314670E+03 -0.19184925564E+04  0.19366561753E+04  0.00000000000E+00 0. -1.
          1    1    1    2  502    0  0.18791888269E+02  0.16666747821E+02  0.29566937560E+03  0.29673438496E+03  0.00000000000E+00 0. -1.
         22    1    3    3    0    0 -0.12798976407E+03 -0.15058489807E+03 -0.71886594095E+02  0.21029710803E+03  0.00000000000E+00 0. -1.
         22    1    3    3    0    0 -0.91028966652E+01 -0.10278499645E+03 -0.11769368673E+03  0.15652291244E+03  0.00000000000E+00 0. -1.
</event>
<event>
 7    1  0.5575489E-006  0.8530237E+02  0.7818608E-02  0.1364879E+00
          2   -1    0    0  502    0  0.00000000000E+00  0.00000000000E+00  0.11213574732E+04  0.11213574732E+04  0.00000000000E+00 0. -1.
          1   -1    0    0  501    0 -0.00000000000E+00 -0.00000000000E+00 -0.12469628843E+03  0.12469628843E+03  0.00000000000E+00 0. -1.
         25    2    1    2    0    0  0.56661092092E+02 -0.70334639764E+02  0.42605356108E+03  0.45310425790E+03  0.12499756281E+03 0.  0.
          2    1    1    2  501    0 -0.82939823922E+02  0.21806598458E+02 -0.93315214653E+02  0.12673701675E+03  0.00000000000E+00 0. -1.
          1    1    1    2  502    0  0.26278731830E+02  0.48528041306E+02  0.66392283834E+03  0.66621248698E+03  0.00000000000E+00 0. -1.
         22    1    3    3    0    0  0.13907466359E+02 -0.10044484323E+03  0.26305008820E+03  0.28191830918E+03  0.00000000000E+00 0. -1.
         22    1    3    3    0    0  0.42753625733E+02  0.30110203464E+02  0.16300347288E+03  0.17118594872E+03  0.00000000000E+00 0. -1.
</event>
<event>
 7    1  0.5575489E-006  0.8381283E+02  0.7818608E-02  0.1477688E+00
          2   -1    0    0  502    0  0.00000000000E+00  0.00000000000E+00  0.11919024105E+04  0.11919024105E+04  0.00000000000E+00 0. -1.
          1   -1    0    0  501    0 -0.00000000000E+00 -0.00000000000E+00 -0.20079115458E+03  0.20079115458E+03  0.00000000000E+00 0. -1.
         25    2    1    2    0    0  0.59925977924E+02  0.81512050616E+02 -0.35793577829E+02  0.16474497286E+03  0.12499755455E+03 0.  0.
          2    1    1    2  501    0 -0.53848871005E+02 -0.58714730285E+02 -0.84591586949E+02  0.11620179449E+03  0.00000000000E+00 0. -1.
          1    1    1    2  502    0 -0.60771069188E+01 -0.22797320331E+02  0.11114964207E+04  0.11117467978E+04  0.00000000000E+00 0. -1.
         22    1    3    3    0    0  0.43799070755E+02 -0.26650893812E+02 -0.77974081194E+01  0.51859698354E+02  0.00000000000E+00 0. -1.
         22    1    3    3    0    0  0.16126907168E+02  0.10816294443E+03 -0.27996169710E+02  0.11288527451E+03  0.00000000000E+00 0. -1.
</event>
<event>
 7    1  0.5575489E-006  0.1050243E+03  0.7818608E-02  0.1354456E+00
          2   -1    0    0  502    0  0.00000000000E+00  0.00000000000E+00  0.55102876679E+03  0.55102876679E+03  0.00000000000E+00 0. -1.
          1   -1    0    0  501    0 -0.00000000000E+00 -0.00000000000E+00 -0.11240765607E+04  0.11240765607E+04  0.00000000000E+00 0. -1.
         25    2    1    2    0    0 -0.13817019691E+03  0.51391879290E+01  0.25082462666E+03  0.31250001205E+03  0.12500339847E+03 0.  0.
          2    1    1    2  501    0  0.44950167829E+02  0.19326012252E+02 -0.10840486428E+04  0.10851522807E+04  0.00000000000E+00 0. -1.
          1    1    1    2  502    0  0.93220029079E+02 -0.24465200181E+02  0.26017622226E+03  0.27745303471E+03  0.00000000000E+00 0. -1.
         22    1    3    3    0    0 -0.14850051200E+03 -0.18074450442E+02  0.24397111610E+03  0.28618349588E+03  0.00000000000E+00 0. -1.
         22    1    3    3    0    0  0.10330315093E+02  0.23213638371E+02  0.68535105556E+01  0.26316516169E+02  0.00000000000E+00 0. -1.
</event>
<event>
 7    1  0.5575489E-006  0.2997622E+02  0.7818608E-02  0.1602243E+00
          2   -1    0    0  502    0  0.00000000000E+00  0.00000000000E+00  0.27138774607E+03  0.27138774607E+03  0.00000000000E+00 0. -1.
          1   -1    0    0  501    0 -0.00000000000E+00 -0.00000000000E+00 -0.21851296516E+03  0.21851296516E+03  0.00000000000E+00 0. -1.
         25    2    1    2    0    0  0.35217161244E+02 -0.55120057909E+01  0.15076981205E+03  0.19906212618E+03  0.12499425268E+03 0.  0.
          2    1    1    2  501    0 -0.14558083976E+02  0.26265080792E+02 -0.19094383321E+03  0.19329081643E+03  0.00000000000E+00 0. -1.
          1    1    1    2  502    0 -0.20659077268E+02 -0.20753075001E+02  0.93048802067E+02  0.97547768614E+02  0.00000000000E+00 0. -1.
         22    1    3    3    0    0  0.46138255258E+02 -0.44951324699E+02  0.29079847085E+02  0.70675297643E+02  0.00000000000E+00 0. -1.
         22    1    3    3    0    0 -0.10921094014E+02  0.39439318908E+02  0.12168996496E+03  0.12838682854E+03  0.00000000000E+00 0. -1.
</event>
<event>
 7    1  0.5575489E-006  0.3331907E+02  0.7818608E-02  0.1622469E+00
          2   -1    0    0  502    0  0.00000000000E+00  0.00000000000E+00  0.31702108428E+03  0.31702108428E+03  0.00000000000E+00 0. -1.
          1   -1    0    0  501    0 -0.00000000000E+00 -0.00000000000E+00 -0.49491363174E+02  0.49491363174E+02  0.00000000000E+00 0. -1.
         25    2    1    2    0    0 -0.18490995843E+02 -0.41601376840E+00  0.85572102511E+02  0.15260917706E+03  0.12499954480E+03 0.  0.
          2    1    1    2  501    0 -0.71135040216E+01 -0.22262198392E+02 -0.49519217953E+01  0.23889933993E+02  0.00000000000E+00 0. -1.
          1    1    1    2  502    0  0.25604499864E+02  0.22678212160E+02  0.18690954039E+03  0.19001333640E+03  0.00000000000E+00 0. -1.
         22    1    3    3    0    0 -0.39065472471E+02 -0.94253343771E+01  0.11137307132E+03  0.11840147416E+03  0.00000000000E+00 0.  1.
         22    1    3    3    0    0  0.20574476628E+02  0.90093206087E+01 -0.25800968811E+02  0.34207702903E+02  0.00000000000E+00 0.  1.
</event>
<event>
 7    1  0.5575489E-006  0.8878835E+02  0.7818608E-02  0.1390304E+00
          2   -1    0    0  502    0  0.00000000000E+00  0.00000000000E+00  0.81031782037E+03  0.81031782037E+03  0.00000000000E+00 0. -1.
          1   -1    0    0  501    0 -0.00000000000E+00 -0.00000000000E+00 -0.13466408334E+03  0.13466408334E+03  0.00000000000E+00 0. -1.
         25    2    1    2    0    0  0.36933398918E+02 -0.37902224342E+02  0.42485622165E+03  0.44601363917E+03  0.12499881073E+03 0.  0.
          2    1    1    2  501    0 -0.40117155460E+02  0.80842872726E+02 -0.10620887456E+03  0.13937460769E+03  0.00000000000E+00 0. -1.
          1    1    1    2  502    0  0.31837565421E+01 -0.42940648384E+02  0.35700638994E+03  0.35959365685E+03  0.00000000000E+00 0. -1.
         22    1    3    3    0    0  0.75882996738E+02 -0.27375401422E+02  0.36513890976E+03  0.37394393325E+03  0.00000000000E+00 0. -1.
         22    1    3    3    0    0 -0.38949597820E+02 -0.10526822920E+02  0.59717311895E+02  0.72069705918E+02  0.00000000000E+00 0. -1.
</event>
<event>
 7    1  0.5575489E-006  0.8273377E+02  0.7818608E-02  0.1483038E+00
          2   -1    0    0  502    0  0.00000000000E+00  0.00000000000E+00  0.91153175063E+02  0.91153175063E+02  0.00000000000E+00 0. -1.
          1   -1    0    0  501    0 -0.00000000000E+00 -0.00000000000E+00 -0.31411598430E+03  0.31411598430E+03  0.00000000000E+00 0. -1.
         25    2    1    2    0    0  0.63973725894E+02 -0.48038129683E+02 -0.66656005112E+02  0.16269383410E+03  0.12500384445E+03 0.  0.
          2    1    1    2  501    0  0.14901512788E+02  0.17539918758E+02 -0.15632394447E+03  0.15800911191E+03  0.00000000000E+00 0. -1.
          1    1    1    2  502    0 -0.78875238682E+02  0.30498210925E+02  0.17140343899E-01  0.84566213351E+02  0.00000000000E+00 0. -1.
         22    1    3    3    0    0  0.11706933576E+02 -0.66066761265E+02 -0.81384822835E+02  0.10547681558E+03  0.00000000000E+00 0. -1.
         22    1    3    3    0    0  0.52266792318E+02  0.18028631582E+02  0.14728817724E+02  0.57217018513E+02  0.00000000000E+00 0. -1.
</event>
<event>
 7    1  0.5575489E-006  0.1025561E+03  0.7818608E-02  0.1389102E+00
          2   -1    0    0  502    0  0.00000000000E+00  0.00000000000E+00  0.71313948600E+02  0.71313948600E+02  0.00000000000E+00 0. -1.
          1   -1    0    0  501    0 -0.00000000000E+00 -0.00000000000E+00 -0.17370441510E+04  0.17370441510E+04  0.00000000000E+00 0. -1.
         25    2    1    2    0    0 -0.98268671813E+02 -0.67790682745E+02 -0.83185052326E+03  0.84961920657E+03  0.12500077841E+03 0.  0.
          2    1    1    2  501    0  0.61718571578E+02  0.76783393760E+02 -0.88765190771E+03  0.89310177522E+03  0.00000000000E+00 0. -1.
          1    1    1    2  502    0  0.36550100235E+02 -0.89927110141E+01  0.53772228530E+02  0.65637117850E+02  0.00000000000E+00 0. -1.
         22    1    3    3    0    0 -0.35905230941E+02 -0.83353934804E+02 -0.65870649495E+03  0.66492955307E+03  0.00000000000E+00 0. -1.
         22    1    3    3    0    0 -0.62363440872E+02  0.15563252058E+02 -0.17314402831E+03  0.18468965350E+03  0.00000000000E+00 0. -1.
</event>
<event>
 7    1  0.5575489E-006  0.9492892E+02  0.7818608E-02  0.1315256E+00
          2   -1    0    0  502    0  0.00000000000E+00  0.00000000000E+00  0.14928020852E+03  0.14928020852E+03  0.00000000000E+00 0. -1.
          1   -1    0    0  501    0 -0.00000000000E+00 -0.00000000000E+00 -0.51461027142E+03  0.51461027142E+03  0.00000000000E+00 0. -1.
         25    2    1    2    0    0  0.10220679017E+02  0.21249282782E+02 -0.28742291869E+03  0.31431534545E+03  0.12500483149E+03 0.  0.
          2    1    1    2  501    0  0.20170152897E+02  0.73513963921E+02 -0.18698155521E+03  0.20192384690E+03  0.00000000000E+00 0. -1.
          1    1    1    2  502    0 -0.30390831914E+02 -0.94763246703E+02  0.10907441100E+03  0.14765128758E+03  0.00000000000E+00 0. -1.
         22    1    3    3    0    0  0.42279184187E+02  0.59700559224E+02 -0.20739229911E+03  0.21991646577E+03  0.00000000000E+00 0. -1.
         22    1    3    3    0    0 -0.32058505170E+02 -0.38451276442E+02 -0.80030619587E+02  0.94398879682E+02  0.00000000000E+00 0. -1.
</event>
<event>
 7    1  0.5575489E-006  0.2819317E+03  0.7818608E-02  0.1256962E+00
          2   -1    0    0  502    0  0.00000000000E+00  0.00000000000E+00  0.23244644204E+04  0.23244644204E+04  0.00000000000E+00 0. -1.
          1   -1    0    0  501    0 -0.00000000000E+00 -0.00000000000E+00 -0.83977154848E+02  0.83977154848E+02  0.00000000000E+00 0. -1.
         25    2    1    2    0    0  0.39403155748E+02  0.25618050971E+03  0.55181679503E+03  0.62234172386E+03  0.12500553481E+03 0.  0.
          2    1    1    2  501    0 -0.28784526412E+02  0.33898015645E+02 -0.22947922458E+02  0.50042297815E+02  0.00000000000E+00 0. -1.
          1    1    1    2  502    0 -0.10618629336E+02 -0.29007852535E+03  0.17116183930E+04  0.17360575536E+04  0.00000000000E+00 0. -1.
         22    1    3    3    0    0  0.39071395074E+02  0.28330426840E+02  0.42206415061E+02  0.64113715149E+02  0.00000000000E+00 0. -1.
         22    1    3    3    0    0  0.33176067422E+00  0.22785008287E+03  0.50961037997E+03  0.55822800871E+03  0.00000000000E+00 0. -1.
</event>
<event>
 7    1  0.5575489E-006  0.2825606E+02  0.7818608E-02  0.1644816E+00
          2   -1    0    0  502    0  0.00000000000E+00  0.00000000000E+00  0.11201392409E+04  0.11201392409E+04  0.00000000000E+00 0. -1.
          1   -1    0    0  501    0 -0.00000000000E+00 -0.00000000000E+00 -0.73308634884E+03  0.73308634884E+03  0.00000000000E+00 0. -1.
         25    2    1    2    0    0 -0.96782177606E+01  0.70248635666E+01 -0.47312435256E+00  0.12557122305E+03  0.12499956642E+03 0.  0.
          2    1    1    2  501    0  0.26307897620E+02  0.10594707920E+02 -0.66962521268E+03  0.67022554321E+03  0.00000000000E+00 0. -1.
          1    1    1    2  502    0 -0.16629679859E+02 -0.17619571487E+02  0.10571512291E+04  0.10574288234E+04  0.00000000000E+00 0. -1.
         22    1    3    3    0    0  0.57758202039E+02  0.22112076835E+01 -0.33947904895E+01  0.57900120420E+02  0.00000000000E+00 0. -1.
         22    1    3    3    0    0 -0.67436419799E+02  0.48136558831E+01  0.29216661369E+01  0.67671102631E+02  0.00000000000E+00 0. -1.
</event>
<event>
 7    1  0.5575489E-006  0.4700313E+02  0.7818608E-02  0.1467115E+00
          2   -1    0    0  502    0  0.00000000000E+00  0.00000000000E+00  0.43543397446E+03  0.43543397446E+03  0.00000000000E+00 0. -1.
          1   -1    0    0  501    0 -0.00000000000E+00 -0.00000000000E+00 -0.67351972672E+03  0.67351972672E+03  0.00000000000E+00 0. -1.
         25    2    1    2    0    0 -0.12160669626E+02  0.19168419305E+02  0.16566643009E+03  0.20876152467E+03  0.12498279057E+03 0.  0.
          2    1    1    2  501    0 -0.29697718064E+02 -0.36666913902E+02 -0.64903546276E+03  0.65074837607E+03  0.00000000000E+00 0. -1.
          1    1    1    2  502    0  0.41858387690E+02  0.17498494597E+02  0.24528328041E+03  0.24944380045E+03  0.00000000000E+00 0. -1.
         22    1    3    3    0    0 -0.30629351265E+02  0.66666719093E+02  0.11819839834E+03  0.13911674940E+03  0.00000000000E+00 0. -1.
         22    1    3    3    0    0  0.18468681639E+02 -0.47498299788E+02  0.47468031746E+02  0.69644775268E+02  0.00000000000E+00 0. -1.
</event>
<event>
 7    1  0.5575489E-006  0.1359098E+03  0.7818608E-02  0.1429464E+00
          2   -1    0    0  502    0  0.00000000000E+00  0.00000000000E+00  0.31946023548E+03  0.31946023548E+03  0.00000000000E+00 0. -1.
          1   -1    0    0  501    0 -0.00000000000E+00 -0.00000000000E+00 -0.36396281631E+03  0.36396281631E+03  0.00000000000E+00 0. -1.
         25    2    1    2    0    0 -0.75427400292E+02  0.93071406633E+02 -0.24604642007E+03  0.30085666503E+03  0.12499725042E+03 0.  0.
          2    1    1    2  501    0 -0.67832811237E+00  0.20709808821E+02 -0.72948751325E+02  0.75834534550E+02  0.00000000000E+00 0. -1.
          1    1    1    2  502    0  0.76105728404E+02 -0.11378121545E+03  0.27449259056E+03  0.30673185221E+03  0.00000000000E+00 0. -1.
         22    1    3    3    0    0 -0.43574814042E+02  0.11518414480E+03 -0.13260046578E+03  0.18096694493E+03  0.00000000000E+00 0.  1.
         22    1    3    3    0    0 -0.31852586249E+02 -0.22112738165E+02 -0.11344595429E+03  0.11988972010E+03  0.00000000000E+00 0.  1.
</event>
<event>
 7    1  0.5575489E-006  0.9765340E+02  0.7818608E-02  0.1318426E+00
          2   -1    0    0  502    0  0.00000000000E+00  0.00000000000E+00  0.13914722806E+04  0.13914722806E+04  0.00000000000E+00 0. -1.
          1   -1    0    0  501    0 -0.00000000000E+00 -0.00000000000E+00 -0.43574717105E+02  0.43574717105E+02  0.00000000000E+00 0. -1.
         25    2    1    2    0    0  0.62205266924E+02 -0.13452145637E+03  0.40733961259E+03  0.45112846499E+03  0.12500325791E+03 0.  0.
          2    1    1    2  501    0 -0.61708229052E+02  0.62498422885E+02  0.75361905781E+02  0.11572975088E+03  0.00000000000E+00 0. -1.
          1    1    1    2  502    0 -0.49703787125E+00  0.72023033481E+02  0.86519604510E+03  0.86818878181E+03  0.00000000000E+00 0. -1.
         22    1    3    3    0    0  0.25255001636E+02 -0.14505339230E+03  0.36693171273E+03  0.39536967958E+03  0.00000000000E+00 0. -1.
         22    1    3    3    0    0  0.36950265287E+02  0.10531935936E+02  0.40407899856E+02  0.55758785408E+02  0.00000000000E+00 0. -1.
</event>
<event>
 7    1  0.5575489E-006  0.1132609E+03  0.7818608E-02  0.1271502E+00
          2   -1    0    0  502    0  0.00000000000E+00  0.00000000000E+00  0.44342199385E+03  0.44342199385E+03  0.00000000000E+00 0. -1.
          1   -1    0    0  501    0 -0.00000000000E+00 -0.00000000000E+00 -0.45654558653E+03  0.45654558653E+03  0.00000000000E+00 0. -1.
         25    2    1    2    0    0  0.13920578847E+03 -0.10387652630E+03 -0.11493998616E+03  0.24290905822E+03  0.12500010356E+03 0.  0.
          2    1    1    2  501    0 -0.43399784866E+02  0.97028274032E+02 -0.26096280989E+03  0.28177937368E+03  0.00000000000E+00 0. -1.
          1    1    1    2  502    0 -0.95806003603E+02  0.68482522633E+01  0.36277920337E+03  0.37527914848E+03  0.00000000000E+00 0. -1.
         22    1    3    3    0    0  0.54553080509E+02 -0.81046736463E+01  0.18456392127E+02  0.58158084033E+02  0.00000000000E+00 0. -1.
         22    1    3    3    0    0  0.84652707960E+02 -0.95771852649E+02 -0.13339637828E+03  0.18475097419E+03  0.00000000000E+00 0. -1.
</event>
<event>
 7    1  0.5575489E-006  0.6858725E+02  0.7818608E-02  0.1405718E+00
          2   -1    0    0  502    0  0.00000000000E+00  0.00000000000E+00  0.14515438774E+04  0.14515438774E+04  0.00000000000E+00 0. -1.
          1   -1    0    0  501    0 -0.00000000000E+00 -0.00000000000E+00 -0.89500381422E+02  0.89500381422E+02  0.00000000000E+00 0. -1.
         25    2    1    2    0    0 -0.38233565921E+02 -0.48960152625E+02  0.45347455834E+03  0.47447169415E+03  0.12500124549E+03 0.  0.
          2    1    1    2  501    0 -0.68220158322E+01  0.69017976144E+02 -0.63033660475E+02  0.93719065744E+02  0.00000000000E+00 0. -1.
          1    1    1    2  502    0  0.45055581753E+02 -0.20057823519E+02  0.97160259807E+03  0.97285349889E+03  0.00000000000E+00 0. -1.
         22    1    3    3    0    0 -0.52893544216E+02  0.28742793183E+02  0.21188993958E+03  0.22027533152E+03  0.00000000000E+00 0. -1.
         22    1    3    3    0    0  0.14659978295E+02 -0.77702945809E+02  0.24158461876E+03  0.25419636263E+03  0.00000000000E+00 0. -1.
</event>
<event>
 7    1  0.5575489E-006  0.8585198E+02  0.7818608E-02  0.1418809E+00
          2   -1    0    0  502    0  0.00000000000E+00  0.00000000000E+00  0.30962310815E+03  0.30962310815E+03  0.00000000000E+00 0. -1.
          1   -1    0    0  501    0 -0.00000000000E+00 -0.00000000000E+00 -0.29806645118E+03  0.29806645118E+03  0.00000000000E+00 0. -1.
         25    2    1    2    0    0 -0.45425854127E+02  0.11131798007E+03  0.16471642743E+03  0.23919137342E+03  0.12500324293E+03 0.  0.
          2    1    1    2  501    0  0.30944319947E+02 -0.78811100333E+02 -0.25073046714E+03  0.26464033636E+03  0.00000000000E+00 0. -1.
          1    1    1    2  502    0  0.14481534181E+02 -0.32506879736E+02  0.97570696684E+02  0.10385784955E+03  0.00000000000E+00 0. -1.
         22    1    3    3    0    0 -0.18661653889E+02  0.83394036735E+02  0.17828837753E+02  0.87296564334E+02  0.00000000000E+00 0.  1.
         22    1    3    3    0    0 -0.26764200239E+02  0.27923943334E+02  0.14688758968E+03  0.15189480909E+03  0.00000000000E+00 0.  1.
</event>
<event>
 7    1  0.5575489E-006  0.1241634E+03  0.7818608E-02  0.1268528E+00
          2   -1    0    0  502    0  0.00000000000E+00  0.00000000000E+00  0.70442834254E+03  0.70442834254E+03  0.00000000000E+00 0. -1.
          1   -1    0    0  501    0 -0.00000000000E+00 -0.00000000000E+00 -0.12964125292E+04  0.12964125292E+04  0.00000000000E+00 0. -1.
         25    2    1    2    0    0  0.22388656683E+02 -0.91953454564E+02 -0.11973786332E+03  0.19728016756E+03  0.12500247536E+03 0.  0.
          2    1    1    2  501    0 -0.10954504817E+03  0.68825011805E+02 -0.11311455873E+04  0.11385198020E+04  0.00000000000E+00 0. -1.
          1    1    1    2  502    0  0.87156391483E+02  0.23128442760E+02  0.65889926400E+03  0.66504090216E+03  0.00000000000E+00 0. -1.
         22    1    3    3    0    0  0.31394120765E+01 -0.29975625152E+02  0.24677010573E+02  0.38953162416E+02  0.00000000000E+00 0.  1.
         22    1    3    3    0    0  0.19249244607E+02 -0.61977829413E+02 -0.14441487389E+03  0.15832700514E+03  0.00000000000E+00 0.  1.
</event>
<event>
 7    1  0.5575489E-006  0.4282379E+02  0.7818608E-02  0.1585191E+00
          2   -1    0    0  502    0  0.00000000000E+00  0.00000000000E+00  0.17064499920E+04  0.17064499920E+04  0.00000000000E+00 0. -1.
          1   -1    0    0  501    0 -0.00000000000E+00 -0.00000000000E+00 -0.14474948523E+03  0.14474948523E+03  0.00000000000E+00 0. -1.
         25    2    1    2    0    0  0.33257800806E+02 -0.48154072903E+01  0.66240494390E+02  0.14540089993E+03  0.12499739654E+03 0.  0.
          2    1    1    2  501    0 -0.39990840904E+02 -0.16895778854E+02 -0.10060466085E+03  0.10957204244E+03  0.00000000000E+00 0. -1.
          1    1    1    2  502    0  0.67330400984E+01  0.21711186145E+02  0.15960646732E+04  0.15962265348E+04  0.00000000000E+00 0. -1.
         22    1    3    3    0    0 -0.70859736430E+01 -0.75039914276E+01  0.95142112803E+02  0.95700274495E+02  0.00000000000E+00 0. -1.
         22    1    3    3    0    0  0.40343774449E+02  0.26885841374E+01 -0.28901618413E+02  0.49700625432E+02  0.00000000000E+00 0. -1.
</event>
<event>
 7    1  0.5575489E-006  0.1867263E+03  0.7818608E-02  0.1316975E+00
          2   -1    0    0  502    0  0.00000000000E+00  0.00000000000E+00  0.48925160953E+03  0.48925160953E+03  0.00000000000E+00 0. -1.
          1   -1    0    0  501    0 -0.00000000000E+00 -0.00000000000E+00 -0.10780460004E+04  0.10780460004E+04  0.00000000000E+00 0. -1.
         25    2    1    2    0    0  0.11324258703E+03  0.10990420713E+03  0.63079824690E+01  0.20140802709E+03  0.12499033751E+03 0.  0.
          2    1    1    2  501    0  0.16472689881E+02  0.34421818397E+02 -0.95566401789E+03  0.95642559887E+03  0.00000000000E+00 0. -1.
          1    1    1    2  502    0 -0.12971527691E+03 -0.14432602552E+03  0.36056164451E+03  0.40946398401E+03  0.00000000000E+00 0. -1.
         22    1    3    3    0    0  0.26037905242E+02  0.70134390601E+02 -0.50248363939E+02  0.90120493413E+02  0.00000000000E+00 0. -1.
         22    1    3    3    0    0  0.87204681788E+02  0.39769816525E+02  0.56556346408E+02  0.11128753367E+03  0.00000000000E+00 0. -1.
</event>
<event>
 7    1  0.5575489E-006  0.3878104E+02  0.7818608E-02  0.1537415E+00
          2   -1    0    0  502    0  0.00000000000E+00  0.00000000000E+00  0.59775287210E+02  0.59775287210E+02  0.00000000000E+00 0. -1.
          1   -1    0    0  501    0 -0.00000000000E+00 -0.00000000000E+00 -0.75300179687E+03  0.75300179687E+03  0.00000000000E+00 0. -1.
         25    2    1    2    0    0 -0.80367981066E+01  0.55294821929E+02 -0.23123506112E+03  0.26873514048E+03  0.12500725892E+03 0.  0.
          2    1    1    2  501    0  0.27211246239E+02 -0.27261968787E+02 -0.49510890733E+03  0.49660497076E+03  0.00000000000E+00 0. -1.
          1    1    1    2  502    0 -0.19174448133E+02 -0.28032853142E+02  0.33117458784E+02  0.47436972846E+02  0.00000000000E+00 0. -1.
         22    1    3    3    0    0 -0.61259681759E+02  0.29316086235E+02 -0.17222045600E+03  0.18512716437E+03  0.00000000000E+00 0. -1.
         22    1    3    3    0    0  0.53222883652E+02  0.25978735694E+02 -0.59014605113E+02  0.83607976110E+02  0.00000000000E+00 0. -1.
</event>
<event>
 7    1  0.5575489E-006  0.1186012E+03  0.7818608E-02  0.1353504E+00
          2   -1    0    0  502    0  0.00000000000E+00  0.00000000000E+00  0.76692186811E+03  0.76692186811E+03  0.00000000000E+00 0. -1.
          1   -1    0    0  501    0 -0.00000000000E+00 -0.00000000000E+00 -0.94506268639E+03  0.94506268639E+03  0.00000000000E+00 0. -1.
         25    2    1    2    0    0  0.84621058363E+02  0.47887573281E+00  0.11575803310E+03  0.19022454451E+03  0.12499800904E+03 0.  0.
          2    1    1    2  501    0  0.38214438637E+02 -0.21154209781E+02 -0.90097659383E+03  0.90203473688E+03  0.00000000000E+00 0. -1.
          1    1    1    2  502    0 -0.12283549700E+03  0.20675334048E+02  0.60707774244E+03  0.61972527311E+03  0.00000000000E+00 0. -1.
         22    1    3    3    0    0 -0.24092764748E+02 -0.21688775155E+02  0.54695675330E+02  0.63580509441E+02  0.00000000000E+00 0.  1.
         22    1    3    3    0    0  0.10871382311E+03  0.22167650888E+02  0.61062357774E+02  0.12664403507E+03  0.00000000000E+00 0.  1.
</event>
<event>
 7    1  0.5575489E-006  0.2654688E+02  0.7818608E-02  0.1660977E+00
          2   -1    0    0  502    0  0.00000000000E+00  0.00000000000E+00  0.19766116743E+04  0.19766116743E+04  0.00000000000E+00 0. -1.
          1   -1    0    0  501    0 -0.00000000000E+00 -0.00000000000E+00 -0.10299991260E+02  0.10299991260E+02  0.00000000000E+00 0. -1.
         25    2    1    2    0    0  0.44862652773E+02 -0.80735437656E+01  0.15812456659E+04  0.15868335653E+04  0.12500027359E+03 0.  0.
          2    1    1    2  501    0 -0.23373154662E+02 -0.28524368043E+01  0.12360375615E+02  0.26593601485E+02  0.00000000000E+00 0. -1.
          1    1    1    2  502    0 -0.21489498110E+02  0.10925980570E+02  0.37270564153E+03  0.37348449875E+03  0.00000000000E+00 0. -1.
         22    1    3    3    0    0  0.32600138172E+02 -0.23055421025E+02  0.15468361134E+04  0.15473513768E+04  0.00000000000E+00 0. -1.
         22    1    3    3    0    0  0.12262514601E+02  0.14981877260E+02  0.34409552492E+02  0.39482188557E+02  0.00000000000E+00 0. -1.
</event>
<event>
 7    1  0.5575489E-006  0.9991099E+02  0.7818608E-02  0.1306002E+00
          2   -1    0    0  502    0  0.00000000000E+00  0.00000000000E+00  0.17578808749E+03  0.17578808749E+03  0.00000000000E+00 0. -1.
          1   -1    0    0  501    0 -0.00000000000E+00 -0.00000000000E+00 -0.87187319762E+03  0.87187319762E+03  0.00000000000E+00 0. -1.
         25    2    1    2    0    0  0.10489913485E+03 -0.64403476946E+02 -0.32274499674E+03  0.36734331880E+03  0.12500057843E+03 0.  0.
          2    1    1    2  501    0 -0.98831427694E+02 -0.14129829647E+02 -0.51157016220E+03  0.52122100307E+03  0.00000000000E+00 0. -1.
          1    1    1    2  502    0 -0.60677071572E+01  0.78533306593E+02  0.13823004882E+03  0.15909696323E+03  0.00000000000E+00 0. -1.
         22    1    3    3    0    0  0.96473708578E+02  0.11339459687E+02 -0.15236131571E+03  0.18069236375E+03  0.00000000000E+00 0.  1.
         22    1    3    3    0    0  0.84254262735E+01 -0.75742936633E+02 -0.17038368104E+03  0.18665095505E+03  0.00000000000E+00 0.  1.
</event>
<event>
 7    1  0.5575489E-006  0.1948482E+03  0.7818608E-02  0.1336354E+00
          2   -1    0    0  502    0  0.00000000000E+00  0.00000000000E+00  0.16918410567E+04  0.16918410567E+04  0.00000000000E+00 0. -1.
          1   -1    0    0  501    0 -0.00000000000E+00 -0.00000000000E+00 -0.18262537304E+04  0.18262537304E+04  0.00000000000E+00 0. -1.
         25    2    1    2    0    0  0.20657256051E+03 -0.72659622543E+02 -0.21702647700E+03  0.33268380112E+03  0.12500550511E+03 0.  0.
          2    1    1    2  501    0 -0.29749175063E+02 -0.80180137072E+01 -0.15454649562E+04  0.15457720508E+04  0.00000000000E+00 0. -1.
          1    1    1    2  502    0 -0.17682338545E+03  0.80677636251E+02  0.16280787596E+04  0.16396389352E+04  0.00000000000E+00 0. -1.
         22    1    3    3    0    0  0.20160728338E+03 -0.23853129569E+02 -0.17153764043E+03  0.26578117049E+03  0.00000000000E+00 0. -1.
         22    1    3    3    0    0  0.49652771309E+01 -0.48806492975E+02 -0.45488836566E+02  0.66902630633E+02  0.00000000000E+00 0. -1.
</event>
<event>
 7    1  0.5575489E-006  0.9288982E+02  0.7818608E-02  0.1378251E+00
          2   -1    0    0  502    0  0.00000000000E+00  0.00000000000E+00  0.19195987025E+03  0.19195987025E+03  0.00000000000E+00 0. -1.
          1   -1    0    0  501    0 -0.00000000000E+00 -0.00000000000E+00 -0.32527152426E+03  0.32527152426E+03  0.00000000000E+00 0. -1.
         25    2    1    2    0    0  0.11458136780E+03 -0.46921681399E+02 -0.19807766956E+02  0.17705599467E+03  0.12500377428E+03 0.  0.
          2    1    1    2  501    0 -0.70139712583E+02  0.56103447263E+02 -0.21281226520E+03  0.23098968872E+03  0.00000000000E+00 0. -1.
          1    1    1    2  502    0 -0.44441655215E+02 -0.91817658638E+01  0.99308378148E+02  0.10918571112E+03  0.00000000000E+00 0. -1.
         22    1    3    3    0    0  0.47788651919E+02 -0.45195224918E+01  0.51604033264E+02  0.70478064566E+02  0.00000000000E+00 0.  1.
         22    1    3    3    0    0  0.66792715879E+02 -0.42402158908E+02 -0.71411800221E+02  0.10657793010E+03  0.00000000000E+00 0.  1.
</event>
<event>
 7    1  0.5575489E-006  0.5540877E+02  0.7818608E-02  0.1418414E+00
          2   -1    0    0  502    0  0.00000000000E+00  0.00000000000E+00  0.17268700587E+04  0.17268700587E+04  0.00000000000E+00 0. -1.
          1   -1    0    0  501    0 -0.00000000000E+00 -0.00000000000E+00 -0.87054370743E+02  0.87054370743E+02  0.00000000000E+00 0. -1.
         25    2    1    2    0    0 -0.12318051063E+00 -0.18903618889E+01 -0.17396753159E+02  0.12621141235E+03  0.12499233955E+03 0.  0.
          2    1    1    2  501    0  0.52859237916E+02 -0.16271162690E+02  0.37002861118E+02  0.66543681137E+02  0.00000000000E+00 0. -1.
          1    1    1    2  502    0 -0.52736057406E+02  0.18161524579E+02  0.16202095800E+04  0.16211693359E+04  0.00000000000E+00 0. -1.
         22    1    3    3    0    0  0.14618269054E+02 -0.46225522168E+02  0.32100683090E+02  0.58145907376E+02  0.00000000000E+00 0.  1.
         22    1    3    3    0    0 -0.14741449564E+02  0.44335160279E+02 -0.49497436249E+02  0.68065504974E+02  0.00000000000E+00 0.  1.
</event>
<event>
 7    1  0.5575489E-006  0.1262599E+03  0.7818608E-02  0.1408474E+00
          2   -1    0    0  502    0  0.00000000000E+00  0.00000000000E+00  0.16679550289E+03  0.16679550289E+03  0.00000000000E+00 0. -1.
          1   -1    0    0  501    0 -0.00000000000E+00 -0.00000000000E+00 -0.15226864542E+04  0.15226864542E+04  0.00000000000E+00 0. -1.
         25    2    1    2    0    0  0.10411329741E+03 -0.93631197765E+02 -0.72931482334E+02  0.20136929701E+03  0.12499685104E+03 0.  0.
          2    1    1    2  501    0 -0.13855205743E+01  0.26182101071E+02 -0.13485552992E+04  0.13488101486E+04  0.00000000000E+00 0. -1.
          1    1    1    2  502    0 -0.10272777684E+03  0.67449096694E+02  0.65595830157E+02  0.13930251151E+03  0.00000000000E+00 0. -1.
         22    1    3    3    0    0  0.63650599710E+02 -0.11087142856E+03 -0.87632948153E+02  0.15499485836E+03  0.00000000000E+00 0.  1.
         22    1    3    3    0    0  0.40462697702E+02  0.17240230797E+02  0.14701465820E+02  0.46374438655E+02  0.00000000000E+00 0.  1.
</event>
<event>
 7    1  0.5575489E-006  0.8951190E+02  0.7818608E-02  0.1469482E+00
          2   -1    0    0  502    0  0.00000000000E+00  0.00000000000E+00  0.12654347890E+04  0.12654347890E+04  0.00000000000E+00 0. -1.
          1   -1    0    0  501    0 -0.00000000000E+00 -0.00000000000E+00 -0.54951701047E+03  0.54951701047E+03  0.00000000000E+00 0. -1.
         25    2    1    2    0    0  0.76994006561E+02  0.11871998051E+02  0.40063488493E+03  0.42685101284E+03  0.12499781902E+03 0.  0.
          2    1    1    2  501    0 -0.82695018718E+02 -0.34589453528E+02 -0.53250131537E+03  0.53999309930E+03  0.00000000000E+00 0. -1.
          1    1    1    2  502    0  0.57010121574E+01  0.22717455478E+02  0.84778420901E+03  0.84810768737E+03  0.00000000000E+00 0. -1.
         22    1    3    3    0    0 -0.33917151166E+00 -0.48544972434E+02  0.11495213269E+03  0.12478269990E+03  0.00000000000E+00 0.  1.
         22    1    3    3    0    0  0.77333178073E+02  0.60416970484E+02  0.28568275224E+03  0.30206831294E+03  0.00000000000E+00 0.  1.
</event>
<event>
 7    1  0.5575489E-006  0.6723262E+02  0.7818608E-02  0.1421687E+00
          2   -1    0    0  502    0  0.00000000000E+00  0.00000000000E+00  0.48951313553E+03  0.48951313553E+03  0.00000000000E+00 0. -1.
          1   -1    0    0  501    0 -0.00000000000E+00 -0.00000000000E+00 -0.18022348830E+04  0.18022348830E+04  0.00000000000E+00 0. -1.
         25    2    1    2    0    0 -0.56639716588E+02 -0.51440370999E+02 -0.18403576916E+02  0.14770800709E+03  0.12499917780E+03 0.  0.
          2    1    1    2  501    0 -0.10232327100E+02  0.43253764128E+02 -0.17162187373E+04  0.17167942052E+04  0.00000000000E+00 0. -1.
          1    1    1    2  502    0  0.66872043688E+02  0.81866068714E+01  0.42190056675E+03  0.42724580628E+03  0.00000000000E+00 0. -1.
         22    1    3    3    0    0 -0.31376041241E+02 -0.59901234605E+01 -0.68450543334E+02  0.75536841513E+02  0.00000000000E+00 0.  1.
         22    1    3    3    0    0 -0.25263675347E+02 -0.45450247539E+02  0.50046966418E+02  0.72171165578E+02  0.00000000000E+00 0.  1.
</event>
<event>
 7    1  0.5575489E-006  0.2371426E+03  0.7818608E-02  0.1175363E+00
          2   -1    0    0  502    0  0.00000000000E+00  0.00000000000E+00  0.86508260213E+03  0.86508260213E+03  0.00000000000E+00 0. -1.
          1   -1    0    0  501    0 -0.00000000000E+00 -0.00000000000E+00 -0.33864952727E+04  0.33864952727E+04  0.00000000000E+00 0. -1.
         25    2    1    2    0    0 -0.67595778575E+02  0.93185604592E+02  0.40439562628E+03  0.43864956144E+03  0.12499947608E+03 0.  0.
          2    1    1    2  501    0  0.16509081766E+03 -0.17195559588E+03 -0.33562011971E+04  0.33646560271E+04  0.00000000000E+00 0. -1.
          1    1    1    2  502    0 -0.97495039087E+02  0.78769991292E+02  0.43039290021E+03  0.44827228637E+03  0.00000000000E+00 0. -1.
         22    1    3    3    0    0 -0.16126636824E+02 -0.84850134565E+00 -0.38189183755E+01  0.16594351670E+02  0.00000000000E+00 0.  1.
         22    1    3    3    0    0 -0.51469141750E+02  0.94034105937E+02  0.40821454465E+03  0.42205520977E+03  0.00000000000E+00 0.  1.
</event>
<event>
 7    1  0.5575489E-006  0.1650101E+03  0.7818608E-02  0.1235480E+00
          2   -1    0    0  502    0  0.00000000000E+00  0.00000000000E+00  0.16569055809E+04  0.16569055809E+04  0.00000000000E+00 0. -1.
          1   -1    0    0  501    0 -0.00000000000E+00 -0.00000000000E+00 -0.12355634967E+03  0.12355634967E+03  0.00000000000E+00 0. -1.
         25    2    1    2    0    0 -0.10681458504E+03 -0.62561444940E+02  0.84030842661E+02  0.19495977911E+03  0.12499937194E+03 0.  0.
          2    1    1    2  501    0  0.19212277827E+03  0.10273354552E+03  0.11219343682E+03  0.24505654566E+03  0.00000000000E+00 0. -1.
          1    1    1    2  502    0 -0.85308193240E+02 -0.40172100577E+02  0.13371249518E+04  0.13404456058E+04  0.00000000000E+00 0. -1.
         22    1    3    3    0    0  0.28206110406E+02 -0.31622461183E+01  0.12262897600E+02  0.30918653307E+02  0.00000000000E+00 0. -1.
         22    1    3    3    0    0 -0.13502069544E+03 -0.59399198821E+02  0.71767945061E+02  0.16404112581E+03  0.00000000000E+00 0. -1.
</event>
<event>
 7    1  0.5575489E-006  0.1656120E+03  0.7818608E-02  0.1243746E+00
          2   -1    0    0  502    0  0.00000000000E+00  0.00000000000E+00  0.19525763935E+04  0.19525763935E+04  0.00000000000E+00 0. -1.
          1   -1    0    0  501    0 -0.00000000000E+00 -0.00000000000E+00 -0.13575614773E+04  0.13575614773E+04  0.00000000000E+00 0. -1.
         25    2    1    2    0    0 -0.79265504883E+02  0.79779585023E+02  0.88042030316E+03  0.89633230153E+03  0.12499552833E+03 0.  0.
          2    1    1    2  501    0  0.15919683885E+03 -0.47025740849E+02 -0.13427331487E+04  0.13529550482E+04  0.00000000000E+00 0. -1.
          1    1    1    2  502    0 -0.79931333962E+02 -0.32753844175E+02  0.10573277617E+04  0.10608505211E+04  0.00000000000E+00 0. -1.
         22    1    3    3    0    0 -0.88237481642E+02  0.33907283763E+02  0.77834604434E+03  0.78406512599E+03  0.00000000000E+00 0. -1.
         22    1    3    3    0    0  0.89719767599E+01  0.45872301261E+02  0.10207425882E+03  0.11226717554E+03  0.00000000000E+00 0. -1.
</event>
<event>
 7    1  0.5575489E-006  0.5613346E+02  0.7818608E-02  0.1434421E+00
          2   -1    0    0  502    0  0.00000000000E+00  0.00000000000E+00  0.27105408451E+04  0.27105408451E+04  0.00000000000E+00 0. -1.
          1   -1    0    0  501    0 -0.00000000000E+00 -0.00000000000E+00 -0.43967388577E+02  0.43967388577E+02  0.00000000000E+00 0. -1.
         25    2    1    2    0    0  0.73742347929E+02 -0.65348983221E+02  0.13838192958E+04  0.13929427401E+04  0.12500084143E+03 0.  0.
          2    1    1    2  501    0 -0.50655240029E+02  0.22896188519E+02 -0.19126809628E+02  0.58787954868E+02  0.00000000000E+00 0. -1.
          1    1    1    2  502    0 -0.23087107901E+02  0.42452794703E+02  0.13018809703E+04  0.13027775386E+04  0.00000000000E+00 0. -1.
         22    1    3    3    0    0  0.67406051882E+02 -0.38925611328E+02  0.13333791717E+04  0.13356492034E+04  0.00000000000E+00 0.  1.
         22    1    3    3    0    0  0.63362960477E+01 -0.26423371893E+02  0.50440124062E+02  0.57293536679E+02  0.00000000000E+00 0.  1.
</event>
<event>
 7    1  0.5575489E-006  0.2131827E+03  0.7818608E-02  0.1262174E+00
          2   -1    0    0  502    0  0.00000000000E+00  0.00000000000E+00  0.30516631932E+04  0.30516631932E+04  0.00000000000E+00 0. -1.
          1   -1    0    0  501    0 -0.00000000000E+00 -0.00000000000E+00 -0.28488916513E+02  0.28488916513E+02  0.00000000000E+00 0. -1.
         25    2    1    2    0    0 -0.17679529528E+03 -0.62030056872E+02  0.90641942351E+03  0.93398211189E+03  0.12498843794E+03 0.  0.
          2    1    1    2  501    0  0.23156952978E+03  0.73057786553E+02  0.10401790413E+04  0.10681452735E+04  0.00000000000E+00 0. -1.
          1    1    1    2  502    0 -0.54774234502E+02 -0.11027729681E+02  0.10765758118E+04  0.10780247243E+04  0.00000000000E+00 0. -1.
         22    1    3    3    0    0 -0.16632133542E+02 -0.20663922972E+02  0.22696817468E+02  0.34910902337E+02  0.00000000000E+00 0. -1.
         22    1    3    3    0    0 -0.16016316174E+03 -0.41366133900E+02  0.88372260604E+03  0.89907120955E+03  0.00000000000E+00 0. -1.
</event>
<event>
 7    1  0.5575489E-006  0.6531026E+02  0.7818608E-02  0.1485567E+00
          2   -1    0    0  502    0  0.00000000000E+00  0.00000000000E+00  0.81857848312E+03  0.81857848312E+03  0.00000000000E+00 0. -1.
          1   -1    0    0  501    0 -0.00000000000E+00 -0.00000000000E+00 -0.22991117938E+02  0.22991117938E+02  0.00000000000E+00 0. -1.
         25    2    1    2    0    0 -0.70839819532E+02 -0.55332258067E+02  0.51845055562E+03  0.54082926729E+03  0.12500151567E+03 0.  0.
          2    1    1    2  501    0  0.47646913146E+02  0.38525776687E+02  0.76235346827E+02  0.97807422558E+02  0.00000000000E+00 0. -1.
          1    1    1    2  502    0  0.23192906386E+02  0.16806481380E+02  0.20090146274E+03  0.20293291121E+03  0.00000000000E+00 0. -1.
         22    1    3    3    0    0 -0.55283143648E+02  0.97857999597E+01  0.40671040568E+03  0.41056709798E+03  0.00000000000E+00 0.  1.
         22    1    3    3    0    0 -0.15556675884E+02 -0.65118058026E+02  0.11174014994E+03  0.13026216931E+03  0.00000000000E+00 0.  1.
</event>
<event>
 7    1  0.5575489E-006  0.2322176E+03  0.7818608E-02  0.1321592E+00
          2   -1    0    0  502    0  0.00000000000E+00  0.00000000000E+00  0.98393067847E+03  0.98393067847E+03  0.00000000000E+00 0. -1.
          1   -1    0    0  501    0 -0.00000000000E+00 -0.00000000000E+00 -0.26581094180E+03  0.26581094180E+03  0.00000000000E+00 0. -1.
         25    2    1    2    0    0 -0.15471436534E+03 -0.20336859739E+03  0.43096327215E+03  0.51638224186E+03  0.12500382602E+03 0.  0.
          2    1    1    2  501    0  0.14881153676E+03  0.17452298774E+03 -0.16354859747E+03  0.28169361096E+03  0.00000000000E+00 0. -1.
          1    1    1    2  502    0  0.59028285792E+01  0.28845609659E+02  0.45070506199E+03  0.45166576745E+03  0.00000000000E+00 0. -1.
         22    1    3    3    0    0 -0.16521742001E+02 -0.11917565428E+03  0.21693511425E+03  0.24806581451E+03  0.00000000000E+00 0. -1.
         22    1    3    3    0    0 -0.13819262334E+03 -0.84192943116E+02  0.21402815790E+03  0.26831642736E+03  0.00000000000E+00 0. -1.
</event>
<event>
 7    1  0.5575489E-006  0.9049896E+02  0.7818608E-02  0.1311813E+00
          2   -1    0    0  502    0  0.00000000000E+00  0.00000000000E+00  0.54161577948E+03  0.54161577948E+03  0.00000000000E+00 0. -1.
          1   -1    0    0  501    0 -0.00000000000E+00 -0.00000000000E+00 -0.27152269022E+04  0.27152269022E+04  0.00000000000E+00 0. -1.
         25    2    1    2    0    0  0.94878860251E+00  0.26446438253E+02 -0.10828237615E+03  0.16749412790E+03  0.12501558144E+03 0.  0.
          2    1    1    2  501    0 -0.78934720958E+02  0.23941973864E+02 -0.25724628608E+04  0.25737849713E+04  0.00000000000E+00 0. -1.
          1    1    1    2  502    0  0.77985932356E+02 -0.50388412116E+02  0.50713411425E+03  0.51556358245E+03  0.00000000000E+00 0. -1.
         22    1    3    3    0    0 -0.47373510414E+02  0.45313393688E+02 -0.26632871534E+02  0.70759190093E+02  0.00000000000E+00 0.  1.
         22    1    3    3    0    0  0.48322299017E+02 -0.18866955435E+02 -0.81649504614E+02  0.96734937811E+02  0.00000000000E+00 0.  1.
</event>
<event>
 7    1  0.5575489E-006  0.7455388E+02  0.7818608E-02  0.1376437E+00
          2   -1    0    0  502    0  0.00000000000E+00  0.00000000000E+00  0.15644775007E+03  0.15644775007E+03  0.00000000000E+00 0. -1.
          1   -1    0    0  501    0 -0.00000000000E+00 -0.00000000000E+00 -0.81198140450E+03  0.81198140450E+03  0.00000000000E+00 0. -1.
         25    2    1    2    0    0  0.11547626169E+03  0.47020224250E+02 -0.32612566731E+02  0.17953847206E+03  0.12499925975E+03 0.  0.
          2    1    1    2  501    0 -0.72840975151E+02 -0.86081087932E+01 -0.69381484825E+03  0.69768112404E+03  0.00000000000E+00 0. -1.
          1    1    1    2  502    0 -0.42635286543E+02 -0.38412115457E+02  0.70893760546E+02  0.91209558473E+02  0.00000000000E+00 0. -1.
         22    1    3    3    0    0  0.42782538251E+02  0.37478756337E+02 -0.75555466746E+02  0.94570774085E+02  0.00000000000E+00 0.  1.
         22    1    3    3    0    0  0.72693723443E+02  0.95414679127E+01  0.42942900015E+02  0.84967697978E+02  0.00000000000E+00 0.  1.
</event>
<event>
 7    1  0.5575489E-006  0.8294303E+02  0.7818608E-02  0.1326523E+00
          2   -1    0    0  502    0  0.00000000000E+00  0.00000000000E+00  0.18503339164E+04  0.18503339164E+04  0.00000000000E+00 0. -1.
          1   -1    0    0  501    0 -0.00000000000E+00 -0.00000000000E+00 -0.40161579674E+03  0.40161579674E+03  0.00000000000E+00 0. -1.
         25    2    1    2    0    0 -0.12419820393E+03 -0.24816776124E+01  0.19972936100E+03  0.26636064584E+03  0.12499929369E+03 0.  0.
          2    1    1    2  501    0  0.58759638675E+02  0.52658524583E+02 -0.36300822432E+03  0.37148430151E+03  0.00000000000E+00 0. -1.
          1    1    1    2  502    0  0.65438565257E+02 -0.50176846970E+02  0.16119969830E+04  0.16141047658E+04  0.00000000000E+00 0. -1.
         22    1    3    3    0    0 -0.66732998347E+02  0.20001362008E+01  0.93103118887E+01  0.67409016613E+02  0.00000000000E+00 0.  1.
         22    1    3    3    0    0 -0.57465205585E+02 -0.44818138132E+01  0.19041904911E+03  0.19895162923E+03  0.00000000000E+00 0.  1.
</event>
<event>
 7    1  0.5575489E-006  0.5388759E+02  0.7818608E-02  0.1496080E+00
          2   -1    0    0  502    0  0.00000000000E+00  0.00000000000E+00  0.24429763134E+04  0.24429763134E+04  0.00000000000E+00 0. -1.
          1   -1    0    0  501    0 -0.00000000000E+00 -0.00000000000E+00 -0.13184986133E+04  0.13184986133E+04  0.00000000000E+00 0. -1.
         25    2    1    2    0    0  0.30343329923E+02 -0.80272726799E+02  0.13870645130E+04  0.13953270345E+04  0.12500056747E+03 0.  0.
          2    1    1    2  501    0 -0.22382521538E+02  0.49005483245E+02 -0.13135676029E+04  0.13146719599E+04  0.00000000000E+00 0. -1.
          1    1    1    2  502    0 -0.79608083850E+01  0.31267243554E+02  0.10509807901E+04  0.10514759322E+04  0.00000000000E+00 0. -1.
         22    1    3    3    0    0  0.70886396142E+02 -0.13914179191E+02  0.77018645442E+03  0.77356684269E+03  0.00000000000E+00 0. -1.
         22    1    3    3    0    0 -0.40543066219E+02 -0.66358547608E+02  0.61687805854E+03  0.62176019185E+03  0.00000000000E+00 0. -1.
</event>
<event>
 7    1  0.5575489E-006  0.3569622E+02  0.7818608E-02  0.1554696E+00
          2   -1    0    0  502    0  0.00000000000E+00  0.00000000000E+00  0.18723630186E+04  0.18723630186E+04  0.00000000000E+00 0. -1.
          1   -1    0    0  501    0 -0.00000000000E+00 -0.00000000000E+00 -0.47573096665E+02  0.47573096665E+02  0.00000000000E+00 0. -1.
         25    2    1    2    0    0  0.55087366243E+02 -0.21746061234E+02  0.24719720518E+03  0.28326946859E+03  0.12501049750E+03 0.  0.
          2    1    1    2  501    0 -0.32511044724E+02 -0.56743622299E+01 -0.20058887130E+02  0.38620271473E+02  0.00000000000E+00 0. -1.
          1    1    1    2  502    0 -0.22576321519E+02  0.27420423464E+02  0.15976516039E+04  0.15980463752E+04  0.00000000000E+00 0. -1.
         22    1    3    3    0    0 -0.14204066122E+02  0.28377506454E+01 -0.87830977625E+01  0.16939631915E+02  0.00000000000E+00 0. -1.
         22    1    3    3    0    0  0.69291432365E+02 -0.24583811880E+02  0.25598030295E+03  0.26632983667E+03  0.00000000000E+00 0. -1.
</event>
<event>
 7    1  0.5575489E-006  0.7534210E+02  0.7818608E-02  0.1344820E+00
          2   -1    0    0  502    0  0.00000000000E+00  0.00000000000E+00  0.77262789277E+02  0.77262789277E+02  0.00000000000E+00 0. -1.
          1   -1    0    0  501    0 -0.00000000000E+00 -0.00000000000E+00 -0.83842319061E+03  0.83842319061E+03  0.00000000000E+00 0. -1.
         25    2    1    2    0    0  0.39507919324E+02 -0.69810675316E+02 -0.14896894539E+03  0.21034441405E+03  0.12497447641E+03 0.  0.
          2    1    1    2  501    0 -0.77309047240E+02  0.61329052994E+01 -0.62534022863E+03  0.63013070300E+03  0.00000000000E+00 0. -1.
          1    1    1    2  502    0  0.37801127916E+02  0.63677770016E+02  0.13148772689E+02  0.75210862840E+02  0.00000000000E+00 0. -1.
         22    1    3    3    0    0  0.44738430922E+02 -0.77800113614E+02 -0.16720012473E+03  0.18976371252E+03  0.00000000000E+00 0.  1.
         22    1    3    3    0    0 -0.52305115985E+01  0.79894382981E+01  0.18231179333E+02  0.20580701537E+02  0.00000000000E+00 0.  1.
</event>
<event>
 7    1  0.5575489E-006  0.9344820E+02  0.7818608E-02  0.1304599E+00
          2   -1    0    0  502    0  0.00000000000E+00  0.00000000000E+00  0.55964921275E+03  0.55964921275E+03  0.00000000000E+00 0. -1.
          1   -1    0    0  501    0 -0.00000000000E+00 -0.00000000000E+00 -0.95165231805E+03  0.95165231805E+03  0.00000000000E+00 0. -1.
         25    2    1    2    0    0 -0.16931787623E+03 -0.31004212592E+02 -0.11175539358E+03  0.24030683851E+03  0.12501321622E+03 0.  0.
          2    1    1    2  501    0  0.90328495600E+02 -0.12009850607E+01 -0.76928632769E+03  0.77457222611E+03  0.00000000000E+00 0. -1.
          1    1    1    2  502    0  0.78989380626E+02  0.32205197653E+02  0.48903861599E+03  0.49642246618E+03  0.00000000000E+00 0. -1.
         22    1    3    3    0    0  0.92160248313E+01 -0.18646431168E+02  0.10768289025E+02  0.23421796633E+02  0.00000000000E+00 0.  1.
         22    1    3    3    0    0 -0.17853390106E+03 -0.12357781424E+02 -0.12252368261E+03  0.21688504187E+03  0.00000000000E+00 0.  1.
</event>
<event>
 7    1  0.5575489E-006  0.6484054E+02  0.7818608E-02  0.1390751E+00
          2   -1    0    0  502    0  0.00000000000E+00  0.00000000000E+00  0.16547313359E+04  0.16547313359E+04  0.00000000000E+00 0. -1.
          1   -1    0    0  501    0 -0.00000000000E+00 -0.00000000000E+00 -0.15578051939E+04  0.15578051939E+04  0.00000000000E+00 0. -1.
         25    2    1    2    0    0 -0.35690172809E+02 -0.71851563180E+02  0.21694646596E+03  0.26292134002E+03  0.12500170550E+03 0.  0.
          2    1    1    2  501    0 -0.26471239028E+02  0.52448833655E+02 -0.15335056530E+04  0.15346306378E+04  0.00000000000E+00 0. -1.
          1    1    1    2  502    0  0.62161411838E+02  0.19402729524E+02  0.14134853290E+04  0.14149845520E+04  0.00000000000E+00 0. -1.
         22    1    3    3    0    0 -0.49155782400E+01  0.35885716965E+02  0.46445471125E+02  0.58899315612E+02  0.00000000000E+00 0.  1.
         22    1    3    3    0    0 -0.30774594570E+02 -0.10773728014E+03  0.17050099484E+03  0.20402202441E+03  0.00000000000E+00 0.  1.
</event>
<event>
 7    1  0.5575489E-006  0.6097700E+02  0.7818608E-02  0.1487032E+00
          2   -1    0    0  502    0  0.00000000000E+00  0.00000000000E+00  0.59490981517E+02  0.59490981517E+02  0.00000000000E+00 0. -1.
          1   -1    0    0  501    0 -0.00000000000E+00 -0.00000000000E+00 -0.21334061723E+04  0.21334061723E+04  0.00000000000E+00 0. -1.
         25    2    1    2    0    0 -0.12138292965E+02 -0.88654754045E+02 -0.72959924550E+03  0.74561964129E+03  0.12500634733E+03 0.  0.
          2    1    1    2  501    0  0.10842420474E+02  0.28362803571E+02 -0.13779109456E+04  0.13782454719E+04  0.00000000000E+00 0. -1.
          1    1    1    2  502    0  0.12958724906E+01  0.60291950474E+02  0.33595000386E+02  0.69032040593E+02  0.00000000000E+00 0. -1.
         22    1    3    3    0    0 -0.24466104344E+02 -0.25423543543E+02 -0.59857929563E+03  0.59961831191E+03  0.00000000000E+00 0.  1.
         22    1    3    3    0    0  0.12327811379E+02 -0.63231210503E+02 -0.13101994987E+03  0.14600132937E+03  0.00000000000E+00 0.  1.
</event>
<event>
 7    1  0.5575489E-006  0.9654782E+02  0.7818608E-02  0.1383663E+00
          2   -1    0    0  502    0  0.00000000000E+00  0.00000000000E+00  0.32350279621E+03  0.32350279621E+03  0.00000000000E+00 0. -1.
          1   -1    0    0  501    0 -0.00000000000E+00 -0.00000000000E+00 -0.12431923015E+03  0.12431923015E+03  0.00000000000E+00 0. -1.
         25    2    1    2    0    0  0.32193547699E+02  0.51713460428E+02  0.22530841853E+01  0.13910503078E+03  0.12503770111E+03 0.  0.
          2    1    1    2  501    0  0.28876225838E+02  0.30192362990E+02 -0.35499584068E+02  0.54823678010E+02  0.00000000000E+00 0. -1.
          1    1    1    2  502    0 -0.61069773536E+02 -0.81905823418E+02  0.23243006595E+03  0.25389331757E+03  0.00000000000E+00 0. -1.
         22    1    3    3    0    0 -0.11099129534E+02  0.78312573898E+02 -0.22990462068E+02  0.82368751678E+02  0.00000000000E+00 0. -1.
         22    1    3    3    0    0  0.43292677232E+02 -0.26599113470E+02  0.25243546254E+02  0.56736279106E+02  0.00000000000E+00 0. -1.
</event>
<event>
 7    1  0.5575489E-006  0.3504556E+02  0.7818608E-02  0.1637686E+00
          2   -1    0    0  502    0  0.00000000000E+00  0.00000000000E+00  0.39177768938E+03  0.39177768938E+03  0.00000000000E+00 0. -1.
          1   -1    0    0  501    0 -0.00000000000E+00 -0.00000000000E+00 -0.16525018937E+03  0.16525018937E+03  0.00000000000E+00 0. -1.
         25    2    1    2    0    0  0.25049963249E+02 -0.70228289835E+01 -0.32686521430E+02  0.13179654300E+03  0.12500039711E+03 0.  0.
          2    1    1    2  501    0 -0.34348814239E+02 -0.11073604383E+02 -0.78765549396E+02  0.86639930317E+02  0.00000000000E+00 0. -1.
          1    1    1    2  502    0  0.92988509897E+01  0.18096433367E+02  0.33797957083E+03  0.33859140543E+03  0.00000000000E+00 0. -1.
         22    1    3    3    0    0  0.33175051250E+02  0.39232422677E+02  0.25224032070E+02  0.57236516389E+02  0.00000000000E+00 0. -1.
         22    1    3    3    0    0 -0.81250880005E+01 -0.46255251660E+02 -0.57910553500E+02  0.74560026608E+02  0.00000000000E+00 0. -1.
</event>
<event>
 7    1  0.5575489E-006  0.9318272E+02  0.7818608E-02  0.1425771E+00
          2   -1    0    0  502    0  0.00000000000E+00  0.00000000000E+00  0.53841658789E+03  0.53841658789E+03  0.00000000000E+00 0. -1.
          1   -1    0    0  501    0 -0.00000000000E+00 -0.00000000000E+00 -0.24721395649E+03  0.24721395649E+03  0.00000000000E+00 0. -1.
         25    2    1    2    0    0 -0.27946744790E+02 -0.67490046805E+02  0.28609902589E+01  0.14480622238E+03  0.12499891924E+03 0.  0.
          2    1    1    2  501    0 -0.30219922143E+02 -0.72748559989E+01 -0.16998879863E+03  0.17280728829E+03  0.00000000000E+00 0. -1.
          1    1    1    2  502    0  0.58166666933E+02  0.74764902804E+02  0.45833043977E+03  0.46801703372E+03  0.00000000000E+00 0. -1.
         22    1    3    3    0    0  0.20287928682E+02 -0.58896897292E+02  0.47647495381E+02  0.78426579531E+02  0.00000000000E+00 0. -1.
         22    1    3    3    0    0 -0.48234673473E+02 -0.85931495128E+01 -0.44786505122E+02  0.66379642848E+02  0.00000000000E+00 0. -1.
</event>
<event>
 7    1  0.5575489E-006  0.9983875E+02  0.7818608E-02  0.1458160E+00
          2   -1    0    0  502    0  0.00000000000E+00  0.00000000000E+00  0.15638639413E+03  0.15638639413E+03  0.00000000000E+00 0. -1.
          1   -1    0    0  501    0 -0.00000000000E+00 -0.00000000000E+00 -0.87616511132E+03  0.87616511132E+03  0.00000000000E+00 0. -1.
         25    2    1    2    0    0  0.84691573268E+02  0.69657309465E+02 -0.37958905371E+02  0.17055984701E+03  0.12499991828E+03 0.  0.
          2    1    1    2  501    0  0.10433029524E+01 -0.22765350628E+02 -0.74517959495E+03  0.74552798633E+03  0.00000000000E+00 0. -1.
          1    1    1    2  502    0 -0.85734876220E+02 -0.46891958837E+02  0.63359783124E+02  0.11646367211E+03  0.00000000000E+00 0. -1.
         22    1    3    3    0    0  0.93714266630E+02  0.31027709570E+02  0.19610703221E+02  0.10064622304E+03  0.00000000000E+00 0.  1.
         22    1    3    3    0    0 -0.90226933620E+01  0.38629599895E+02 -0.57569608591E+02  0.69913623972E+02  0.00000000000E+00 0.  1.
</event>
<event>
 7    1  0.5575489E-006  0.9556644E+02  0.7818608E-02  0.1430824E+00
          2   -1    0    0  502    0  0.00000000000E+00  0.00000000000E+00  0.44406827393E+03  0.44406827393E+03  0.00000000000E+00 0. -1.
          1   -1    0    0  501    0 -0.00000000000E+00 -0.00000000000E+00 -0.12673163443E+04  0.12673163443E+04  0.00000000000E+00 0. -1.
         25    2    1    2    0    0 -0.85437724864E+02 -0.10801337921E+02  0.19721378185E+03  0.24886345816E+03  0.12499388517E+03 0.  0.
          2    1    1    2  501    0  0.94148679952E+02 -0.17033739561E+02 -0.12386764243E+04  0.12423660517E+04  0.00000000000E+00 0. -1.
          1    1    1    2  502    0 -0.87109550874E+01  0.27835077481E+02  0.21821457209E+03  0.22015510839E+03  0.00000000000E+00 0. -1.
         22    1    3    3    0    0 -0.33572774251E+02 -0.89142337697E+01 -0.92744246025E+01  0.35952881475E+02  0.00000000000E+00 0. -1.
         22    1    3    3    0    0 -0.51864950613E+02 -0.18871041509E+01  0.20648820645E+03  0.21291057669E+03  0.00000000000E+00 0. -1.
</event>
<event>
 7    1  0.5575489E-006  0.4755283E+02  0.7818608E-02  0.1537909E+00
          2   -1    0    0  502    0  0.00000000000E+00  0.00000000000E+00  0.14958146915E+04  0.14958146915E+04  0.00000000000E+00 0. -1.
          1   -1    0    0  501    0 -0.00000000000E+00 -0.00000000000E+00 -0.23862771258E+02  0.23862771258E+02  0.00000000000E+00 0. -1.
         25    2    1    2    0    0  0.67883409554E+02  0.11032322004E+02  0.77147080259E+03  0.78455227623E+03  0.12500082188E+03 0.  0.
          2    1    1    2  501    0 -0.41997751436E+02 -0.20634330044E+02  0.15072350611E+02  0.49160578262E+02  0.00000000000E+00 0. -1.
          1    1    1    2  502    0 -0.25885658117E+02  0.96020080399E+01  0.68540876704E+03  0.68596460826E+03  0.00000000000E+00 0. -1.
         22    1    3    3    0    0  0.10238249198E+03  0.16982550063E+02  0.64623836081E+03  0.65451860222E+03  0.00000000000E+00 0. -1.
         22    1    3    3    0    0 -0.34499082431E+02 -0.59502280597E+01  0.12523244178E+03  0.13003367401E+03  0.00000000000E+00 0. -1.
</event>
<event>
 7    1  0.5575489E-006  0.1548699E+03  0.7818608E-02  0.1301747E+00
          2   -1    0    0  502    0  0.00000000000E+00  0.00000000000E+00  0.32642557099E+03  0.32642557099E+03  0.00000000000E+00 0. -1.
          1   -1    0    0  501    0 -0.00000000000E+00 -0.00000000000E+00 -0.95845593440E+03  0.95845593440E+03  0.00000000000E+00 0. -1.
         25    2    1    2    0    0 -0.33928897779E+02  0.14429738760E+03 -0.17506917818E+03  0.26124490367E+03  0.12500710528E+03 0.  0.
          2    1    1    2  501    0 -0.17449845939E+02 -0.15661805966E+03 -0.72934514608E+03  0.74617561997E+03  0.00000000000E+00 0. -1.
          1    1    1    2  502    0  0.51378743717E+02  0.12320672054E+02  0.27238396085E+03  0.27746098175E+03  0.00000000000E+00 0. -1.
         22    1    3    3    0    0  0.31947776246E+02  0.13154439112E+02 -0.23999916772E+01  0.34633215783E+02  0.00000000000E+00 0.  1.
         22    1    3    3    0    0 -0.65876674024E+02  0.13114294849E+03 -0.17266918650E+03  0.22661168789E+03  0.00000000000E+00 0.  1.
</event>
<event>
 7    1  0.5575489E-006  0.6259803E+02  0.7818608E-02  0.1415157E+00
          2   -1    0    0  502    0  0.00000000000E+00  0.00000000000E+00  0.13631951080E+04  0.13631951080E+04  0.00000000000E+00 0. -1.
          1   -1    0    0  501    0 -0.00000000000E+00 -0.00000000000E+00 -0.81542806209E+03  0.81542806209E+03  0.00000000000E+00 0. -1.
         25    2    1    2    0    0  0.10837675447E+03 -0.23632581166E+02  0.68104596793E+03  0.70125092614E+03  0.12500092467E+03 0.  0.
          2    1    1    2  501    0 -0.58179783127E+02  0.22875996015E+02 -0.80317168364E+03  0.80560098793E+03  0.00000000000E+00 0. -1.
          1    1    1    2  502    0 -0.50196971347E+02  0.75658515150E+00  0.66989276159E+03  0.67177125600E+03  0.00000000000E+00 0. -1.
         22    1    3    3    0    0  0.32272011252E+02 -0.69027998193E+02  0.25769126411E+03  0.26872129585E+03  0.00000000000E+00 0.  1.
         22    1    3    3    0    0  0.76104743221E+02  0.45395417026E+02  0.42335470382E+03  0.43252963028E+03  0.00000000000E+00 0.  1.
</event>
<event>
 7    1  0.5575489E-006  0.1168918E+03  0.7818608E-02  0.1272588E+00
          2   -1    0    0  502    0  0.00000000000E+00  0.00000000000E+00  0.10261164138E+03  0.10261164138E+03  0.00000000000E+00 0. -1.
          1   -1    0    0  501    0 -0.00000000000E+00 -0.00000000000E+00 -0.17559008991E+04  0.17559008991E+04  0.00000000000E+00 0. -1.
         25    2    1    2    0    0 -0.17850679526E+03 -0.71250006234E+02 -0.25507941326E+03  0.34298295610E+03  0.12502224508E+03 0.  0.
          2    1    1    2  501    0  0.86436717897E+02  0.73533996973E+02 -0.14169973897E+04  0.14215344376E+04  0.00000000000E+00 0. -1.
          1    1    1    2  502    0  0.92070077362E+02 -0.22839907394E+01  0.18787545232E+02  0.93995146763E+02  0.00000000000E+00 0. -1.
         22    1    3    3    0    0 -0.53221210062E+02 -0.83723548508E+02 -0.14530696913E+03  0.17594386904E+03  0.00000000000E+00 0. -1.
         22    1    3    3    0    0 -0.12528558520E+03  0.12473542274E+02 -0.10977244412E+03  0.16703908705E+03  0.00000000000E+00 0. -1.
</event>
<event>
 7    1  0.5575489E-006  0.1112635E+03  0.7818608E-02  0.1359711E+00
          2   -1    0    0  502    0  0.00000000000E+00  0.00000000000E+00  0.14721246236E+04  0.14721246236E+04  0.00000000000E+00 0. -1.
          1   -1    0    0  501    0 -0.00000000000E+00 -0.00000000000E+00 -0.64220105173E+03  0.64220105173E+03  0.00000000000E+00 0. -1.
         25    2    1    2    0    0 -0.11078912640E+03 -0.55749043624E+02  0.27047032787E+03  0.32275863015E+03  0.12504698590E+03 0.  0.
          2    1    1    2  501    0  0.75183505397E+02  0.81906534641E+02 -0.61062031613E+03  0.62065965744E+03  0.00000000000E+00 0. -1.
          1    1    1    2  502    0  0.35605621002E+02 -0.26157491017E+02  0.11700735601E+04  0.11709073877E+04  0.00000000000E+00 0. -1.
         22    1    3    3    0    0 -0.12693348342E+02  0.55102577994E+01  0.16701169205E+03  0.16758397690E+03  0.00000000000E+00 0. -1.
         22    1    3    3    0    0 -0.98095778057E+02 -0.61259301423E+02  0.10345863582E+03  0.15517465324E+03  0.00000000000E+00 0. -1.
</event>
<event>
 7    1  0.5575489E-006  0.6368949E+02  0.7818608E-02  0.1411287E+00
          2   -1    0    0  502    0  0.00000000000E+00  0.00000000000E+00  0.30749872615E+04  0.30749872615E+04  0.00000000000E+00 0. -1.
          1   -1    0    0  501    0 -0.00000000000E+00 -0.00000000000E+00 -0.10953485259E+04  0.10953485259E+04  0.00000000000E+00 0. -1.
         25    2    1    2    0    0  0.34872584900E+02  0.66340619673E+02  0.23426935313E+03  0.27590449526E+03  0.12499594271E+03 0.  0.
          2    1    1    2  501    0 -0.50648761637E+02 -0.44982560588E+01 -0.10735679999E+04  0.10747715021E+04  0.00000000000E+00 0. -1.
          1    1    1    2  502    0  0.15776176737E+02 -0.61842363614E+02  0.28189373824E+04  0.28196597900E+04  0.00000000000E+00 0. -1.
         22    1    3    3    0    0  0.93792171745E+01  0.76289925439E+02  0.23627673612E+03  0.24846492402E+03  0.00000000000E+00 0.  1.
         22    1    3    3    0    0  0.25493367726E+02 -0.99493057662E+01 -0.20073829933E+01  0.27439571238E+02  0.00000000000E+00 0.  1.
</event>
<event>
 7    1  0.5575489E-006  0.1902550E+03  0.7818608E-02  0.1222168E+00
          2   -1    0    0  502    0  0.00000000000E+00  0.00000000000E+00  0.15625161233E+04  0.15625161233E+04  0.00000000000E+00 0. -1.
          1   -1    0    0  501    0 -0.00000000000E+00 -0.00000000000E+00 -0.78774852686E+03  0.78774852686E+03  0.00000000000E+00 0. -1.
         25    2    1    2    0    0  0.10879879434E+03 -0.11237715199E+03 -0.40800159789E+02  0.20434122099E+03  0.12499951847E+03 0.  0.
          2    1    1    2  501    0 -0.57300333389E+02  0.19084401970E+03 -0.64871898316E+03  0.67863177584E+03  0.00000000000E+00 0. -1.
          1    1    1    2  502    0 -0.51498460949E+02 -0.78466867715E+02  0.14642867393E+04  0.14672916533E+04  0.00000000000E+00 0. -1.
         22    1    3    3    0    0  0.95233487018E+02 -0.36696216680E+02 -0.68165270444E+02  0.12272951341E+03  0.00000000000E+00 0.  1.
         22    1    3    3    0    0  0.13565307320E+02 -0.75680935306E+02  0.27365110655E+02  0.81611707571E+02  0.00000000000E+00 0.  1.
</event>
<event>
 7    1  0.5575489E-006  0.8851742E+02  0.7818608E-02  0.1381435E+00
          2   -1    0    0  502    0  0.00000000000E+00  0.00000000000E+00  0.44678306222E+03  0.44678306222E+03  0.00000000000E+00 0. -1.
          1   -1    0    0  501    0 -0.00000000000E+00 -0.00000000000E+00 -0.54198779777E+03  0.54198779777E+03  0.00000000000E+00 0. -1.
         25    2    1    2    0    0 -0.33232343690E+02  0.30457647565E+02 -0.22743926440E+03  0.26341039258E+03  0.12499743585E+03 0.  0.
          2    1    1    2  501    0 -0.17988948875E+02  0.42771739692E+02 -0.29004266149E+03  0.29373077721E+03  0.00000000000E+00 0. -1.
          1    1    1    2  502    0  0.51221292564E+02 -0.73229387256E+02  0.42227719035E+03  0.43162969019E+03  0.00000000000E+00 0. -1.
         22    1    3    3    0    0 -0.69085615794E+02  0.46147146276E+02 -0.99530358921E+02  0.12964826943E+03  0.00000000000E+00 0. -1.
         22    1    3    3    0    0  0.35853272104E+02 -0.15689498711E+02 -0.12790890548E+03  0.13376212316E+03  0.00000000000E+00 0. -1.
</event>
<event>
 7    1  0.5575489E-006  0.2503048E+02  0.7818608E-02  0.1678399E+00
          2   -1    0    0  502    0  0.00000000000E+00  0.00000000000E+00  0.10060335226E+02  0.10060335226E+02  0.00000000000E+00 0. -1.
          1   -1    0    0  501    0 -0.00000000000E+00 -0.00000000000E+00 -0.10819142431E+04  0.10819142431E+04  0.00000000000E+00 0. -1.
         25    2    1    2    0    0  0.42221626453E+02 -0.33913159806E+01 -0.62461881220E+03  0.63841048252E+03  0.12500046752E+03 0.  0.
          2    1    1    2  501    0 -0.19665290901E+02  0.11312927522E+02 -0.39981807424E+03  0.40046123218E+03  0.00000000000E+00 0. -1.
          1    1    1    2  502    0 -0.22556335551E+02 -0.79216115418E+01 -0.47417021491E+02  0.53102863670E+02  0.00000000000E+00 0. -1.
         22    1    3    3    0    0  0.26698486849E+02  0.23732334677E+01 -0.62084968982E+03  0.62142801577E+03  0.00000000000E+00 0. -1.
         22    1    3    3    0    0  0.15523139603E+02 -0.57645494483E+01 -0.37691223785E+01  0.16982466752E+02  0.00000000000E+00 0. -1.
</event>
<event>
 7    1  0.5575489E-006  0.1447733E+03  0.7818608E-02  0.1260245E+00
          2   -1    0    0  502    0  0.00000000000E+00  0.00000000000E+00  0.15415235551E+04  0.15415235551E+04  0.00000000000E+00 0. -1.
          1   -1    0    0  501    0 -0.00000000000E+00 -0.00000000000E+00 -0.40422945377E+03  0.40422945377E+03  0.00000000000E+00 0. -1.
         25    2    1    2    0    0 -0.31199600635E+02  0.17716596727E+03  0.25005468457E+03  0.33243603229E+03  0.12500070100E+03 0.  0.
          2    1    1    2  501    0  0.73416313125E+02 -0.40499929916E+02 -0.35403501929E+03  0.36382824827E+03  0.00000000000E+00 0. -1.
          1    1    1    2  502    0 -0.42216712490E+02 -0.13666603736E+03  0.12412744361E+04  0.12494887283E+04  0.00000000000E+00 0. -1.
         22    1    3    3    0    0 -0.79625989048E+02  0.10470154682E+03  0.15967010889E+03  0.20687497604E+03  0.00000000000E+00 0. -1.
         22    1    3    3    0    0  0.48426388413E+02  0.72464420456E+02  0.90384575675E+02  0.12556105625E+03  0.00000000000E+00 0. -1.
</event>
<event>
 7    1  0.5575489E-006  0.6424426E+02  0.7818608E-02  0.1529073E+00
          2   -1    0    0  502    0  0.00000000000E+00  0.00000000000E+00  0.13079309817E+03  0.13079309817E+03  0.00000000000E+00 0. -1.
          1   -1    0    0  501    0 -0.00000000000E+00 -0.00000000000E+00 -0.94040280515E+03  0.94040280515E+03  0.00000000000E+00 0. -1.
         25    2    1    2    0    0 -0.32937536440E+02  0.74003123937E+02 -0.46086400732E+03  0.48433648185E+03  0.12499940298E+03 0.  0.
          2    1    1    2  501    0 -0.34293096463E+01 -0.21383476284E+02 -0.45893752831E+03  0.45944822136E+03  0.00000000000E+00 0. -1.
          1    1    1    2  502    0  0.36366846086E+02 -0.52619647653E+02  0.11019182865E+03  0.12741120011E+03  0.00000000000E+00 0. -1.
         22    1    3    3    0    0  0.48395800123E+01 -0.24814662365E+02 -0.24050005351E+02  0.34894007513E+02  0.00000000000E+00 0.  1.
         22    1    3    3    0    0 -0.37777116452E+02  0.98817786302E+02 -0.43681400197E+03  0.44944247433E+03  0.00000000000E+00 0.  1.
</event>
<event>
 7    1  0.5575489E-006  0.5979226E+02  0.7818608E-02  0.1418424E+00
          2   -1    0    0  502    0  0.00000000000E+00  0.00000000000E+00  0.90335908901E+03  0.90335908901E+03  0.00000000000E+00 0. -1.
          1   -1    0    0  501    0 -0.00000000000E+00 -0.00000000000E+00 -0.29854330741E+03  0.29854330741E+03  0.00000000000E+00 0. -1.
         25    2    1    2    0    0 -0.62492938216E+02  0.25462314030E+02  0.32424932597E+03  0.35399976722E+03  0.12499805213E+03 0.  0.
          2    1    1    2  501    0  0.40436195700E+02  0.31485264227E+02 -0.27968046459E+03  0.28433707120E+03  0.00000000000E+00 0. -1.
          1    1    1    2  502    0  0.22056742515E+02 -0.56947578257E+02  0.56024692021E+03  0.56356555800E+03  0.00000000000E+00 0. -1.
         22    1    3    3    0    0 -0.71840106295E+02 -0.14739962647E+02  0.89780886853E+02  0.11592616191E+03  0.00000000000E+00 0. -1.
         22    1    3    3    0    0  0.93471680797E+01  0.40202276677E+02  0.23446843912E+03  0.23807360531E+03  0.00000000000E+00 0. -1.
</event>
<event>
 7    1  0.5575489E-006  0.1081103E+03  0.7818608E-02  0.1272541E+00
          2   -1    0    0  502    0  0.00000000000E+00  0.00000000000E+00  0.10751595738E+04  0.10751595738E+04  0.00000000000E+00 0. -1.
          1   -1    0    0  501    0 -0.00000000000E+00 -0.00000000000E+00 -0.94238910005E+03  0.94238910005E+03  0.00000000000E+00 0. -1.
         25    2    1    2    0    0 -0.12774363067E+03 -0.16083988382E+03  0.11353024889E+03  0.26590316391E+03  0.12500988666E+03 0.  0.
          2    1    1    2  501    0  0.59518618208E+02  0.88242157676E+02 -0.86010950346E+03  0.86667035386E+03  0.00000000000E+00 0. -1.
          1    1    1    2  502    0  0.68225012461E+02  0.72597726140E+02  0.87934972829E+03  0.88497515605E+03  0.00000000000E+00 0. -1.
         22    1    3    3    0    0 -0.52487792916E+02 -0.15369148605E+03  0.94693374160E+02  0.18799701168E+03  0.00000000000E+00 0.  1.
         22    1    3    3    0    0 -0.75255837752E+02 -0.71483977672E+01  0.18836874726E+02  0.77906152233E+02  0.00000000000E+00 0.  1.
</event>
<event>
 7    1  0.5575489E-006  0.7822678E+02  0.7818608E-02  0.1357461E+00
          2   -1    0    0  502    0  0.00000000000E+00  0.00000000000E+00  0.31742354742E+04  0.31742354742E+04  0.00000000000E+00 0. -1.
          1   -1    0    0  501    0 -0.00000000000E+00 -0.00000000000E+00 -0.15411198534E+02  0.15411198534E+02  0.00000000000E+00 0. -1.
         25    2    1    2    0    0 -0.10123861202E+03  0.79431651984E+02  0.21158369176E+04  0.21234286754E+04  0.12499933432E+03 0.  0.
          2    1    1    2  501    0  0.72080824988E+02 -0.22412542715E+02  0.12517251749E+03  0.14617156542E+03  0.00000000000E+00 0. -1.
          1    1    1    2  502    0  0.29157787030E+02 -0.57019109269E+02  0.91781484053E+03  0.92004643190E+03  0.00000000000E+00 0. -1.
         22    1    3    3    0    0  0.18075047811E+02  0.41858884179E+01  0.61082394207E+02  0.63837981620E+02  0.00000000000E+00 0. -1.
         22    1    3    3    0    0 -0.11931365983E+03  0.75245763566E+02  0.20547545234E+04  0.20595906938E+04  0.00000000000E+00 0. -1.
</event>
<event>
 7    1  0.5575489E-006  0.4852516E+02  0.7818608E-02  0.1485813E+00
          2   -1    0    0  502    0  0.00000000000E+00  0.00000000000E+00  0.30247142390E+04  0.30247142390E+04  0.00000000000E+00 0. -1.
          1   -1    0    0  501    0 -0.00000000000E+00 -0.00000000000E+00 -0.13412598248E+03  0.13412598248E+03  0.00000000000E+00 0. -1.
         25    2    1    2    0    0 -0.30193387564E+02 -0.13729232754E+02  0.42093729842E+03  0.44035443339E+03  0.12499474115E+03 0.  0.
          2    1    1    2  501    0  0.11620235990E+02  0.47433694809E+02 -0.11947660565E+03  0.12907224560E+03  0.00000000000E+00 0. -1.
          1    1    1    2  502    0  0.18573151574E+02 -0.33704462055E+02  0.25891275637E+04  0.25894135425E+04  0.00000000000E+00 0. -1.
         22    1    3    3    0    0  0.27071394285E+02  0.38904793911E+02  0.21635476626E+03  0.22148550350E+03  0.00000000000E+00 0. -1.
         22    1    3    3    0    0 -0.57264781849E+02 -0.52634026666E+02  0.20458253216E+03  0.21886892989E+03  0.00000000000E+00 0. -1.
</event>
<event>
 7    1  0.5575489E-006  0.5669270E+02  0.7818608E-02  0.1484478E+00
          2   -1    0    0  502    0  0.00000000000E+00  0.00000000000E+00  0.23340534163E+02  0.23340534163E+02  0.00000000000E+00 0. -1.
          1   -1    0    0  501    0 -0.00000000000E+00 -0.00000000000E+00 -0.11501656296E+04  0.11501656296E+04  0.00000000000E+00 0. -1.
         25    2    1    2    0    0 -0.30221609573E+01  0.34588379738E+02 -0.72613505201E+03  0.73763304226E+03  0.12499960724E+03 0.  0.
          2    1    1    2  501    0  0.11654537452E+02 -0.66697123766E+02 -0.39664115299E+03  0.40237860133E+03  0.00000000000E+00 0. -1.
          1    1    1    2  502    0 -0.86323764951E+01  0.32108744029E+02 -0.40488904257E+01  0.33494520160E+02  0.00000000000E+00 0. -1.
         22    1    3    3    0    0  0.22513044751E+02  0.55175230152E+02 -0.16313553835E+03  0.17367886192E+03  0.00000000000E+00 0.  1.
         22    1    3    3    0    0 -0.25535205709E+02 -0.20586850414E+02 -0.56299951365E+03  0.56395418033E+03  0.00000000000E+00 0.  1.
</event>
<event>
 7    1  0.5575489E-006  0.1069444E+03  0.7818608E-02  0.1361648E+00
          2   -1    0    0  502    0  0.00000000000E+00  0.00000000000E+00  0.23299426959E+03  0.23299426959E+03  0.00000000000E+00 0. -1.
          1   -1    0    0  501    0 -0.00000000000E+00 -0.00000000000E+00 -0.51241267523E+03  0.51241267523E+03  0.00000000000E+00 0. -1.
         25    2    1    2    0    0 -0.64878239033E+02 -0.11573898462E+03 -0.17140480253E+03  0.25021788136E+03  0.12499873344E+03 0.  0.
          2    1    1    2  501    0  0.73205892713E+02  0.71287993321E+02 -0.29010048357E+03  0.30757010792E+03  0.00000000000E+00 0. -1.
          1    1    1    2  502    0 -0.83276536802E+01  0.44450991297E+02  0.18208688046E+03  0.18761895555E+03  0.00000000000E+00 0. -1.
         22    1    3    3    0    0  0.30250345230E+02 -0.62776465056E+01 -0.83524559361E+01  0.32003995881E+02  0.00000000000E+00 0.  1.
         22    1    3    3    0    0 -0.95128584263E+02 -0.10946133811E+03 -0.16305234660E+03  0.21821388548E+03  0.00000000000E+00 0.  1.
</event>
<event>
 7    1  0.5575489E-006  0.1203955E+03  0.7818608E-02  0.1307063E+00
          2   -1    0    0  502    0  0.00000000000E+00  0.00000000000E+00  0.97486310184E+03  0.97486310184E+03  0.00000000000E+00 0. -1.
          1   -1    0    0  501    0 -0.00000000000E+00 -0.00000000000E+00 -0.70579129556E+02  0.70579129556E+02  0.00000000000E+00 0. -1.
         25    2    1    2    0    0  0.46313886745E+02  0.14801077102E+03  0.13869726960E+03  0.24272640334E+03  0.12500803911E+03 0.  0.
          2    1    1    2  501    0 -0.48993612311E+02 -0.83329963784E+02  0.12093085643E+03  0.15481772815E+03  0.00000000000E+00 0. -1.
          1    1    1    2  502    0  0.26797255663E+01 -0.64680807237E+02  0.64465584625E+03  0.64789809990E+03  0.00000000000E+00 0. -1.
         22    1    3    3    0    0  0.26554594870E+02 -0.45598263803E+01 -0.10025646971E+02  0.28748080328E+02  0.00000000000E+00 0.  1.
         22    1    3    3    0    0  0.19759291874E+02  0.15257059740E+03  0.14872291657E+03  0.21397832301E+03  0.00000000000E+00 0.  1.
</event>
<event>
 7    1  0.5575489E-006  0.1615602E+03  0.7818608E-02  0.1277130E+00
          2   -1    0    0  502    0  0.00000000000E+00  0.00000000000E+00  0.13965741181E+03  0.13965741181E+03  0.00000000000E+00 0. -1.
          1   -1    0    0  501    0 -0.00000000000E+00 -0.00000000000E+00 -0.11299621959E+04  0.11299621959E+04  0.00000000000E+00 0. -1.
         25    2    1    2    0    0  0.18924890967E+03 -0.71072788772E+02 -0.36064553655E+03  0.43192213445E+03  0.12500014432E+03 0.  0.
          2    1    1    2  501    0 -0.12713382027E+03  0.85609536076E+02 -0.71494671112E+03  0.73119135708E+03  0.00000000000E+00 0. -1.
          1    1    1    2  502    0 -0.62115089402E+02 -0.14536747304E+02  0.85287463538E+02  0.10650611621E+03  0.00000000000E+00 0. -1.
         22    1    3    3    0    0  0.12262977586E+03 -0.10202628053E+03 -0.28415344324E+03  0.32586899692E+03  0.00000000000E+00 0.  1.
         22    1    3    3    0    0  0.66619133812E+02  0.30953491760E+02 -0.76492093302E+02  0.10605313753E+03  0.00000000000E+00 0.  1.
</event>
<event>
 7    1  0.5575489E-006  0.5872403E+02  0.7818608E-02  0.1417202E+00
          2   -1    0    0  502    0  0.00000000000E+00  0.00000000000E+00  0.10375882229E+04  0.10375882229E+04  0.00000000000E+00 0. -1.
          1   -1    0    0  501    0 -0.00000000000E+00 -0.00000000000E+00 -0.12541172862E+03  0.12541172862E+03  0.00000000000E+00 0. -1.
         25    2    1    2    0    0  0.81953442827E+02 -0.51225611994E+02  0.16357929372E+03  0.22742715692E+03  0.12499798500E+03 0.  0.
          2    1    1    2  501    0 -0.24265278874E+02  0.46752954259E+02 -0.84984668198E+02  0.99985180499E+02  0.00000000000E+00 0. -1.
          1    1    1    2  502    0 -0.57688163953E+02  0.44726577349E+01  0.83358186874E+03  0.83558761409E+03  0.00000000000E+00 0. -1.
         22    1    3    3    0    0  0.24699917644E+02 -0.45451997229E+01 -0.18328894256E+02  0.31091689192E+02  0.00000000000E+00 0. -1.
         22    1    3    3    0    0  0.57253525183E+02 -0.46680412271E+02  0.18190818797E+03  0.19633546772E+03  0.00000000000E+00 0. -1.
</event>
<event>
 7    1  0.5575489E-006  0.2115190E+03  0.7818608E-02  0.1268333E+00
          2   -1    0    0  502    0  0.00000000000E+00  0.00000000000E+00  0.11849152338E+04  0.11849152338E+04  0.00000000000E+00 0. -1.
          1   -1    0    0  501    0 -0.00000000000E+00 -0.00000000000E+00 -0.10387748813E+04  0.10387748813E+04  0.00000000000E+00 0. -1.
         25    2    1    2    0    0 -0.10923519552E+03  0.14243672993E+03 -0.29108459964E+03  0.36410584077E+03  0.12498907617E+03 0.  0.
          2    1    1    2  501    0  0.11857893340E+03 -0.19463969115E+03 -0.69228116353E+03  0.72883385088E+03  0.00000000000E+00 0. -1.
          1    1    1    2  502    0 -0.93437378718E+01  0.52202961223E+02  0.11295061157E+04  0.11307504234E+04  0.00000000000E+00 0. -1.
         22    1    3    3    0    0 -0.10089531748E+03  0.71351858228E+02 -0.96545191338E+02  0.15681813266E+03  0.00000000000E+00 0.  1.
         22    1    3    3    0    0 -0.83398780468E+01  0.71084871700E+02 -0.19453940830E+03  0.20728770811E+03  0.00000000000E+00 0.  1.
</event>
<event>
 7    1  0.5575489E-006  0.9610409E+02  0.7818608E-02  0.1296894E+00
          2   -1    0    0  502    0  0.00000000000E+00  0.00000000000E+00  0.17702818726E+04  0.17702818726E+04  0.00000000000E+00 0. -1.
          1   -1    0    0  501    0 -0.00000000000E+00 -0.00000000000E+00 -0.16931941482E+04  0.16931941482E+04  0.00000000000E+00 0. -1.
         25    2    1    2    0    0  0.22423976831E+01  0.54786928564E+02  0.22048798398E+03  0.25931934641E+03  0.12499974581E+03 0.  0.
          2    1    1    2  501    0 -0.89036251769E+02 -0.10359628429E+01 -0.16708891387E+04  0.16732600041E+04  0.00000000000E+00 0. -1.
          1    1    1    2  502    0  0.86793854086E+02 -0.53750965721E+02  0.15274888791E+04  0.15308966703E+04  0.00000000000E+00 0. -1.
         22    1    3    3    0    0  0.47783775418E+02  0.16904240975E+02  0.18139886912E+03  0.18834699964E+03  0.00000000000E+00 0. -1.
         22    1    3    3    0    0 -0.45541377735E+02  0.37882687589E+02  0.39089114859E+02  0.70972346766E+02  0.00000000000E+00 0. -1.
</event>
<event>
 7    1  0.5575489E-006  0.1380034E+03  0.7818608E-02  0.1332601E+00
          2   -1    0    0  502    0  0.00000000000E+00  0.00000000000E+00  0.31451636283E+03  0.31451636283E+03  0.00000000000E+00 0. -1.
          1   -1    0    0  501    0 -0.00000000000E+00 -0.00000000000E+00 -0.93060528232E+03  0.93060528232E+03  0.00000000000E+00 0. -1.
         25    2    1    2    0    0 -0.88173287344E+02 -0.53804636807E+02 -0.21760367150E+03  0.27137224994E+03  0.12498829002E+03 0.  0.
          2    1    1    2  501    0 -0.44404306503E+02  0.69936109872E+01 -0.66813511259E+03  0.66964556424E+03  0.00000000000E+00 0. -1.
          1    1    1    2  502    0  0.13257759385E+03  0.46811025819E+02  0.26964986461E+03  0.30410383097E+03  0.00000000000E+00 0. -1.
         22    1    3    3    0    0 -0.10553501202E+03 -0.78303017043E+02 -0.16664708939E+03  0.21222689190E+03  0.00000000000E+00 0. -1.
         22    1    3    3    0    0  0.17361724677E+02  0.24498380236E+02 -0.50956582111E+02  0.59145358046E+02  0.00000000000E+00 0. -1.
</event>
<event>
 7    1  0.5575489E-006  0.6675177E+02  0.7818608E-02  0.1420622E+00
          2   -1    0    0  502    0  0.00000000000E+00  0.00000000000E+00  0.12413036759E+03  0.12413036759E+03  0.00000000000E+00 0. -1.
          1   -1    0    0  501    0 -0.00000000000E+00 -0.00000000000E+00 -0.37284893889E+03  0.37284893889E+03  0.00000000000E+00 0. -1.
         25    2    1    2    0    0  0.72466548089E+01  0.80407350148E+02 -0.10247286847E+03  0.18067552612E+03  0.12500040401E+03 0.  0.
          2    1    1    2  501    0 -0.41983903650E+02 -0.51588779987E+02 -0.21999998752E+03  0.22983482089E+03  0.00000000000E+00 0. -1.
          1    1    1    2  502    0  0.34737248841E+02 -0.28818570161E+02  0.73754284680E+02  0.86468959470E+02  0.00000000000E+00 0. -1.
         22    1    3    3    0    0  0.58515320378E+02  0.74254374474E+02 -0.49560149865E+02  0.10674250935E+03  0.00000000000E+00 0.  1.
         22    1    3    3    0    0 -0.51268665569E+02  0.61529756739E+01 -0.52912718603E+02  0.73933016771E+02  0.00000000000E+00 0.  1.
</event>
<event>
 7    1  0.5575489E-006  0.1313614E+03  0.7818608E-02  0.1233546E+00
          2   -1    0    0  502    0  0.00000000000E+00  0.00000000000E+00  0.88880922133E+03  0.88880922133E+03  0.00000000000E+00 0. -1.
          1   -1    0    0  501    0 -0.00000000000E+00 -0.00000000000E+00 -0.11264558512E+04  0.11264558512E+04  0.00000000000E+00 0. -1.
         25    2    1    2    0    0 -0.19909645553E+03  0.21667246860E+02 -0.27909109824E+03  0.36554964335E+03  0.12500332974E+03 0.  0.
          2    1    1    2  501    0  0.95430780021E+02 -0.83720730098E+02 -0.79475626793E+03  0.80483148537E+03  0.00000000000E+00 0. -1.
          1    1    1    2  502    0  0.10366567551E+03  0.62053483239E+02  0.83620073631E+03  0.84488394379E+03  0.00000000000E+00 0. -1.
         22    1    3    3    0    0 -0.16950626292E+03  0.61529309731E+02 -0.18038721673E+03  0.25506426069E+03  0.00000000000E+00 0. -1.
         22    1    3    3    0    0 -0.29590192611E+02 -0.39862062871E+02 -0.98703881514E+02  0.11048538266E+03  0.00000000000E+00 0. -1.
</event>
<event>
 7    1  0.5575489E-006  0.1303807E+03  0.7818608E-02  0.1289627E+00
          2   -1    0    0  502    0  0.00000000000E+00  0.00000000000E+00  0.21116645263E+04  0.21116645263E+04  0.00000000000E+00 0. -1.
          1   -1    0    0  501    0 -0.00000000000E+00 -0.00000000000E+00 -0.37235392377E+03  0.37235392377E+03  0.00000000000E+00 0. -1.
         25    2    1    2    0    0 -0.71511382592E+02  0.15137862903E+03  0.54483209655E+02  0.21592648747E+03  0.12500584263E+03 0.  0.
          2    1    1    2  501    0  0.95143975750E+02 -0.85243317252E+02 -0.27698453991E+03  0.30502333453E+03  0.00000000000E+00 0. -1.
          1    1    1    2  502    0 -0.23632593158E+02 -0.66135311776E+02  0.19618119328E+04  0.19630686281E+04  0.00000000000E+00 0. -1.
         22    1    3    3    0    0 -0.61962548660E+02  0.12274128389E+03  0.93737054945E+02  0.16640737868E+03  0.00000000000E+00 0. -1.
         22    1    3    3    0    0 -0.95488339325E+01  0.28637345133E+02 -0.39253845290E+02  0.49519108795E+02  0.00000000000E+00 0. -1.
</event>
<event>
 7    1  0.5575489E-006  0.3385925E+02  0.7818608E-02  0.1577770E+00
          2   -1    0    0  502    0  0.00000000000E+00  0.00000000000E+00  0.15502902375E+04  0.15502902375E+04  0.00000000000E+00 0. -1.
          1   -1    0    0  501    0 -0.00000000000E+00 -0.00000000000E+00 -0.18052521311E+02  0.18052521311E+02  0.00000000000E+00 0. -1.
         25    2    1    2    0    0  0.82658454081E+01 -0.19206656524E+01  0.11611885872E+04  0.11679300385E+04  0.12501850486E+03 0.  0.
          2    1    1    2  501    0 -0.13740337633E+02  0.31513365006E+02  0.69526678166E+01  0.35074615351E+02  0.00000000000E+00 0. -1.
          1    1    1    2  502    0  0.54744922248E+01 -0.29592699353E+02  0.36409646112E+03  0.36533810494E+03  0.00000000000E+00 0. -1.
         22    1    3    3    0    0  0.10667939279E+02  0.61208419129E+02  0.57448135149E+03  0.57783137568E+03  0.00000000000E+00 0.  1.
         22    1    3    3    0    0 -0.24020938712E+01 -0.63129084781E+02  0.58670723574E+03  0.59009866282E+03  0.00000000000E+00 0.  1.
</event>
<event>
 7    1  0.5575489E-006  0.3685522E+02  0.7818608E-02  0.1543698E+00
          2   -1    0    0  502    0  0.00000000000E+00  0.00000000000E+00  0.18903356904E+03  0.18903356904E+03  0.00000000000E+00 0. -1.
          1   -1    0    0  501    0 -0.00000000000E+00 -0.00000000000E+00 -0.52139016323E+03  0.52139016323E+03  0.00000000000E+00 0. -1.
         25    2    1    2    0    0  0.29530138194E+02  0.47084147914E+02 -0.65273824103E+02  0.15157537258E+03  0.12500190164E+03 0.  0.
          2    1    1    2  501    0 -0.32651108223E+02 -0.10530027183E+02 -0.40993109254E+03  0.41136416588E+03  0.00000000000E+00 0. -1.
          1    1    1    2  502    0  0.31209700283E+01 -0.36554120731E+02  0.14284832245E+03  0.14748419381E+03  0.00000000000E+00 0. -1.
         22    1    3    3    0    0  0.57101809991E+02 -0.21951682950E+02 -0.39848401697E+02  0.73009507644E+02  0.00000000000E+00 0.  1.
         22    1    3    3    0    0 -0.27571671797E+02  0.69035830864E+02 -0.25425422405E+02  0.78565864937E+02  0.00000000000E+00 0.  1.
</event>
<event>
 7    1  0.5575489E-006  0.1037879E+03  0.7818608E-02  0.1347453E+00
          2   -1    0    0  502    0  0.00000000000E+00  0.00000000000E+00  0.38948169427E+02  0.38948169427E+02  0.00000000000E+00 0. -1.
          1   -1    0    0  501    0 -0.00000000000E+00 -0.00000000000E+00 -0.14855730247E+04  0.14855730247E+04  0.00000000000E+00 0. -1.
         25    2    1    2    0    0 -0.13690086250E+02  0.85259573937E+02 -0.56477059819E+03  0.58483764378E+03  0.12495050055E+03 0.  0.
          2    1    1    2  501    0  0.65891913849E+02 -0.91345893856E+02 -0.87991299679E+03  0.88709227172E+03  0.00000000000E+00 0. -1.
          1    1    1    2  502    0 -0.52201827599E+02  0.60863199192E+01 -0.19412602811E+01  0.52591278615E+02  0.00000000000E+00 0. -1.
         22    1    3    3    0    0 -0.37203722528E+02  0.76889857069E+02 -0.54834684279E+03  0.55495984277E+03  0.00000000000E+00 0.  1.
         22    1    3    3    0    0  0.23513636277E+02  0.83697168681E+01 -0.16423755399E+02  0.29877801004E+02  0.00000000000E+00 0.  1.
</event>
<event>
 7    1  0.5575489E-006  0.8191742E+02  0.7818608E-02  0.1471222E+00
          2   -1    0    0  502    0  0.00000000000E+00  0.00000000000E+00  0.50102061850E+03  0.50102061850E+03  0.00000000000E+00 0. -1.
          1   -1    0    0  501    0 -0.00000000000E+00 -0.00000000000E+00 -0.14619920540E+03  0.14619920540E+03  0.00000000000E+00 0. -1.
         25    2    1    2    0    0  0.10193844176E+03  0.69519102255E+01 -0.62032265319E+02  0.17295343078E+03  0.12500044926E+03 0.  0.
          2    1    1    2  501    0 -0.22675907261E+02  0.11166910255E+02 -0.18539411716E+02  0.31346553902E+02  0.00000000000E+00 0. -1.
          1    1    1    2  502    0 -0.79262534499E+02 -0.18118820481E+02  0.43539309014E+03  0.44291983922E+03  0.00000000000E+00 0. -1.
         22    1    3    3    0    0  0.36437787811E+02  0.31916153678E+02  0.30218789260E+02  0.57092280305E+02  0.00000000000E+00 0. -1.
         22    1    3    3    0    0  0.65500653949E+02 -0.24964243452E+02 -0.92251054579E+02  0.11586115048E+03  0.00000000000E+00 0. -1.
</event>
<event>
 7    1  0.5575489E-006  0.2321519E+03  0.7818608E-02  0.1344470E+00
          2   -1    0    0  502    0  0.00000000000E+00  0.00000000000E+00  0.14319256008E+04  0.14319256008E+04  0.00000000000E+00 0. -1.
          1   -1    0    0  501    0 -0.00000000000E+00 -0.00000000000E+00 -0.26193415577E+03  0.26193415577E+03  0.00000000000E+00 0. -1.
         25    2    1    2    0    0  0.11634797182E+02 -0.23198321979E+03  0.28587049708E+02  0.26531742000E+03  0.12499812467E+03 0.  0.
          2    1    1    2  501    0  0.12469231924E+02  0.23222722066E+03 -0.49187463772E+02  0.23770647941E+03  0.00000000000E+00 0. -1.
          1    1    1    2  502    0 -0.24104029105E+02 -0.24400086729E+00  0.11905918591E+04  0.11908358571E+04  0.00000000000E+00 0. -1.
         22    1    3    3    0    0 -0.53398901975E+02 -0.92781421522E+02  0.31687544960E+02  0.11164199666E+03  0.00000000000E+00 0. -1.
         22    1    3    3    0    0  0.65033699157E+02 -0.13920179827E+03 -0.31004952517E+01  0.15367542334E+03  0.00000000000E+00 0. -1.
</event>
<event>
 7    1  0.5575489E-006  0.6757750E+02  0.7818608E-02  0.1398669E+00
          2   -1    0    0  502    0  0.00000000000E+00  0.00000000000E+00  0.12304621139E+03  0.12304621139E+03  0.00000000000E+00 0. -1.
          1   -1    0    0  501    0 -0.00000000000E+00 -0.00000000000E+00 -0.38851815163E+03  0.38851815163E+03  0.00000000000E+00 0. -1.
         25    2    1    2    0    0  0.61133873760E+02 -0.44759777758E+00 -0.19393199194E+03  0.23868734073E+03  0.12499791303E+03 0.  0.
          2    1    1    2  501    0 -0.14867176285E+02 -0.50787795568E+02 -0.15545485107E+03  0.16421523629E+03  0.00000000000E+00 0. -1.
          1    1    1    2  502    0 -0.46266697475E+02  0.51235393345E+02  0.83914902778E+02  0.10866178599E+03  0.00000000000E+00 0. -1.
         22    1    3    3    0    0 -0.91704018883E+01  0.17043734368E+01  0.15316723876E+02  0.17933298355E+02  0.00000000000E+00 0. -1.
         22    1    3    3    0    0  0.70304275649E+02 -0.21519712144E+01 -0.20924871582E+03  0.22075404238E+03  0.00000000000E+00 0. -1.
</event>
<event>
 7    1  0.5575489E-006  0.8633277E+02  0.7818608E-02  0.1490386E+00
          2   -1    0    0  502    0  0.00000000000E+00  0.00000000000E+00  0.87081740186E+03  0.87081740186E+03  0.00000000000E+00 0. -1.
          1   -1    0    0  501    0 -0.00000000000E+00 -0.00000000000E+00 -0.20755147900E+03  0.20755147900E+03  0.00000000000E+00 0. -1.
         25    2    1    2    0    0 -0.65178428786E+02  0.13796479606E+02 -0.97868063427E+02  0.17216961281E+03  0.12500258920E+03 0.  0.
          2    1    1    2  501    0 -0.20774829890E+02 -0.27065476946E+01 -0.68714619843E+02  0.71837441057E+02  0.00000000000E+00 0. -1.
          1    1    1    2  502    0  0.85953258677E+02 -0.11089931911E+02  0.82984860613E+03  0.83436182700E+03  0.00000000000E+00 0. -1.
         22    1    3    3    0    0 -0.22425336105E+01  0.61987208413E+02 -0.36961765511E+02  0.72205367345E+02  0.00000000000E+00 0.  1.
         22    1    3    3    0    0 -0.62935895176E+02 -0.48190728807E+02 -0.60906297916E+02  0.99964245460E+02  0.00000000000E+00 0.  1.
</event>
<event>
 7    1  0.6627316E-006  0.6633252E+02  0.7818608E-02  0.1376688E+00
          2   -1    0    0  502    0  0.00000000000E+00  0.00000000000E+00  0.65773376940E+03  0.65773376940E+03  0.00000000000E+00 0. -1.
          1   -1    0    0  501    0 -0.00000000000E+00 -0.00000000000E+00 -0.76014727614E+03  0.76014727614E+03  0.00000000000E+00 0. -1.
         25    2    1    2    0    0 -0.16200513388E+01  0.89819997491E+01 -0.25425703388E+03  0.28346996827E+03  0.12500113098E+03 0.  0.
          2    1    1    2  501    0 -0.64357925984E+02  0.10878780541E+01 -0.48743068522E+03  0.49166228146E+03  0.00000000000E+00 0. -1.
          1    1    1    2  502    0  0.65977977323E+02 -0.10069877803E+02  0.63927421236E+03  0.64274879581E+03  0.00000000000E+00 0. -1.
         22    1    3    3    0    0  0.12239860355E+02  0.24614579036E+02  0.85574632562E+00  0.27503163171E+02  0.00000000000E+00 0.  1.
         22    1    3    3    0    0 -0.13859911694E+02 -0.15632579287E+02 -0.25511278020E+03  0.25596680510E+03  0.00000000000E+00 0.  1.
</event>
<event>
 7    1  0.5575489E-006  0.1793288E+03  0.7818608E-02  0.1239082E+00
          2   -1    0    0  502    0  0.00000000000E+00  0.00000000000E+00  0.33833109593E+03  0.33833109593E+03  0.00000000000E+00 0. -1.
          1   -1    0    0  501    0 -0.00000000000E+00 -0.00000000000E+00 -0.11580662886E+04  0.11580662886E+04  0.00000000000E+00 0. -1.
         25    2    1    2    0    0  0.10573464301E+03  0.55258545622E+02  0.42699170839E+02  0.17799205915E+03  0.12499852932E+03 0.  0.
          2    1    1    2  501    0 -0.12284394167E+03 -0.13712447556E+03 -0.10746491233E+04  0.10903047712E+04  0.00000000000E+00 0. -1.
          1    1    1    2  502    0  0.17109298654E+02  0.81865929943E+02  0.21221475977E+03  0.22810055425E+03  0.00000000000E+00 0. -1.
         22    1    3    3    0    0 -0.28866872949E+02  0.10978571402E+02  0.11061301551E+02  0.32805148619E+02  0.00000000000E+00 0.  1.
         22    1    3    3    0    0  0.13460151596E+03  0.44279974220E+02  0.31637869288E+02  0.14518691053E+03  0.00000000000E+00 0.  1.
</event>
<event>
 7    1  0.5575489E-006  0.6788230E+02  0.7818608E-02  0.1459896E+00
          2   -1    0    0  502    0  0.00000000000E+00  0.00000000000E+00  0.74267861313E+03  0.74267861313E+03  0.00000000000E+00 0. -1.
          1   -1    0    0  501    0 -0.00000000000E+00 -0.00000000000E+00 -0.98389165070E+02  0.98389165070E+02  0.00000000000E+00 0. -1.
         25    2    1    2    0    0  0.72353417252E+02  0.62433648754E+02  0.33840215365E+03  0.37319472897E+03  0.12500124259E+03 0.  0.
          2    1    1    2  501    0 -0.58519282477E+02 -0.32366783282E+02 -0.66328266143E+02  0.94188927009E+02  0.00000000000E+00 0. -1.
          1    1    1    2  502    0 -0.13834134775E+02 -0.30066865472E+02  0.37221556055E+03  0.37368412222E+03  0.00000000000E+00 0. -1.
         22    1    3    3    0    0  0.10076591708E+03  0.15021483613E+02  0.22811544343E+03  0.24983208470E+03  0.00000000000E+00 0.  1.
         22    1    3    3    0    0 -0.28412499824E+02  0.47412165140E+02  0.11028671022E+03  0.12336264427E+03  0.00000000000E+00 0.  1.
</event>
<event>
 7    1  0.5575489E-006  0.6276104E+02  0.7818608E-02  0.1417304E+00
          2   -1    0    0  502    0  0.00000000000E+00  0.00000000000E+00  0.25116433615E+03  0.25116433615E+03  0.00000000000E+00 0. -1.
          1   -1    0    0  501    0 -0.00000000000E+00 -0.00000000000E+00 -0.65194847879E+03  0.65194847879E+03  0.00000000000E+00 0. -1.
         25    2    1    2    0    0  0.81116544534E+02 -0.11889897192E+02 -0.74285121077E+02  0.16692698374E+03  0.12500030093E+03 0.  0.
          2    1    1    2  501    0 -0.55028037441E+02 -0.29880190172E+02 -0.52650012432E+03  0.53021061059E+03  0.00000000000E+00 0. -1.
          1    1    1    2  502    0 -0.26088507093E+02  0.41770087364E+02  0.20000110276E+03  0.20597522061E+03  0.00000000000E+00 0. -1.
         22    1    3    3    0    0 -0.15099791925E+02 -0.25733867657E+02  0.16348477923E+02  0.34022174992E+02  0.00000000000E+00 0.  1.
         22    1    3    3    0    0  0.96216336459E+02  0.13843970465E+02 -0.90633599000E+02  0.13290480874E+03  0.00000000000E+00 0.  1.
</event>
<event>
 7    1  0.5575489E-006  0.1294017E+03  0.7818608E-02  0.1267484E+00
          2   -1    0    0  502    0  0.00000000000E+00  0.00000000000E+00  0.22568315575E+03  0.22568315575E+03  0.00000000000E+00 0. -1.
          1   -1    0    0  501    0 -0.00000000000E+00 -0.00000000000E+00 -0.12092980928E+04  0.12092980928E+04  0.00000000000E+00 0. -1.
         25    2    1    2    0    0 -0.71445641104E+02 -0.16831076411E+03 -0.11582946487E+03  0.24994882466E+03  0.12499982828E+03 0.  0.
          2    1    1    2  501    0  0.75376017290E+02  0.44247502279E+02 -0.99992464442E+03  0.10037373561E+04  0.00000000000E+00 0. -1.
          1    1    1    2  502    0 -0.39303761861E+01  0.12406326183E+03  0.13213917221E+03  0.18129506785E+03  0.00000000000E+00 0. -1.
         22    1    3    3    0    0  0.35838038929E+02 -0.40416965777E+02 -0.20960303086E+02  0.57941612528E+02  0.00000000000E+00 0.  1.
         22    1    3    3    0    0 -0.10728368003E+03 -0.12789379834E+03 -0.94869161785E+02  0.19200721214E+03  0.00000000000E+00 0.  1.
</event>
<event>
 7    1  0.5575489E-006  0.5682642E+02  0.7818608E-02  0.1468481E+00
          2   -1    0    0  502    0  0.00000000000E+00  0.00000000000E+00  0.71533195706E+02  0.71533195706E+02  0.00000000000E+00 0. -1.
          1   -1    0    0  501    0 -0.00000000000E+00 -0.00000000000E+00 -0.70952267614E+03  0.70952267614E+03  0.00000000000E+00 0. -1.
         25    2    1    2    0    0  0.13958452310E+02 -0.78916835472E+02 -0.48139238496E+03  0.50377949152E+03  0.12502976634E+03 0.  0.
          2    1    1    2  501    0  0.98760480294E+01  0.50408046814E+02 -0.20777525597E+03  0.21403052236E+03  0.00000000000E+00 0. -1.
          1    1    1    2  502    0 -0.23834500340E+02  0.28508788658E+02  0.51178160498E+02  0.63245857960E+02  0.00000000000E+00 0. -1.
         22    1    3    3    0    0 -0.28127221267E+02 -0.17972333832E+02 -0.36023115426E+03  0.36177428026E+03  0.00000000000E+00 0. -1.
         22    1    3    3    0    0  0.42085673578E+02 -0.60944501640E+02 -0.12116123070E+03  0.14200521126E+03  0.00000000000E+00 0. -1.
</event>
<event>
 7    1  0.5575489E-006  0.6509320E+02  0.7818608E-02  0.1418532E+00
          2   -1    0    0  502    0  0.00000000000E+00  0.00000000000E+00  0.22363039302E+04  0.22363039302E+04  0.00000000000E+00 0. -1.
          1   -1    0    0  501    0 -0.00000000000E+00 -0.00000000000E+00 -0.19995709796E+03  0.19995709796E+03  0.00000000000E+00 0. -1.
         25    2    1    2    0    0 -0.19076633350E+02 -0.49482572752E+01  0.68105448545E+03  0.69271116300E+03  0.12500056000E+03 0.  0.
          2    1    1    2  501    0  0.55530819001E+02  0.34671356302E+02 -0.18824106690E+03  0.19929996004E+03  0.00000000000E+00 0. -1.
          1    1    1    2  502    0 -0.36454185651E+02 -0.29723099027E+02  0.15435334137E+04  0.15442499051E+04  0.00000000000E+00 0. -1.
         22    1    3    3    0    0 -0.36764960745E+02 -0.46502368381E+02  0.17753845406E+03  0.18717381033E+03  0.00000000000E+00 0. -1.
         22    1    3    3    0    0  0.17688327394E+02  0.41554111105E+02  0.50351603139E+03  0.50553735267E+03  0.00000000000E+00 0. -1.
</event>
<event>
 7    1  0.5575489E-006  0.1049842E+03  0.7818608E-02  0.1335153E+00
          2   -1    0    0  502    0  0.00000000000E+00  0.00000000000E+00  0.28968564485E+04  0.28968564485E+04  0.00000000000E+00 0. -1.
          1   -1    0    0  501    0 -0.00000000000E+00 -0.00000000000E+00 -0.19952159201E+02  0.19952159201E+02  0.00000000000E+00 0. -1.
         25    2    1    2    0    0  0.22408540241E+02 -0.97538649076E+02  0.10361108744E+04  0.10484091119E+04  0.12497996353E+03 0.  0.
          2    1    1    2  501    0  0.35127744444E+02  0.10290533866E+03  0.20909478339E+03  0.23567794890E+03  0.00000000000E+00 0. -1.
          1    1    1    2  502    0 -0.57536284685E+02 -0.53666895875E+01  0.16316986315E+04  0.16327215468E+04  0.00000000000E+00 0. -1.
         22    1    3    3    0    0 -0.51604845294E+02 -0.30936372470E+02  0.42569365063E+03  0.42992464850E+03  0.00000000000E+00 0.  1.
         22    1    3    3    0    0  0.74013385535E+02 -0.66602276607E+02  0.61041722373E+03  0.61848446344E+03  0.00000000000E+00 0.  1.
</event>
<event>
 7    1  0.5575489E-006  0.1142270E+03  0.7818608E-02  0.1279693E+00
          2   -1    0    0  502    0  0.00000000000E+00  0.00000000000E+00  0.57200600399E+03  0.57200600399E+03  0.00000000000E+00 0. -1.
          1   -1    0    0  501    0 -0.00000000000E+00 -0.00000000000E+00 -0.13370711293E+04  0.13370711293E+04  0.00000000000E+00 0. -1.
         25    2    1    2    0    0  0.35301203865E+02 -0.16957976489E+03 -0.18179434497E+02  0.21437912636E+03  0.12499778530E+03 0.  0.
          2    1    1    2  501    0  0.28929880406E+02  0.10935619563E+03 -0.12140501170E+04  0.12193085754E+04  0.00000000000E+00 0. -1.
          1    1    1    2  502    0 -0.64231084271E+02  0.60223569257E+02  0.46716442619E+03  0.47538943150E+03  0.00000000000E+00 0. -1.
         22    1    3    3    0    0  0.71527761033E+02 -0.74771198394E+02 -0.39344067620E+02  0.11070188962E+03  0.00000000000E+00 0. -1.
         22    1    3    3    0    0 -0.36226557168E+02 -0.94808566493E+02  0.21164633123E+02  0.10367723675E+03  0.00000000000E+00 0. -1.
</event>
<event>
 7    1  0.5575489E-006  0.8305932E+02  0.7818608E-02  0.1364003E+00
          2   -1    0    0  502    0  0.00000000000E+00  0.00000000000E+00  0.16783618438E+04  0.16783618438E+04  0.00000000000E+00 0. -1.
          1   -1    0    0  501    0 -0.00000000000E+00 -0.00000000000E+00 -0.26300209432E+03  0.26300209432E+03  0.00000000000E+00 0. -1.
         25    2    1    2    0    0 -0.11810302691E+03 -0.57435252118E+02  0.80433177335E+02  0.19834660299E+03  0.12499898300E+03 0.  0.
          2    1    1    2  501    0  0.37051812036E+02  0.43437020041E+02 -0.19892810096E+03  0.20695893515E+03  0.00000000000E+00 0. -1.
          1    1    1    2  502    0  0.81051214876E+02  0.13998232076E+02  0.15338546731E+04  0.15360584000E+04  0.00000000000E+00 0. -1.
         22    1    3    3    0    0 -0.13946282631E+02 -0.66361423042E+02  0.62619175445E+02  0.92301128925E+02  0.00000000000E+00 0. -1.
         22    1    3    3    0    0 -0.10415674428E+03  0.89261709245E+01  0.17814001891E+02  0.10604547407E+03  0.00000000000E+00 0. -1.
</event>
<event>
 7    1  0.5575489E-006  0.6172144E+02  0.7818608E-02  0.1497923E+00
          2   -1    0    0  502    0  0.00000000000E+00  0.00000000000E+00  0.49852750751E+03  0.49852750751E+03  0.00000000000E+00 0. -1.
          1   -1    0    0  501    0 -0.00000000000E+00 -0.00000000000E+00 -0.31621515473E+02  0.31621515473E+02  0.00000000000E+00 0. -1.
         25    2    1    2    0    0 -0.46684897651E+02 -0.44049833796E+02  0.28809200266E+03  0.32053666233E+03  0.12500752926E+03 0.  0.
          2    1    1    2  501    0 -0.12711541631E+02  0.24738985009E+02  0.99028706785E+01  0.29524015946E+02  0.00000000000E+00 0. -1.
          1    1    1    2  502    0  0.59396439282E+02  0.19310848787E+02  0.16891111870E+03  0.18008834471E+03  0.00000000000E+00 0. -1.
         22    1    3    3    0    0  0.21968987308E+01  0.82910822182E+01  0.22478970281E+03  0.22495328159E+03  0.00000000000E+00 0.  1.
         22    1    3    3    0    0 -0.48881796382E+02 -0.52340916014E+02  0.63302299848E+02  0.95583380736E+02  0.00000000000E+00 0.  1.
</event>
<event>
 7    1  0.5575489E-006  0.1121557E+03  0.7818608E-02  0.1409304E+00
          2   -1    0    0  502    0  0.00000000000E+00  0.00000000000E+00  0.12701848646E+03  0.12701848646E+03  0.00000000000E+00 0. -1.
          1   -1    0    0  501    0 -0.00000000000E+00 -0.00000000000E+00 -0.13327084606E+04  0.13327084606E+04  0.00000000000E+00 0. -1.
         25    2    1    2    0    0  0.57332788518E+02  0.68242725696E+02 -0.89506272975E+02  0.17770926540E+03  0.12500036742E+03 0.  0.
          2    1    1    2  501    0 -0.58270905939E+02 -0.97552638185E+02 -0.11937226280E+04  0.11991187299E+04  0.00000000000E+00 0. -1.
          1    1    1    2  502    0  0.93811742072E+00  0.29309912489E+02  0.77538926838E+02  0.82898951801E+02  0.00000000000E+00 0. -1.
         22    1    3    3    0    0 -0.78662130440E+01  0.85214405129E+02 -0.57664123769E+02  0.10319168241E+03  0.00000000000E+00 0.  1.
         22    1    3    3    0    0  0.65199001562E+02 -0.16971679433E+02 -0.31842149206E+02  0.74517582983E+02  0.00000000000E+00 0.  1.
</event>
<event>
 7    1  0.5575489E-006  0.7512637E+02  0.7818608E-02  0.1350202E+00
          2   -1    0    0  502    0  0.00000000000E+00  0.00000000000E+00  0.87212584663E+02  0.87212584663E+02  0.00000000000E+00 0. -1.
          1   -1    0    0  501    0 -0.00000000000E+00 -0.00000000000E+00 -0.19593841844E+04  0.19593841844E+04  0.00000000000E+00 0. -1.
         25    2    1    2    0    0  0.28972312629E+02  0.16118803765E+01 -0.40876358293E+03  0.42843301370E+03  0.12500074976E+03 0.  0.
          2    1    1    2  501    0  0.13845102761E-01  0.70919985986E+02 -0.15200342839E+04  0.15216878355E+04  0.00000000000E+00 0. -1.
          1    1    1    2  502    0 -0.28986157732E+02 -0.72531866362E+02  0.56626267102E+02  0.96475919814E+02  0.00000000000E+00 0. -1.
         22    1    3    3    0    0  0.60571905580E+02 -0.16299520536E+02 -0.10356008204E+03  0.12107568174E+03  0.00000000000E+00 0. -1.
         22    1    3    3    0    0 -0.31599592951E+02  0.17911400912E+02 -0.30520350088E+03  0.30735733196E+03  0.00000000000E+00 0. -1.
</event>
<event>
 7    1  0.5575489E-006  0.7596447E+02  0.7818608E-02  0.1359848E+00
          2   -1    0    0  502    0  0.00000000000E+00  0.00000000000E+00  0.19185914766E+04  0.19185914766E+04  0.00000000000E+00 0. -1.
          1   -1    0    0  501    0 -0.00000000000E+00 -0.00000000000E+00 -0.10047946151E+04  0.10047946151E+04  0.00000000000E+00 0. -1.
         25    2    1    2    0    0  0.30721418942E+02  0.45685417308E+02  0.22669291653E+03  0.26466204622E+03  0.12500142947E+03 0.  0.
          2    1    1    2  501    0  0.47321458604E+02 -0.44029829906E+02 -0.98383836986E+03  0.98595937258E+03  0.00000000000E+00 0. -1.
          1    1    1    2  502    0 -0.78042877546E+02 -0.16555874020E+01  0.16709423148E+04  0.16727646729E+04  0.00000000000E+00 0. -1.
         22    1    3    3    0    0  0.56568084967E+02  0.68179745719E+02  0.20695443205E+03  0.22511899722E+03  0.00000000000E+00 0. -1.
         22    1    3    3    0    0 -0.25846666025E+02 -0.22494328411E+02  0.19738484482E+02  0.39543049009E+02  0.00000000000E+00 0. -1.
</event>
<event>
 7    1  0.5575489E-006  0.1494083E+03  0.7818608E-02  0.1334654E+00
          2   -1    0    0  502    0  0.00000000000E+00  0.00000000000E+00  0.90007946643E+03  0.90007946643E+03  0.00000000000E+00 0. -1.
          1   -1    0    0  501    0 -0.00000000000E+00 -0.00000000000E+00 -0.76423840603E+03  0.76423840603E+03  0.00000000000E+00 0. -1.
         25    2    1    2    0    0  0.14080260243E+03  0.12614007680E+03  0.27445402428E+03  0.35593153949E+03  0.12500223012E+03 0.  0.
          2    1    1    2  501    0 -0.11286923775E+03 -0.96427370227E+02 -0.71515683485E+03  0.73040194482E+03  0.00000000000E+00 0. -1.
          1    1    1    2  502    0 -0.27933364678E+02 -0.29712706574E+02  0.57654387097E+03  0.57798438815E+03  0.00000000000E+00 0. -1.
         22    1    3    3    0    0  0.51109111434E+02 -0.17493159084E+02  0.42461742729E+02  0.68710635871E+02  0.00000000000E+00 0. -1.
         22    1    3    3    0    0  0.89693490993E+02  0.14363323588E+03  0.23199228155E+03  0.28722090362E+03  0.00000000000E+00 0. -1.
</event>
<event>
 7    1  0.5575489E-006  0.5779535E+02  0.7818608E-02  0.1430935E+00
          2   -1    0    0  502    0  0.00000000000E+00  0.00000000000E+00  0.22728679801E+04  0.22728679801E+04  0.00000000000E+00 0. -1.
          1   -1    0    0  501    0 -0.00000000000E+00 -0.00000000000E+00 -0.97380360141E+03  0.97380360141E+03  0.00000000000E+00 0. -1.
         25    2    1    2    0    0 -0.15581332701E+02  0.31138849680E+02 -0.72202275064E+03  0.73358963003E+03  0.12499794777E+03 0.  0.
          2    1    1    2  501    0  0.44255096364E+02  0.19064471672E+02 -0.24326513705E+03  0.24799172272E+03  0.00000000000E+00 0. -1.
          1    1    1    2  502    0 -0.28673763663E+02 -0.50203321351E+02  0.22643522664E+04  0.22650902288E+04  0.00000000000E+00 0. -1.
         22    1    3    3    0    0  0.20101275262E+02 -0.10787729300E+02 -0.59138246240E+03  0.59182231557E+03  0.00000000000E+00 0.  1.
         22    1    3    3    0    0 -0.35682607964E+02  0.41926578980E+02 -0.13064028824E+03  0.14176731445E+03  0.00000000000E+00 0.  1.
</event>
<event>
 7    1  0.5575489E-006  0.1829601E+03  0.7818608E-02  0.1236124E+00
          2   -1    0    0  502    0  0.00000000000E+00  0.00000000000E+00  0.20623653652E+04  0.20623653652E+04  0.00000000000E+00 0. -1.
          1   -1    0    0  501    0 -0.00000000000E+00 -0.00000000000E+00 -0.20277812995E+03  0.20277812995E+03  0.00000000000E+00 0. -1.
         25    2    1    2    0    0  0.57293467343E+02  0.13276078230E+03  0.26609672747E+02  0.19297282426E+03  0.12498987760E+03 0.  0.
          2    1    1    2  501    0 -0.12718240276E+03 -0.18022854913E+03 -0.16092905342E+02  0.22117114436E+03  0.00000000000E+00 0. -1.
          1    1    1    2  502    0  0.69888935421E+02  0.47467766831E+02  0.18490704679E+04  0.18509995266E+04  0.00000000000E+00 0. -1.
         22    1    3    3    0    0 -0.25863371999E+01  0.37094522881E+02  0.64051845014E+02  0.74063024632E+02  0.00000000000E+00 0. -1.
         22    1    3    3    0    0  0.59879804543E+02  0.95666259414E+02 -0.37442172267E+02  0.11890979962E+03  0.00000000000E+00 0. -1.
</event>
<event>
 7    1  0.5575489E-006  0.1798569E+03  0.7818608E-02  0.1396667E+00
          2   -1    0    0  502    0  0.00000000000E+00  0.00000000000E+00  0.77750543523E+02  0.77750543523E+02  0.00000000000E+00 0. -1.
          1   -1    0    0  501    0 -0.00000000000E+00 -0.00000000000E+00 -0.22720361660E+04  0.22720361660E+04  0.00000000000E+00 0. -1.
         25    2    1    2    0    0 -0.10517581507E+03 -0.12408062240E+03 -0.95254838492E+03  0.97438769366E+03  0.12499999604E+03 0.  0.
          2    1    1    2  501    0 -0.80186363414E+01 -0.18542522864E+02 -0.11842986203E+04  0.11844709138E+04  0.00000000000E+00 0. -1.
          1    1    1    2  502    0  0.11319445142E+03  0.14262314527E+03 -0.57438617280E+02  0.19092810205E+03  0.00000000000E+00 0. -1.
         22    1    3    3    0    0 -0.54087892320E+02  0.12386887472E+02 -0.35611407269E+03  0.36041110949E+03  0.00000000000E+00 0.  1.
         22    1    3    3    0    0 -0.51087922754E+02 -0.13646750987E+03 -0.59643431223E+03  0.61397658417E+03  0.00000000000E+00 0.  1.
</event>
<event>
 7    1  0.5575489E-006  0.1331463E+03  0.7818608E-02  0.1419724E+00
          2   -1    0    0  502    0  0.00000000000E+00  0.00000000000E+00  0.28611562311E+03  0.28611562311E+03  0.00000000000E+00 0. -1.
          1   -1    0    0  501    0 -0.00000000000E+00 -0.00000000000E+00 -0.21463904613E+03  0.21463904613E+03  0.00000000000E+00 0. -1.
         25    2    1    2    0    0  0.13367341692E+03 -0.48899445306E+02 -0.43037456234E+02  0.19425930315E+03  0.12499886431E+03 0.  0.
          2    1    1    2  501    0 -0.11360504076E+03  0.59689143321E+02 -0.51973229016E+02  0.13845618675E+03  0.00000000000E+00 0. -1.
          1    1    1    2  502    0 -0.20068376158E+02 -0.10789698014E+02  0.16648726223E+03  0.16803917933E+03  0.00000000000E+00 0. -1.
         22    1    3    3    0    0 -0.15567605328E+02 -0.16941366818E+02  0.18672535214E+02  0.29631466663E+02  0.00000000000E+00 0. -1.
         22    1    3    3    0    0  0.14924102224E+03 -0.31958078489E+02 -0.61709991448E+02  0.16462783648E+03  0.00000000000E+00 0. -1.
</event>
<event>
 7    1  0.5575489E-006  0.1672489E+03  0.7818608E-02  0.1320682E+00
          2   -1    0    0  502    0  0.00000000000E+00  0.00000000000E+00  0.50309053721E+03  0.50309053721E+03  0.00000000000E+00 0. -1.
          1   -1    0    0  501    0 -0.00000000000E+00 -0.00000000000E+00 -0.19371077801E+04  0.19371077801E+04  0.00000000000E+00 0. -1.
         25    2    1    2    0    0  0.19205081565E+02 -0.18281172694E+03 -0.29139219661E+03  0.36650049274E+03  0.12499694502E+03 0.  0.
          2    1    1    2  501    0 -0.37482019208E+02  0.17137563063E+02 -0.15929670198E+04  0.15935000860E+04  0.00000000000E+00 0. -1.
          1    1    1    2  502    0  0.18276937643E+02  0.16567416388E+03  0.45034197352E+03  0.48019773859E+03  0.00000000000E+00 0. -1.
         22    1    3    3    0    0  0.55407596832E+02 -0.25728728911E+02 -0.80286054020E+02  0.10088518101E+03  0.00000000000E+00 0. -1.
         22    1    3    3    0    0 -0.36202515267E+02 -0.15708299803E+03 -0.21110614259E+03  0.26561531172E+03  0.00000000000E+00 0. -1.
</event>
<event>
 7    1  0.5575489E-006  0.7124066E+02  0.7818608E-02  0.1378048E+00
          2   -1    0    0  502    0  0.00000000000E+00  0.00000000000E+00  0.20092149183E+04  0.20092149183E+04  0.00000000000E+00 0. -1.
          1   -1    0    0  501    0 -0.00000000000E+00 -0.00000000000E+00 -0.76085265445E+02  0.76085265445E+02  0.00000000000E+00 0. -1.
         25    2    1    2    0    0 -0.35023367949E+01 -0.10613426845E+02  0.63315513579E+02  0.14056530247E+03  0.12499935522E+03 0.  0.
          2    1    1    2  501    0  0.59565992144E+02  0.54569065159E+02  0.75791807486E+01  0.81137748756E+02  0.00000000000E+00 0. -1.
          1    1    1    2  502    0 -0.56063655349E+02 -0.43955638314E+02  0.18622349585E+04  0.18635971325E+04  0.00000000000E+00 0. -1.
         22    1    3    3    0    0 -0.16657805572E+02  0.52946833817E+02  0.49130508555E+02  0.74125950710E+02  0.00000000000E+00 0. -1.
         22    1    3    3    0    0  0.13155468777E+02 -0.63560260662E+02  0.14185005024E+02  0.66439351756E+02  0.00000000000E+00 0. -1.
</event>
<event>
 7    1  0.5575489E-006  0.9523004E+02  0.7818608E-02  0.1385277E+00
          2   -1    0    0  502    0  0.00000000000E+00  0.00000000000E+00  0.49935284907E+03  0.49935284907E+03  0.00000000000E+00 0. -1.
          1   -1    0    0  501    0 -0.00000000000E+00 -0.00000000000E+00 -0.13353573196E+03  0.13353573196E+03  0.00000000000E+00 0. -1.
         25    2    1    2    0    0 -0.97909519591E+02 -0.37789814605E+02  0.17023273275E+03  0.23583515645E+03  0.12499877440E+03 0.  0.
          2    1    1    2  501    0  0.67685986467E+02  0.66674095660E+02 -0.76373793343E+02  0.12190071413E+03  0.00000000000E+00 0. -1.
          1    1    1    2  502    0  0.30223533124E+02 -0.28884281055E+02  0.27195817771E+03  0.27515271045E+03  0.00000000000E+00 0. -1.
         22    1    3    3    0    0 -0.82759685817E+02 -0.77638927336E+02  0.89449122907E+02  0.14449260958E+03  0.00000000000E+00 0.  1.
         22    1    3    3    0    0 -0.15149833773E+02  0.39849112731E+02  0.80783609842E+02  0.91342546866E+02  0.00000000000E+00 0.  1.
</event>
<event>
 7    1  0.5575489E-006  0.7382274E+02  0.7818608E-02  0.1383664E+00
          2   -1    0    0  502    0  0.00000000000E+00  0.00000000000E+00  0.41476901028E+03  0.41476901028E+03  0.00000000000E+00 0. -1.
          1   -1    0    0  501    0 -0.00000000000E+00 -0.00000000000E+00 -0.55453829212E+03  0.55453829212E+03  0.00000000000E+00 0. -1.
         25    2    1    2    0    0  0.80215957023E+02  0.45710844278E+02 -0.60508651855E+02  0.16676530894E+03  0.12500116108E+03 0.  0.
          2    1    1    2  501    0 -0.50157655054E+02  0.21669708485E+02 -0.43541289949E+03  0.43882771069E+03  0.00000000000E+00 0. -1.
          1    1    1    2  502    0 -0.30058301969E+02 -0.67380552763E+02  0.35615226952E+03  0.36371428277E+03  0.00000000000E+00 0. -1.
         22    1    3    3    0    0  0.10544249798E+03  0.64676677170E+02 -0.45306608614E+02  0.13173413276E+03  0.00000000000E+00 0. -1.
         22    1    3    3    0    0 -0.25226540957E+02 -0.18965832893E+02 -0.15202043241E+02  0.35031176182E+02  0.00000000000E+00 0. -1.
</event>
<event>
 7    1  0.6433234E-006  0.8145543E+02  0.7818608E-02  0.1343887E+00
          2   -1    0    0  502    0  0.00000000000E+00  0.00000000000E+00  0.13822630667E+04  0.13822630667E+04  0.00000000000E+00 0. -1.
          1   -1    0    0  501    0 -0.00000000000E+00 -0.00000000000E+00 -0.60025816149E+03  0.60025816149E+03  0.00000000000E+00 0. -1.
         25    2    1    2    0    0  0.81627184492E+01  0.29945265032E+02 -0.29009842769E+03  0.31740269107E+03  0.12499608665E+03 0.  0.
          2    1    1    2  501    0  0.68981222395E+02 -0.30052799832E+01 -0.29124802259E+03  0.29932064982E+03  0.00000000000E+00 0. -1.
          1    1    1    2  502    0 -0.77143940845E+02 -0.26939985049E+02  0.13633513555E+04  0.13657978873E+04  0.00000000000E+00 0. -1.
         22    1    3    3    0    0 -0.39371016670E+02  0.30807046451E+02 -0.43513293602E+02  0.66276374258E+02  0.00000000000E+00 0. -1.
         22    1    3    3    0    0  0.47533735119E+02 -0.86178141877E+00 -0.24658513409E+03  0.25112631681E+03  0.00000000000E+00 0. -1.
</event>
<event>
 7    1  0.5575489E-006  0.2402231E+03  0.7818608E-02  0.1321634E+00
          2   -1    0    0  502    0  0.00000000000E+00  0.00000000000E+00  0.14204324094E+03  0.14204324094E+03  0.00000000000E+00 0. -1.
          1   -1    0    0  501    0 -0.00000000000E+00 -0.00000000000E+00 -0.10054821318E+04  0.10054821318E+04  0.00000000000E+00 0. -1.
         25    2    1    2    0    0  0.17519841784E+03 -0.13531165513E+03 -0.22498116346E+03  0.33948090887E+03  0.12500813553E+03 0.  0.
          2    1    1    2  501    0 -0.18790145066E+03  0.16076998476E+03 -0.69883516198E+03  0.74129921542E+03  0.00000000000E+00 0. -1.
          1    1    1    2  502    0  0.12703032826E+02 -0.25458329637E+02  0.60377434556E+02  0.66745248478E+02  0.00000000000E+00 0. -1.
         22    1    3    3    0    0  0.16521589969E+02 -0.77905775969E+02 -0.40075395000E+02  0.89153295783E+02  0.00000000000E+00 0.  1.
         22    1    3    3    0    0  0.15867682787E+03 -0.57405879157E+02 -0.18490576846E+03  0.25032761309E+03  0.00000000000E+00 0.  1.
</event>
<event>
 7    1  0.5575489E-006  0.3974918E+02  0.7818608E-02  0.1536928E+00
          2   -1    0    0  502    0  0.00000000000E+00  0.00000000000E+00  0.58120513225E+03  0.58120513225E+03  0.00000000000E+00 0. -1.
          1   -1    0    0  501    0 -0.00000000000E+00 -0.00000000000E+00 -0.57515980666E+02  0.57515980666E+02  0.00000000000E+00 0. -1.
         25    2    1    2    0    0  0.39226025715E+02 -0.36651518613E+02  0.16244471829E+03  0.21188573925E+03  0.12500106034E+03 0.  0.
          2    1    1    2  501    0  0.25110962079E+00  0.33240769760E+02 -0.23083328708E+02  0.40470382930E+02  0.00000000000E+00 0. -1.
          1    1    1    2  502    0 -0.39477135336E+02  0.34107488531E+01  0.38432776199E+03  0.38636499073E+03  0.00000000000E+00 0. -1.
         22    1    3    3    0    0  0.24962132780E+02 -0.67339662549E+02  0.34749889741E+02  0.79782786753E+02  0.00000000000E+00 0.  1.
         22    1    3    3    0    0  0.14263892935E+02  0.30688143936E+02  0.12769482855E+03  0.13210295250E+03  0.00000000000E+00 0.  1.
</event>
<event>
 7    1  0.5575489E-006  0.1750614E+03  0.7818608E-02  0.1191458E+00
          2   -1    0    0  502    0  0.00000000000E+00  0.00000000000E+00  0.15073530964E+04  0.15073530964E+04  0.00000000000E+00 0. -1.
          1   -1    0    0  501    0 -0.00000000000E+00 -0.00000000000E+00 -0.32616537876E+03  0.32616537876E+03  0.00000000000E+00 0. -1.
         25    2    1    2    0    0 -0.88703350059E+01  0.14408519527E+03  0.12904949751E+03  0.23047115395E+03  0.12499581455E+03 0.  0.
          2    1    1    2  501    0  0.14107347577E+03 -0.14746045638E+02 -0.25021749213E+03  0.28762469434E+03  0.00000000000E+00 0. -1.
          1    1    1    2  502    0 -0.13220314076E+03 -0.12933914963E+03  0.13023557123E+04  0.13154226269E+04  0.00000000000E+00 0. -1.
         22    1    3    3    0    0 -0.78531117993E+01  0.78544991687E+02 -0.72101274650E+01  0.79265206882E+02  0.00000000000E+00 0.  1.
         22    1    3    3    0    0 -0.10172232065E+01  0.65540203582E+02  0.13625962498E+03  0.15120594706E+03  0.00000000000E+00 0.  1.
</event>
<event>
 7    1  0.5575489E-006  0.8726531E+02  0.7818608E-02  0.1333817E+00
          2   -1    0    0  502    0  0.00000000000E+00  0.00000000000E+00  0.16856338478E+04  0.16856338478E+04  0.00000000000E+00 0. -1.
          1   -1    0    0  501    0 -0.00000000000E+00 -0.00000000000E+00 -0.60444191432E+03  0.60444191432E+03  0.00000000000E+00 0. -1.
         25    2    1    2    0    0  0.34078612534E+02  0.28866412393E+02  0.33729029116E+03  0.36245771323E+03  0.12496492217E+03 0.  0.
          2    1    1    2  501    0  0.44450362286E+01 -0.87713239465E+02 -0.58766682109E+03  0.59419328786E+03  0.00000000000E+00 0. -1.
          1    1    1    2  502    0 -0.38523648763E+02  0.58846827072E+02  0.13315684635E+04  0.13334247611E+04  0.00000000000E+00 0. -1.
         22    1    3    3    0    0  0.13438405457E+02 -0.93233805523E+01  0.31157140077E+03  0.31200040696E+03  0.00000000000E+00 0. -1.
         22    1    3    3    0    0  0.20640207077E+02  0.38189792945E+02  0.25718890397E+02  0.50457306276E+02  0.00000000000E+00 0. -1.
</event>
<event>
 7    1  0.5575489E-006  0.1541409E+03  0.7818608E-02  0.1220971E+00
          2   -1    0    0  502    0  0.00000000000E+00  0.00000000000E+00  0.21517976047E+04  0.21517976047E+04  0.00000000000E+00 0. -1.
          1   -1    0    0  501    0 -0.00000000000E+00 -0.00000000000E+00 -0.12626655200E+03  0.12626655200E+03  0.00000000000E+00 0. -1.
         25    2    1    2    0    0  0.87757449091E+01 -0.85625470199E+02  0.57206668621E+03  0.59185748744E+03  0.12500502839E+03 0.  0.
          2    1    1    2  501    0  0.54297705812E+02 -0.10398462895E+03 -0.78574293715E+02  0.14119123042E+03  0.00000000000E+00 0. -1.
          1    1    1    2  502    0 -0.63073450721E+02  0.18961009915E+03  0.15320386602E+04  0.15450154388E+04  0.00000000000E+00 0. -1.
         22    1    3    3    0    0 -0.31737717230E+02 -0.50484499714E+02  0.49130523249E+03  0.49491089994E+03  0.00000000000E+00 0. -1.
         22    1    3    3    0    0  0.40513462139E+02 -0.35140970484E+02  0.80761453719E+02  0.96946587500E+02  0.00000000000E+00 0. -1.
</event>
<event>
 7    1  0.5575489E-006  0.4063993E+02  0.7818608E-02  0.1587624E+00
          2   -1    0    0  502    0  0.00000000000E+00  0.00000000000E+00  0.17114601699E+04  0.17114601699E+04  0.00000000000E+00 0. -1.
          1   -1    0    0  501    0 -0.00000000000E+00 -0.00000000000E+00 -0.40382699673E+02  0.40382699673E+02  0.00000000000E+00 0. -1.
         25    2    1    2    0    0  0.45958376362E+02 -0.29737892149E+02  0.15875376557E+03  0.20934180888E+03  0.12499888110E+03 0.  0.
          2    1    1    2  501    0 -0.38451589808E+02  0.73651363953E+01  0.10557041285E+02  0.40548996456E+02  0.00000000000E+00 0. -1.
          1    1    1    2  502    0 -0.75067865536E+01  0.22372755754E+02  0.15017666634E+04  0.15019520642E+04  0.00000000000E+00 0. -1.
         22    1    3    3    0    0  0.14444183262E+02 -0.74143982206E+02  0.59596185842E+02  0.96216785928E+02  0.00000000000E+00 0. -1.
         22    1    3    3    0    0  0.31514193100E+02  0.44406090056E+02  0.99157579731E+02  0.11312502296E+03  0.00000000000E+00 0. -1.
</event>
<event>
 7    1  0.5575489E-006  0.1577898E+03  0.7818608E-02  0.1362747E+00
          2   -1    0    0  502    0  0.00000000000E+00  0.00000000000E+00  0.96890116819E+03  0.96890116819E+03  0.00000000000E+00 0. -1.
          1   -1    0    0  501    0 -0.00000000000E+00 -0.00000000000E+00 -0.41562863062E+03  0.41562863062E+03  0.00000000000E+00 0. -1.
         25    2    1    2    0    0  0.12720591235E+03 -0.83090061652E+02 -0.92132807233E+02  0.21725202901E+03  0.12499874982E+03 0.  0.
          2    1    1    2  501    0 -0.13725267805E+02 -0.27092191898E+02 -0.25312073542E+03  0.25493622053E+03  0.00000000000E+00 0. -1.
          1    1    1    2  502    0 -0.11348064454E+03  0.11018225355E+03  0.89852608023E+03  0.91234154928E+03  0.00000000000E+00 0. -1.
         22    1    3    3    0    0  0.68644048133E+02 -0.10838268112E+03 -0.83028187156E+02  0.15281521774E+03  0.00000000000E+00 0.  1.
         22    1    3    3    0    0  0.58561864214E+02  0.25292619465E+02 -0.91046200776E+01  0.64436811267E+02  0.00000000000E+00 0.  1.
</event>
<event>
 7    1  0.5575489E-006  0.1190013E+03  0.7818608E-02  0.1316801E+00
          2   -1    0    0  502    0  0.00000000000E+00  0.00000000000E+00  0.89881488523E+03  0.89881488523E+03  0.00000000000E+00 0. -1.
          1   -1    0    0  501    0 -0.00000000000E+00 -0.00000000000E+00 -0.16784664858E+03  0.16784664858E+03  0.00000000000E+00 0. -1.
         25    2    1    2    0    0  0.90946319304E+01  0.10467152258E+03  0.21937337928E+03  0.27347503037E+03  0.12500029092E+03 0.  0.
          2    1    1    2  501    0 -0.68920725915E+02 -0.10049711560E+03 -0.11271954211E+03  0.16599828878E+03  0.00000000000E+00 0. -1.
          1    1    1    2  502    0  0.59826093985E+02 -0.41744069870E+01  0.62431439949E+03  0.62718821466E+03  0.00000000000E+00 0. -1.
         22    1    3    3    0    0  0.43770543334E+02  0.63361640152E+02  0.20299002624E+03  0.21710713637E+03  0.00000000000E+00 0.  1.
         22    1    3    3    0    0 -0.34675911403E+02  0.41309882431E+02  0.16383353035E+02  0.56367894007E+02  0.00000000000E+00 0.  1.
</event>
<event>
 7    1  0.5575489E-006  0.9130314E+02  0.7818608E-02  0.1430224E+00
          2   -1    0    0  502    0  0.00000000000E+00  0.00000000000E+00  0.10619305083E+03  0.10619305083E+03  0.00000000000E+00 0. -1.
          1   -1    0    0  501    0 -0.00000000000E+00 -0.00000000000E+00 -0.13194609642E+04  0.13194609642E+04  0.00000000000E+00 0. -1.
         25    2    1    2    0    0 -0.41739874311E+01 -0.73505842570E+02 -0.46422203134E+03  0.48636127244E+03  0.12499864755E+03 0.  0.
          2    1    1    2  501    0 -0.27734665383E+02 -0.13086544392E+02 -0.82143314710E+03  0.82200540416E+03  0.00000000000E+00 0. -1.
          1    1    1    2  502    0  0.31908652814E+02  0.86592386962E+02  0.72387265084E+02  0.11728733841E+03  0.00000000000E+00 0. -1.
         22    1    3    3    0    0 -0.25943591879E+02 -0.55807880257E+02 -0.79114828495E+02  0.10023345522E+03  0.00000000000E+00 0. -1.
         22    1    3    3    0    0  0.21769604448E+02 -0.17697962313E+02 -0.38510720284E+03  0.38612781722E+03  0.00000000000E+00 0. -1.
</event>
<event>
 7    1  0.5575489E-006  0.8791264E+02  0.7818608E-02  0.1327581E+00
          2   -1    0    0  502    0  0.00000000000E+00  0.00000000000E+00  0.60522028869E+03  0.60522028869E+03  0.00000000000E+00 0. -1.
          1   -1    0    0  501    0 -0.00000000000E+00 -0.00000000000E+00 -0.34266298742E+03  0.34266298742E+03  0.00000000000E+00 0. -1.
         25    2    1    2    0    0 -0.53370482204E+01  0.14975735909E+03  0.23145839953E+03  0.30274201650E+03  0.12499594854E+03 0.  0.
          2    1    1    2  501    0 -0.14526681363E+02 -0.72304664239E+02 -0.29773115339E+03  0.30672924321E+03  0.00000000000E+00 0. -1.
          1    1    1    2  502    0  0.19863729584E+02 -0.77452694854E+02  0.32883005513E+03  0.33841201641E+03  0.00000000000E+00 0. -1.
         22    1    3    3    0    0 -0.57444067606E+02  0.11298835089E+03  0.12122487547E+03  0.17539001902E+03  0.00000000000E+00 0. -1.
         22    1    3    3    0    0  0.52107019385E+02  0.36769008205E+02  0.11023352406E+03  0.12735199747E+03  0.00000000000E+00 0. -1.
</event>
<event>
 7    1  0.5575489E-006  0.1869788E+03  0.7818608E-02  0.1353586E+00
          2   -1    0    0  502    0  0.00000000000E+00  0.00000000000E+00  0.89823960801E+03  0.89823960801E+03  0.00000000000E+00 0. -1.
          1   -1    0    0  501    0 -0.00000000000E+00 -0.00000000000E+00 -0.65435226916E+03  0.65435226916E+03  0.00000000000E+00 0. -1.
         25    2    1    2    0    0  0.15088170935E+03 -0.65551817211E+02  0.22742172764E+02  0.20786045370E+03  0.12500572321E+03 0.  0.
          2    1    1    2  501    0  0.27663125463E+02  0.11334158561E+01 -0.54993566934E+03  0.55063215812E+03  0.00000000000E+00 0. -1.
          1    1    1    2  502    0 -0.17854483481E+03  0.64418401355E+02  0.77108083542E+03  0.79409926535E+03  0.00000000000E+00 0. -1.
         22    1    3    3    0    0 -0.21288286636E+02 -0.21266832237E+01 -0.58151040179E+01  0.22170461523E+02  0.00000000000E+00 0. -1.
         22    1    3    3    0    0  0.17216999598E+03 -0.63425133987E+02  0.28557276782E+02  0.18568999218E+03  0.00000000000E+00 0. -1.
</event>
<event>
 7    1  0.5575489E-006  0.1311665E+03  0.7818608E-02  0.1381369E+00
          2   -1    0    0  502    0  0.00000000000E+00  0.00000000000E+00  0.22284191144E+03  0.22284191144E+03  0.00000000000E+00 0. -1.
          1   -1    0    0  501    0 -0.00000000000E+00 -0.00000000000E+00 -0.93544999660E+03  0.93544999660E+03  0.00000000000E+00 0. -1.
         25    2    1    2    0    0  0.51703655847E+02 -0.98307425020E+02 -0.33953977221E+03  0.37848370065E+03  0.12500014761E+03 0.  0.
          2    1    1    2  501    0 -0.53309716368E+02  0.12959653379E+03 -0.56664349232E+03  0.58371400088E+03  0.00000000000E+00 0. -1.
          1    1    1    2  502    0  0.16060605207E+01 -0.31289108766E+02  0.19357517937E+03  0.19609420651E+03  0.00000000000E+00 0. -1.
         22    1    3    3    0    0  0.34031288918E+02  0.12588616951E+02 -0.23863605432E+02  0.43428948483E+02  0.00000000000E+00 0. -1.
         22    1    3    3    0    0  0.17672366930E+02 -0.11089604197E+03 -0.31567616678E+03  0.33505475217E+03  0.00000000000E+00 0. -1.
</event>
<event>
 7    1  0.5575489E-006  0.4969454E+02  0.7818608E-02  0.1571953E+00
          2   -1    0    0  502    0  0.00000000000E+00  0.00000000000E+00  0.65778446838E+03  0.65778446838E+03  0.00000000000E+00 0. -1.
          1   -1    0    0  501    0 -0.00000000000E+00 -0.00000000000E+00 -0.26643778814E+03  0.26643778814E+03  0.00000000000E+00 0. -1.
         25    2    1    2    0    0  0.35587769978E+02  0.50407753183E+02  0.88118780357E+02  0.16491240404E+03  0.12499500231E+03 0.  0.
          2    1    1    2  501    0 -0.39713926300E+02 -0.29552019352E+02 -0.22513819295E+03  0.23051621140E+03  0.00000000000E+00 0. -1.
          1    1    1    2  502    0  0.41261563215E+01 -0.20855733830E+02  0.52836609283E+03  0.52879364109E+03  0.00000000000E+00 0. -1.
         22    1    3    3    0    0  0.35222648636E+02  0.91401916100E+02  0.68021437203E+02  0.11925544500E+03  0.00000000000E+00 0.  1.
         22    1    3    3    0    0  0.36512134193E+00 -0.40994162917E+02  0.20097343154E+02  0.45656959040E+02  0.00000000000E+00 0.  1.
</event>
<event>
 7    1  0.5575489E-006  0.1029025E+03  0.7818608E-02  0.1351713E+00
          2   -1    0    0  502    0  0.00000000000E+00  0.00000000000E+00  0.16068034414E+04  0.16068034414E+04  0.00000000000E+00 0. -1.
          1   -1    0    0  501    0 -0.00000000000E+00 -0.00000000000E+00 -0.30867714303E+03  0.30867714303E+03  0.00000000000E+00 0. -1.
         25    2    1    2    0    0  0.52688154464E+02  0.56752638474E+02 -0.23126298315E+03  0.27405335824E+03  0.12500308872E+03 0.  0.
          2    1    1    2  501    0  0.45116991442E+02 -0.24023945667E+02 -0.42306234495E+02  0.66351415654E+02  0.00000000000E+00 0. -1.
          1    1    1    2  502    0 -0.97805145906E+02 -0.32728692807E+02  0.15716955160E+04  0.15750758105E+04  0.00000000000E+00 0. -1.
         22    1    3    3    0    0  0.16673792756E+02  0.24166799042E+02 -0.22283300905E+03  0.22475898083E+03  0.00000000000E+00 0.  1.
         22    1    3    3    0    0  0.36014361708E+02  0.32585839432E+02 -0.84299741020E+01  0.49294377409E+02  0.00000000000E+00 0.  1.
</event>
<event>
 7    1  0.5575489E-006  0.7868893E+02  0.7818608E-02  0.1470042E+00
          2   -1    0    0  502    0  0.00000000000E+00  0.00000000000E+00  0.15228095451E+04  0.15228095451E+04  0.00000000000E+00 0. -1.
          1   -1    0    0  501    0 -0.00000000000E+00 -0.00000000000E+00 -0.50013817825E+02  0.50013817825E+02  0.00000000000E+00 0. -1.
         25    2    1    2    0    0  0.43091855254E+02  0.51942675158E+02  0.28116344592E+03  0.31501582750E+03  0.12500855476E+03 0.  0.
          2    1    1    2  501    0  0.24667205570E+02 -0.97834606082E+01 -0.26242438936E+02  0.37320942290E+02  0.00000000000E+00 0. -1.
          1    1    1    2  502    0 -0.67759060824E+02 -0.42159214549E+02  0.12178747203E+04  0.12204865931E+04  0.00000000000E+00 0. -1.
         22    1    3    3    0    0  0.46165205498E+02  0.38077831168E+02  0.36825815871E+02  0.70265839067E+02  0.00000000000E+00 0. -1.
         22    1    3    3    0    0 -0.30733502447E+01  0.13864843989E+02  0.24433763005E+03  0.24474998843E+03  0.00000000000E+00 0. -1.
</event>
<event>
 7    1  0.5575489E-006  0.5112520E+02  0.7818608E-02  0.1460121E+00
          2   -1    0    0  502    0  0.00000000000E+00  0.00000000000E+00  0.17155178680E+04  0.17155178680E+04  0.00000000000E+00 0. -1.
          1   -1    0    0  501    0 -0.00000000000E+00 -0.00000000000E+00 -0.50613337862E+03  0.50613337862E+03  0.00000000000E+00 0. -1.
         25    2    1    2    0    0  0.26179172650E+02  0.34268058232E+02  0.40610565848E+03  0.42709245523E+03  0.12500604213E+03 0.  0.
          2    1    1    2  501    0  0.26196567071E+02 -0.35193597940E+02 -0.49413951145E+03  0.49608336622E+03  0.00000000000E+00 0. -1.
          1    1    1    2  502    0 -0.52375739721E+02  0.92553970846E+00  0.12974183423E+04  0.12984754251E+04  0.00000000000E+00 0. -1.
         22    1    3    3    0    0  0.57539017792E+02  0.78322701748E+01  0.82441883431E+02  0.10084020611E+03  0.00000000000E+00 0. -1.
         22    1    3    3    0    0 -0.31359845142E+02  0.26435788057E+02  0.32366377505E+03  0.32625224912E+03  0.00000000000E+00 0. -1.
</event>
<event>
 7    1  0.5575489E-006  0.3943935E+02  0.7818608E-02  0.1569596E+00
          2   -1    0    0  502    0  0.00000000000E+00  0.00000000000E+00  0.19899246034E+03  0.19899246034E+03  0.00000000000E+00 0. -1.
          1   -1    0    0  501    0 -0.00000000000E+00 -0.00000000000E+00 -0.11866249366E+04  0.11866249366E+04  0.00000000000E+00 0. -1.
         25    2    1    2    0    0 -0.25088663508E+02  0.34151988103E+02 -0.27210028370E+03  0.30242278751E+03  0.12500071475E+03 0.  0.
          2    1    1    2  501    0  0.38235708401E+02 -0.10356728728E+02 -0.89791923396E+03  0.89879262455E+03  0.00000000000E+00 0. -1.
          1    1    1    2  502    0 -0.13147044893E+02 -0.23795259375E+02  0.18238704140E+03  0.18440198488E+03  0.00000000000E+00 0. -1.
         22    1    3    3    0    0 -0.47850097538E+01 -0.25953851661E+02 -0.21638523430E+03  0.21798868860E+03  0.00000000000E+00 0. -1.
         22    1    3    3    0    0 -0.20303653754E+02  0.60105839765E+02 -0.55715049408E+02  0.84434098918E+02  0.00000000000E+00 0. -1.
</event>
<event>
 7    1  0.5575489E-006  0.1250864E+03  0.7818608E-02  0.1316499E+00
          2   -1    0    0  502    0  0.00000000000E+00  0.00000000000E+00  0.48492982257E+03  0.48492982257E+03  0.00000000000E+00 0. -1.
          1   -1    0    0  501    0 -0.00000000000E+00 -0.00000000000E+00 -0.26072602040E+03  0.26072602040E+03  0.00000000000E+00 0. -1.
         25    2    1    2    0    0 -0.10356975814E+03 -0.11817455509E+03  0.26163787344E+03  0.32980279084E+03  0.12499433490E+03 0.  0.
          2    1    1    2  501    0  0.53993277518E+02  0.18910718799E+02 -0.20613941986E+03  0.21393071243E+03  0.00000000000E+00 0. -1.
          1    1    1    2  502    0  0.49576480620E+02  0.99263836288E+02  0.16870534858E+03  0.20192233969E+03  0.00000000000E+00 0. -1.
         22    1    3    3    0    0  0.80141622084E+01 -0.83234412518E+02  0.11711718214E+03  0.14390492895E+03  0.00000000000E+00 0. -1.
         22    1    3    3    0    0 -0.11158392035E+03 -0.34940142569E+02  0.14452069131E+03  0.18589786190E+03  0.00000000000E+00 0. -1.
</event>
<event>
 7    1  0.5575489E-006  0.5850652E+02  0.7818608E-02  0.1511265E+00
          2   -1    0    0  502    0  0.00000000000E+00  0.00000000000E+00  0.44140827252E+03  0.44140827252E+03  0.00000000000E+00 0. -1.
          1   -1    0    0  501    0 -0.00000000000E+00 -0.00000000000E+00 -0.68742843443E+03  0.68742843443E+03  0.00000000000E+00 0. -1.
         25    2    1    2    0    0 -0.28829976152E+02  0.72759390078E+02 -0.26058340896E+03  0.29942295969E+03  0.12500119759E+03 0.  0.
          2    1    1    2  501    0  0.78090305122E+01 -0.56156201728E+02 -0.40502363607E+03  0.40897267112E+03  0.00000000000E+00 0. -1.
          1    1    1    2  502    0  0.21020945640E+02 -0.16603188350E+02  0.41958688312E+03  0.42044107614E+03  0.00000000000E+00 0. -1.
         22    1    3    3    0    0 -0.38355487478E+02  0.49476454929E+02 -0.26635523714E+03  0.27361318566E+03  0.00000000000E+00 0.  1.
         22    1    3    3    0    0  0.95255113260E+01  0.23282935149E+02  0.57718281859E+01  0.25809774036E+02  0.00000000000E+00 0.  1.
</event>
<event>
 7    1  0.5575489E-006  0.3341592E+02  0.7818608E-02  0.1572384E+00
          2   -1    0    0  502    0  0.00000000000E+00  0.00000000000E+00  0.55214470774E+03  0.55214470774E+03  0.00000000000E+00 0. -1.
          1   -1    0    0  501    0 -0.00000000000E+00 -0.00000000000E+00 -0.84379197829E+02  0.84379197829E+02  0.00000000000E+00 0. -1.
         25    2    1    2    0    0  0.58841338194E+01  0.22832241265E+02 -0.26667806234E+02  0.12997304188E+03  0.12500354177E+03 0.  0.
          2    1    1    2  501    0  0.27053278576E+02 -0.16198323989E+02  0.40269131449E+02  0.51145562167E+02  0.00000000000E+00 0. -1.
          1    1    1    2  502    0 -0.32937412395E+02 -0.66339172767E+01  0.45416418469E+03  0.45540530152E+03  0.00000000000E+00 0. -1.
         22    1    3    3    0    0 -0.54034057592E+02  0.22296098168E+02  0.10602435374E+02  0.59407129280E+02  0.00000000000E+00 0.  1.
         22    1    3    3    0    0  0.59918191412E+02  0.53614309782E+00 -0.37270241608E+02  0.70565912600E+02  0.00000000000E+00 0.  1.
</event>
<event>
 7    1  0.5575489E-006  0.9347722E+02  0.7818608E-02  0.1346635E+00
          2   -1    0    0  502    0  0.00000000000E+00  0.00000000000E+00  0.13084331239E+04  0.13084331239E+04  0.00000000000E+00 0. -1.
          1   -1    0    0  501    0 -0.00000000000E+00 -0.00000000000E+00 -0.44436043198E+02  0.44436043198E+02  0.00000000000E+00 0. -1.
         25    2    1    2    0    0  0.80730494894E+02 -0.77434132126E+02  0.43376439296E+03  0.46507040167E+03  0.12500188912E+03 0.  0.
          2    1    1    2  501    0 -0.23270208414E+02  0.89738228110E+02  0.49949964549E+02  0.10530646297E+03  0.00000000000E+00 0. -1.
          1    1    1    2  502    0 -0.57460286480E+02 -0.12304095984E+02  0.78028272322E+03  0.78249230249E+03  0.00000000000E+00 0. -1.
         22    1    3    3    0    0 -0.16039149698E+02  0.22705335552E+02  0.57609127531E+02  0.63965601384E+02  0.00000000000E+00 0.  1.
         22    1    3    3    0    0  0.96769644592E+02 -0.10013946768E+03  0.37615526543E+03  0.40110480029E+03  0.00000000000E+00 0.  1.
</event>
<event>
 7    1  0.5575489E-006  0.1552997E+03  0.7818608E-02  0.1248225E+00
          2   -1    0    0  502    0  0.00000000000E+00  0.00000000000E+00  0.14003885018E+04  0.14003885018E+04  0.00000000000E+00 0. -1.
          1   -1    0    0  501    0 -0.00000000000E+00 -0.00000000000E+00 -0.12931589883E+03  0.12931589883E+03  0.00000000000E+00 0. -1.
         25    2    1    2    0    0 -0.74562930769E+02 -0.20049592948E+03  0.77826327105E+03  0.81674767051E+03  0.12499915937E+03 0.  0.
          2    1    1    2  501    0  0.55170139137E+02  0.68638084202E+02 -0.83549257178E+02  0.12138949390E+03  0.00000000000E+00 0. -1.
          1    1    1    2  502    0  0.19392791633E+02  0.13185784528E+03  0.57635858907E+03  0.59156723618E+03  0.00000000000E+00 0. -1.
         22    1    3    3    0    0 -0.92357821309E+02 -0.12268947047E+03  0.62910743962E+03  0.64757921825E+03  0.00000000000E+00 0. -1.
         22    1    3    3    0    0  0.17794890540E+02 -0.77806459009E+02  0.14915583143E+03  0.16916845226E+03  0.00000000000E+00 0. -1.
</event>
<event>
 7    1  0.5575489E-006  0.1822685E+03  0.7818608E-02  0.1168797E+00
          2   -1    0    0  502    0  0.00000000000E+00  0.00000000000E+00  0.10967034127E+04  0.10967034127E+04  0.00000000000E+00 0. -1.
          1   -1    0    0  501    0 -0.00000000000E+00 -0.00000000000E+00 -0.13307554734E+04  0.13307554734E+04  0.00000000000E+00 0. -1.
         25    2    1    2    0    0  0.20636886380E+03  0.61821258715E+02 -0.88951841667E+02  0.26447539576E+03  0.12499931541E+03 0.  0.
          2    1    1    2  501    0 -0.54876283079E+02 -0.16695634766E+03 -0.11388193433E+04  0.11523000153E+04  0.00000000000E+00 0. -1.
          1    1    1    2  502    0 -0.15149258072E+03  0.10513508895E+03  0.99371912428E+03  0.10106834751E+04  0.00000000000E+00 0. -1.
         22    1    3    3    0    0  0.74086644732E+02  0.86850908691E+02 -0.34564775951E+02  0.11927545852E+03  0.00000000000E+00 0.  1.
         22    1    3    3    0    0  0.13228221907E+03 -0.25029649976E+02 -0.54387065716E+02  0.14519993724E+03  0.00000000000E+00 0.  1.
</event>
<event>
 7    1  0.5575489E-006  0.1075070E+03  0.7818608E-02  0.1274194E+00
          2   -1    0    0  502    0  0.00000000000E+00  0.00000000000E+00  0.17616849041E+04  0.17616849041E+04  0.00000000000E+00 0. -1.
          1   -1    0    0  501    0 -0.00000000000E+00 -0.00000000000E+00 -0.22224313580E+03  0.22224313580E+03  0.00000000000E+00 0. -1.
         25    2    1    2    0    0 -0.58814817569E+02 -0.56937952987E+02  0.36578213996E+03  0.39512361462E+03  0.12499993465E+03 0.  0.
          2    1    1    2  501    0  0.98380036270E+02 -0.43348894051E+02 -0.19138288812E+03  0.21951120249E+03  0.00000000000E+00 0. -1.
          1    1    1    2  502    0 -0.39565218701E+02  0.10028684704E+03  0.13650425164E+04  0.13692932228E+04  0.00000000000E+00 0. -1.
         22    1    3    3    0    0  0.55858393917E+01 -0.36947456045E+02  0.29502083319E+03  0.29737788775E+03  0.00000000000E+00 0.  1.
         22    1    3    3    0    0 -0.64400656960E+02 -0.19990496942E+02  0.70761306775E+02  0.97745726870E+02  0.00000000000E+00 0.  1.
</event>
<event>
 7    1  0.5575489E-006  0.4176334E+02  0.7818608E-02  0.1533321E+00
          2   -1    0    0  502    0  0.00000000000E+00  0.00000000000E+00  0.14309944090E+04  0.14309944090E+04  0.00000000000E+00 0. -1.
          1   -1    0    0  501    0 -0.00000000000E+00 -0.00000000000E+00 -0.87338258545E+03  0.87338258545E+03  0.00000000000E+00 0. -1.
         25    2    1    2    0    0  0.28689637871E+02 -0.68313648576E+02  0.11660936056E+04  0.11751125188E+04  0.12500113981E+03 0.  0.
          2    1    1    2  501    0 -0.17414327289E+02  0.37944182691E+02 -0.86736152397E+03  0.86836572541E+03  0.00000000000E+00 0. -1.
          1    1    1    2  502    0 -0.11275310582E+02  0.30369465885E+02  0.25887974190E+03  0.26089875019E+03  0.00000000000E+00 0. -1.
         22    1    3    3    0    0  0.10035100846E+02 -0.93682145424E+02  0.10666357255E+04  0.10707888767E+04  0.00000000000E+00 0.  1.
         22    1    3    3    0    0  0.18654537025E+02  0.25368496849E+02  0.99457880152E+02  0.10432364213E+03  0.00000000000E+00 0.  1.
</event>
<event>
 7    1  0.5575489E-006  0.8152003E+02  0.7818608E-02  0.1397438E+00
          2   -1    0    0  502    0  0.00000000000E+00  0.00000000000E+00  0.73870472161E+02  0.73870472161E+02  0.00000000000E+00 0. -1.
          1   -1    0    0  501    0 -0.00000000000E+00 -0.00000000000E+00 -0.93282254304E+03  0.93282254304E+03  0.00000000000E+00 0. -1.
         25    2    1    2    0    0 -0.52800030886E+02  0.56156422748E+02 -0.52754771525E+02  0.15604765070E+03  0.12500566504E+03 0.  0.
          2    1    1    2  501    0  0.15866047043E+02 -0.80616637278E+02 -0.80194445053E+03  0.80614246594E+03  0.00000000000E+00 0. -1.
          1    1    1    2  502    0  0.36933983843E+02  0.24460214530E+02 -0.42528488216E+01  0.44502898563E+02  0.00000000000E+00 0. -1.
         22    1    3    3    0    0 -0.81358848630E+02  0.15172044365E+02 -0.64268145149E+02  0.10478476827E+03  0.00000000000E+00 0.  1.
         22    1    3    3    0    0  0.28558817743E+02  0.40984378383E+02  0.11513373624E+02  0.51262882425E+02  0.00000000000E+00 0.  1.
</event>
<event>
 7    1  0.5575489E-006  0.5999502E+02  0.7818608E-02  0.1539509E+00
          2   -1    0    0  502    0  0.00000000000E+00  0.00000000000E+00  0.15445956563E+04  0.15445956563E+04  0.00000000000E+00 0. -1.
          1   -1    0    0  501    0 -0.00000000000E+00 -0.00000000000E+00 -0.71936527212E+03  0.71936527212E+03  0.00000000000E+00 0. -1.
         25    2    1    2    0    0  0.69807284028E+02  0.41171892489E+02 -0.33428752115E+02  0.15268068438E+03  0.12500291308E+03 0.  0.
          2    1    1    2  501    0 -0.52166765722E+02 -0.28609905947E+02 -0.62481834758E+03  0.62764469697E+03  0.00000000000E+00 0. -1.
          1    1    1    2  502    0 -0.17640518306E+02 -0.12561986541E+02  0.14834774839E+04  0.14836355471E+04  0.00000000000E+00 0. -1.
         22    1    3    3    0    0  0.99007988775E+02  0.57630332656E+02 -0.18731761916E+02  0.11608064433E+03  0.00000000000E+00 0.  1.
         22    1    3    3    0    0 -0.29200704747E+02 -0.16458440168E+02 -0.14696990199E+02  0.36600040047E+02  0.00000000000E+00 0.  1.
</event>
<event>
 7    1  0.5575489E-006  0.9143817E+02  0.7818608E-02  0.1421632E+00
          2   -1    0    0  502    0  0.00000000000E+00  0.00000000000E+00  0.40116878298E+03  0.40116878298E+03  0.00000000000E+00 0. -1.
          1   -1    0    0  501    0 -0.00000000000E+00 -0.00000000000E+00 -0.34814808817E+03  0.34814808817E+03  0.00000000000E+00 0. -1.
         25    2    1    2    0    0  0.64542461663E+02  0.74229083221E+02 -0.71476905720E+02  0.17438472294E+03  0.12500158954E+03 0.  0.
          2    1    1    2  501    0  0.14895407041E+02 -0.29105095294E+02 -0.21801070332E+03  0.22044873890E+03  0.00000000000E+00 0. -1.
          1    1    1    2  502    0 -0.79437868704E+02 -0.45123987927E+02  0.34250830385E+03  0.35448340931E+03  0.00000000000E+00 0. -1.
         22    1    3    3    0    0  0.53977121965E+02 -0.14004564675E+02  0.65227679260E+01  0.56144492417E+02  0.00000000000E+00 0. -1.
         22    1    3    3    0    0  0.10565339697E+02  0.88233647897E+02 -0.77999673646E+02  0.11824023052E+03  0.00000000000E+00 0. -1.
</event>
<event>
 7    1  0.5575489E-006  0.2498996E+03  0.7818608E-02  0.1232654E+00
          2   -1    0    0  502    0  0.00000000000E+00  0.00000000000E+00  0.14187019632E+04  0.14187019632E+04  0.00000000000E+00 0. -1.
          1   -1    0    0  501    0 -0.00000000000E+00 -0.00000000000E+00 -0.85111002097E+02  0.85111002097E+02  0.00000000000E+00 0. -1.
         25    2    1    2    0    0 -0.14370488278E+03  0.21275166814E+03  0.78999486127E+03  0.84001978146E+03  0.12500794684E+03 0.  0.
          2    1    1    2  501    0  0.60984028326E+02  0.19721126491E+02 -0.29146070826E+01  0.64159718480E+02  0.00000000000E+00 0. -1.
          1    1    1    2  502    0  0.82720854452E+02 -0.23247279463E+03  0.54651070689E+03  0.59963346534E+03  0.00000000000E+00 0. -1.
         22    1    3    3    0    0 -0.80222948148E+01  0.38842478357E+02  0.33163807229E+02  0.51700420201E+02  0.00000000000E+00 0. -1.
         22    1    3    3    0    0 -0.13568258796E+03  0.17390918979E+03  0.75683105404E+03  0.78831936125E+03  0.00000000000E+00 0. -1.
</event>
<event>
 7    1  0.5575489E-006  0.2181376E+03  0.7818608E-02  0.1260864E+00
          2   -1    0    0  502    0  0.00000000000E+00  0.00000000000E+00  0.13746384671E+04  0.13746384671E+04  0.00000000000E+00 0. -1.
          1   -1    0    0  501    0 -0.00000000000E+00 -0.00000000000E+00 -0.23419983564E+03  0.23419983564E+03  0.00000000000E+00 0. -1.
         25    2    1    2    0    0 -0.77843413295E+02 -0.17657125529E+03  0.22564316581E+03  0.32214491750E+03  0.12500201760E+03 0.  0.
          2    1    1    2  501    0  0.44731169447E+02  0.22087389679E+03 -0.11665517024E+03  0.25376088065E+03  0.00000000000E+00 0. -1.
          1    1    1    2  502    0  0.33112243848E+02 -0.44302641498E+02  0.10314506359E+04  0.10329325046E+04  0.00000000000E+00 0. -1.
         22    1    3    3    0    0  0.27026599265E+02 -0.64825294911E+01  0.44350696794E+02  0.52339703501E+02  0.00000000000E+00 0. -1.
         22    1    3    3    0    0 -0.10487001256E+03 -0.17008872580E+03  0.18129246902E+03  0.26980521400E+03  0.00000000000E+00 0. -1.
</event>
<event>
 7    1  0.5575489E-006  0.6579921E+02  0.7818608E-02  0.1422367E+00
          2   -1    0    0  502    0  0.00000000000E+00  0.00000000000E+00  0.17664703955E+04  0.17664703955E+04  0.00000000000E+00 0. -1.
          1   -1    0    0  501    0 -0.00000000000E+00 -0.00000000000E+00 -0.28185429817E+02  0.28185429817E+02  0.00000000000E+00 0. -1.
         25    2    1    2    0    0  0.62625822479E+01 -0.39751542455E+02  0.60433467333E+03  0.61843735601E+03  0.12499984343E+03 0.  0.
          2    1    1    2  501    0 -0.38649685406E+02 -0.23396398650E+02  0.54707473266E+01  0.45509545462E+02  0.00000000000E+00 0. -1.
          1    1    1    2  502    0  0.32387103158E+02  0.63147941105E+02  0.11284795450E+04  0.11307089239E+04  0.00000000000E+00 0. -1.
         22    1    3    3    0    0 -0.13684871369E+02 -0.62740507163E+02  0.15106760276E+03  0.16414952802E+03  0.00000000000E+00 0.  1.
         22    1    3    3    0    0  0.19947453617E+02  0.22988964708E+02  0.45326707057E+03  0.45428782800E+03  0.00000000000E+00 0.  1.
</event>
<event>
 7    1  0.5575489E-006  0.5493977E+02  0.7818608E-02  0.1529496E+00
          2   -1    0    0  502    0  0.00000000000E+00  0.00000000000E+00  0.14529830979E+03  0.14529830979E+03  0.00000000000E+00 0. -1.
          1   -1    0    0  501    0 -0.00000000000E+00 -0.00000000000E+00 -0.69250900772E+03  0.69250900772E+03  0.00000000000E+00 0. -1.
         25    2    1    2    0    0  0.23405325368E+02  0.21782434631E+02 -0.83173038280E+02  0.15351228024E+03  0.12500392864E+03 0.  0.
          2    1    1    2  501    0  0.11468486941E+02  0.22499357505E+02 -0.56665450553E+03  0.56721695665E+03  0.00000000000E+00 0. -1.
          1    1    1    2  502    0 -0.34873812310E+02 -0.44281792136E+02  0.10261684588E+03  0.11707808061E+03  0.00000000000E+00 0. -1.
         22    1    3    3    0    0  0.74486304861E+02  0.19156260206E+02 -0.59030126884E+02  0.96952193357E+02  0.00000000000E+00 0. -1.
         22    1    3    3    0    0 -0.51080979492E+02  0.26261744250E+01 -0.24142911397E+02  0.56560086888E+02  0.00000000000E+00 0. -1.
</event>
<event>
 7    1  0.5575489E-006  0.6007839E+02  0.7818608E-02  0.1449204E+00
          2   -1    0    0  502    0  0.00000000000E+00  0.00000000000E+00  0.71045442037E+03  0.71045442037E+03  0.00000000000E+00 0. -1.
          1   -1    0    0  501    0 -0.00000000000E+00 -0.00000000000E+00 -0.63608943071E+02  0.63608943071E+02  0.00000000000E+00 0. -1.
         25    2    1    2    0    0  0.14269883530E+02 -0.44088470873E+02  0.19619139476E+03  0.23719899015E+03  0.12499949884E+03 0.  0.
          2    1    1    2  501    0 -0.53188290569E+02  0.33098072381E+02 -0.19006880267E+02  0.65465549311E+02  0.00000000000E+00 0. -1.
          1    1    1    2  502    0  0.38918407040E+02  0.10990398491E+02  0.46966096281E+03  0.47139882398E+03  0.00000000000E+00 0. -1.
         22    1    3    3    0    0  0.52110826666E+02 -0.61060284309E+02  0.77941567505E+02  0.11188737427E+03  0.00000000000E+00 0.  1.
         22    1    3    3    0    0 -0.37840943137E+02  0.16971813437E+02  0.11824982725E+03  0.12531161588E+03  0.00000000000E+00 0.  1.
</event>
<event>
 7    1  0.5575489E-006  0.5535685E+02  0.7818608E-02  0.1419343E+00
          2   -1    0    0  502    0  0.00000000000E+00  0.00000000000E+00  0.22956354007E+03  0.22956354007E+03  0.00000000000E+00 0. -1.
          1   -1    0    0  501    0 -0.00000000000E+00 -0.00000000000E+00 -0.18708655936E+04  0.18708655936E+04  0.00000000000E+00 0. -1.
         25    2    1    2    0    0 -0.48605713518E+02 -0.21828156290E+01 -0.46273202527E+03  0.48178092599E+03  0.12499861347E+03 0.  0.
          2    1    1    2  501    0  0.23804684647E+02  0.51673118313E+02 -0.13945382658E+04  0.13956983015E+04  0.00000000000E+00 0. -1.
          1    1    1    2  502    0  0.24801028870E+02 -0.49490302684E+02  0.21596823746E+03  0.22294990622E+03  0.00000000000E+00 0. -1.
         22    1    3    3    0    0 -0.30481622232E+02 -0.59736713790E+02 -0.31763105039E+03  0.32463377587E+03  0.00000000000E+00 0.  1.
         22    1    3    3    0    0 -0.18124091286E+02  0.57553898161E+02 -0.14510097488E+03  0.15714715012E+03  0.00000000000E+00 0.  1.
</event>
<event>
 7    1  0.5575489E-006  0.1946323E+03  0.7818608E-02  0.1268208E+00
          2   -1    0    0  502    0  0.00000000000E+00  0.00000000000E+00  0.35234504103E+04  0.35234504103E+04  0.00000000000E+00 0. -1.
          1   -1    0    0  501    0 -0.00000000000E+00 -0.00000000000E+00 -0.13332374149E+03  0.13332374149E+03  0.00000000000E+00 0. -1.
         25    2    1    2    0    0  0.50829399106E+02  0.16629741081E+03  0.15743734235E+04  0.15888722381E+04  0.12499942263E+03 0.  0.
          2    1    1    2  501    0  0.54297489404E+02  0.19531348715E+02 -0.11325842994E+03  0.12711082917E+03  0.00000000000E+00 0. -1.
          1    1    1    2  502    0 -0.10512688851E+03 -0.18582875952E+03  0.19290116752E+04  0.19407910845E+04  0.00000000000E+00 0. -1.
         22    1    3    3    0    0  0.67341320509E+02  0.25714751131E+02  0.47992921739E+03  0.48531243089E+03  0.00000000000E+00 0. -1.
         22    1    3    3    0    0 -0.16511921404E+02  0.14058265968E+03  0.10944442061E+04  0.11035598072E+04  0.00000000000E+00 0. -1.
</event>
<event>
 7    1  0.5575489E-006  0.8484628E+02  0.7818608E-02  0.1364565E+00
          2   -1    0    0  502    0  0.00000000000E+00  0.00000000000E+00  0.16491644029E+04  0.16491644029E+04  0.00000000000E+00 0. -1.
          1   -1    0    0  501    0 -0.00000000000E+00 -0.00000000000E+00 -0.13924867468E+04  0.13924867468E+04  0.00000000000E+00 0. -1.
         25    2    1    2    0    0  0.11767220179E+03  0.61505028302E+01  0.53663141676E+02  0.17996931736E+03  0.12499858662E+03 0.  0.
          2    1    1    2  501    0 -0.74127959311E+02 -0.40769305959E+02 -0.13274818383E+04  0.13301748463E+04  0.00000000000E+00 0. -1.
          1    1    1    2  502    0 -0.43544242481E+02  0.34618803129E+02  0.15304963527E+04  0.15315069860E+04  0.00000000000E+00 0. -1.
         22    1    3    3    0    0  0.39567983642E+02 -0.38866384088E+02 -0.24518486319E+02  0.60641382842E+02  0.00000000000E+00 0. -1.
         22    1    3    3    0    0  0.78104218150E+02  0.45016886918E+02  0.78181627995E+02  0.11932793452E+03  0.00000000000E+00 0. -1.
</event>
<event>
 7    1  0.5575489E-006  0.1594343E+03  0.7818608E-02  0.1236824E+00
          2   -1    0    0  502    0  0.00000000000E+00  0.00000000000E+00  0.34908797891E+04  0.34908797891E+04  0.00000000000E+00 0. -1.
          1   -1    0    0  501    0 -0.00000000000E+00 -0.00000000000E+00 -0.13457986283E+03  0.13457986283E+03  0.00000000000E+00 0. -1.
         25    2    1    2    0    0  0.19387012161E+03  0.46246878200E+02  0.21096321565E+03  0.31599575247E+03  0.12499375754E+03 0.  0.
          2    1    1    2  501    0 -0.11495795761E+03 -0.10137360167E+03 -0.91170785220E+01  0.15354172154E+03  0.00000000000E+00 0. -1.
          1    1    1    2  502    0 -0.78912164004E+02  0.55126723466E+02  0.31544537891E+04  0.31559221779E+04  0.00000000000E+00 0. -1.
         22    1    3    3    0    0 -0.27511957709E+01 -0.14337897705E+02 -0.70639844436E+01  0.16218639431E+02  0.00000000000E+00 0.  1.
         22    1    3    3    0    0  0.19662131738E+03  0.60584775905E+02  0.21802720010E+03  0.29977711304E+03  0.00000000000E+00 0.  1.
</event>
<event>
 7    1  0.5575489E-006  0.9118786E+02  0.7818608E-02  0.1373442E+00
          2   -1    0    0  502    0  0.00000000000E+00  0.00000000000E+00  0.50765128293E+03  0.50765128293E+03  0.00000000000E+00 0. -1.
          1   -1    0    0  501    0 -0.00000000000E+00 -0.00000000000E+00 -0.15760819508E+03  0.15760819508E+03  0.00000000000E+00 0. -1.
         25    2    1    2    0    0 -0.35400559510E+02  0.93113744186E+02  0.31174585446E+02  0.16284919650E+03  0.12499854820E+03 0.  0.
          2    1    1    2  501    0  0.48019203839E+02 -0.25704254543E+01 -0.79923054967E+02  0.93274571774E+02  0.00000000000E+00 0. -1.
          1    1    1    2  502    0 -0.12618644329E+02 -0.90543318732E+02  0.39879155737E+03  0.40913570974E+03  0.00000000000E+00 0. -1.
         22    1    3    3    0    0 -0.81449346862E+02  0.65355810336E+02  0.94404597336E+01  0.10485466289E+03  0.00000000000E+00 0.  1.
         22    1    3    3    0    0  0.46048787352E+02  0.27757933851E+02  0.21734125713E+02  0.57994533611E+02  0.00000000000E+00 0.  1.
</event>
<event>
 7    1  0.5575489E-006  0.1833857E+03  0.7818608E-02  0.1191120E+00
          2   -1    0    0  502    0  0.00000000000E+00  0.00000000000E+00  0.14101162677E+04  0.14101162677E+04  0.00000000000E+00 0. -1.
          1   -1    0    0  501    0 -0.00000000000E+00 -0.00000000000E+00 -0.25182793595E+03  0.25182793595E+03  0.00000000000E+00 0. -1.
         25    2    1    2    0    0  0.77816558890E+02 -0.35499370714E+02 -0.59483501243E+02  0.16272319068E+03  0.12499971082E+03 0.  0.
          2    1    1    2  501    0  0.10634520752E+03  0.84627679700E+02 -0.99368974355E+02  0.16836074483E+03  0.00000000000E+00 0. -1.
          1    1    1    2  502    0 -0.18416176641E+03 -0.49128308986E+02  0.13171408074E+04  0.13308602682E+04  0.00000000000E+00 0. -1.
         22    1    3    3    0    0  0.24900472245E+02 -0.44627311069E+02 -0.88120415692E+02  0.10186676628E+03  0.00000000000E+00 0. -1.
         22    1    3    3    0    0  0.52916086645E+02  0.91279403547E+01  0.28636914449E+02  0.60856424394E+02  0.00000000000E+00 0. -1.
</event>
<event>
 7    1  0.5575489E-006  0.6184075E+02  0.7818608E-02  0.1527116E+00
          2   -1    0    0  502    0  0.00000000000E+00  0.00000000000E+00  0.74933417810E+03  0.74933417810E+03  0.00000000000E+00 0. -1.
          1   -1    0    0  501    0 -0.00000000000E+00 -0.00000000000E+00 -0.14401998168E+03  0.14401998168E+03  0.00000000000E+00 0. -1.
         25    2    1    2    0    0 -0.39870572855E+02 -0.37033822203E+02  0.30857518349E+02  0.13978166969E+03  0.12500224868E+03 0.  0.
          2    1    1    2  501    0  0.12767512162E+02 -0.18879719503E+02 -0.86627025188E+02  0.89575078388E+02  0.00000000000E+00 0. -1.
          1    1    1    2  502    0  0.27103060693E+02  0.55913541706E+02  0.66108370325E+03  0.66399741171E+03  0.00000000000E+00 0. -1.
         22    1    3    3    0    0 -0.68062397480E+02  0.11487421536E+02 -0.10837419801E+02  0.69870598052E+02  0.00000000000E+00 0.  1.
         22    1    3    3    0    0  0.28191824625E+02 -0.48521243739E+02  0.41694938151E+02  0.69911071635E+02  0.00000000000E+00 0.  1.
</event>
<event>
 7    1  0.5575489E-006  0.1138679E+03  0.7818608E-02  0.1303444E+00
          2   -1    0    0  502    0  0.00000000000E+00  0.00000000000E+00  0.55444090242E+03  0.55444090242E+03  0.00000000000E+00 0. -1.
          1   -1    0    0  501    0 -0.00000000000E+00 -0.00000000000E+00 -0.88431178351E+03  0.88431178351E+03  0.00000000000E+00 0. -1.
         25    2    1    2    0    0  0.81889604265E+02  0.11345143472E+03  0.27811432708E+02  0.18967270684E+03  0.12500049840E+03 0.  0.
          2    1    1    2  501    0 -0.11140871349E+02 -0.11302948898E+03 -0.79651940990E+03  0.80457625788E+03  0.00000000000E+00 0. -1.
          1    1    1    2  502    0 -0.70748732915E+02 -0.42194574425E+00  0.43883709611E+03  0.44450372121E+03  0.00000000000E+00 0. -1.
         22    1    3    3    0    0  0.35078798255E+02  0.12509357953E+03 -0.71233843778E+01  0.13011405893E+03  0.00000000000E+00 0. -1.
         22    1    3    3    0    0  0.46810806010E+02 -0.11642144809E+02  0.34934817086E+02  0.59558647902E+02  0.00000000000E+00 0. -1.
</event>
<event>
 7    1  0.5575489E-006  0.8188474E+02  0.7818608E-02  0.1400780E+00
          2   -1    0    0  502    0  0.00000000000E+00  0.00000000000E+00  0.67967117737E+03  0.67967117737E+03  0.00000000000E+00 0. -1.
          1   -1    0    0  501    0 -0.00000000000E+00 -0.00000000000E+00 -0.37974533821E+03  0.37974533821E+03  0.00000000000E+00 0. -1.
         25    2    1    2    0    0  0.28452589640E+02  0.11694541397E+03 -0.26472575308E+02  0.17553219951E+03  0.12499990446E+03 0.  0.
          2    1    1    2  501    0 -0.23069798854E+02 -0.36226756092E+02 -0.27436113358E+03  0.27770240383E+03  0.00000000000E+00 0. -1.
          1    1    1    2  502    0 -0.53827907860E+01 -0.80718657877E+02  0.60075954804E+03  0.60618191224E+03  0.00000000000E+00 0. -1.
         22    1    3    3    0    0  0.58725803530E+02  0.12831707419E+03 -0.23458858679E+02  0.14305351999E+03  0.00000000000E+00 0.  1.
         22    1    3    3    0    0 -0.30273213890E+02 -0.11371660223E+02 -0.30137166289E+01  0.32478679521E+02  0.00000000000E+00 0.  1.
</event>
<event>
 7    1  0.5575489E-006  0.6928573E+02  0.7818608E-02  0.1422411E+00
          2   -1    0    0  502    0  0.00000000000E+00  0.00000000000E+00  0.31311813179E+03  0.31311813179E+03  0.00000000000E+00 0. -1.
          1   -1    0    0  501    0 -0.00000000000E+00 -0.00000000000E+00 -0.26753876781E+03  0.26753876781E+03  0.00000000000E+00 0. -1.
         25    2    1    2    0    0  0.49871298696E+02 -0.79739613560E+02 -0.19829208954E+03  0.25256845797E+03  0.12500208311E+03 0.  0.
          2    1    1    2  501    0 -0.36993934448E+02  0.38826481927E+02 -0.22593310826E+02  0.58193681606E+02  0.00000000000E+00 0. -1.
          1    1    1    2  502    0 -0.12877364248E+02  0.40913131633E+02  0.26646476435E+03  0.26989476003E+03  0.00000000000E+00 0. -1.
         22    1    3    3    0    0  0.89187256301E+02 -0.59257671609E+02 -0.16671555663E+03  0.19814114957E+03  0.00000000000E+00 0.  1.
         22    1    3    3    0    0 -0.39315957605E+02 -0.20481941951E+02 -0.31576532908E+02  0.54427308393E+02  0.00000000000E+00 0.  1.
</event>
<event>
 7    1  0.5575489E-006  0.5250770E+02  0.7818608E-02  0.1458058E+00
          2   -1    0    0  502    0  0.00000000000E+00  0.00000000000E+00  0.19314506741E+04  0.19314506741E+04  0.00000000000E+00 0. -1.
          1   -1    0    0  501    0 -0.00000000000E+00 -0.00000000000E+00 -0.38792561731E+02  0.38792561731E+02  0.00000000000E+00 0. -1.
         25    2    1    2    0    0 -0.49612057625E+02 -0.80607570574E+02  0.13985813159E+04  0.14073428183E+04  0.12500069684E+03 0.  0.
          2    1    1    2  501    0  0.31673205601E+02  0.41128078158E+02 -0.13369533330E+02  0.53604619088E+02  0.00000000000E+00 0. -1.
          1    1    1    2  502    0  0.17938852024E+02  0.39479492416E+02  0.50744632983E+03  0.50929579852E+03  0.00000000000E+00 0. -1.
         22    1    3    3    0    0 -0.51817979622E+02  0.20378908997E+02  0.47303479527E+03  0.47630066185E+03  0.00000000000E+00 0.  1.
         22    1    3    3    0    0  0.22059219965E+01 -0.10098647957E+03  0.92554652064E+03  0.93104215642E+03  0.00000000000E+00 0.  1.
</event>
<event>
 7    1  0.5575489E-006  0.6075775E+02  0.7818608E-02  0.1411214E+00
          2   -1    0    0  502    0  0.00000000000E+00  0.00000000000E+00  0.27021551625E+04  0.27021551625E+04  0.00000000000E+00 0. -1.
          1   -1    0    0  501    0 -0.00000000000E+00 -0.00000000000E+00 -0.36190832717E+02  0.36190832717E+02  0.00000000000E+00 0. -1.
         25    2    1    2    0    0  0.80486756850E+01  0.10247761256E+03  0.77207543781E+03  0.78885503681E+03  0.12500138064E+03 0.  0.
          2    1    1    2  501    0 -0.27238521010E+02 -0.52717913441E+02  0.46732767569E+01  0.59522726249E+02  0.00000000000E+00 0. -1.
          1    1    1    2  502    0  0.19189845325E+02 -0.49759699123E+02  0.18892156152E+04  0.18899682321E+04  0.00000000000E+00 0. -1.
         22    1    3    3    0    0  0.50999175944E+01  0.61034536021E+02  0.11350422827E+03  0.12897454625E+03  0.00000000000E+00 0. -1.
         22    1    3    3    0    0  0.29487580906E+01  0.41443076543E+02  0.65857120955E+03  0.65988049055E+03  0.00000000000E+00 0. -1.
</event>
<event>
 7    1  0.5575489E-006  0.3462198E+02  0.7818608E-02  0.1566188E+00
          2   -1    0    0  502    0  0.00000000000E+00  0.00000000000E+00  0.63144698530E+03  0.63144698530E+03  0.00000000000E+00 0. -1.
          1   -1    0    0  501    0 -0.00000000000E+00 -0.00000000000E+00 -0.13163279122E+04  0.13163279122E+04  0.00000000000E+00 0. -1.
         25    2    1    2    0    0 -0.12123247267E+01 -0.14822050128E+02  0.10630055032E+03  0.16477788183E+03  0.12502311962E+03 0.  0.
          2    1    1    2  501    0 -0.30367629319E+02  0.16730071186E+02 -0.12863508305E+04  0.12868179930E+04  0.00000000000E+00 0. -1.
          1    1    1    2  502    0  0.31579954046E+02 -0.19080210577E+01  0.49516935327E+03  0.49617902259E+03  0.00000000000E+00 0. -1.
         22    1    3    3    0    0 -0.16642813606E+02  0.52813746003E+02  0.58368842447E+02  0.80456179254E+02  0.00000000000E+00 0.  1.
         22    1    3    3    0    0  0.15430488880E+02 -0.67635796130E+02  0.47931707874E+02  0.84321702574E+02  0.00000000000E+00 0.  1.
</event>
<event>
 7    1  0.5575489E-006  0.1171979E+03  0.7818608E-02  0.1250468E+00
          2   -1    0    0  502    0  0.00000000000E+00  0.00000000000E+00  0.57330061521E+03  0.57330061521E+03  0.00000000000E+00 0. -1.
          1   -1    0    0  501    0 -0.00000000000E+00 -0.00000000000E+00 -0.72410445669E+03  0.72410445669E+03  0.00000000000E+00 0. -1.
         25    2    1    2    0    0 -0.13759115823E+03  0.18116407907E+03 -0.27720855431E+03  0.37976699513E+03  0.12500655040E+03 0.  0.
          2    1    1    2  501    0  0.57479537549E+02 -0.98567554467E+02 -0.38080912594E+03  0.39753622531E+03  0.00000000000E+00 0. -1.
          1    1    1    2  502    0  0.80111620680E+02 -0.82596524600E+02  0.50721383877E+03  0.52010185145E+03  0.00000000000E+00 0. -1.
         22    1    3    3    0    0 -0.73893250887E+02  0.88804978598E+02 -0.49037125038E+02  0.12550369071E+03  0.00000000000E+00 0. -1.
         22    1    3    3    0    0 -0.63697907343E+02  0.92359100469E+02 -0.22817142927E+03  0.25426330442E+03  0.00000000000E+00 0. -1.
</event>
<event>
 7    1  0.5575489E-006  0.5405928E+02  0.7818608E-02  0.1427433E+00
          2   -1    0    0  502    0  0.00000000000E+00  0.00000000000E+00  0.36603262450E+04  0.36603262450E+04  0.00000000000E+00 0. -1.
          1   -1    0    0  501    0 -0.00000000000E+00 -0.00000000000E+00 -0.11520543919E+04  0.11520543919E+04  0.00000000000E+00 0. -1.
         25    2    1    2    0    0  0.26874482514E+02  0.89569479544E+02  0.61896071923E+03  0.63834656051E+03  0.12501611850E+03 0.  0.
          2    1    1    2  501    0  0.11215431025E+02 -0.52853981130E+02 -0.11414916107E+04  0.11427696296E+04  0.00000000000E+00 0. -1.
          1    1    1    2  502    0 -0.38089913539E+02 -0.36715498414E+02  0.30308027445E+04  0.30312644467E+04  0.00000000000E+00 0. -1.
         22    1    3    3    0    0  0.16119465924E+02  0.11748457644E+03  0.39559635713E+03  0.41298782144E+03  0.00000000000E+00 0.  1.
         22    1    3    3    0    0  0.10755016590E+02 -0.27915096900E+02  0.22336436210E+03  0.22535873907E+03  0.00000000000E+00 0.  1.
</event>
<event>
 7    1  0.5575489E-006  0.1991730E+03  0.7818608E-02  0.1271561E+00
          2   -1    0    0  502    0  0.00000000000E+00  0.00000000000E+00  0.17487302326E+04  0.17487302326E+04  0.00000000000E+00 0. -1.
          1   -1    0    0  501    0 -0.00000000000E+00 -0.00000000000E+00 -0.16691839104E+03  0.16691839104E+03  0.00000000000E+00 0. -1.
         25    2    1    2    0    0  0.55899248035E+02 -0.19153731994E+03  0.42160105111E+03  0.48289138895E+03  0.12500150542E+03 0.  0.
          2    1    1    2  501    0 -0.10597618078E+03  0.16980600790E+03 -0.61832486776E+02  0.20949531649E+03  0.00000000000E+00 0. -1.
          1    1    1    2  502    0  0.50076932745E+02  0.21731312047E+02  0.12220432772E+04  0.12232619182E+04  0.00000000000E+00 0. -1.
         22    1    3    3    0    0  0.14811397038E+02  0.12623427810E+02  0.10649283089E+02  0.22184130413E+02  0.00000000000E+00 0.  1.
         22    1    3    3    0    0  0.41087850998E+02 -0.20416074775E+03  0.41095176802E+03  0.46070725853E+03  0.00000000000E+00 0.  1.
</event>
<event>
 7    1  0.5575489E-006  0.6166854E+02  0.7818608E-02  0.1478900E+00
          2   -1    0    0  502    0  0.00000000000E+00  0.00000000000E+00  0.60135384622E+03  0.60135384622E+03  0.00000000000E+00 0. -1.
          1   -1    0    0  501    0 -0.00000000000E+00 -0.00000000000E+00 -0.68633128595E+03  0.68633128595E+03  0.00000000000E+00 0. -1.
         25    2    1    2    0    0 -0.71105003315E+02 -0.60343210913E+02  0.41463997116E+03  0.44300100518E+03  0.12500544113E+03 0.  0.
          2    1    1    2  501    0  0.45607911621E+02  0.41353619336E+02 -0.66926133554E+03  0.67208700232E+03  0.00000000000E+00 0. -1.
          1    1    1    2  502    0  0.25497091693E+02  0.18989591577E+02  0.16964392465E+03  0.17259712467E+03  0.00000000000E+00 0. -1.
         22    1    3    3    0    0  0.25114117146E+02 -0.29990176175E+02  0.43998434554E+02  0.58872674394E+02  0.00000000000E+00 0.  1.
         22    1    3    3    0    0 -0.96219120460E+02 -0.30353034738E+02  0.37064153660E+03  0.38412833079E+03  0.00000000000E+00 0.  1.
</event>
<event>
 7    1  0.5575489E-006  0.7843355E+02  0.7818608E-02  0.1487864E+00
          2   -1    0    0  502    0  0.00000000000E+00  0.00000000000E+00  0.37158231382E+03  0.37158231382E+03  0.00000000000E+00 0. -1.
          1   -1    0    0  501    0 -0.00000000000E+00 -0.00000000000E+00 -0.95197943069E+02  0.95197943069E+02  0.00000000000E+00 0. -1.
         25    2    1    2    0    0 -0.89909784242E+02 -0.42394791825E+02  0.47278605560E+02  0.16655641268E+03  0.12499873754E+03 0.  0.
          2    1    1    2  501    0  0.22721734746E+02  0.58773670646E+01 -0.25337864509E+02  0.34537342853E+02  0.00000000000E+00 0. -1.
          1    1    1    2  502    0  0.67188049496E+02  0.36517424760E+02  0.25444362970E+03  0.26568650135E+03  0.00000000000E+00 0. -1.
         22    1    3    3    0    0 -0.30156051501E+02 -0.74565009604E+02 -0.54493169988E+01  0.80616519121E+02  0.00000000000E+00 0. -1.
         22    1    3    3    0    0 -0.59753732740E+02  0.32170217779E+02  0.52727922559E+02  0.85939893564E+02  0.00000000000E+00 0. -1.
</event>
<event>
 7    1  0.5575489E-006  0.6585761E+02  0.7818608E-02  0.1472381E+00
          2   -1    0    0  502    0  0.00000000000E+00  0.00000000000E+00  0.41664515207E+03  0.41664515207E+03  0.00000000000E+00 0. -1.
          1   -1    0    0  501    0 -0.00000000000E+00 -0.00000000000E+00 -0.18783266466E+04  0.18783266466E+04  0.00000000000E+00 0. -1.
         25    2    1    2    0    0 -0.62465699354E+02 -0.72971051591E+02  0.13999531137E+03  0.21083258304E+03  0.12499981160E+03 0.  0.
          2    1    1    2  501    0  0.47204868014E+02  0.45779994665E+02 -0.18413110563E+04  0.18424848747E+04  0.00000000000E+00 0. -1.
          1    1    1    2  502    0  0.15260831340E+02  0.27191056926E+02  0.23963425037E+03  0.24165434095E+03  0.00000000000E+00 0. -1.
         22    1    3    3    0    0  0.16983600957E+02 -0.65083793900E+02  0.10256627774E+03  0.12265473598E+03  0.00000000000E+00 0. -1.
         22    1    3    3    0    0 -0.79449300311E+02 -0.78872576907E+01  0.37429033636E+02  0.88177847063E+02  0.00000000000E+00 0. -1.
</event>
<event>
 7    1  0.5575489E-006  0.4622773E+02  0.7818608E-02  0.1473962E+00
          2   -1    0    0  502    0  0.00000000000E+00  0.00000000000E+00  0.35054749764E+03  0.35054749764E+03  0.00000000000E+00 0. -1.
          1   -1    0    0  501    0 -0.00000000000E+00 -0.00000000000E+00 -0.17449779934E+03  0.17449779934E+03  0.00000000000E+00 0. -1.
         25    2    1    2    0    0  0.49719562482E+01  0.86326647677E+02 -0.46567696086E+02  0.15896988061E+03  0.12500344866E+03 0.  0.
          2    1    1    2  501    0 -0.13945978655E+02 -0.41650622416E+02 -0.63025239685E+02  0.76820866342E+02  0.00000000000E+00 0. -1.
          1    1    1    2  502    0  0.89740224067E+01 -0.44676025261E+02  0.28564263407E+03  0.28925455003E+03  0.00000000000E+00 0. -1.
         22    1    3    3    0    0  0.64260586211E+02  0.33636134734E+02 -0.18762203765E+02  0.74918841357E+02  0.00000000000E+00 0.  1.
         22    1    3    3    0    0 -0.59288629963E+02  0.52690512943E+02 -0.27805492321E+02  0.84051039257E+02  0.00000000000E+00 0.  1.
</event>
<event>
 7    1  0.5575489E-006  0.1028945E+03  0.7818608E-02  0.1283502E+00
          2   -1    0    0  502    0  0.00000000000E+00  0.00000000000E+00  0.17276896017E+03  0.17276896017E+03  0.00000000000E+00 0. -1.
          1   -1    0    0  501    0 -0.00000000000E+00 -0.00000000000E+00 -0.23793590898E+03  0.23793590898E+03  0.00000000000E+00 0. -1.
         25    2    1    2    0    0  0.71233741583E+02 -0.99073660205E+02  0.34013224257E+02  0.17796391002E+03  0.12499767102E+03 0.  0.
          2    1    1    2  501    0 -0.94213061148E+02 -0.34270250776E+01 -0.84637886491E+02  0.12669418780E+03  0.00000000000E+00 0. -1.
          1    1    1    2  502    0  0.22979319564E+02  0.10250068528E+03 -0.14542286578E+02  0.10604677133E+03  0.00000000000E+00 0. -1.
         22    1    3    3    0    0  0.54514015618E+02  0.13852606206E+02  0.29975045600E+02  0.63735201861E+02  0.00000000000E+00 0.  1.
         22    1    3    3    0    0  0.16719725965E+02 -0.11292626641E+03  0.40381786569E+01  0.11422870816E+03  0.00000000000E+00 0.  1.
</event>
<event>
 7    1  0.5575489E-006  0.1416332E+03  0.7818608E-02  0.1287249E+00
          2   -1    0    0  502    0  0.00000000000E+00  0.00000000000E+00  0.20480608577E+04  0.20480608577E+04  0.00000000000E+00 0. -1.
          1   -1    0    0  501    0 -0.00000000000E+00 -0.00000000000E+00 -0.27107576429E+03  0.27107576429E+03  0.00000000000E+00 0. -1.
         25    2    1    2    0    0  0.13077656305E+03 -0.29577087656E+01  0.44020029553E+03  0.47593400694E+03  0.12500248513E+03 0.  0.
          2    1    1    2  501    0 -0.12505153536E+03  0.68820602518E+02 -0.23234144880E+03  0.27268426918E+03  0.00000000000E+00 0. -1.
          1    1    1    2  502    0 -0.57250276959E+01 -0.65862893753E+02  0.15691262467E+04  0.15705183459E+04  0.00000000000E+00 0. -1.
         22    1    3    3    0    0  0.11779691144E+02  0.37817036130E+02  0.20909281663E+03  0.21281140785E+03  0.00000000000E+00 0.  1.
         22    1    3    3    0    0  0.11899687191E+03 -0.40774744896E+02  0.23110747890E+03  0.26312259908E+03  0.00000000000E+00 0.  1.
</event>
<event>
 7    1  0.5575489E-006  0.8995578E+02  0.7818608E-02  0.1330371E+00
          2   -1    0    0  502    0  0.00000000000E+00  0.00000000000E+00  0.29361112842E+03  0.29361112842E+03  0.00000000000E+00 0. -1.
          1   -1    0    0  501    0 -0.00000000000E+00 -0.00000000000E+00 -0.95423504456E+03  0.95423504456E+03  0.00000000000E+00 0. -1.
         25    2    1    2    0    0 -0.14097603195E+02 -0.21871058014E+02  0.11272821699E+03  0.17029505820E+03  0.12496267581E+03 0.  0.
          2    1    1    2  501    0  0.82351302090E+02  0.38812198051E+02 -0.91494114644E+03  0.91945931130E+03  0.00000000000E+00 0. -1.
          1    1    1    2  502    0 -0.68253698895E+02 -0.16941140037E+02  0.14158901331E+03  0.15809180349E+03  0.00000000000E+00 0. -1.
         22    1    3    3    0    0 -0.17094452518E+02 -0.66479887380E+02  0.10420313329E+03  0.12478016156E+03  0.00000000000E+00 0.  1.
         22    1    3    3    0    0  0.29968493236E+01  0.44608829366E+02  0.85250837040E+01  0.45514896632E+02  0.00000000000E+00 0.  1.
</event>
<event>
 7    1  0.5575489E-006  0.1171172E+03  0.7818608E-02  0.1361486E+00
          2   -1    0    0  502    0  0.00000000000E+00  0.00000000000E+00  0.29213677521E+04  0.29213677521E+04  0.00000000000E+00 0. -1.
          1   -1    0    0  501    0 -0.00000000000E+00 -0.00000000000E+00 -0.94666258274E+03  0.94666258274E+03  0.00000000000E+00 0. -1.
         25    2    1    2    0    0  0.83682906138E+02 -0.11231811471E+02  0.34546827187E+03  0.37696493685E+03  0.12500101751E+03 0.  0.
          2    1    1    2  501    0 -0.11667862208E+03 -0.13693936944E+02 -0.92703994209E+03  0.93445410748E+03  0.00000000000E+00 0. -1.
          1    1    1    2  502    0  0.32995715944E+02  0.24925748415E+02  0.25562768396E+04  0.25566112906E+04  0.00000000000E+00 0. -1.
         22    1    3    3    0    0  0.63736441785E+02 -0.32002528486E+02  0.69785946327E+02  0.99782634490E+02  0.00000000000E+00 0. -1.
         22    1    3    3    0    0  0.19946464353E+02  0.20770717016E+02  0.27568232554E+03  0.27718230236E+03  0.00000000000E+00 0. -1.
</event>
<event>
 7    1  0.5575489E-006  0.1836117E+03  0.7818608E-02  0.1268276E+00
          2   -1    0    0  502    0  0.00000000000E+00  0.00000000000E+00  0.31129551015E+04  0.31129551015E+04  0.00000000000E+00 0. -1.
          1   -1    0    0  501    0 -0.00000000000E+00 -0.00000000000E+00 -0.79605895685E+02  0.79605895685E+02  0.00000000000E+00 0. -1.
         25    2    1    2    0    0  0.16156650065E+03  0.14860013996E+03  0.11651686462E+04  0.11922370337E+04  0.12500173921E+03 0.  0.
          2    1    1    2  501    0 -0.10045279715E+03 -0.14984844554E+03  0.58557659977E+02  0.18966897645E+03  0.00000000000E+00 0. -1.
          1    1    1    2  502    0 -0.61113703495E+02  0.12483055805E+01  0.18096228997E+04  0.18106549870E+04  0.00000000000E+00 0. -1.
         22    1    3    3    0    0  0.34539833963E+02  0.10908478472E+03  0.42105052991E+03  0.43632102760E+03  0.00000000000E+00 0.  1.
         22    1    3    3    0    0  0.12702666669E+03  0.39515355242E+02  0.74411811627E+03  0.75591600613E+03  0.00000000000E+00 0.  1.
</event>
<event>
 7    1  0.5575489E-006  0.1316499E+03  0.7818608E-02  0.1284958E+00
          2   -1    0    0  502    0  0.00000000000E+00  0.00000000000E+00  0.10585000221E+04  0.10585000221E+04  0.00000000000E+00 0. -1.
          1   -1    0    0  501    0 -0.00000000000E+00 -0.00000000000E+00 -0.24599618974E+03  0.24599618974E+03  0.00000000000E+00 0. -1.
         25    2    1    2    0    0 -0.33303388506E+02 -0.86163190268E+02 -0.62839171380E+01  0.15555434911E+03  0.12499782746E+03 0.  0.
          2    1    1    2  501    0  0.10006203631E+03  0.11488948763E+03 -0.12823244908E+03  0.19913705450E+03  0.00000000000E+00 0. -1.
          1    1    1    2  502    0 -0.66758647803E+02 -0.28726297359E+02  0.94702019857E+03  0.94980480822E+03  0.00000000000E+00 0. -1.
         22    1    3    3    0    0  0.68601528879E+01 -0.88303539857E+02  0.37428578054E+02  0.96153394657E+02  0.00000000000E+00 0. -1.
         22    1    3    3    0    0 -0.40163541394E+02  0.21403495893E+01 -0.43712495192E+02  0.59400954450E+02  0.00000000000E+00 0. -1.
</event>
<event>
 7    1  0.5575489E-006  0.6548869E+02  0.7818608E-02  0.1477048E+00
          2   -1    0    0  502    0  0.00000000000E+00  0.00000000000E+00  0.66117646214E+02  0.66117646214E+02  0.00000000000E+00 0. -1.
          1   -1    0    0  501    0 -0.00000000000E+00 -0.00000000000E+00 -0.15738747597E+04  0.15738747597E+04  0.00000000000E+00 0. -1.
         25    2    1    2    0    0  0.35500187281E+02  0.12649177973E+02 -0.21071583224E+03  0.24788355445E+03  0.12499931844E+03 0.  0.
          2    1    1    2  501    0 -0.65800775070E+02 -0.11260910829E+02 -0.13388182902E+04  0.13404816165E+04  0.00000000000E+00 0. -1.
          1    1    1    2  502    0  0.30300587789E+02 -0.13882671439E+01  0.41777008967E+02  0.51627234908E+02  0.00000000000E+00 0. -1.
         22    1    3    3    0    0  0.40206763746E+02  0.46026317209E+02 -0.20471939103E+03  0.21364698639E+03  0.00000000000E+00 0. -1.
         22    1    3    3    0    0 -0.47065764644E+01 -0.33377139235E+02 -0.59964412031E+01  0.34236568062E+02  0.00000000000E+00 0. -1.
</event>
<event>
 7    1  0.5575489E-006  0.1181632E+03  0.7818608E-02  0.1257739E+00
          2   -1    0    0  502    0  0.00000000000E+00  0.00000000000E+00  0.24558282107E+03  0.24558282107E+03  0.00000000000E+00 0. -1.
          1   -1    0    0  501    0 -0.00000000000E+00 -0.00000000000E+00 -0.37432874347E+03  0.37432874347E+03  0.00000000000E+00 0. -1.
         25    2    1    2    0    0 -0.38064700767E+02  0.18907637280E+02  0.50748592312E+02  0.14148836936E+03  0.12504846601E+03 0.  0.
          2    1    1    2  501    0  0.41235872409E+02 -0.12415297231E+03 -0.29465012406E+03  0.32238649680E+03  0.00000000000E+00 0. -1.
          1    1    1    2  502    0 -0.31711716423E+01  0.10524533503E+03  0.11515560936E+03  0.15603669838E+03  0.00000000000E+00 0. -1.
         22    1    3    3    0    0 -0.35106865299E+02 -0.50162102832E+02  0.12534875306E+02  0.62496813123E+02  0.00000000000E+00 0.  1.
         22    1    3    3    0    0 -0.29578354676E+01  0.69069740112E+02  0.38213717007E+02  0.78991556240E+02  0.00000000000E+00 0.  1.
</event>
<event>
 7    1  0.5575489E-006  0.1748989E+03  0.7818608E-02  0.1230471E+00
          2   -1    0    0  502    0  0.00000000000E+00  0.00000000000E+00  0.61057499355E+03  0.61057499355E+03  0.00000000000E+00 0. -1.
          1   -1    0    0  501    0 -0.00000000000E+00 -0.00000000000E+00 -0.29117130307E+03  0.29117130307E+03  0.00000000000E+00 0. -1.
         25    2    1    2    0    0  0.12554791952E+03  0.54627452157E+01 -0.15385611270E+00  0.17724934370E+03  0.12500073796E+03 0.  0.
          2    1    1    2  501    0 -0.20140907582E+03  0.49467442477E+02 -0.14341101544E+03  0.25214948550E+03  0.00000000000E+00 0. -1.
          1    1    1    2  502    0  0.75861156294E+02 -0.54930187692E+02  0.46296856202E+03  0.47234746742E+03  0.00000000000E+00 0. -1.
         22    1    3    3    0    0  0.79421258443E+02  0.23532719795E+02 -0.57975880464E+02  0.10110750669E+03  0.00000000000E+00 0.  1.
         22    1    3    3    0    0  0.46126661081E+02 -0.18069974579E+02  0.57822024351E+02  0.76141837014E+02  0.00000000000E+00 0.  1.
</event>
<event>
 7    1  0.5575489E-006  0.9888606E+02  0.7818608E-02  0.1307721E+00
          2   -1    0    0  502    0  0.00000000000E+00  0.00000000000E+00  0.32693598312E+04  0.32693598312E+04  0.00000000000E+00 0. -1.
          1   -1    0    0  501    0 -0.00000000000E+00 -0.00000000000E+00 -0.30018715195E+03  0.30018715195E+03  0.00000000000E+00 0. -1.
         25    2    1    2    0    0 -0.13860174094E+03  0.90428218307E+02  0.29118359671E+03  0.35749166939E+03  0.12499880572E+03 0.  0.
          2    1    1    2  501    0  0.93651076233E+02 -0.26260226931E+02 -0.25763642089E+03  0.27538454744E+03  0.00000000000E+00 0. -1.
          1    1    1    2  502    0  0.44950664703E+02 -0.64167991376E+02  0.29356255035E+04  0.29366707664E+04  0.00000000000E+00 0. -1.
         22    1    3    3    0    0 -0.13756215781E+03  0.11136523640E+03  0.21501254060E+03  0.27848869951E+03  0.00000000000E+00 0.  1.
         22    1    3    3    0    0 -0.10395831250E+01 -0.20937018098E+02  0.76171056117E+02  0.79002969880E+02  0.00000000000E+00 0.  1.
</event>
<event>
 7    1  0.5575489E-006  0.3883368E+02  0.7818608E-02  0.1591908E+00
          2   -1    0    0  502    0  0.00000000000E+00  0.00000000000E+00  0.28892403855E+03  0.28892403855E+03  0.00000000000E+00 0. -1.
          1   -1    0    0  501    0 -0.00000000000E+00 -0.00000000000E+00 -0.17633827909E+03  0.17633827909E+03  0.00000000000E+00 0. -1.
         25    2    1    2    0    0  0.39110378112E+02 -0.87848441736E+01  0.27231182894E+02  0.13406386690E+03  0.12499915169E+03 0.  0.
          2    1    1    2  501    0 -0.31006948913E+01  0.23858992338E+02 -0.11988697588E+03  0.12227736017E+03  0.00000000000E+00 0. -1.
          1    1    1    2  502    0 -0.36009683221E+02 -0.15074148164E+02  0.20524155245E+03  0.20892109056E+03  0.00000000000E+00 0. -1.
         22    1    3    3    0    0  0.64598617860E+02  0.13587226709E+01 -0.29514843057E+02  0.71034875359E+02  0.00000000000E+00 0.  1.
         22    1    3    3    0    0 -0.25488239747E+02 -0.10143566844E+02  0.56746025951E+02  0.63028991543E+02  0.00000000000E+00 0.  1.
</event>
<event>
 7    1  0.5575489E-006  0.5116082E+02  0.7818608E-02  0.1449299E+00
          2   -1    0    0  502    0  0.00000000000E+00  0.00000000000E+00  0.21833834418E+04  0.21833834418E+04  0.00000000000E+00 0. -1.
          1   -1    0    0  501    0 -0.00000000000E+00 -0.00000000000E+00 -0.64428477902E+03  0.64428477902E+03  0.00000000000E+00 0. -1.
         25    2    1    2    0    0 -0.87333086310E+01  0.22796588838E+02  0.81878806022E+03  0.82863412794E+03  0.12499870108E+03 0.  0.
          2    1    1    2  501    0  0.42365186845E+02  0.21383949391E+02 -0.63791312887E+03  0.63967588850E+03  0.00000000000E+00 0. -1.
          1    1    1    2  502    0 -0.33631878214E+02 -0.44180538229E+02  0.13582237314E+04  0.13593582044E+04  0.00000000000E+00 0. -1.
         22    1    3    3    0    0 -0.30683942488E+02 -0.44779536105E+02  0.42929439901E+03  0.43271282880E+03  0.00000000000E+00 0.  1.
         22    1    3    3    0    0  0.21950633857E+02  0.67576124943E+02  0.38949366121E+03  0.39592129914E+03  0.00000000000E+00 0.  1.
</event>
<event>
 7    1  0.5575489E-006  0.4910889E+02  0.7818608E-02  0.1467419E+00
          2   -1    0    0  502    0  0.00000000000E+00  0.00000000000E+00  0.15594850727E+04  0.15594850727E+04  0.00000000000E+00 0. -1.
          1   -1    0    0  501    0 -0.00000000000E+00 -0.00000000000E+00 -0.24987861772E+04  0.24987861772E+04  0.00000000000E+00 0. -1.
         25    2    1    2    0    0 -0.38635246948E+01  0.87802346474E+02  0.89418898307E+03  0.90715101184E+03  0.12499936788E+03 0.  0.
          2    1    1    2  501    0  0.63514142504E+00 -0.43323874114E+02 -0.24913619022E+04  0.24917386479E+04  0.00000000000E+00 0. -1.
          1    1    1    2  502    0  0.32283832698E+01 -0.44478472360E+02  0.65787181463E+03  0.65938159016E+03  0.00000000000E+00 0. -1.
         22    1    3    3    0    0 -0.39294618587E+01  0.11139613884E+03  0.84790552635E+03  0.85520074955E+03  0.00000000000E+00 0.  1.
         22    1    3    3    0    0  0.65937163904E-01 -0.23593792366E+02  0.46283456719E+02  0.51950262288E+02  0.00000000000E+00 0.  1.
</event>
<event>
 7    1  0.5575489E-006  0.8307180E+02  0.7818608E-02  0.1462891E+00
          2   -1    0    0  502    0  0.00000000000E+00  0.00000000000E+00  0.18903311947E+04  0.18903311947E+04  0.00000000000E+00 0. -1.
          1   -1    0    0  501    0 -0.00000000000E+00 -0.00000000000E+00 -0.21058750458E+02  0.21058750458E+02  0.00000000000E+00 0. -1.
         25    2    1    2    0    0  0.59891573281E+02  0.73709008671E+01  0.30072823321E+03  0.33120722644E+03  0.12497770147E+03 0.  0.
          2    1    1    2  501    0  0.24958136820E+02 -0.88004651688E+01  0.33024897815E+02  0.42320215694E+02  0.00000000000E+00 0. -1.
          1    1    1    2  502    0 -0.84849710101E+02  0.14295643017E+01  0.15355193132E+04  0.15378625030E+04  0.00000000000E+00 0. -1.
         22    1    3    3    0    0  0.23522752128E+02 -0.48766539939E+02  0.21901490067E+03  0.22560811599E+03  0.00000000000E+00 0.  1.
         22    1    3    3    0    0  0.36368821153E+02  0.56137440806E+02  0.81713332542E+02  0.10559911045E+03  0.00000000000E+00 0.  1.
</event>
<event>
 7    1  0.5575489E-006  0.8483393E+02  0.7818608E-02  0.1446747E+00
          2   -1    0    0  502    0  0.00000000000E+00  0.00000000000E+00  0.22055179723E+04  0.22055179723E+04  0.00000000000E+00 0. -1.
          1   -1    0    0  501    0 -0.00000000000E+00 -0.00000000000E+00 -0.48816204041E+03  0.48816204041E+03  0.00000000000E+00 0. -1.
         25    2    1    2    0    0 -0.57212300400E+02  0.47291914742E+01  0.64242082354E+03  0.65698227293E+03  0.12500231939E+03 0.  0.
          2    1    1    2  501    0  0.82984577787E+02 -0.18379445019E+02 -0.47698751228E+03  0.48450111560E+03  0.00000000000E+00 0. -1.
          1    1    1    2  502    0 -0.25772277387E+02  0.13650253545E+02  0.15519226206E+04  0.15521966242E+04  0.00000000000E+00 0. -1.
         22    1    3    3    0    0  0.67933920742E+01 -0.51176636076E+02  0.28114715334E+03  0.28584772185E+03  0.00000000000E+00 0.  1.
         22    1    3    3    0    0 -0.64005692474E+02  0.55905827550E+02  0.36127367020E+03  0.37113455108E+03  0.00000000000E+00 0.  1.
</event>
<event>
 7    1  0.5575489E-006  0.7811048E+02  0.7818608E-02  0.1375051E+00
          2   -1    0    0  502    0  0.00000000000E+00  0.00000000000E+00  0.28228367425E+04  0.28228367425E+04  0.00000000000E+00 0. -1.
          1   -1    0    0  501    0 -0.00000000000E+00 -0.00000000000E+00 -0.33539690773E+02  0.33539690773E+02  0.00000000000E+00 0. -1.
         25    2    1    2    0    0 -0.38516034783E+02 -0.36991657107E+02  0.32495905778E+03  0.35224366150E+03  0.12500136081E+03 0.  0.
          2    1    1    2  501    0  0.87335370356E+02  0.10802209089E+02  0.79324316706E+02  0.11847574375E+03  0.00000000000E+00 0. -1.
          1    1    1    2  502    0 -0.48819335573E+02  0.26189448019E+02  0.23850136772E+04  0.23856570280E+04  0.00000000000E+00 0. -1.
         22    1    3    3    0    0  0.43018694054E+01 -0.76712131639E+02  0.16678788545E+03  0.18363402722E+03  0.00000000000E+00 0. -1.
         22    1    3    3    0    0 -0.42817904188E+02  0.39720474532E+02  0.15817117233E+03  0.16860963428E+03  0.00000000000E+00 0. -1.
</event>
<event>
 7    1  0.5575489E-006  0.1430018E+03  0.7818608E-02  0.1245807E+00
          2   -1    0    0  502    0  0.00000000000E+00  0.00000000000E+00  0.79995310867E+03  0.79995310867E+03  0.00000000000E+00 0. -1.
          1   -1    0    0  501    0 -0.00000000000E+00 -0.00000000000E+00 -0.24770884889E+03  0.24770884889E+03  0.00000000000E+00 0. -1.
         25    2    1    2    0    0 -0.40677559291E+02  0.63540784509E+02  0.14274011530E+03  0.20418443542E+03  0.12499779209E+03 0.  0.
          2    1    1    2  501    0 -0.13084821599E+02  0.97106590485E+02 -0.19362672375E+03  0.21700739762E+03  0.00000000000E+00 0. -1.
          1    1    1    2  502    0  0.53762380891E+02 -0.16064737499E+03  0.60313086824E+03  0.62647012452E+03  0.00000000000E+00 0. -1.
         22    1    3    3    0    0 -0.68665881092E+01  0.13894984129E+01  0.13251090244E+03  0.13269596830E+03  0.00000000000E+00 0.  1.
         22    1    3    3    0    0 -0.33810971182E+02  0.62151286096E+02  0.10229212860E+02  0.71488467122E+02  0.00000000000E+00 0.  1.
</event>
<event>
 7    1  0.5575489E-006  0.1079556E+03  0.7818608E-02  0.1303882E+00
          2   -1    0    0  502    0  0.00000000000E+00  0.00000000000E+00  0.27007787765E+04  0.27007787765E+04  0.00000000000E+00 0. -1.
          1   -1    0    0  501    0 -0.00000000000E+00 -0.00000000000E+00 -0.10201942412E+03  0.10201942412E+03  0.00000000000E+00 0. -1.
         25    2    1    2    0    0  0.32874878919E+02  0.13157238320E+03  0.24482140868E+03  0.30651971665E+03  0.12499905945E+03 0.  0.
          2    1    1    2  501    0  0.46075141952E+02 -0.58321013174E+02 -0.50225314069E+02  0.89704188625E+02  0.00000000000E+00 0. -1.
          1    1    1    2  502    0 -0.78950020871E+02 -0.73251370022E+02  0.24041632578E+04  0.24065742953E+04  0.00000000000E+00 0. -1.
         22    1    3    3    0    0 -0.26872976931E+02  0.69506709465E+02  0.40582492741E+02  0.84854453429E+02  0.00000000000E+00 0.  1.
         22    1    3    3    0    0  0.59747855850E+02  0.62065673732E+02  0.20423891594E+03  0.22166526322E+03  0.00000000000E+00 0.  1.
</event>
<event>
 7    1  0.5575489E-006  0.2209135E+03  0.7818608E-02  0.1278854E+00
          2   -1    0    0  502    0  0.00000000000E+00  0.00000000000E+00  0.19755606283E+04  0.19755606283E+04  0.00000000000E+00 0. -1.
          1   -1    0    0  501    0 -0.00000000000E+00 -0.00000000000E+00 -0.20223658037E+04  0.20223658037E+04  0.00000000000E+00 0. -1.
         25    2    1    2    0    0 -0.14643251032E+03 -0.11942936605E+03 -0.42059180368E+03  0.47772951484E+03  0.12498868138E+03 0.  0.
          2    1    1    2  501    0  0.19141642121E+03  0.12851589565E+03 -0.15644848960E+04  0.15813821712E+04  0.00000000000E+00 0. -1.
          1    1    1    2  502    0 -0.44983910895E+02 -0.90865295991E+01  0.19382715243E+04  0.19388147460E+04  0.00000000000E+00 0. -1.
         22    1    3    3    0    0 -0.11767548069E+03 -0.14365312041E+03 -0.37633671230E+03  0.41965826428E+03  0.00000000000E+00 0. -1.
         22    1    3    3    0    0 -0.28757029630E+02  0.24223754354E+02 -0.44255091377E+02  0.58071250554E+02  0.00000000000E+00 0. -1.
</event>
<event>
 7    1  0.5575489E-006  0.7433979E+02  0.7818608E-02  0.1451772E+00
          2   -1    0    0  502    0  0.00000000000E+00  0.00000000000E+00  0.10212659588E+04  0.10212659588E+04  0.00000000000E+00 0. -1.
          1   -1    0    0  501    0 -0.00000000000E+00 -0.00000000000E+00 -0.24289989212E+03  0.24289989212E+03  0.00000000000E+00 0. -1.
         25    2    1    2    0    0 -0.51180649650E+02  0.77159913015E+02  0.26859092796E+03  0.31038663546E+03  0.12500266325E+03 0.  0.
          2    1    1    2  501    0  0.58139864402E+02 -0.45853972233E+02 -0.21546350223E+03  0.22783184895E+03  0.00000000000E+00 0. -1.
          1    1    1    2  502    0 -0.69592147518E+01 -0.31305940782E+02  0.72523864093E+03  0.72594736648E+03  0.00000000000E+00 0. -1.
         22    1    3    3    0    0 -0.21306666187E+02 -0.34139507608E+02  0.73884160136E+02  0.84132925319E+02  0.00000000000E+00 0.  1.
         22    1    3    3    0    0 -0.29873983463E+02  0.11129942062E+03  0.19470676782E+03  0.22625371014E+03  0.00000000000E+00 0.  1.
</event>
<event>
 7    1  0.5575489E-006  0.4932384E+02  0.7818608E-02  0.1449438E+00
          2   -1    0    0  502    0  0.00000000000E+00  0.00000000000E+00  0.58315059986E+03  0.58315059986E+03  0.00000000000E+00 0. -1.
          1   -1    0    0  501    0 -0.00000000000E+00 -0.00000000000E+00 -0.63883491354E+03  0.63883491354E+03  0.00000000000E+00 0. -1.
         25    2    1    2    0    0  0.12494533869E+02 -0.13095985985E+02 -0.10667646164E+03  0.16532380505E+03  0.12499789927E+03 0.  0.
          2    1    1    2  501    0  0.25206530225E+02  0.44665597564E+02 -0.50043006044E+03  0.50305131962E+03  0.00000000000E+00 0. -1.
          1    1    1    2  502    0 -0.37701064094E+02 -0.31569611579E+02  0.55142220840E+03  0.55361038874E+03  0.00000000000E+00 0. -1.
         22    1    3    3    0    0  0.60829119915E+01  0.12880832925E+02 -0.12942344660E+03  0.13020501605E+03  0.00000000000E+00 0.  1.
         22    1    3    3    0    0  0.64116218776E+01 -0.25976818910E+02  0.22746984962E+02  0.35118788997E+02  0.00000000000E+00 0.  1.
</event>
<event>
 7    1  0.5575489E-006  0.4439899E+02  0.7818608E-02  0.1520261E+00
          2   -1    0    0  502    0  0.00000000000E+00  0.00000000000E+00  0.55429088986E+03  0.55429088986E+03  0.00000000000E+00 0. -1.
          1   -1    0    0  501    0 -0.00000000000E+00 -0.00000000000E+00 -0.15960598504E+03  0.15960598504E+03  0.00000000000E+00 0. -1.
         25    2    1    2    0    0 -0.28095248394E+02  0.40519285078E+01  0.39424781562E+03  0.41456259163E+03  0.12500016461E+03 0.  0.
          2    1    1    2  501    0 -0.13035311795E+02  0.30562396999E+02 -0.14265715569E+03  0.14647540248E+03  0.00000000000E+00 0. -1.
          1    1    1    2  502    0  0.41130560189E+02 -0.34614325507E+02  0.14309424489E+03  0.15285888078E+03  0.00000000000E+00 0. -1.
         22    1    3    3    0    0 -0.70644651443E+02 -0.78854125398E+01  0.32294464158E+03  0.33067520021E+03  0.00000000000E+00 0.  1.
         22    1    3    3    0    0  0.42549403050E+02  0.11937341048E+02  0.71303174033E+02  0.83887391414E+02  0.00000000000E+00 0.  1.
</event>
<event>
 7    1  0.5575489E-006  0.7622035E+02  0.7818608E-02  0.1499418E+00
          2   -1    0    0  502    0  0.00000000000E+00  0.00000000000E+00  0.91023044200E+02  0.91023044200E+02  0.00000000000E+00 0. -1.
          1   -1    0    0  501    0 -0.00000000000E+00 -0.00000000000E+00 -0.44928401165E+03  0.44928401165E+03  0.00000000000E+00 0. -1.
         25    2    1    2    0    0 -0.26274235473E+02 -0.52365688564E+02 -0.27227922820E+03  0.30527629295E+03  0.12500054455E+03 0.  0.
          2    1    1    2  501    0  0.40801437988E+01 -0.21915683812E+02 -0.13921453658E+03  0.14098805611E+03  0.00000000000E+00 0. -1.
          1    1    1    2  502    0  0.22194091674E+02  0.74281372375E+02  0.53232797337E+02  0.94042706786E+02  0.00000000000E+00 0. -1.
         22    1    3    3    0    0  0.28569306022E+02  0.11764291286E+02 -0.16950956656E+03  0.17230234169E+03  0.00000000000E+00 0.  1.
         22    1    3    3    0    0 -0.54843541496E+02 -0.64129979850E+02 -0.10276966164E+03  0.13297395126E+03  0.00000000000E+00 0.  1.
</event>
<event>
 7    1  0.5575489E-006  0.1530719E+03  0.7818608E-02  0.1253290E+00
          2   -1    0    0  502    0  0.00000000000E+00  0.00000000000E+00  0.43790862931E+03  0.43790862931E+03  0.00000000000E+00 0. -1.
          1   -1    0    0  501    0 -0.00000000000E+00 -0.00000000000E+00 -0.14054805605E+04  0.14054805605E+04  0.00000000000E+00 0. -1.
         25    2    1    2    0    0  0.43078330037E+02 -0.57850897423E+02  0.37094320291E+02  0.14901413816E+03  0.12500702349E+03 0.  0.
          2    1    1    2  501    0 -0.92619584380E+02  0.12684782004E+03 -0.13396317919E+04  0.13488076567E+04  0.00000000000E+00 0. -1.
          1    1    1    2  502    0  0.49541254343E+02 -0.68996922619E+02  0.33496554041E+03  0.34556739498E+03  0.00000000000E+00 0. -1.
         22    1    3    3    0    0  0.86860897398E+02 -0.40831520409E+02  0.34417782759E+02  0.10196377948E+03  0.00000000000E+00 0. -1.
         22    1    3    3    0    0 -0.43782567361E+02 -0.17019377013E+02  0.26765375313E+01  0.47050358679E+02  0.00000000000E+00 0. -1.
</event>
<event>
 7    1  0.5575489E-006  0.1402435E+03  0.7818608E-02  0.1358413E+00
          2   -1    0    0  502    0  0.00000000000E+00  0.00000000000E+00  0.39280370581E+03  0.39280370581E+03  0.00000000000E+00 0. -1.
          1   -1    0    0  501    0 -0.00000000000E+00 -0.00000000000E+00 -0.66804813145E+03  0.66804813145E+03  0.00000000000E+00 0. -1.
         25    2    1    2    0    0 -0.15994485499E+03 -0.55764493465E+02 -0.50935549653E+02  0.21659060560E+03  0.12500009939E+03 0.  0.
          2    1    1    2  501    0  0.26885437436E+02  0.23085202751E+02 -0.51851022684E+03  0.51971974051E+03  0.00000000000E+00 0. -1.
          1    1    1    2  502    0  0.13305941755E+03  0.32679290714E+02  0.29420135085E+03  0.32454149116E+03  0.00000000000E+00 0. -1.
         22    1    3    3    0    0  0.11676722457E+01 -0.34060028889E+02 -0.41568505200E+02  0.53753043179E+02  0.00000000000E+00 0.  1.
         22    1    3    3    0    0 -0.16111252723E+03 -0.21704464576E+02 -0.93670444528E+01  0.16283756242E+03  0.00000000000E+00 0.  1.
</event>
<event>
 7    1  0.5575489E-006  0.4398726E+02  0.7818608E-02  0.1534486E+00
          2   -1    0    0  502    0  0.00000000000E+00  0.00000000000E+00  0.80539882313E+03  0.80539882313E+03  0.00000000000E+00 0. -1.
          1   -1    0    0  501    0 -0.00000000000E+00 -0.00000000000E+00 -0.71886892052E+02  0.71886892052E+02  0.00000000000E+00 0. -1.
         25    2    1    2    0    0 -0.59790448276E+02  0.18326444462E+02  0.47716959285E+02  0.14768754877E+03  0.12499579028E+03 0.  0.
          2    1    1    2  501    0  0.30662733969E+02 -0.27449448441E+02 -0.19268107627E+01  0.41199369824E+02  0.00000000000E+00 0. -1.
          1    1    1    2  502    0  0.29127714307E+02  0.91230039795E+01  0.68772178255E+03  0.68839879659E+03  0.00000000000E+00 0. -1.
         22    1    3    3    0    0  0.36777409875E+02  0.46373074010E+01  0.31849409026E+02  0.48871948522E+02  0.00000000000E+00 0.  1.
         22    1    3    3    0    0 -0.96567858151E+02  0.13689137061E+02  0.15867550260E+02  0.98815600249E+02  0.00000000000E+00 0.  1.
</event>
<event>
 7    1  0.5575489E-006  0.3783602E+02  0.7818608E-02  0.1555642E+00
          2   -1    0    0  502    0  0.00000000000E+00  0.00000000000E+00  0.72167137758E+03  0.72167137758E+03  0.00000000000E+00 0. -1.
          1   -1    0    0  501    0 -0.00000000000E+00 -0.00000000000E+00 -0.21445737892E+04  0.21445737892E+04  0.00000000000E+00 0. -1.
         25    2    1    2    0    0  0.26876382117E+02  0.10223227968E+01  0.32209794252E+03  0.34654870898E+03  0.12500215223E+03 0.  0.
          2    1    1    2  501    0 -0.33685119343E+01  0.30764968468E+02 -0.21312269464E+04  0.21314516479E+04  0.00000000000E+00 0. -1.
          1    1    1    2  502    0 -0.23507870183E+02 -0.31787291265E+02  0.38622659226E+03  0.38824480991E+03  0.00000000000E+00 0. -1.
         22    1    3    3    0    0 -0.16189744966E+02 -0.40629889392E+02  0.43885951593E+02  0.61958635405E+02  0.00000000000E+00 0.  1.
         22    1    3    3    0    0  0.43066127082E+02  0.41652212189E+02  0.27821199093E+03  0.28459007358E+03  0.00000000000E+00 0.  1.
</event>
<event>
 7    1  0.5575489E-006  0.9055243E+02  0.7818608E-02  0.1311598E+00
          2   -1    0    0  502    0  0.00000000000E+00  0.00000000000E+00  0.73815270061E+02  0.73815270061E+02  0.00000000000E+00 0. -1.
          1   -1    0    0  501    0 -0.00000000000E+00 -0.00000000000E+00 -0.39828020322E+04  0.39828020322E+04  0.00000000000E+00 0. -1.
         25    2    1    2    0    0  0.91582877140E+02 -0.35954177264E+02 -0.26443031188E+03  0.30859125547E+03  0.12500018747E+03 0.  0.
          2    1    1    2  501    0 -0.26843145367E+02  0.87248897915E+02 -0.36623880194E+04  0.36635254782E+04  0.00000000000E+00 0. -1.
          1    1    1    2  502    0 -0.64739731773E+02 -0.51294720651E+02  0.17831569139E+02  0.84500568606E+02  0.00000000000E+00 0. -1.
         22    1    3    3    0    0  0.24550100658E+02  0.15076484926E+02  0.22719003169E+01  0.28899297069E+02  0.00000000000E+00 0. -1.
         22    1    3    3    0    0  0.67032776482E+02 -0.51030662190E+02 -0.26670221219E+03  0.27969195840E+03  0.00000000000E+00 0. -1.
</event>
<event>
 7    1  0.5575489E-006  0.5901095E+02  0.7818608E-02  0.1432216E+00
          2   -1    0    0  502    0  0.00000000000E+00  0.00000000000E+00  0.69521278082E+03  0.69521278082E+03  0.00000000000E+00 0. -1.
          1   -1    0    0  501    0 -0.00000000000E+00 -0.00000000000E+00 -0.24528446828E+03  0.24528446828E+03  0.00000000000E+00 0. -1.
         25    2    1    2    0    0 -0.47151640945E+02 -0.12460877732E+02 -0.13079509394E+02  0.13481249343E+03  0.12499913640E+03 0.  0.
          2    1    1    2  501    0  0.21741174437E+02 -0.41374550522E+02 -0.16672088058E+03  0.17314844532E+03  0.00000000000E+00 0. -1.
          1    1    1    2  502    0  0.25410466508E+02  0.53835428254E+02  0.62972870251E+03  0.63253631035E+03  0.00000000000E+00 0. -1.
         22    1    3    3    0    0 -0.52620238916E+02  0.26579836073E+02 -0.52588776297E+02  0.78999725453E+02  0.00000000000E+00 0. -1.
         22    1    3    3    0    0  0.54685979706E+01 -0.39040713805E+02  0.39509266903E+02  0.55812767978E+02  0.00000000000E+00 0. -1.
</event>
<event>
 7    1  0.5575489E-006  0.6273875E+02  0.7818608E-02  0.1388038E+00
          2   -1    0    0  502    0  0.00000000000E+00  0.00000000000E+00  0.10881108526E+03  0.10881108526E+03  0.00000000000E+00 0. -1.
          1   -1    0    0  501    0 -0.00000000000E+00 -0.00000000000E+00 -0.94761786420E+03  0.94761786420E+03  0.00000000000E+00 0. -1.
         25    2    1    2    0    0 -0.86547175506E+01 -0.50169442032E+01 -0.53864388071E+03  0.55305008694E+03  0.12500837802E+03 0.  0.
          2    1    1    2  501    0 -0.29518035692E+02  0.55360965289E+02 -0.38918840357E+03  0.39421284147E+03  0.00000000000E+00 0. -1.
          1    1    1    2  502    0  0.38172753242E+02 -0.50344021085E+02  0.89025505340E+02  0.10916602104E+03  0.00000000000E+00 0. -1.
         22    1    3    3    0    0  0.46542727171E+02  0.27197270019E+02 -0.34358492877E+03  0.34778803923E+03  0.00000000000E+00 0.  1.
         22    1    3    3    0    0 -0.55197444722E+02 -0.32214214222E+02 -0.19505895194E+03  0.20526204772E+03  0.00000000000E+00 0.  1.
</event>
<event>
 7    1  0.5575489E-006  0.9807805E+02  0.7818608E-02  0.1419321E+00
          2   -1    0    0  502    0  0.00000000000E+00  0.00000000000E+00  0.13929791969E+04  0.13929791969E+04  0.00000000000E+00 0. -1.
          1   -1    0    0  501    0 -0.00000000000E+00 -0.00000000000E+00 -0.14996526071E+03  0.14996526071E+03  0.00000000000E+00 0. -1.
         25    2    1    2    0    0 -0.63825704048E+02  0.71903111663E+02  0.16051731696E+03  0.22502161943E+03  0.12500056882E+03 0.  0.
          2    1    1    2  501    0  0.39123292800E+02 -0.90678853427E+02 -0.96758970320E+02  0.13825912207E+03  0.00000000000E+00 0. -1.
          1    1    1    2  502    0  0.24702411248E+02  0.18775741763E+02  0.11792555896E+04  0.11796637161E+04  0.00000000000E+00 0. -1.
         22    1    3    3    0    0 -0.37743593940E+02 -0.19962490298E+00 -0.91464770981E+01  0.38836539199E+02  0.00000000000E+00 0. -1.
         22    1    3    3    0    0 -0.26082110108E+02  0.72102736566E+02  0.16966379406E+03  0.18618508024E+03  0.00000000000E+00 0. -1.
</event>
<event>
 7    1  0.5575489E-006  0.8694790E+02  0.7818608E-02  0.1363018E+00
          2   -1    0    0  502    0  0.00000000000E+00  0.00000000000E+00  0.14319046021E+04  0.14319046021E+04  0.00000000000E+00 0. -1.
          1   -1    0    0  501    0 -0.00000000000E+00 -0.00000000000E+00 -0.13809579636E+04  0.13809579636E+04  0.00000000000E+00 0. -1.
         25    2    1    2    0    0  0.57761202371E+02  0.73578455395E+02 -0.11551489804E+04  0.11656516744E+04  0.12499805455E+03 0.  0.
          2    1    1    2  501    0  0.25560674108E+02 -0.48688753937E+02 -0.21578091141E+03  0.22267766962E+03  0.00000000000E+00 0. -1.
          1    1    1    2  502    0 -0.83321876479E+02 -0.24889701458E+02  0.14218765302E+04  0.14245332216E+04  0.00000000000E+00 0. -1.
         22    1    3    3    0    0 -0.86958807560E-01  0.39649106640E+02 -0.89437444229E+02  0.97832078836E+02  0.00000000000E+00 0.  1.
         22    1    3    3    0    0  0.57848161179E+02  0.33929348755E+02 -0.10657115361E+04  0.10678195956E+04  0.00000000000E+00 0.  1.
</event>
<event>
 7    1  0.5575489E-006  0.5466994E+02  0.7818608E-02  0.1539473E+00
          2   -1    0    0  502    0  0.00000000000E+00  0.00000000000E+00  0.24865441080E+03  0.24865441080E+03  0.00000000000E+00 0. -1.
          1   -1    0    0  501    0 -0.00000000000E+00 -0.00000000000E+00 -0.18194788350E+04  0.18194788350E+04  0.00000000000E+00 0. -1.
         25    2    1    2    0    0 -0.28395279419E+01  0.49560615846E+02  0.10297799513E+00  0.13449171980E+03  0.12499477801E+03 0.  0.
          2    1    1    2  501    0 -0.20909670517E+02 -0.50581501687E+02 -0.17510760909E+04  0.17519312712E+04  0.00000000000E+00 0. -1.
          1    1    1    2  502    0  0.23749198459E+02  0.10208858418E+01  0.18014868877E+03  0.18171025481E+03  0.00000000000E+00 0. -1.
         22    1    3    3    0    0  0.27877991354E+02  0.83868339114E+02  0.19983989552E+01  0.88402908923E+02  0.00000000000E+00 0. -1.
         22    1    3    3    0    0 -0.30717519296E+02 -0.34307723268E+02 -0.18954209600E+01  0.46088810878E+02  0.00000000000E+00 0. -1.
</event>
<event>
 7    1  0.5575489E-006  0.1281800E+03  0.7818608E-02  0.1365703E+00
          2   -1    0    0  502    0  0.00000000000E+00  0.00000000000E+00  0.15775018595E+04  0.15775018595E+04  0.00000000000E+00 0. -1.
          1   -1    0    0  501    0 -0.00000000000E+00 -0.00000000000E+00 -0.10598208176E+04  0.10598208176E+04  0.00000000000E+00 0. -1.
         25    2    1    2    0    0  0.10854269325E+03  0.21845545572E+02  0.22579598735E+03  0.28084442287E+03  0.12502406902E+03 0.  0.
          2    1    1    2  501    0  0.88565028030E+01  0.35383022912E+02 -0.10287521926E+04  0.10293985962E+04  0.00000000000E+00 0. -1.
          1    1    1    2  502    0 -0.11739919606E+03 -0.57228568485E+02  0.13206372472E+04  0.13270796581E+04  0.00000000000E+00 0. -1.
         22    1    3    3    0    0  0.21804584389E+02  0.84788235041E+01  0.18063638282E+03  0.18214508818E+03  0.00000000000E+00 0.  1.
         22    1    3    3    0    0  0.86738108864E+02  0.13366722068E+02  0.45159604531E+02  0.98699334696E+02  0.00000000000E+00 0.  1.
</event>
<event>
 7    1  0.5575489E-006  0.8480521E+02  0.7818608E-02  0.1319918E+00
          2   -1    0    0  502    0  0.00000000000E+00  0.00000000000E+00  0.17043619653E+04  0.17043619653E+04  0.00000000000E+00 0. -1.
          1   -1    0    0  501    0 -0.00000000000E+00 -0.00000000000E+00 -0.11418001562E+04  0.11418001562E+04  0.00000000000E+00 0. -1.
         25    2    1    2    0    0 -0.13760209754E+02  0.12230683784E+02  0.19714931319E+02  0.12787548346E+03  0.12499811101E+03 0.  0.
          2    1    1    2  501    0 -0.30420709342E+02 -0.81117018087E+02 -0.10849652984E+04  0.10884186184E+04  0.00000000000E+00 0. -1.
          1    1    1    2  502    0  0.44180919096E+02  0.68886334304E+02  0.16278121762E+04  0.16298680197E+04  0.00000000000E+00 0. -1.
         22    1    3    3    0    0  0.25645015360E+02 -0.43692806064E+02  0.29718374438E+02  0.58735933583E+02  0.00000000000E+00 0. -1.
         22    1    3    3    0    0 -0.39405225114E+02  0.55923489848E+02 -0.10003443119E+02  0.69139549878E+02  0.00000000000E+00 0. -1.
</event>
<event>
 7    1  0.5575489E-006  0.8504247E+02  0.7818608E-02  0.1325139E+00
          2   -1    0    0  502    0  0.00000000000E+00  0.00000000000E+00  0.14187925398E+04  0.14187925398E+04  0.00000000000E+00 0. -1.
          1   -1    0    0  501    0 -0.00000000000E+00 -0.00000000000E+00 -0.49181750064E+03  0.49181750064E+03  0.00000000000E+00 0. -1.
         25    2    1    2    0    0  0.60045622219E+02 -0.45923004802E+02  0.62367743945E+03  0.64055625290E+03  0.12499746210E+03 0.  0.
          2    1    1    2  501    0 -0.59069076877E+02 -0.50791725584E+02 -0.47723492831E+03  0.48355158156E+03  0.00000000000E+00 0. -1.
          1    1    1    2  502    0 -0.97654534265E+00  0.96714730387E+02  0.78053252806E+03  0.78650220602E+03  0.00000000000E+00 0. -1.
         22    1    3    3    0    0  0.84952628331E+00  0.10780348313E+02 -0.68529685160E+00  0.10835461985E+02  0.00000000000E+00 0.  1.
         22    1    3    3    0    0  0.59196095936E+02 -0.56703353115E+02  0.62436273630E+03  0.62972079091E+03  0.00000000000E+00 0.  1.
</event>
<event>
 7    1  0.5575489E-006  0.5745224E+02  0.7818608E-02  0.1416482E+00
          2   -1    0    0  502    0  0.00000000000E+00  0.00000000000E+00  0.73665739225E+02  0.73665739225E+02  0.00000000000E+00 0. -1.
          1   -1    0    0  501    0 -0.00000000000E+00 -0.00000000000E+00 -0.47704623805E+03  0.47704623805E+03  0.00000000000E+00 0. -1.
         25    2    1    2    0    0 -0.21105871063E+02  0.18405182449E+02 -0.50182785982E+02  0.13757709810E+03  0.12499974952E+03 0.  0.
          2    1    1    2  501    0  0.55205074258E+02  0.23648446516E+02 -0.35392951637E+03  0.35898879064E+03  0.00000000000E+00 0. -1.
          1    1    1    2  502    0 -0.34099203195E+02 -0.42053628965E+02  0.73180352273E+00  0.54146088539E+02  0.00000000000E+00 0. -1.
         22    1    3    3    0    0  0.38367969543E+02  0.16332709556E+02 -0.64091937549E+02  0.76463291500E+02  0.00000000000E+00 0. -1.
         22    1    3    3    0    0 -0.59473840605E+02  0.20724728926E+01  0.13909151566E+02  0.61113806603E+02  0.00000000000E+00 0. -1.
</event>
<event>
 7    1  0.5575489E-006  0.5652846E+02  0.7818608E-02  0.1480493E+00
          2   -1    0    0  502    0  0.00000000000E+00  0.00000000000E+00  0.48301523101E+03  0.48301523101E+03  0.00000000000E+00 0. -1.
          1   -1    0    0  501    0 -0.00000000000E+00 -0.00000000000E+00 -0.60552521357E+03  0.60552521357E+03  0.00000000000E+00 0. -1.
         25    2    1    2    0    0 -0.21308417117E+02  0.36086017451E+02 -0.26253874035E+03  0.29378179959E+03  0.12499962517E+03 0.  0.
          2    1    1    2  501    0  0.54183512765E+02 -0.26323144649E+02 -0.32395556179E+03  0.32950867518E+03  0.00000000000E+00 0. -1.
          1    1    1    2  502    0 -0.32875095648E+02 -0.97628728019E+01  0.46398431958E+03  0.46524996982E+03  0.00000000000E+00 0. -1.
         22    1    3    3    0    0 -0.33100499563E+01  0.81510043017E+02 -0.18418588086E+03  0.20144300001E+03  0.00000000000E+00 0. -1.
         22    1    3    3    0    0 -0.17998367160E+02 -0.45424025566E+02 -0.78352859486E+02  0.92338799584E+02  0.00000000000E+00 0. -1.
</event>
<event>
 7    1  0.5747847E-006  0.5386353E+02  0.7818608E-02  0.1494852E+00
          2   -1    0    0  502    0  0.00000000000E+00  0.00000000000E+00  0.11575618628E+04  0.11575618628E+04  0.00000000000E+00 0. -1.
          1   -1    0    0  501    0 -0.00000000000E+00 -0.00000000000E+00 -0.15546054111E+04  0.15546054111E+04  0.00000000000E+00 0. -1.
         25    2    1    2    0    0 -0.29549204556E+02  0.31718242448E+02 -0.17698053884E+03  0.22096754167E+03  0.12500136379E+03 0.  0.
          2    1    1    2  501    0  0.58338285562E+01 -0.54019959753E+02 -0.13548534183E+04  0.13559424673E+04  0.00000000000E+00 0. -1.
          1    1    1    2  502    0  0.23715376000E+02  0.22301717305E+02  0.11347904089E+04  0.11352572650E+04  0.00000000000E+00 0. -1.
         22    1    3    3    0    0 -0.46525268003E+02 -0.31842458196E+02 -0.40372181628E+02  0.69343029615E+02  0.00000000000E+00 0.  1.
         22    1    3    3    0    0  0.16976063446E+02  0.63560700644E+02 -0.13660835721E+03  0.15162451205E+03  0.00000000000E+00 0.  1.
</event>
<event>
 7    1  0.5575489E-006  0.1456710E+03  0.7818608E-02  0.1287359E+00
          2   -1    0    0  502    0  0.00000000000E+00  0.00000000000E+00  0.39187722909E+03  0.39187722909E+03  0.00000000000E+00 0. -1.
          1   -1    0    0  501    0 -0.00000000000E+00 -0.00000000000E+00 -0.12369808642E+04  0.12369808642E+04  0.00000000000E+00 0. -1.
         25    2    1    2    0    0  0.10279556300E+03  0.12403414755E+01  0.69294553179E+02  0.17605345519E+03  0.12499847105E+03 0.  0.
          2    1    1    2  501    0  0.63224710016E+02  0.11216996999E+02 -0.11568849760E+04  0.11586656259E+04  0.00000000000E+00 0. -1.
          1    1    1    2  502    0 -0.16602027302E+03 -0.12457338475E+02  0.24248678766E+03  0.29413901224E+03  0.00000000000E+00 0. -1.
         22    1    3    3    0    0  0.12048980917E+03  0.35582116789E+01  0.88722521458E+02  0.14967344721E+03  0.00000000000E+00 0. -1.
         22    1    3    3    0    0 -0.17694246172E+02 -0.23178702034E+01 -0.19427968279E+02  0.26380007985E+02  0.00000000000E+00 0. -1.
</event>
<event>
 7    1  0.5575489E-006  0.7908741E+02  0.7818608E-02  0.1491839E+00
          2   -1    0    0  502    0  0.00000000000E+00  0.00000000000E+00  0.14396103537E+03  0.14396103537E+03  0.00000000000E+00 0. -1.
          1   -1    0    0  501    0 -0.00000000000E+00 -0.00000000000E+00 -0.50790441888E+03  0.50790441888E+03  0.00000000000E+00 0. -1.
         25    2    1    2    0    0 -0.80542933518E+02  0.38330257777E+02  0.51863870354E+02  0.16207050702E+03  0.12498246036E+03 0.  0.
          2    1    1    2  501    0  0.61064570070E+02 -0.49869274990E+02 -0.44551871278E+03  0.45244087983E+03  0.00000000000E+00 0. -1.
          1    1    1    2  502    0  0.19478363447E+02  0.11539017214E+02  0.29711458914E+02  0.37354067404E+02  0.00000000000E+00 0. -1.
         22    1    3    3    0    0 -0.98788524501E+02  0.37139095330E+02  0.77246448859E+02  0.13078799194E+03  0.00000000000E+00 0. -1.
         22    1    3    3    0    0  0.18245590983E+02  0.11911624463E+01 -0.25382578505E+02  0.31282515082E+02  0.00000000000E+00 0. -1.
</event>
<event>
 7    1  0.5575489E-006  0.5842724E+02  0.7818608E-02  0.1422989E+00
          2   -1    0    0  502    0  0.00000000000E+00  0.00000000000E+00  0.59637087500E+02  0.59637087500E+02  0.00000000000E+00 0. -1.
          1   -1    0    0  501    0 -0.00000000000E+00 -0.00000000000E+00 -0.10355599969E+04  0.10355599969E+04  0.00000000000E+00 0. -1.
         25    2    1    2    0    0 -0.86615097591E+02  0.72100195641E+01 -0.54367504024E+03  0.56459163074E+03  0.12500800220E+03 0.  0.
          2    1    1    2  501    0  0.41430610910E+02  0.29116220409E+02 -0.46246372690E+03  0.46522784580E+03  0.00000000000E+00 0. -1.
          1    1    1    2  502    0  0.45184486681E+02 -0.36326239973E+02  0.30215857754E+02  0.65377607841E+02  0.00000000000E+00 0. -1.
         22    1    3    3    0    0  0.79175280576E+00  0.53301998157E+02 -0.17950154098E+03  0.18724992148E+03  0.00000000000E+00 0. -1.
         22    1    3    3    0    0 -0.87406850396E+02 -0.46091978593E+02 -0.36417349925E+03  0.37734170926E+03  0.00000000000E+00 0. -1.
</event>
<event>
 7    1  0.5575489E-006  0.5713077E+02  0.7818608E-02  0.1495564E+00
          2   -1    0    0  502    0  0.00000000000E+00  0.00000000000E+00  0.73505933323E+03  0.73505933323E+03  0.00000000000E+00 0. -1.
          1   -1    0    0  501    0 -0.00000000000E+00 -0.00000000000E+00 -0.15355524276E+04  0.15355524276E+04  0.00000000000E+00 0. -1.
         25    2    1    2    0    0 -0.45767833037E+02 -0.66537468895E+02  0.37850718659E+02  0.15355126680E+03  0.12499354114E+03 0.  0.
          2    1    1    2  501    0  0.44180014911E+02  0.36036875573E+02 -0.14767870302E+04  0.14778871616E+04  0.00000000000E+00 0. -1.
          1    1    1    2  502    0  0.15878181259E+01  0.30500593323E+02  0.63844321712E+03  0.63917333240E+03  0.00000000000E+00 0. -1.
         22    1    3    3    0    0 -0.92935557954E+01 -0.29044283605E+02 -0.45722040090E+02  0.54958580217E+02  0.00000000000E+00 0. -1.
         22    1    3    3    0    0 -0.36474277242E+02 -0.37493185290E+02  0.83572758749E+02  0.98592686587E+02  0.00000000000E+00 0. -1.
</event>
<event>
 7    1  0.5575489E-006  0.1854798E+03  0.7818608E-02  0.1259335E+00
          2   -1    0    0  502    0  0.00000000000E+00  0.00000000000E+00  0.25055692931E+03  0.25055692931E+03  0.00000000000E+00 0. -1.
          1   -1    0    0  501    0 -0.00000000000E+00 -0.00000000000E+00 -0.10298632501E+04  0.10298632501E+04  0.00000000000E+00 0. -1.
         25    2    1    2    0    0 -0.10869538524E+03  0.10568402682E+03  0.42034187683E+02  0.20093670070E+03  0.12499953783E+03 0.  0.
          2    1    1    2  501    0  0.86303397875E+02 -0.16780431029E+03 -0.93184194650E+03  0.95075547661E+03  0.00000000000E+00 0. -1.
          1    1    1    2  502    0  0.22391987361E+02  0.62120283471E+02  0.11050143803E+03  0.12872800210E+03  0.00000000000E+00 0. -1.
         22    1    3    3    0    0  0.12440112522E+02  0.53418358548E+02  0.41876517035E+02  0.69006667131E+02  0.00000000000E+00 0. -1.
         22    1    3    3    0    0 -0.12113549776E+03  0.52265668275E+02  0.15767064811E+00  0.13193003357E+03  0.00000000000E+00 0. -1.
</event>
<event>
 7    1  0.5575489E-006  0.1161767E+03  0.7818608E-02  0.1310258E+00
          2   -1    0    0  502    0  0.00000000000E+00  0.00000000000E+00  0.10698700201E+04  0.10698700201E+04  0.00000000000E+00 0. -1.
          1   -1    0    0  501    0 -0.00000000000E+00 -0.00000000000E+00 -0.95603367561E+02  0.95603367561E+02  0.00000000000E+00 0. -1.
         25    2    1    2    0    0  0.50823832262E+02  0.87964668270E+02  0.21856282956E+03  0.27150588757E+03  0.12499956692E+03 0.  0.
          2    1    1    2  501    0 -0.10827581851E+03 -0.57210108718E+02 -0.12415777498E+02  0.12308858982E+03  0.00000000000E+00 0. -1.
          1    1    1    2  502    0  0.57451986248E+02 -0.30754559552E+02  0.76811960046E+03  0.77087891025E+03  0.00000000000E+00 0. -1.
         22    1    3    3    0    0  0.48441865659E+02 -0.14892086254E+02  0.11428008905E+03  0.12501330864E+03  0.00000000000E+00 0. -1.
         22    1    3    3    0    0  0.23819666030E+01  0.10285675452E+03  0.10428274051E+03  0.14649257894E+03  0.00000000000E+00 0. -1.
</event>
<event>
 7    1  0.5575489E-006  0.9906084E+02  0.7818608E-02  0.1369135E+00
          2   -1    0    0  502    0  0.00000000000E+00  0.00000000000E+00  0.57862575059E+03  0.57862575059E+03  0.00000000000E+00 0. -1.
          1   -1    0    0  501    0 -0.00000000000E+00 -0.00000000000E+00 -0.27065759748E+03  0.27065759748E+03  0.00000000000E+00 0. -1.
         25    2    1    2    0    0  0.43573075173E+02  0.10033772596E+03  0.42096169291E+02  0.17136072857E+03  0.12500455870E+03 0.  0.
          2    1    1    2  501    0  0.22735640528E+01 -0.98887310892E+02 -0.19294329179E+03  0.21682016326E+03  0.00000000000E+00 0. -1.
          1    1    1    2  502    0 -0.45846639226E+02 -0.14504150719E+01  0.45881527561E+03  0.46110245625E+03  0.00000000000E+00 0. -1.
         22    1    3    3    0    0  0.79095512665E+02  0.26247288902E+02  0.28513436706E+02  0.88079716004E+02  0.00000000000E+00 0.  1.
         22    1    3    3    0    0 -0.35522437493E+02  0.74090437062E+02  0.13582732585E+02  0.83281012565E+02  0.00000000000E+00 0.  1.
</event>
<event>
 7    1  0.5575489E-006  0.1185824E+03  0.7818608E-02  0.1299840E+00
          2   -1    0    0  502    0  0.00000000000E+00  0.00000000000E+00  0.95415561157E+03  0.95415561157E+03  0.00000000000E+00 0. -1.
          1   -1    0    0  501    0 -0.00000000000E+00 -0.00000000000E+00 -0.54760856709E+03  0.54760856709E+03  0.00000000000E+00 0. -1.
         25    2    1    2    0    0 -0.25602482317E+02  0.63832860665E+02 -0.12105348856E+03  0.18711040577E+03  0.12500494251E+03 0.  0.
          2    1    1    2  501    0  0.72297409520E+02 -0.11628497114E+03 -0.38021840375E+03  0.40412268495E+03  0.00000000000E+00 0. -1.
          1    1    1    2  502    0 -0.46694927203E+02  0.52452110472E+02  0.90781893679E+03  0.91053108794E+03  0.00000000000E+00 0. -1.
         22    1    3    3    0    0 -0.14175038877E+02  0.81646041486E+02 -0.13734143519E+03  0.16040473072E+03  0.00000000000E+00 0. -1.
         22    1    3    3    0    0 -0.11427443440E+02 -0.17813180821E+02  0.16287946626E+02  0.26705675049E+02  0.00000000000E+00 0. -1.
</event>
<event>
 7    1  0.5575489E-006  0.6140972E+02  0.7818608E-02  0.1465276E+00
          2   -1    0    0  502    0  0.00000000000E+00  0.00000000000E+00  0.35926550940E+03  0.35926550940E+03  0.00000000000E+00 0. -1.
          1   -1    0    0  501    0 -0.00000000000E+00 -0.00000000000E+00 -0.51882494681E+03  0.51882494681E+03  0.00000000000E+00 0. -1.
         25    2    1    2    0    0 -0.20789860571E+02  0.82156399223E+02 -0.70924773170E+02  0.16684381181E+03  0.12499856741E+03 0.  0.
          2    1    1    2  501    0  0.34492714881E+02 -0.49746086964E+02 -0.39664255396E+03  0.40123526285E+03  0.00000000000E+00 0. -1.
          1    1    1    2  502    0 -0.13702854310E+02 -0.32410312259E+02  0.30800788972E+03  0.31001138154E+03  0.00000000000E+00 0. -1.
         22    1    3    3    0    0 -0.69198015569E+02  0.34110133722E+02 -0.14887431230E+02  0.78571637312E+02  0.00000000000E+00 0. -1.
         22    1    3    3    0    0  0.48408154998E+02  0.48046265502E+02 -0.56037341940E+02  0.88272174498E+02  0.00000000000E+00 0. -1.
</event>
<event>
 7    1  0.5575489E-006  0.6504907E+02  0.7818608E-02  0.1502466E+00
          2   -1    0    0  502    0  0.00000000000E+00  0.00000000000E+00  0.24433377360E+02  0.24433377360E+02  0.00000000000E+00 0. -1.
          1   -1    0    0  501    0 -0.00000000000E+00 -0.00000000000E+00 -0.16495475271E+04  0.16495475271E+04  0.00000000000E+00 0. -1.
         25    2    1    2    0    0  0.79993982857E+02  0.31245848397E+02 -0.60866181147E+03  0.62727177103E+03  0.12500133457E+03 0.  0.
          2    1    1    2  501    0 -0.61483281049E+02 -0.13591191910E+02 -0.10190537276E+04  0.10209972645E+04  0.00000000000E+00 0. -1.
          1    1    1    2  502    0 -0.18510701807E+02 -0.17654656486E+02  0.26013893592E+01  0.25711868926E+02  0.00000000000E+00 0. -1.
         22    1    3    3    0    0  0.17089324385E+02  0.58039122552E+02 -0.45602215008E+03  0.46001824542E+03  0.00000000000E+00 0.  1.
         22    1    3    3    0    0  0.62904658472E+02 -0.26793274155E+02 -0.15263966139E+03  0.16725352560E+03  0.00000000000E+00 0.  1.
</event>
<event>
 7    1  0.6353474E-006  0.4054280E+02  0.7818608E-02  0.1538612E+00
          2   -1    0    0  502    0  0.00000000000E+00  0.00000000000E+00  0.21636172293E+04  0.21636172293E+04  0.00000000000E+00 0. -1.
          1   -1    0    0  501    0 -0.00000000000E+00 -0.00000000000E+00 -0.24724405316E+04  0.24724405316E+04  0.00000000000E+00 0. -1.
         25    2    1    2    0    0  0.10593095862E+02  0.28807802942E+02 -0.56636953224E+03  0.58081084664E+03  0.12499875731E+03 0.  0.
          2    1    1    2  501    0  0.27918466417E+02 -0.16113050531E+02 -0.18985228835E+04  0.18987965163E+04  0.00000000000E+00 0. -1.
          1    1    1    2  502    0 -0.38511562279E+02 -0.12694752411E+02  0.21560691134E+04  0.21564503980E+04  0.00000000000E+00 0. -1.
         22    1    3    3    0    0  0.21611579602E+02 -0.38030785010E+02 -0.38005070557E+03  0.38255972055E+03  0.00000000000E+00 0. -1.
         22    1    3    3    0    0 -0.11018483740E+02  0.66838587952E+02 -0.18631882667E+03  0.19825112609E+03  0.00000000000E+00 0. -1.
</event>
<event>
 7    1  0.5575489E-006  0.1697236E+03  0.7818608E-02  0.1279777E+00
          2   -1    0    0  502    0  0.00000000000E+00  0.00000000000E+00  0.10329339659E+04  0.10329339659E+04  0.00000000000E+00 0. -1.
          1   -1    0    0  501    0 -0.00000000000E+00 -0.00000000000E+00 -0.36449286141E+03  0.36449286141E+03  0.00000000000E+00 0. -1.
         25    2    1    2    0    0  0.13932467971E+03  0.66823287926E+02  0.15105335030E+02  0.19932474491E+03  0.12500185839E+03 0.  0.
          2    1    1    2  501    0 -0.17457500277E+03 -0.19248908440E+02 -0.24299237778E+03  0.29982035910E+03  0.00000000000E+00 0. -1.
          1    1    1    2  502    0  0.35250323060E+02 -0.47574379487E+02  0.89632814720E+03  0.89828172325E+03  0.00000000000E+00 0. -1.
         22    1    3    3    0    0 -0.47691363197E+01  0.20395004682E+02 -0.34204258234E+02  0.40107756838E+02  0.00000000000E+00 0. -1.
         22    1    3    3    0    0  0.14409381603E+03  0.46428283244E+02  0.49309593264E+02  0.15921698808E+03  0.00000000000E+00 0. -1.
</event>
<event>
 7    1  0.5575489E-006  0.6729100E+02  0.7818608E-02  0.1379607E+00
          2   -1    0    0  502    0  0.00000000000E+00  0.00000000000E+00  0.12849207624E+04  0.12849207624E+04  0.00000000000E+00 0. -1.
          1   -1    0    0  501    0 -0.00000000000E+00 -0.00000000000E+00 -0.54959843018E+02  0.54959843018E+02  0.00000000000E+00 0. -1.
         25    2    1    2    0    0  0.17599490897E+01  0.98840443650E+01  0.74651978248E+03  0.75697904630E+03  0.12499879659E+03 0.  0.
          2    1    1    2  501    0  0.34763173211E+02 -0.59926918176E+02 -0.22760405809E+02  0.72922903168E+02  0.00000000000E+00 0. -1.
          1    1    1    2  502    0 -0.36523122301E+02  0.50042873811E+02  0.50620154274E+03  0.50997865598E+03  0.00000000000E+00 0. -1.
         22    1    3    3    0    0  0.23790054511E+02  0.19384859571E+01  0.23219387341E+02  0.33299615162E+02  0.00000000000E+00 0. -1.
         22    1    3    3    0    0 -0.22030105421E+02  0.79455584079E+01  0.72330039513E+03  0.72367943113E+03  0.00000000000E+00 0. -1.
</event>
<event>
 7    1  0.5575489E-006  0.9710473E+02  0.7818608E-02  0.1351918E+00
          2   -1    0    0  502    0  0.00000000000E+00  0.00000000000E+00  0.22652053931E+04  0.22652053931E+04  0.00000000000E+00 0. -1.
          1   -1    0    0  501    0 -0.00000000000E+00 -0.00000000000E+00 -0.20526544543E+03  0.20526544543E+03  0.00000000000E+00 0. -1.
         25    2    1    2    0    0  0.11946622100E+03 -0.39442337226E+02 -0.78729481338E+02  0.19403973001E+03  0.12500083866E+03 0.  0.
          2    1    1    2  501    0 -0.67233309641E+02  0.53424206422E+02 -0.41649466865E+02  0.95441824413E+02  0.00000000000E+00 0. -1.
          1    1    1    2  502    0 -0.52232911358E+02 -0.13981869195E+02  0.21803188959E+04  0.21809892842E+04  0.00000000000E+00 0. -1.
         22    1    3    3    0    0  0.28186699554E+02 -0.22729277250E+02 -0.93323781322E+02  0.10010213902E+03  0.00000000000E+00 0. -1.
         22    1    3    3    0    0  0.91279521445E+02 -0.16713059977E+02  0.14594299984E+02  0.93937590991E+02  0.00000000000E+00 0. -1.
</event>
<event>
 7    1  0.5575489E-006  0.1111731E+03  0.7818608E-02  0.1299123E+00
          2   -1    0    0  502    0  0.00000000000E+00  0.00000000000E+00  0.25064209161E+04  0.25064209161E+04  0.00000000000E+00 0. -1.
          1   -1    0    0  501    0 -0.00000000000E+00 -0.00000000000E+00 -0.97993391152E+03  0.97993391152E+03  0.00000000000E+00 0. -1.
         25    2    1    2    0    0  0.18607795225E+02  0.16421094832E+03  0.24266406439E+03  0.31909593067E+03  0.12499951692E+03 0.  0.
          2    1    1    2  501    0  0.33333719278E+02 -0.67634955451E+02 -0.93885473767E+03  0.94187782779E+03  0.00000000000E+00 0. -1.
          1    1    1    2  502    0 -0.51941514504E+02 -0.96575992867E+02  0.22226776778E+04  0.22253810691E+04  0.00000000000E+00 0. -1.
         22    1    3    3    0    0  0.54625291393E+02  0.60898205826E+02  0.45502181044E+02  0.93610696036E+02  0.00000000000E+00 0. -1.
         22    1    3    3    0    0 -0.36017496168E+02  0.10331274249E+03  0.19716188335E+03  0.22548523463E+03  0.00000000000E+00 0. -1.
</event>
<event>
 7    1  0.5575489E-006  0.5465147E+02  0.7818608E-02  0.1443061E+00
          2   -1    0    0  502    0  0.00000000000E+00  0.00000000000E+00  0.36153089297E+04  0.36153089297E+04  0.00000000000E+00 0. -1.
          1   -1    0    0  501    0 -0.00000000000E+00 -0.00000000000E+00 -0.16497279020E+03  0.16497279020E+03  0.00000000000E+00 0. -1.
         25    2    1    2    0    0  0.69003468105E+01  0.17573631475E+02  0.83147903883E+03  0.84103225941E+03  0.12498568735E+03 0.  0.
          2    1    1    2  501    0 -0.53238137466E+02 -0.13394630177E+02 -0.15529222252E+03  0.16471001722E+03  0.00000000000E+00 0. -1.
          1    1    1    2  502    0  0.46337790656E+02 -0.41790012977E+01  0.27741493232E+04  0.27745394433E+04  0.00000000000E+00 0. -1.
         22    1    3    3    0    0 -0.33620203741E+02  0.54997146797E+02  0.58025018349E+03  0.58381956091E+03  0.00000000000E+00 0.  1.
         22    1    3    3    0    0  0.40520550552E+02 -0.37423515322E+02  0.25122885534E+03  0.25721269851E+03  0.00000000000E+00 0.  1.
</event>
<event>
 7    1  0.5575489E-006  0.7031287E+02  0.7818608E-02  0.1387172E+00
          2   -1    0    0  502    0  0.00000000000E+00  0.00000000000E+00  0.15582565991E+03  0.15582565991E+03  0.00000000000E+00 0. -1.
          1   -1    0    0  501    0 -0.00000000000E+00 -0.00000000000E+00 -0.28070856608E+04  0.28070856608E+04  0.00000000000E+00 0. -1.
         25    2    1    2    0    0  0.74186107026E+02  0.98249151496E+02 -0.23913824762E+03  0.29659446410E+03  0.12499880166E+03 0.  0.
          2    1    1    2  501    0 -0.50377572391E+02 -0.47826837108E+02 -0.25326041885E+04  0.25335566467E+04  0.00000000000E+00 0. -1.
          1    1    1    2  502    0 -0.23808534635E+02 -0.50422314388E+02  0.12048243531E+03  0.13276020988E+03  0.00000000000E+00 0. -1.
         22    1    3    3    0    0  0.91418077111E+02  0.11509601405E+03 -0.22469164402E+03  0.26849709899E+03  0.00000000000E+00 0.  1.
         22    1    3    3    0    0 -0.17231970085E+02 -0.16846862552E+02 -0.14446603599E+02  0.28097365115E+02  0.00000000000E+00 0.  1.
</event>
<event>
 7    1  0.5575489E-006  0.8313882E+02  0.7818608E-02  0.1480869E+00
          2   -1    0    0  502    0  0.00000000000E+00  0.00000000000E+00  0.14750203657E+04  0.14750203657E+04  0.00000000000E+00 0. -1.
          1   -1    0    0  501    0 -0.00000000000E+00 -0.00000000000E+00 -0.56015422876E+02  0.56015422876E+02  0.00000000000E+00 0. -1.
         25    2    1    2    0    0  0.67914440590E+01  0.93103203994E+02  0.59833362270E+03  0.61833804145E+03  0.12499791655E+03 0.  0.
          2    1    1    2  501    0 -0.19578926972E+02 -0.12549697749E+02 -0.41020684665E+02  0.47154277275E+02  0.00000000000E+00 0. -1.
          1    1    1    2  502    0  0.12787482913E+02 -0.80553506245E+02  0.86169200482E+03  0.86554346989E+03  0.00000000000E+00 0. -1.
         22    1    3    3    0    0  0.24440920280E+02  0.34370439229E+02  0.50438105937E+03  0.50614122410E+03  0.00000000000E+00 0.  1.
         22    1    3    3    0    0 -0.17649476221E+02  0.58732764765E+02  0.93952563324E+02  0.11219681735E+03  0.00000000000E+00 0.  1.
</event>
<event>
 7    1  0.5575489E-006  0.9701993E+02  0.7818608E-02  0.1329114E+00
          2   -1    0    0  502    0  0.00000000000E+00  0.00000000000E+00  0.82953789976E+02  0.82953789976E+02  0.00000000000E+00 0. -1.
          1   -1    0    0  501    0 -0.00000000000E+00 -0.00000000000E+00 -0.24546984333E+04  0.24546984333E+04  0.00000000000E+00 0. -1.
         25    2    1    2    0    0 -0.26600705963E+02 -0.27626663798E+02 -0.63440860365E+03  0.64774300374E+03  0.12500356957E+03 0.  0.
          2    1    1    2  501    0 -0.11988185754E+02 -0.64830534954E+02 -0.17798531615E+04  0.17810738310E+04  0.00000000000E+00 0. -1.
          1    1    1    2  502    0  0.38588891717E+02  0.92457198752E+02  0.42517121793E+02  0.10883538859E+03  0.00000000000E+00 0. -1.
         22    1    3    3    0    0 -0.74626777031E+02 -0.20198355103E+02 -0.46950109016E+03  0.47582392023E+03  0.00000000000E+00 0.  1.
         22    1    3    3    0    0  0.48026071068E+02 -0.74283086957E+01 -0.16490751349E+03  0.17191908352E+03  0.00000000000E+00 0.  1.
</event>
<event>
 7    1  0.5575489E-006  0.1655321E+03  0.7818608E-02  0.1254513E+00
          2   -1    0    0  502    0  0.00000000000E+00  0.00000000000E+00  0.53677660303E+03  0.53677660303E+03  0.00000000000E+00 0. -1.
          1   -1    0    0  501    0 -0.00000000000E+00 -0.00000000000E+00 -0.21463604496E+04  0.21463604496E+04  0.00000000000E+00 0. -1.
         25    2    1    2    0    0  0.16582952692E+03 -0.12704480324E+03 -0.75044403771E+03  0.78894232777E+03  0.12499571502E+03 0.  0.
          2    1    1    2  501    0 -0.85646865183E+01  0.77125113848E+02 -0.13623839714E+04  0.13645921451E+04  0.00000000000E+00 0. -1.
          1    1    1    2  502    0 -0.15726484040E+03  0.49919689391E+02  0.50324416250E+03  0.52960257977E+03  0.00000000000E+00 0. -1.
         22    1    3    3    0    0  0.17060988768E+03 -0.68580261824E+02 -0.53837771420E+03  0.56891260246E+03  0.00000000000E+00 0. -1.
         22    1    3    3    0    0 -0.47803607587E+01 -0.58464541415E+02 -0.21206632351E+03  0.22002972531E+03  0.00000000000E+00 0. -1.
</event>
<event>
 7    1  0.5575489E-006  0.1146670E+03  0.7818608E-02  0.1318467E+00
          2   -1    0    0  502    0  0.00000000000E+00  0.00000000000E+00  0.97555710729E+03  0.97555710729E+03  0.00000000000E+00 0. -1.
          1   -1    0    0  501    0 -0.00000000000E+00 -0.00000000000E+00 -0.97982223096E+03  0.97982223096E+03  0.00000000000E+00 0. -1.
         25    2    1    2    0    0 -0.63436666987E+02  0.73319552150E+02  0.13269620232E+03  0.20647460619E+03  0.12499405364E+03 0.  0.
          2    1    1    2  501    0 -0.49045330747E+02 -0.36798866221E+02 -0.93758800625E+03  0.93959079949E+03  0.00000000000E+00 0. -1.
          1    1    1    2  502    0  0.11248199773E+03 -0.36520685929E+02  0.80062668026E+03  0.80931393258E+03  0.00000000000E+00 0. -1.
         22    1    3    3    0    0  0.15620765562E+01  0.16826933270E+02  0.11788794583E+03  0.11909304572E+03  0.00000000000E+00 0.  1.
         22    1    3    3    0    0 -0.64998743543E+02  0.56492618880E+02  0.14808256492E+02  0.87381560471E+02  0.00000000000E+00 0.  1.
</event>
<event>
 7    1  0.5575489E-006  0.1545401E+03  0.7818608E-02  0.1287594E+00
          2   -1    0    0  502    0  0.00000000000E+00  0.00000000000E+00  0.18340275791E+04  0.18340275791E+04  0.00000000000E+00 0. -1.
          1   -1    0    0  501    0 -0.00000000000E+00 -0.00000000000E+00 -0.15661328632E+04  0.15661328632E+04  0.00000000000E+00 0. -1.
         25    2    1    2    0    0  0.33137528175E+02  0.20064423228E+03  0.35946706478E+03  0.43150689403E+03  0.12500170085E+03 0.  0.
          2    1    1    2  501    0 -0.54479757904E+02 -0.14414762968E+03 -0.15255958830E+04  0.15333588561E+04  0.00000000000E+00 0. -1.
          1    1    1    2  502    0  0.21342229728E+02 -0.56496602603E+02  0.14340235342E+04  0.14352946922E+04  0.00000000000E+00 0. -1.
         22    1    3    3    0    0  0.47270654299E+02  0.26698807895E+02  0.39840483963E+02  0.67339477747E+02  0.00000000000E+00 0. -1.
         22    1    3    3    0    0 -0.14133126123E+02  0.17394542439E+03  0.31962658082E+03  0.36416741629E+03  0.00000000000E+00 0. -1.
</event>
<event>
 7    1  0.5575489E-006  0.1932097E+03  0.7818608E-02  0.1301997E+00
          2   -1    0    0  502    0  0.00000000000E+00  0.00000000000E+00  0.22666404914E+03  0.22666404914E+03  0.00000000000E+00 0. -1.
          1   -1    0    0  501    0 -0.00000000000E+00 -0.00000000000E+00 -0.69274757311E+03  0.69274757311E+03  0.00000000000E+00 0. -1.
         25    2    1    2    0    0  0.18760303331E+03  0.13043505737E+03 -0.20803799268E+03  0.33333607099E+03  0.12499971011E+03 0.  0.
          2    1    1    2  501    0 -0.35481249283E+02 -0.22944695000E+02 -0.36757286714E+03  0.36999350093E+03  0.00000000000E+00 0. -1.
          1    1    1    2  502    0 -0.15212178403E+03 -0.10749036237E+03  0.10952733584E+03  0.21608205033E+03  0.00000000000E+00 0. -1.
         22    1    3    3    0    0  0.62068025903E+02  0.43803469553E+01 -0.11925445695E+03  0.13451116230E+03  0.00000000000E+00 0.  1.
         22    1    3    3    0    0  0.12553500741E+03  0.12605471041E+03 -0.88783535726E+02  0.19882490870E+03  0.00000000000E+00 0.  1.
</event>
<event>
 7    1  0.5575489E-006  0.8123212E+02  0.7818608E-02  0.1369175E+00
          2   -1    0    0  502    0  0.00000000000E+00  0.00000000000E+00  0.71250355715E+03  0.71250355715E+03  0.00000000000E+00 0. -1.
          1   -1    0    0  501    0 -0.00000000000E+00 -0.00000000000E+00 -0.20862959397E+03  0.20862959397E+03  0.00000000000E+00 0. -1.
         25    2    1    2    0    0 -0.12397572811E+03 -0.17100905201E+02  0.42163187894E+03  0.45723160369E+03  0.12499950380E+03 0.  0.
          2    1    1    2  501    0  0.78900264488E+02 -0.15990892586E+02 -0.17924960671E+03  0.19649779105E+03  0.00000000000E+00 0. -1.
          1    1    1    2  502    0  0.45075463625E+02  0.33091797787E+02  0.26149169094E+03  0.26740375639E+03  0.00000000000E+00 0. -1.
         22    1    3    3    0    0 -0.40269382690E+02 -0.37921221979E+02  0.31624296744E+03  0.32104401056E+03  0.00000000000E+00 0. -1.
         22    1    3    3    0    0 -0.83706345423E+02  0.20820316778E+02  0.10538891150E+03  0.13618759313E+03  0.00000000000E+00 0. -1.
</event>
<event>
 7    1  0.5575489E-006  0.5278430E+02  0.7818608E-02  0.1433557E+00
          2   -1    0    0  502    0  0.00000000000E+00  0.00000000000E+00  0.24523640133E+03  0.24523640133E+03  0.00000000000E+00 0. -1.
          1   -1    0    0  501    0 -0.00000000000E+00 -0.00000000000E+00 -0.75009889688E+03  0.75009889688E+03  0.00000000000E+00 0. -1.
         25    2    1    2    0    0  0.71343429966E+01  0.32380168340E+02 -0.39027616090E+02  0.13508246197E+03  0.12499897024E+03 0.  0.
          2    1    1    2  501    0  0.44537438486E+02 -0.30008827441E+02 -0.65854004973E+03  0.66072619915E+03  0.00000000000E+00 0. -1.
          1    1    1    2  502    0 -0.51671781482E+02 -0.23713408990E+01  0.19270517027E+03  0.19952663709E+03  0.00000000000E+00 0. -1.
         22    1    3    3    0    0  0.53287709101E+02 -0.17765006415E+02  0.74150413177E+00  0.56175841983E+02  0.00000000000E+00 0. -1.
         22    1    3    3    0    0 -0.46153366104E+02  0.50145174754E+02 -0.39769120222E+02  0.78906619983E+02  0.00000000000E+00 0. -1.
</event>
<event>
 7    1  0.5575489E-006  0.1156755E+03  0.7818608E-02  0.1419055E+00
          2   -1    0    0  502    0  0.00000000000E+00  0.00000000000E+00  0.25503099758E+03  0.25503099758E+03  0.00000000000E+00 0. -1.
          1   -1    0    0  501    0 -0.00000000000E+00 -0.00000000000E+00 -0.83485498160E+03  0.83485498160E+03  0.00000000000E+00 0. -1.
         25    2    1    2    0    0 -0.10831409715E+03 -0.16169827559E+02 -0.24315829185E+03  0.29452383677E+03  0.12499971426E+03 0.  0.
          2    1    1    2  501    0  0.22119265718E+00 -0.26360766094E+02 -0.55097063019E+03  0.55160091937E+03  0.00000000000E+00 0. -1.
          1    1    1    2  502    0  0.10809290450E+03  0.42530593653E+02  0.21430493802E+03  0.24376122304E+03  0.00000000000E+00 0. -1.
         22    1    3    3    0    0 -0.13634315281E+03 -0.73761159865E+01 -0.20625400744E+03  0.24735516568E+03  0.00000000000E+00 0.  1.
         22    1    3    3    0    0  0.28029055657E+02 -0.87937115721E+01 -0.36904284409E+02  0.47168671086E+02  0.00000000000E+00 0.  1.
</event>
<event>
 7    1  0.5575489E-006  0.6140170E+02  0.7818608E-02  0.1492802E+00
          2   -1    0    0  502    0  0.00000000000E+00  0.00000000000E+00  0.52591291679E+03  0.52591291679E+03  0.00000000000E+00 0. -1.
          1   -1    0    0  501    0 -0.00000000000E+00 -0.00000000000E+00 -0.44827438405E+03  0.44827438405E+03  0.00000000000E+00 0. -1.
         25    2    1    2    0    0  0.62133531722E+02 -0.52317262048E+02 -0.23794382461E+02  0.15096412473E+03  0.12500529048E+03 0.  0.
          2    1    1    2  501    0 -0.60208506512E+01  0.28333573841E+02 -0.35829445261E+03  0.35946342905E+03  0.00000000000E+00 0. -1.
          1    1    1    2  502    0 -0.56112681071E+02  0.23983688207E+02  0.45972736781E+03  0.46375974706E+03  0.00000000000E+00 0. -1.
         22    1    3    3    0    0  0.83887419121E+02 -0.76926482901E+02 -0.68996873002E+01  0.11402801648E+03  0.00000000000E+00 0. -1.
         22    1    3    3    0    0 -0.21753887399E+02  0.24609220854E+02 -0.16894695161E+02  0.36936108249E+02  0.00000000000E+00 0. -1.
</event>
<event>
 7    1  0.5575489E-006  0.1018536E+03  0.7818608E-02  0.1470969E+00
          2   -1    0    0  502    0  0.00000000000E+00  0.00000000000E+00  0.16733080592E+03  0.16733080592E+03  0.00000000000E+00 0. -1.
          1   -1    0    0  501    0 -0.00000000000E+00 -0.00000000000E+00 -0.76675080997E+03  0.76675080997E+03  0.00000000000E+00 0. -1.
         25    2    1    2    0    0  0.41456887332E+02 -0.74188455812E+02 -0.20400120891E+03  0.25389961541E+03  0.12500368389E+03 0.  0.
          2    1    1    2  501    0  0.54175094438E-01 -0.20365644075E+02 -0.51885061280E+03  0.51925015243E+03  0.00000000000E+00 0. -1.
          1    1    1    2  502    0 -0.41511062426E+02  0.94554099887E+02  0.12343181766E+03  0.16093184806E+03  0.00000000000E+00 0. -1.
         22    1    3    3    0    0 -0.20388623080E+02 -0.53984582761E+02 -0.17194317514E+03  0.18136837267E+03  0.00000000000E+00 0.  1.
         22    1    3    3    0    0  0.61845510412E+02 -0.20203873051E+02 -0.32058033765E+02  0.72531242739E+02  0.00000000000E+00 0.  1.
</event>
<event>
 7    1  0.5575489E-006  0.5645147E+02  0.7818608E-02  0.1469309E+00
          2   -1    0    0  502    0  0.00000000000E+00  0.00000000000E+00  0.66648605499E+03  0.66648605499E+03  0.00000000000E+00 0. -1.
          1   -1    0    0  501    0 -0.00000000000E+00 -0.00000000000E+00 -0.74311082363E+03  0.74311082363E+03  0.00000000000E+00 0. -1.
         25    2    1    2    0    0  0.46255270009E+02  0.32715819196E+02  0.36691116187E+03  0.39173626783E+03  0.12499451188E+03 0.  0.
          2    1    1    2  501    0 -0.28894669605E+02  0.23405407286E+02 -0.72721387308E+03  0.72816394598E+03  0.00000000000E+00 0. -1.
          1    1    1    2  502    0 -0.17360600404E+02 -0.56121226482E+02  0.28367794256E+03  0.28969666482E+03  0.00000000000E+00 0. -1.
         22    1    3    3    0    0  0.20244679734E+02  0.17148586400E+02  0.31540972618E+01  0.26718334578E+02  0.00000000000E+00 0. -1.
         22    1    3    3    0    0  0.26010590275E+02  0.15567232796E+02  0.36375706461E+03  0.36501793325E+03  0.00000000000E+00 0. -1.
</event>
<event>
 7    1  0.5575489E-006  0.4046957E+02  0.7818608E-02  0.1556204E+00
          2   -1    0    0  502    0  0.00000000000E+00  0.00000000000E+00  0.18169225091E+03  0.18169225091E+03  0.00000000000E+00 0. -1.
          1   -1    0    0  501    0 -0.00000000000E+00 -0.00000000000E+00 -0.20420784709E+04  0.20420784709E+04  0.00000000000E+00 0. -1.
         25    2    1    2    0    0  0.34415991955E+02 -0.44101196044E+02  0.56712355464E+02  0.14822448142E+03  0.12499931854E+03 0.  0.
          2    1    1    2  501    0 -0.58742782267E+01  0.40024406567E+02 -0.19934872865E+04  0.19938976959E+04  0.00000000000E+00 0. -1.
          1    1    1    2  502    0 -0.28541713728E+02  0.40767894764E+01  0.76388711067E+02  0.81648544466E+02  0.00000000000E+00 0. -1.
         22    1    3    3    0    0 -0.29516656807E+02  0.27151179467E+02  0.83242706487E+01  0.40959895720E+02  0.00000000000E+00 0. -1.
         22    1    3    3    0    0  0.63932648762E+02 -0.71252375511E+02  0.48388084815E+02  0.10726458570E+03  0.00000000000E+00 0. -1.
</event>
<event>
 7    1  0.5575489E-006  0.1872303E+03  0.7818608E-02  0.1332366E+00
          2   -1    0    0  502    0  0.00000000000E+00  0.00000000000E+00  0.18452993135E+04  0.18452993135E+04  0.00000000000E+00 0. -1.
          1   -1    0    0  501    0 -0.00000000000E+00 -0.00000000000E+00 -0.43195007199E+03  0.43195007199E+03  0.00000000000E+00 0. -1.
         25    2    1    2    0    0  0.17788059234E+03 -0.50188548657E+01  0.15736853617E+03  0.26844447412E+03  0.12502353967E+03 0.  0.
          2    1    1    2  501    0 -0.18657657809E+03 -0.27023431565E+02 -0.35262488758E+03  0.39985672020E+03  0.00000000000E+00 0. -1.
          1    1    1    2  502    0  0.86959857541E+01  0.32042286431E+02  0.16086055929E+04  0.16089481912E+04  0.00000000000E+00 0. -1.
         22    1    3    3    0    0  0.75263035944E+02  0.29262934265E+02  0.41254755929E+01  0.80857055662E+02  0.00000000000E+00 0.  1.
         22    1    3    3    0    0  0.10261755639E+03 -0.34281789131E+02  0.15324306058E+03  0.18758741845E+03  0.00000000000E+00 0.  1.
</event>
<event>
 7    1  0.5575489E-006  0.6574110E+02  0.7818608E-02  0.1448390E+00
          2   -1    0    0  502    0  0.00000000000E+00  0.00000000000E+00  0.25248526686E+03  0.25248526686E+03  0.00000000000E+00 0. -1.
          1   -1    0    0  501    0 -0.00000000000E+00 -0.00000000000E+00 -0.18041983688E+03  0.18041983688E+03  0.00000000000E+00 0. -1.
         25    2    1    2    0    0 -0.30914642521E+02  0.80835551395E+02 -0.26069087072E+02  0.15425408417E+03  0.12499849475E+03 0.  0.
          2    1    1    2  501    0  0.33535975391E+02 -0.16052247913E+02 -0.80469073532E+02  0.88643150348E+02  0.00000000000E+00 0. -1.
          1    1    1    2  502    0 -0.26213328704E+01 -0.64783303482E+02  0.17860359059E+03  0.19000786922E+03  0.00000000000E+00 0. -1.
         22    1    3    3    0    0  0.32331049051E+02 -0.72333150499E+01 -0.31469324793E+02  0.45693938135E+02  0.00000000000E+00 0.  1.
         22    1    3    3    0    0 -0.63245691572E+02  0.88068866445E+02  0.54002377218E+01  0.10856014603E+03  0.00000000000E+00 0.  1.
</event>
<event>
 7    1  0.5575489E-006  0.7050738E+02  0.7818608E-02  0.1403955E+00
          2   -1    0    0  502    0  0.00000000000E+00  0.00000000000E+00  0.32662065067E+03  0.32662065067E+03  0.00000000000E+00 0. -1.
          1   -1    0    0  501    0 -0.00000000000E+00 -0.00000000000E+00 -0.11083254001E+04  0.11083254001E+04  0.00000000000E+00 0. -1.
         25    2    1    2    0    0 -0.38317825420E+02  0.40274437616E+01 -0.28456690588E+03  0.31319017542E+03  0.12500114404E+03 0.  0.
          2    1    1    2  501    0  0.57156815214E+02 -0.48876696693E+02 -0.80579099050E+03  0.80929287243E+03  0.00000000000E+00 0. -1.
          1    1    1    2  502    0 -0.18838989793E+02  0.44849252931E+02  0.30865314698E+03  0.31246300288E+03  0.00000000000E+00 0. -1.
         22    1    3    3    0    0  0.21191664965E+02 -0.19086176203E+02 -0.83863381592E+01  0.29727082833E+02  0.00000000000E+00 0. -1.
         22    1    3    3    0    0 -0.59509490385E+02  0.23113619964E+02 -0.27618056772E+03  0.28346309259E+03  0.00000000000E+00 0. -1.
</event>
<event>
 7    1  0.5575489E-006  0.1513112E+03  0.7818608E-02  0.1331705E+00
          2   -1    0    0  502    0  0.00000000000E+00  0.00000000000E+00  0.21059774174E+03  0.21059774174E+03  0.00000000000E+00 0. -1.
          1   -1    0    0  501    0 -0.00000000000E+00 -0.00000000000E+00 -0.22837373018E+04  0.22837373018E+04  0.00000000000E+00 0. -1.
         25    2    1    2    0    0 -0.36350583205E+02 -0.11898749188E+03 -0.84576782120E+03  0.86396063393E+03  0.12500152589E+03 0.  0.
          2    1    1    2  501    0  0.52947856641E+02  0.15682952461E+03 -0.14219018075E+04  0.14315040082E+04  0.00000000000E+00 0. -1.
          1    1    1    2  502    0 -0.16597273437E+02 -0.37842032727E+02  0.19453006867E+03  0.19887040138E+03  0.00000000000E+00 0. -1.
         22    1    3    3    0    0 -0.12354846198E+02 -0.13547138004E+02 -0.93494756408E+01  0.20581056033E+02  0.00000000000E+00 0.  1.
         22    1    3    3    0    0 -0.23995737006E+02 -0.10544035388E+03 -0.83641834556E+03  0.84337957790E+03  0.00000000000E+00 0.  1.
</event>
<event>
 7    1  0.5575489E-006  0.8650326E+02  0.7818608E-02  0.1314751E+00
          2   -1    0    0  502    0  0.00000000000E+00  0.00000000000E+00  0.76727387710E+03  0.76727387710E+03  0.00000000000E+00 0. -1.
          1   -1    0    0  501    0 -0.00000000000E+00 -0.00000000000E+00 -0.19098166855E+04  0.19098166855E+04  0.00000000000E+00 0. -1.
         25    2    1    2    0    0 -0.13875746009E+03  0.37227861721E+02  0.14116742784E+03  0.23705040411E+03  0.12500041995E+03 0.  0.
          2    1    1    2  501    0  0.82542809157E+02  0.25239030338E+02 -0.18578141573E+04  0.18598182081E+04  0.00000000000E+00 0. -1.
          1    1    1    2  502    0  0.56214650933E+02 -0.62466892060E+02  0.57410392105E+03  0.58022195042E+03  0.00000000000E+00 0. -1.
         22    1    3    3    0    0 -0.10943997313E+03  0.56288673828E+02  0.39053824392E+02  0.12911515681E+03  0.00000000000E+00 0.  1.
         22    1    3    3    0    0 -0.29317486963E+02 -0.19060812106E+02  0.10211360345E+03  0.10793524730E+03  0.00000000000E+00 0.  1.
</event>
<event>
 7    1  0.5575489E-006  0.1160199E+03  0.7818608E-02  0.1363906E+00
          2   -1    0    0  502    0  0.00000000000E+00  0.00000000000E+00  0.16612231361E+04  0.16612231361E+04  0.00000000000E+00 0. -1.
          1   -1    0    0  501    0 -0.00000000000E+00 -0.00000000000E+00 -0.30666215830E+03  0.30666215830E+03  0.00000000000E+00 0. -1.
         25    2    1    2    0    0  0.50795722775E+02  0.67507108170E+02  0.41996608769E+03  0.44624358339E+03  0.12499762317E+03 0.  0.
          2    1    1    2  501    0 -0.44880723733E+02 -0.10798362575E+03 -0.28151879027E+03  0.30484024024E+03  0.00000000000E+00 0. -1.
          1    1    1    2  502    0 -0.59149990421E+01  0.40476517579E+02  0.12161136804E+04  0.12168014708E+04  0.00000000000E+00 0. -1.
         22    1    3    3    0    0  0.75988190414E+02  0.39357107654E+02  0.38622661771E+03  0.39559346207E+03  0.00000000000E+00 0.  1.
         22    1    3    3    0    0 -0.25192467639E+02  0.28150000516E+02  0.33739469977E+02  0.50650121314E+02  0.00000000000E+00 0.  1.
</event>
<event>
 7    1  0.5575489E-006  0.5706732E+02  0.7818608E-02  0.1418357E+00
          2   -1    0    0  502    0  0.00000000000E+00  0.00000000000E+00  0.19991171232E+04  0.19991171232E+04  0.00000000000E+00 0. -1.
          1   -1    0    0  501    0 -0.00000000000E+00 -0.00000000000E+00 -0.39392039276E+02  0.39392039276E+02  0.00000000000E+00 0. -1.
         25    2    1    2    0    0 -0.49201085533E+02 -0.31606263899E+02  0.13148088627E+03  0.19061555994E+03  0.12500946166E+03 0.  0.
          2    1    1    2  501    0  0.62682096048E+02 -0.20398142060E+02  0.10608455664E+03  0.12489620700E+03  0.00000000000E+00 0. -1.
          1    1    1    2  502    0 -0.13481010514E+02  0.52004405959E+02  0.17221596411E+04  0.17229973956E+04  0.00000000000E+00 0. -1.
         22    1    3    3    0    0 -0.15070921400E+01 -0.37675994864E+02  0.13711763775E+03  0.14220758945E+03  0.00000000000E+00 0. -1.
         22    1    3    3    0    0 -0.47693993394E+02  0.60697309649E+01 -0.56367514825E+01  0.48407970491E+02  0.00000000000E+00 0. -1.
</event>
<event>
 7    1  0.5575489E-006  0.1680176E+03  0.7818608E-02  0.1295244E+00
          2   -1    0    0  502    0  0.00000000000E+00  0.00000000000E+00  0.26131404826E+04  0.26131404826E+04  0.00000000000E+00 0. -1.
          1   -1    0    0  501    0 -0.00000000000E+00 -0.00000000000E+00 -0.16996597378E+04  0.16996597378E+04  0.00000000000E+00 0. -1.
         25    2    1    2    0    0 -0.15533723669E+03  0.82882871519E+02  0.37728501347E+03  0.43470551599E+03  0.12500270696E+03 0.  0.
          2    1    1    2  501    0  0.16492610333E+03 -0.32062763295E+02 -0.16664217439E+04  0.16748701648E+04  0.00000000000E+00 0. -1.
          1    1    1    2  502    0 -0.95888666389E+01 -0.50820108224E+02  0.22026174752E+04  0.22032245396E+04  0.00000000000E+00 0. -1.
         22    1    3    3    0    0  0.17462934483E+02 -0.81775967455E+01  0.49681574680E+02  0.53292457552E+02  0.00000000000E+00 0. -1.
         22    1    3    3    0    0 -0.17280017118E+03  0.91060468264E+02  0.32760343879E+03  0.38141305844E+03  0.00000000000E+00 0. -1.
</event>
<event>
 7    1  0.5575489E-006  0.3433182E+02  0.7818608E-02  0.1580896E+00
          2   -1    0    0  502    0  0.00000000000E+00  0.00000000000E+00  0.83419928194E+02  0.83419928194E+02  0.00000000000E+00 0. -1.
          1   -1    0    0  501    0 -0.00000000000E+00 -0.00000000000E+00 -0.52520280055E+03  0.52520280055E+03  0.00000000000E+00 0. -1.
         25    2    1    2    0    0  0.10342537843E+02  0.13552848892E+02 -0.59746190523E+02  0.13959092954E+03  0.12500149009E+03 0.  0.
          2    1    1    2  501    0 -0.19816455678E+02  0.21327407921E+02 -0.41743031544E+03  0.41844428361E+03  0.00000000000E+00 0. -1.
          1    1    1    2  502    0  0.94739178355E+01 -0.34880256813E+02  0.35393633600E+02  0.50587515594E+02  0.00000000000E+00 0. -1.
         22    1    3    3    0    0 -0.67772631759E+01  0.52005181686E+01 -0.97198291537E+02  0.97572970453E+02  0.00000000000E+00 0. -1.
         22    1    3    3    0    0  0.17119801018E+02  0.83523307237E+01  0.37452101014E+02  0.42017959086E+02  0.00000000000E+00 0. -1.
</event>
<event>
 7    1  0.5575489E-006  0.8043215E+02  0.7818608E-02  0.1505770E+00
          2   -1    0    0  502    0  0.00000000000E+00  0.00000000000E+00  0.11799613196E+04  0.11799613196E+04  0.00000000000E+00 0. -1.
          1   -1    0    0  501    0 -0.00000000000E+00 -0.00000000000E+00 -0.37972709990E+03  0.37972709990E+03  0.00000000000E+00 0. -1.
         25    2    1    2    0    0  0.62651690546E+02 -0.93536402153E+01  0.10637713663E+03  0.17594602836E+03  0.12501273849E+03 0.  0.
          2    1    1    2  501    0 -0.77750570432E+02  0.22811334020E+02 -0.34008397902E+03  0.34960351964E+03  0.00000000000E+00 0. -1.
          1    1    1    2  502    0  0.15098879886E+02 -0.13457693805E+02  0.10339410621E+04  0.10341388715E+04  0.00000000000E+00 0. -1.
         22    1    3    3    0    0 -0.36613987880E+02 -0.66737476270E+01  0.48062809340E+02  0.60787800236E+02  0.00000000000E+00 0.  1.
         22    1    3    3    0    0  0.99265678426E+02 -0.26798925883E+01  0.58314327289E+02  0.11515822812E+03  0.00000000000E+00 0.  1.
</event>
<event>
 7    1  0.5575489E-006  0.5629355E+02  0.7818608E-02  0.1427143E+00
          2   -1    0    0  502    0  0.00000000000E+00  0.00000000000E+00  0.69041840037E+02  0.69041840037E+02  0.00000000000E+00 0. -1.
          1   -1    0    0  501    0 -0.00000000000E+00 -0.00000000000E+00 -0.12591120714E+04  0.12591120714E+04  0.00000000000E+00 0. -1.
         25    2    1    2    0    0  0.56256157250E+02  0.39206633164E+01 -0.14454181154E+02  0.13789837320E+03  0.12500764436E+03 0.  0.
          2    1    1    2  501    0 -0.28062937710E+02  0.48799946841E+02 -0.10460228323E+04  0.10475365049E+04  0.00000000000E+00 0. -1.
          1    1    1    2  502    0 -0.28193219540E+02 -0.52720610157E+02 -0.12959321784E+03  0.14271903333E+03  0.00000000000E+00 0. -1.
         22    1    3    3    0    0  0.29166375064E+02 -0.57484752643E+02  0.12341731241E+02  0.65631490543E+02  0.00000000000E+00 0.  1.
         22    1    3    3    0    0  0.27089782186E+02  0.61405415959E+02 -0.26795912395E+02  0.72266882658E+02  0.00000000000E+00 0.  1.
</event>
<event>
 7    1  0.5575489E-006  0.8936143E+02  0.7818608E-02  0.1441941E+00
          2   -1    0    0  502    0  0.00000000000E+00  0.00000000000E+00  0.10854833030E+04  0.10854833030E+04  0.00000000000E+00 0. -1.
          1   -1    0    0  501    0 -0.00000000000E+00 -0.00000000000E+00 -0.88303463373E+02  0.88303463373E+02  0.00000000000E+00 0. -1.
         25    2    1    2    0    0  0.33525275182E+02 -0.63332293944E+02  0.24390845813E+02  0.14613310997E+03  0.12500019575E+03 0.  0.
          2    1    1    2  501    0 -0.14600160214E+02 -0.24700175845E+02 -0.17282836561E+02  0.33495668446E+02  0.00000000000E+00 0. -1.
          1    1    1    2  502    0 -0.18925114968E+02  0.88032469788E+02  0.99007183041E+03  0.99415798799E+03  0.00000000000E+00 0. -1.
         22    1    3    3    0    0  0.12005088674E+02 -0.85887961408E+02 -0.22712438740E+02  0.89647749232E+02  0.00000000000E+00 0. -1.
         22    1    3    3    0    0  0.21520186508E+02  0.22555667464E+02  0.47103284553E+02  0.56485360739E+02  0.00000000000E+00 0. -1.
</event>
<event>
 7    1  0.5575489E-006  0.3013538E+02  0.7818608E-02  0.1643651E+00
          2   -1    0    0  502    0  0.00000000000E+00  0.00000000000E+00  0.15756206622E+03  0.15756206622E+03  0.00000000000E+00 0. -1.
          1   -1    0    0  501    0 -0.00000000000E+00 -0.00000000000E+00 -0.20653060537E+03  0.20653060537E+03  0.00000000000E+00 0. -1.
         25    2    1    2    0    0  0.17773282874E+02  0.14446672758E+02  0.63249191660E+02  0.14194231862E+03  0.12499026215E+03 0.  0.
          2    1    1    2  501    0 -0.15069261738E+02  0.17200844378E+02 -0.16172287076E+03  0.16333168286E+03  0.00000000000E+00 0. -1.
          1    1    1    2  502    0 -0.27040211362E+01 -0.31647517136E+02  0.49505139954E+02  0.58818670106E+02  0.00000000000E+00 0. -1.
         22    1    3    3    0    0  0.69694113835E+02  0.21685398885E+02  0.47954881402E+02  0.87333823221E+02  0.00000000000E+00 0. -1.
         22    1    3    3    0    0 -0.51920830961E+02 -0.72387261268E+01  0.15294310258E+02  0.54608495401E+02  0.00000000000E+00 0. -1.
</event>
<event>
 7    1  0.5575489E-006  0.9476626E+02  0.7818608E-02  0.1318868E+00
          2   -1    0    0  502    0  0.00000000000E+00  0.00000000000E+00  0.27236864443E+04  0.27236864443E+04  0.00000000000E+00 0. -1.
          1   -1    0    0  501    0 -0.00000000000E+00 -0.00000000000E+00 -0.11807587404E+03  0.11807587404E+03  0.00000000000E+00 0. -1.
         25    2    1    2    0    0  0.52117842113E+01 -0.45710309781E+01  0.10375729219E+04  0.10450988506E+04  0.12500392877E+03 0.  0.
          2    1    1    2  501    0  0.59214711226E+02 -0.73988252544E+02 -0.92849763430E+02  0.13267148190E+03  0.00000000000E+00 0. -1.
          1    1    1    2  502    0 -0.64426495438E+02  0.78559283523E+02  0.16608874118E+04  0.16639919859E+04  0.00000000000E+00 0. -1.
         22    1    3    3    0    0 -0.17472388240E+02  0.50900389461E+02  0.71382053408E+03  0.71584627461E+03  0.00000000000E+00 0.  1.
         22    1    3    3    0    0  0.22684172452E+02 -0.55471420440E+02  0.32375238782E+03  0.32925257598E+03  0.00000000000E+00 0.  1.
</event>
<event>
 7    1  0.5575489E-006  0.7629177E+02  0.7818608E-02  0.1509764E+00
          2   -1    0    0  502    0  0.00000000000E+00  0.00000000000E+00  0.31531123795E+03  0.31531123795E+03  0.00000000000E+00 0. -1.
          1   -1    0    0  501    0 -0.00000000000E+00 -0.00000000000E+00 -0.86193008900E+03  0.86193008900E+03  0.00000000000E+00 0. -1.
         25    2    1    2    0    0 -0.43991915729E+02 -0.79992863991E+02 -0.15695109770E+03  0.22043806814E+03  0.12500059152E+03 0.  0.
          2    1    1    2  501    0  0.46410508037E+02  0.59381993578E+02 -0.67074250670E+03  0.67496345584E+03  0.00000000000E+00 0. -1.
          1    1    1    2  502    0 -0.24185923085E+01  0.20610870413E+02  0.28107475335E+03  0.28183980297E+03  0.00000000000E+00 0. -1.
         22    1    3    3    0    0 -0.77196383982E+02 -0.46022480072E+02 -0.48694625018E+02  0.10221798706E+03  0.00000000000E+00 0. -1.
         22    1    3    3    0    0  0.33204468254E+02 -0.33970383919E+02 -0.10825647268E+03  0.11822008109E+03  0.00000000000E+00 0. -1.
</event>
<event>
 7    1  0.5575489E-006  0.8646192E+02  0.7818608E-02  0.1314379E+00
          2   -1    0    0  502    0  0.00000000000E+00  0.00000000000E+00  0.31864205169E+03  0.31864205169E+03  0.00000000000E+00 0. -1.
          1   -1    0    0  501    0 -0.00000000000E+00 -0.00000000000E+00 -0.11294665837E+03  0.11294665837E+03  0.00000000000E+00 0. -1.
         25    2    1    2    0    0 -0.89095948898E+02  0.14952622230E+02  0.47444178661E+02  0.16136267507E+03  0.12500117518E+03 0.  0.
          2    1    1    2  501    0  0.51137616677E+02 -0.90289247673E+02  0.15408138178E+03  0.18576403391E+03  0.00000000000E+00 0. -1.
          1    1    1    2  502    0  0.37958332221E+02  0.75336625443E+02  0.41698328793E+01  0.84462001068E+02  0.00000000000E+00 0. -1.
         22    1    3    3    0    0 -0.73540736223E+02  0.38183195152E+01 -0.31529098992E+02  0.80105577405E+02  0.00000000000E+00 0.  1.
         22    1    3    3    0    0 -0.15555212674E+02  0.11134302715E+02  0.78973277653E+02  0.81257097669E+02  0.00000000000E+00 0.  1.
</event>
<event>
 7    1  0.5575489E-006  0.9654575E+02  0.7818608E-02  0.1376064E+00
          2   -1    0    0  502    0  0.00000000000E+00  0.00000000000E+00  0.17263008020E+04  0.17263008020E+04  0.00000000000E+00 0. -1.
          1   -1    0    0  501    0 -0.00000000000E+00 -0.00000000000E+00 -0.74036734188E+03  0.74036734188E+03  0.00000000000E+00 0. -1.
         25    2    1    2    0    0  0.67576370982E+02  0.61819411870E+01  0.42159870537E+03  0.44494397882E+03  0.12499957443E+03 0.  0.
          2    1    1    2  501    0 -0.91638691649E+02  0.31193046967E+02 -0.72509515842E+03  0.73152829388E+03  0.00000000000E+00 0. -1.
          1    1    1    2  502    0  0.24062320667E+02 -0.37374988154E+02  0.12894299131E+04  0.12901958711E+04  0.00000000000E+00 0. -1.
         22    1    3    3    0    0  0.93763880259E+02 -0.29204857922E+02  0.29020852545E+03  0.30637489651E+03  0.00000000000E+00 0. -1.
         22    1    3    3    0    0 -0.26187509277E+02  0.35386799109E+02  0.13139017992E+03  0.13856908231E+03  0.00000000000E+00 0. -1.
</event>
<event>
 7    1  0.5575489E-006  0.1197424E+03  0.7818608E-02  0.1422138E+00
          2   -1    0    0  502    0  0.00000000000E+00  0.00000000000E+00  0.70641471617E+03  0.70641471617E+03  0.00000000000E+00 0. -1.
          1   -1    0    0  501    0 -0.00000000000E+00 -0.00000000000E+00 -0.55273384172E+03  0.55273384172E+03  0.00000000000E+00 0. -1.
         25    2    1    2    0    0 -0.13752876989E+03 -0.83906819159E+01  0.30448820089E+03  0.35682295962E+03  0.12499997575E+03 0.  0.
          2    1    1    2  501    0  0.24435977255E+02 -0.46271511102E+01 -0.51763887836E+03  0.51823598476E+03  0.00000000000E+00 0. -1.
          1    1    1    2  502    0  0.11309279264E+03  0.13017833026E+02  0.36683155191E+03  0.38408961351E+03  0.00000000000E+00 0. -1.
         22    1    3    3    0    0  0.12872139599E+02 -0.97926246687E+01 -0.11151116732E+01  0.16212061862E+02  0.00000000000E+00 0. -1.
         22    1    3    3    0    0 -0.15040090949E+03  0.14019427529E+01  0.30560331257E+03  0.34061089776E+03  0.00000000000E+00 0. -1.
</event>
<event>
 7    1  0.5575489E-006  0.2774836E+03  0.7818608E-02  0.1165622E+00
          2   -1    0    0  502    0  0.00000000000E+00  0.00000000000E+00  0.18854880389E+03  0.18854880389E+03  0.00000000000E+00 0. -1.
          1   -1    0    0  501    0 -0.00000000000E+00 -0.00000000000E+00 -0.16542319362E+04  0.16542319362E+04  0.00000000000E+00 0. -1.
         25    2    1    2    0    0  0.26165209117E+03  0.12043601555E+02 -0.59386740481E+03  0.66099177365E+03  0.12499906074E+03 0.  0.
          2    1    1    2  501    0 -0.26618144144E+03 -0.13168753760E+03 -0.97779125710E+03  0.10218952538E+04  0.00000000000E+00 0. -1.
          1    1    1    2  502    0  0.45293502654E+01  0.11964393604E+03  0.10597552963E+03  0.15989371259E+03  0.00000000000E+00 0. -1.
         22    1    3    3    0    0  0.13782067286E+03  0.13890857530E+02 -0.16938594484E+03  0.21881291575E+03  0.00000000000E+00 0. -1.
         22    1    3    3    0    0  0.12383141831E+03 -0.18472559756E+01 -0.42448145997E+03  0.44217885790E+03  0.00000000000E+00 0. -1.
</event>
<event>
 7    1  0.5575489E-006  0.1538857E+03  0.7818608E-02  0.1356656E+00
          2   -1    0    0  502    0  0.00000000000E+00  0.00000000000E+00  0.43425116854E+03  0.43425116854E+03  0.00000000000E+00 0. -1.
          1   -1    0    0  501    0 -0.00000000000E+00 -0.00000000000E+00 -0.14897680235E+04  0.14897680235E+04  0.00000000000E+00 0. -1.
         25    2    1    2    0    0  0.12400400866E+02  0.13165424624E+03 -0.54210940952E+03  0.57183446969E+03  0.12500175333E+03 0.  0.
          2    1    1    2  501    0 -0.89452959727E+01 -0.16424881056E+03 -0.92488754514E+03  0.93940122484E+03  0.00000000000E+00 0. -1.
          1    1    1    2  502    0 -0.34551048938E+01  0.32594564316E+02  0.41148009970E+03  0.41278349752E+03  0.00000000000E+00 0. -1.
         22    1    3    3    0    0  0.63967576902E+02  0.85438418640E+02 -0.39624527416E+03  0.41036799530E+03  0.00000000000E+00 0. -1.
         22    1    3    3    0    0 -0.51567176036E+02  0.46215827604E+02 -0.14586413537E+03  0.16146647439E+03  0.00000000000E+00 0. -1.
</event>
<event>
 7    1  0.5575489E-006  0.9467100E+02  0.7818608E-02  0.1323573E+00
          2   -1    0    0  502    0  0.00000000000E+00  0.00000000000E+00  0.25292972473E+04  0.25292972473E+04  0.00000000000E+00 0. -1.
          1   -1    0    0  501    0 -0.00000000000E+00 -0.00000000000E+00 -0.14914723881E+04  0.14914723881E+04  0.00000000000E+00 0. -1.
         25    2    1    2    0    0  0.22459688722E+02  0.90416024687E+02  0.29820556327E+03  0.33649782330E+03  0.12499892793E+03 0.  0.
          2    1    1    2  501    0 -0.80659756223E+02 -0.49820396263E+02 -0.14702300088E+04  0.14732835256E+04  0.00000000000E+00 0. -1.
          1    1    1    2  502    0  0.58200067501E+02 -0.40595628424E+02  0.22098493047E+04  0.22109882864E+04  0.00000000000E+00 0. -1.
         22    1    3    3    0    0 -0.20019156766E+02  0.13393223440E+02 -0.15179792599E+01  0.24133987088E+02  0.00000000000E+00 0. -1.
         22    1    3    3    0    0  0.42478845488E+02  0.77022801247E+02  0.29972354253E+03  0.31236383621E+03  0.00000000000E+00 0. -1.
</event>
<event>
 7    1  0.5575489E-006  0.6795618E+02  0.7818608E-02  0.1407459E+00
          2   -1    0    0  502    0  0.00000000000E+00  0.00000000000E+00  0.28570136185E+03  0.28570136185E+03  0.00000000000E+00 0. -1.
          1   -1    0    0  501    0 -0.00000000000E+00 -0.00000000000E+00 -0.21722903793E+04  0.21722903793E+04  0.00000000000E+00 0. -1.
         25    2    1    2    0    0 -0.10158151199E+03 -0.41285380566E+02 -0.57811787127E+02  0.17604285477E+03  0.12500239101E+03 0.  0.
          2    1    1    2  501    0  0.67331819048E+02  0.61013841738E+01 -0.20521397340E+04  0.20532530990E+04  0.00000000000E+00 0. -1.
          1    1    1    2  502    0  0.34249692947E+02  0.35183996392E+02  0.22336250372E+03  0.22869578732E+03  0.00000000000E+00 0. -1.
         22    1    3    3    0    0 -0.11712730369E+03 -0.67949158181E+02 -0.47597315675E+02  0.14353187042E+03  0.00000000000E+00 0.  1.
         22    1    3    3    0    0  0.15545791700E+02  0.26663777615E+02 -0.10214471453E+02  0.32510984349E+02  0.00000000000E+00 0.  1.
</event>
<event>
 7    1  0.5575489E-006  0.1379432E+03  0.7818608E-02  0.1358247E+00
          2   -1    0    0  502    0  0.00000000000E+00  0.00000000000E+00  0.27762828458E+04  0.27762828458E+04  0.00000000000E+00 0. -1.
          1   -1    0    0  501    0 -0.00000000000E+00 -0.00000000000E+00 -0.40846652600E+03  0.40846652600E+03  0.00000000000E+00 0. -1.
         25    2    1    2    0    0 -0.84562384182E+02 -0.68738965355E+02  0.40469648561E+03  0.43735583381E+03  0.12500015089E+03 0.  0.
          2    1    1    2  501    0  0.12064023959E+03  0.68702356041E+02 -0.37970575929E+03  0.40429017397E+03  0.00000000000E+00 0. -1.
          1    1    1    2  502    0 -0.36077855409E+02  0.36609313395E-01  0.23428255935E+04  0.23431033640E+04  0.00000000000E+00 0. -1.
         22    1    3    3    0    0 -0.14231108376E+02  0.30976458798E+02  0.16388923603E+03  0.16739697468E+03  0.00000000000E+00 0.  1.
         22    1    3    3    0    0 -0.70331275806E+02 -0.99715424153E+02  0.24080724958E+03  0.26995885913E+03  0.00000000000E+00 0.  1.
</event>
<event>
 7    1  0.5575489E-006  0.7949899E+02  0.7818608E-02  0.1462809E+00
          2   -1    0    0  502    0  0.00000000000E+00  0.00000000000E+00  0.10502525152E+04  0.10502525152E+04  0.00000000000E+00 0. -1.
          1   -1    0    0  501    0 -0.00000000000E+00 -0.00000000000E+00 -0.29153162548E+03  0.29153162548E+03  0.00000000000E+00 0. -1.
         25    2    1    2    0    0 -0.79855985492E+02 -0.18457420943E+02  0.16050854748E+03  0.21933547263E+03  0.12500960336E+03 0.  0.
          2    1    1    2  501    0  0.79034189690E+02 -0.92003669547E+01 -0.25585058732E+03  0.26793762879E+03  0.00000000000E+00 0. -1.
          1    1    1    2  502    0  0.82179580244E+00  0.27657787898E+02  0.85406292958E+03  0.85451103929E+03  0.00000000000E+00 0. -1.
         22    1    3    3    0    0 -0.37167597462E+02 -0.63846184820E+02  0.40831842340E+02  0.84409744497E+02  0.00000000000E+00 0.  1.
         22    1    3    3    0    0 -0.42688388030E+02  0.45388763877E+02  0.11967670514E+03  0.13492572813E+03  0.00000000000E+00 0.  1.
</event>
<event>
 7    1  0.5575489E-006  0.3003480E+02  0.7818608E-02  0.1654667E+00
          2   -1    0    0  502    0  0.00000000000E+00  0.00000000000E+00  0.24847553296E+04  0.24847553296E+04  0.00000000000E+00 0. -1.
          1   -1    0    0  501    0 -0.00000000000E+00 -0.00000000000E+00 -0.17157560656E+02  0.17157560656E+02  0.00000000000E+00 0. -1.
         25    2    1    2    0    0  0.11966673126E+02  0.12482827009E+02  0.15211284750E+04  0.15263537061E+04  0.12499910569E+03 0.  0.
          2    1    1    2  501    0 -0.30202149953E+02 -0.98141901460E+00  0.14068165110E+01  0.30250821109E+02  0.00000000000E+00 0. -1.
          1    1    1    2  502    0  0.18235476827E+02 -0.11501407994E+02  0.94506247742E+03  0.94530836304E+03  0.00000000000E+00 0. -1.
         22    1    3    3    0    0 -0.31148553137E+02 -0.44206239961E+01  0.10857163497E+03  0.11303793257E+03  0.00000000000E+00 0.  1.
         22    1    3    3    0    0  0.43115226263E+02  0.16903451005E+02  0.14125568401E+04  0.14133157736E+04  0.00000000000E+00 0.  1.
</event>
<event>
 7    1  0.5575489E-006  0.8126594E+02  0.7818608E-02  0.1398392E+00
          2   -1    0    0  502    0  0.00000000000E+00  0.00000000000E+00  0.93796742213E+03  0.93796742213E+03  0.00000000000E+00 0. -1.
          1   -1    0    0  501    0 -0.00000000000E+00 -0.00000000000E+00 -0.53871061476E+02  0.53871061476E+02  0.00000000000E+00 0. -1.
         25    2    1    2    0    0  0.25440069849E+02  0.32429137876E+02  0.59768475100E+03  0.61200598265E+03  0.12500166035E+03 0.  0.
          2    1    1    2  501    0 -0.63272482883E+02 -0.55095028245E+02 -0.60014164253E+01  0.84112342891E+02  0.00000000000E+00 0. -1.
          1    1    1    2  502    0  0.37832413034E+02  0.22665890370E+02  0.29241302608E+03  0.29572015806E+03  0.00000000000E+00 0. -1.
         22    1    3    3    0    0  0.30378882099E+02  0.77789964198E+02  0.43986721147E+03  0.44772460144E+03  0.00000000000E+00 0. -1.
         22    1    3    3    0    0 -0.49388122502E+01 -0.45360826322E+02  0.15781753952E+03  0.16428138121E+03  0.00000000000E+00 0. -1.
</event>
<event>
 7    1  0.5575489E-006  0.1064831E+03  0.7818608E-02  0.1357659E+00
          2   -1    0    0  502    0  0.00000000000E+00  0.00000000000E+00  0.14066398358E+04  0.14066398358E+04  0.00000000000E+00 0. -1.
          1   -1    0    0  501    0 -0.00000000000E+00 -0.00000000000E+00 -0.16918760707E+04  0.16918760707E+04  0.00000000000E+00 0. -1.
         25    2    1    2    0    0 -0.25920517942E+02  0.96622128435E+02  0.26461602443E+03  0.30927922551E+03  0.12499715993E+03 0.  0.
          2    1    1    2  501    0  0.69991510131E+02 -0.80378756060E+02 -0.16673496531E+04  0.16707526513E+04  0.00000000000E+00 0. -1.
          1    1    1    2  502    0 -0.44070992189E+02 -0.16243372375E+02  0.11174973938E+04  0.11184840297E+04  0.00000000000E+00 0. -1.
         22    1    3    3    0    0 -0.46723190600E+02  0.52549976368E+02  0.43121418819E+02  0.82486443232E+02  0.00000000000E+00 0. -1.
         22    1    3    3    0    0  0.20802672658E+02  0.44072152067E+02  0.22149460561E+03  0.22679278228E+03  0.00000000000E+00 0. -1.
</event>
<event>
 7    1  0.5575489E-006  0.6924742E+02  0.7818608E-02  0.1428019E+00
          2   -1    0    0  502    0  0.00000000000E+00  0.00000000000E+00  0.19899541769E+04  0.19899541769E+04  0.00000000000E+00 0. -1.
          1   -1    0    0  501    0 -0.00000000000E+00 -0.00000000000E+00 -0.36383441832E+03  0.36383441832E+03  0.00000000000E+00 0. -1.
         25    2    1    2    0    0 -0.29328130853E+02 -0.13030045793E+02  0.22534826690E+03  0.25968549325E+03  0.12499917062E+03 0.  0.
          2    1    1    2  501    0 -0.24567083292E+02 -0.32970956836E+02 -0.34472525807E+03  0.34716873293E+03  0.00000000000E+00 0. -1.
          1    1    1    2  502    0  0.53895214146E+02  0.46001002629E+02  0.17454967497E+04  0.17469343690E+04  0.00000000000E+00 0. -1.
         22    1    3    3    0    0  0.30742473500E+02 -0.39592258851E+02  0.43606378313E+02  0.66439166667E+02  0.00000000000E+00 0.  1.
         22    1    3    3    0    0 -0.60070604354E+02  0.26562213058E+02  0.18174188859E+03  0.19324632658E+03  0.00000000000E+00 0.  1.
</event>
<event>
 7    1  0.5575489E-006  0.7396322E+02  0.7818608E-02  0.1349858E+00
          2   -1    0    0  502    0  0.00000000000E+00  0.00000000000E+00  0.33478569052E+04  0.33478569052E+04  0.00000000000E+00 0. -1.
          1   -1    0    0  501    0 -0.00000000000E+00 -0.00000000000E+00 -0.92128282745E+02  0.92128282745E+02  0.00000000000E+00 0. -1.
         25    2    1    2    0    0 -0.26006970760E+02 -0.18720136335E+02  0.78620604676E+03  0.79672791435E+03  0.12501446121E+03 0.  0.
          2    1    1    2  501    0  0.45813245232E+02 -0.58066385521E+02 -0.70391575389E+02  0.10210549668E+03  0.00000000000E+00 0. -1.
          1    1    1    2  502    0 -0.19806274472E+02  0.76786521856E+02  0.25399141511E+04  0.25411517769E+04  0.00000000000E+00 0. -1.
         22    1    3    3    0    0 -0.40843362056E+02  0.22524913839E+02  0.68311380348E+03  0.68470433069E+03  0.00000000000E+00 0.  1.
         22    1    3    3    0    0  0.14836391296E+02 -0.41245050174E+02  0.10309224328E+03  0.11202358365E+03  0.00000000000E+00 0.  1.
</event>
<event>
 7    1  0.5575489E-006  0.1416263E+03  0.7818608E-02  0.1331127E+00
          2   -1    0    0  502    0  0.00000000000E+00  0.00000000000E+00  0.78212714432E+03  0.78212714432E+03  0.00000000000E+00 0. -1.
          1   -1    0    0  501    0 -0.00000000000E+00 -0.00000000000E+00 -0.18615457374E+04  0.18615457374E+04  0.00000000000E+00 0. -1.
         25    2    1    2    0    0 -0.88241407903E+02 -0.88916869734E+02 -0.56210896501E+02  0.18568258492E+03  0.12500240664E+03 0.  0.
          2    1    1    2  501    0  0.12633936907E+03  0.66170268265E+02 -0.17369874863E+04  0.17428326564E+04  0.00000000000E+00 0. -1.
          1    1    1    2  502    0 -0.38097961163E+02  0.22746601469E+02  0.71377978969E+03  0.71515764045E+03  0.00000000000E+00 0. -1.
         22    1    3    3    0    0 -0.21017463141E+02 -0.54529885042E+02 -0.86445509222E+02  0.10434590641E+03  0.00000000000E+00 0.  1.
         22    1    3    3    0    0 -0.67223944762E+02 -0.34386984691E+02  0.30234612721E+02  0.81336678516E+02  0.00000000000E+00 0.  1.
</event>
<event>
 7    1  0.5575489E-006  0.9900890E+02  0.7818608E-02  0.1390811E+00
          2   -1    0    0  502    0  0.00000000000E+00  0.00000000000E+00  0.12176853862E+04  0.12176853862E+04  0.00000000000E+00 0. -1.
          1   -1    0    0  501    0 -0.00000000000E+00 -0.00000000000E+00 -0.60323978407E+03  0.60323978407E+03  0.00000000000E+00 0. -1.
         25    2    1    2    0    0 -0.82709931937E+02  0.99162899598E+02 -0.29792616136E+03  0.34793350284E+03  0.12499404496E+03 0.  0.
          2    1    1    2  501    0  0.36624129317E+02 -0.11729663133E+02 -0.27693136899E+03  0.27958879623E+03  0.00000000000E+00 0. -1.
          1    1    1    2  502    0  0.46085802621E+02 -0.87433236465E+02  0.11893031325E+04  0.11934028712E+04  0.00000000000E+00 0. -1.
         22    1    3    3    0    0 -0.29758455361E+02 -0.28137631351E+02 -0.54489275109E+02  0.68164309323E+02  0.00000000000E+00 0.  1.
         22    1    3    3    0    0 -0.52951476577E+02  0.12730053095E+03 -0.24343688625E+03  0.27976919351E+03  0.00000000000E+00 0.  1.
</event>
<event>
 7    1  0.5575489E-006  0.8726759E+02  0.7818608E-02  0.1335116E+00
          2   -1    0    0  502    0  0.00000000000E+00  0.00000000000E+00  0.45561124850E+03  0.45561124850E+03  0.00000000000E+00 0. -1.
          1   -1    0    0  501    0 -0.00000000000E+00 -0.00000000000E+00 -0.16542885044E+03  0.16542885044E+03  0.00000000000E+00 0. -1.
         25    2    1    2    0    0 -0.27686616468E+02  0.16172695625E+02  0.73836395034E+02  0.14867539942E+03  0.12499782536E+03 0.  0.
          2    1    1    2  501    0  0.96810565702E+02 -0.85821195948E+01 -0.10529437978E+03  0.14329286382E+03  0.00000000000E+00 0. -1.
          1    1    1    2  502    0 -0.69123949234E+02 -0.75905760303E+01  0.32164038280E+03  0.32907183570E+03  0.00000000000E+00 0. -1.
         22    1    3    3    0    0  0.34207709091E+02 -0.97186652938E+01 -0.13938852535E+02  0.38195699056E+02  0.00000000000E+00 0.  1.
         22    1    3    3    0    0 -0.61894325559E+02  0.25891360919E+02  0.87775247569E+02  0.11047970036E+03  0.00000000000E+00 0.  1.
</event>
<event>
 7    1  0.5575489E-006  0.1226652E+03  0.7818608E-02  0.1246563E+00
          2   -1    0    0  502    0  0.00000000000E+00  0.00000000000E+00  0.90422603385E+03  0.90422603385E+03  0.00000000000E+00 0. -1.
          1   -1    0    0  501    0 -0.00000000000E+00 -0.00000000000E+00 -0.13996339163E+04  0.13996339163E+04  0.00000000000E+00 0. -1.
         25    2    1    2    0    0 -0.16135897742E+02  0.16204286765E+03  0.14414991528E+03  0.25084383455E+03  0.12500069241E+03 0.  0.
          2    1    1    2  501    0  0.92318091450E+02 -0.65793425050E+02 -0.13385427769E+04  0.13433347202E+04  0.00000000000E+00 0. -1.
          1    1    1    2  502    0 -0.76182193708E+02 -0.96249442599E+02  0.69898497921E+03  0.70968139541E+03  0.00000000000E+00 0. -1.
         22    1    3    3    0    0  0.19021520701E+02  0.87511848861E+02  0.57144667884E+01  0.89737378341E+02  0.00000000000E+00 0. -1.
         22    1    3    3    0    0 -0.35157418443E+02  0.74531018788E+02  0.13843544849E+03  0.16110645621E+03  0.00000000000E+00 0. -1.
</event>
<event>
 7    1  0.5575489E-006  0.1724566E+03  0.7818608E-02  0.1226169E+00
          2   -1    0    0  502    0  0.00000000000E+00  0.00000000000E+00  0.18108148800E+04  0.18108148800E+04  0.00000000000E+00 0. -1.
          1   -1    0    0  501    0 -0.00000000000E+00 -0.00000000000E+00 -0.97868382113E+03  0.97868382113E+03  0.00000000000E+00 0. -1.
         25    2    1    2    0    0  0.34775264521E+02  0.21838778640E+03 -0.27858111102E+02  0.25554484982E+03  0.12499820657E+03 0.  0.
          2    1    1    2  501    0  0.62606987297E+02 -0.77094416920E+02 -0.82967513842E+03  0.83559800100E+03  0.00000000000E+00 0. -1.
          1    1    1    2  502    0 -0.97382251819E+02 -0.14129336948E+03  0.16896643084E+04  0.16983558503E+04  0.00000000000E+00 0. -1.
         22    1    3    3    0    0 -0.27444191466E+02  0.17645709451E+03 -0.26253923972E+02  0.18049808413E+03  0.00000000000E+00 0. -1.
         22    1    3    3    0    0  0.62219455987E+02  0.41930691884E+02 -0.16041871302E+01  0.75046765697E+02  0.00000000000E+00 0. -1.
</event>
<event>
 7    1  0.5575489E-006  0.7640689E+02  0.7818608E-02  0.1457610E+00
          2   -1    0    0  502    0  0.00000000000E+00  0.00000000000E+00  0.15791755099E+03  0.15791755099E+03  0.00000000000E+00 0. -1.
          1   -1    0    0  501    0 -0.00000000000E+00 -0.00000000000E+00 -0.56588443880E+03  0.56588443880E+03  0.00000000000E+00 0. -1.
         25    2    1    2    0    0  0.72162982582E+02 -0.71600935330E+02  0.22595778441E+02  0.16269870481E+03  0.12500443731E+03 0.  0.
          2    1    1    2  501    0 -0.61883894189E+02  0.43525951893E+02 -0.48934254944E+03  0.49515679894E+03  0.00000000000E+00 0. -1.
          1    1    1    2  502    0 -0.10279088392E+02  0.28074983437E+02  0.58779883191E+02  0.65946486040E+02  0.00000000000E+00 0. -1.
         22    1    3    3    0    0  0.10279386129E+03 -0.36093897781E+02 -0.35586161256E+01  0.10900463809E+03  0.00000000000E+00 0.  1.
         22    1    3    3    0    0 -0.30630878707E+02 -0.35507037549E+02  0.26154394567E+02  0.53694066721E+02  0.00000000000E+00 0.  1.
</event>
<event>
 7    1  0.9728246E-006  0.5418184E+02  0.7818608E-02  0.1492169E+00
          2   -1    0    0  502    0  0.00000000000E+00  0.00000000000E+00  0.11029252424E+04  0.11029252424E+04  0.00000000000E+00 0. -1.
          1   -1    0    0  501    0 -0.00000000000E+00 -0.00000000000E+00 -0.17484351730E+04  0.17484351730E+04  0.00000000000E+00 0. -1.
         25    2    1    2    0    0  0.73235856468E+02  0.26697465611E+02 -0.31764980202E+03  0.35013965051E+03  0.12498052965E+03 0.  0.
          2    1    1    2  501    0 -0.19092660906E+02 -0.26880056419E+02 -0.14136736913E+04  0.14140581220E+04  0.00000000000E+00 0. -1.
          1    1    1    2  502    0 -0.54143195561E+02  0.18259080789E+00  0.10858135627E+04  0.10871626429E+04  0.00000000000E+00 0. -1.
         22    1    3    3    0    0  0.10614687040E+03  0.16562035714E+02 -0.19372691332E+03  0.22152105107E+03  0.00000000000E+00 0. -1.
         22    1    3    3    0    0 -0.32911013934E+02  0.10135429897E+02 -0.12392288870E+03  0.12861859944E+03  0.00000000000E+00 0. -1.
</event>
<event>
 7    1  0.5575489E-006  0.6269006E+02  0.7818608E-02  0.1395606E+00
          2   -1    0    0  502    0  0.00000000000E+00  0.00000000000E+00  0.26913715212E+03  0.26913715212E+03  0.00000000000E+00 0. -1.
          1   -1    0    0  501    0 -0.00000000000E+00 -0.00000000000E+00 -0.74972069571E+03  0.74972069571E+03  0.00000000000E+00 0. -1.
         25    2    1    2    0    0 -0.10733054337E+03  0.53634849910E+02 -0.25657133347E+03  0.30959437020E+03  0.12499312877E+03 0.  0.
          2    1    1    2  501    0  0.54187974240E+02 -0.21914162253E+02 -0.46081467761E+03  0.46450697967E+03  0.00000000000E+00 0. -1.
          1    1    1    2  502    0  0.53142569129E+02 -0.31720687657E+02  0.23680246750E+03  0.24475649796E+03  0.00000000000E+00 0. -1.
         22    1    3    3    0    0 -0.12417172554E+03  0.39701470814E+02 -0.25651012943E+03  0.28773646052E+03  0.00000000000E+00 0. -1.
         22    1    3    3    0    0  0.16841182170E+02  0.13933379096E+02 -0.61204032906E-01  0.21857909686E+02  0.00000000000E+00 0. -1.
</event>
<event>
 7    1  0.5575489E-006  0.7019547E+02  0.7818608E-02  0.1441897E+00
          2   -1    0    0  502    0  0.00000000000E+00  0.00000000000E+00  0.33021326329E+03  0.33021326329E+03  0.00000000000E+00 0. -1.
          1   -1    0    0  501    0 -0.00000000000E+00 -0.00000000000E+00 -0.17117698061E+03  0.17117698061E+03  0.00000000000E+00 0. -1.
         25    2    1    2    0    0 -0.42953414424E+02  0.53576093138E+01 -0.88656625918E+02  0.15925552210E+03  0.12501449601E+03 0.  0.
          2    1    1    2  501    0 -0.25120096145E+02 -0.26534136960E+02 -0.34996263642E+02  0.50594645205E+02  0.00000000000E+00 0. -1.
          1    1    1    2  502    0  0.68073510570E+02  0.21176527646E+02  0.28268917224E+03  0.29154007660E+03  0.00000000000E+00 0. -1.
         22    1    3    3    0    0  0.36128296782E+02 -0.28463610867E+02 -0.35990525904E+02  0.58401617502E+02  0.00000000000E+00 0. -1.
         22    1    3    3    0    0 -0.79081711206E+02  0.33821220181E+02 -0.52666100014E+02  0.10085390460E+03  0.00000000000E+00 0. -1.
</event>
<event>
 7    1  0.5575489E-006  0.7605162E+02  0.7818608E-02  0.1349478E+00
          2   -1    0    0  502    0  0.00000000000E+00  0.00000000000E+00  0.88048030547E+03  0.88048030547E+03  0.00000000000E+00 0. -1.
          1   -1    0    0  501    0 -0.00000000000E+00 -0.00000000000E+00 -0.15341730765E+04  0.15341730765E+04  0.00000000000E+00 0. -1.
         25    2    1    2    0    0 -0.34513418434E+02  0.70540618111E+02  0.32243546187E+01  0.14765873856E+03  0.12500220700E+03 0.  0.
          2    1    1    2  501    0 -0.41121211608E+02 -0.57253875496E+02 -0.14592718491E+04  0.14609734049E+04  0.00000000000E+00 0. -1.
          1    1    1    2  502    0  0.75634630042E+02 -0.13286742615E+02  0.80235472341E+03  0.80602123854E+03  0.00000000000E+00 0. -1.
         22    1    3    3    0    0 -0.76928973437E+02  0.25047728476E+02 -0.16174743354E+02  0.82505017898E+02  0.00000000000E+00 0.  1.
         22    1    3    3    0    0  0.42415555003E+02  0.45492889636E+02  0.19399097973E+02  0.65153720660E+02  0.00000000000E+00 0.  1.
</event>
<event>
 7    1  0.5575489E-006  0.7092771E+02  0.7818608E-02  0.1427515E+00
          2   -1    0    0  502    0  0.00000000000E+00  0.00000000000E+00  0.28989076366E+03  0.28989076366E+03  0.00000000000E+00 0. -1.
          1   -1    0    0  501    0 -0.00000000000E+00 -0.00000000000E+00 -0.10544853835E+04  0.10544853835E+04  0.00000000000E+00 0. -1.
         25    2    1    2    0    0 -0.48861768895E+02 -0.25999952438E+02 -0.27260557834E+03  0.30496280261E+03  0.12500015861E+03 0.  0.
          2    1    1    2  501    0  0.35908847776E+02  0.64158701359E+02 -0.76243993193E+03  0.76597678432E+03  0.00000000000E+00 0. -1.
          1    1    1    2  502    0  0.12952921119E+02 -0.38158748921E+02  0.27045089048E+03  0.27343656018E+03  0.00000000000E+00 0. -1.
         22    1    3    3    0    0 -0.64852654455E+02  0.26545877720E+02 -0.21146949175E+03  0.22277768370E+03  0.00000000000E+00 0.  1.
         22    1    3    3    0    0  0.15990885560E+02 -0.52545830158E+02 -0.61136086588E+02  0.82185118916E+02  0.00000000000E+00 0.  1.
</event>
<event>
 7    1  0.5575489E-006  0.9452698E+02  0.7818608E-02  0.1420127E+00
          2   -1    0    0  502    0  0.00000000000E+00  0.00000000000E+00  0.12640733313E+04  0.12640733313E+04  0.00000000000E+00 0. -1.
          1   -1    0    0  501    0 -0.00000000000E+00 -0.00000000000E+00 -0.42634974343E+03  0.42634974343E+03  0.00000000000E+00 0. -1.
         25    2    1    2    0    0  0.64804740965E+01 -0.76519047874E+02 -0.15058527857E+03  0.21023137286E+03  0.12499657108E+03 0.  0.
          2    1    1    2  501    0 -0.27828221775E+02 -0.15787451830E+02 -0.24307341820E+03  0.24517002304E+03  0.00000000000E+00 0. -1.
          1    1    1    2  502    0  0.21347747678E+02  0.92306499704E+02  0.12313822847E+04  0.12350216789E+04  0.00000000000E+00 0. -1.
         22    1    3    3    0    0 -0.23723836737E+02 -0.64593266523E+02 -0.16184103883E+03  0.17586253825E+03  0.00000000000E+00 0.  1.
         22    1    3    3    0    0  0.30204310834E+02 -0.11925781351E+02  0.11255760259E+02  0.34368834614E+02  0.00000000000E+00 0.  1.
</event>
<event>
 7    1  0.5575489E-006  0.4295484E+02  0.7818608E-02  0.1556208E+00
          2   -1    0    0  502    0  0.00000000000E+00  0.00000000000E+00  0.27039793406E+03  0.27039793406E+03  0.00000000000E+00 0. -1.
          1   -1    0    0  501    0 -0.00000000000E+00 -0.00000000000E+00 -0.14372292101E+04  0.14372292101E+04  0.00000000000E+00 0. -1.
         25    2    1    2    0    0 -0.23062571585E+02 -0.26380450229E+02  0.21156631298E+02  0.13152513292E+03  0.12499378857E+03 0.  0.
          2    1    1    2  501    0  0.42399271824E+02  0.73043733305E+01 -0.13807577454E+04  0.13814278858E+04  0.00000000000E+00 0. -1.
          1    1    1    2  502    0 -0.19336700239E+02  0.19076076899E+02  0.19276983803E+03  0.19467412550E+03  0.00000000000E+00 0. -1.
         22    1    3    3    0    0 -0.40488745157E+02 -0.46821215122E+02 -0.33675687372E+02  0.70467131273E+02  0.00000000000E+00 0.  1.
         22    1    3    3    0    0  0.17426173572E+02  0.20440764893E+02  0.54832318670E+02  0.61058001650E+02  0.00000000000E+00 0.  1.
</event>
<event>
 7    1  0.5575489E-006  0.3614847E+02  0.7818608E-02  0.1546325E+00
          2   -1    0    0  502    0  0.00000000000E+00  0.00000000000E+00  0.13246993087E+04  0.13246993087E+04  0.00000000000E+00 0. -1.
          1   -1    0    0  501    0 -0.00000000000E+00 -0.00000000000E+00 -0.50574763887E+03  0.50574763887E+03  0.00000000000E+00 0. -1.
         25    2    1    2    0    0  0.40361242180E+02  0.51242801922E+02  0.57949801233E+03  0.59640387375E+03  0.12499911884E+03 0.  0.
          2    1    1    2  501    0 -0.29186784687E+02 -0.18185662183E+02 -0.49628618801E+03  0.49747619754E+03  0.00000000000E+00 0. -1.
          1    1    1    2  502    0 -0.11174457493E+02 -0.33057139739E+02  0.73573984546E+03  0.73656687624E+03  0.00000000000E+00 0. -1.
         22    1    3    3    0    0  0.47983595229E+02 -0.19350852277E+02  0.10991753862E+03  0.12148558017E+03  0.00000000000E+00 0.  1.
         22    1    3    3    0    0 -0.76223530490E+01  0.70593654199E+02  0.46958047371E+03  0.47491829357E+03  0.00000000000E+00 0.  1.
</event>
<event>
 7    1  0.5575489E-006  0.5376262E+02  0.7818608E-02  0.1481105E+00
          2   -1    0    0  502    0  0.00000000000E+00  0.00000000000E+00  0.19499162858E+03  0.19499162858E+03  0.00000000000E+00 0. -1.
          1   -1    0    0  501    0 -0.00000000000E+00 -0.00000000000E+00 -0.20371747448E+04  0.20371747448E+04  0.00000000000E+00 0. -1.
         25    2    1    2    0    0  0.19027779130E+02 -0.29524105357E+02  0.11654385569E+03  0.17447512306E+03  0.12500147636E+03 0.  0.
          2    1    1    2  501    0  0.28161732378E+02 -0.22269737022E+02 -0.19831607487E+04  0.19834857145E+04  0.00000000000E+00 0. -1.
          1    1    1    2  502    0 -0.47189511508E+02  0.51793842379E+02  0.24433776774E+02  0.74205535859E+02  0.00000000000E+00 0. -1.
         22    1    3    3    0    0 -0.41029994594E+02 -0.34542113279E+02  0.13834324408E+02  0.55389589076E+02  0.00000000000E+00 0. -1.
         22    1    3    3    0    0  0.60057773723E+02  0.50180079221E+01  0.10270953129E+03  0.11908553399E+03  0.00000000000E+00 0. -1.
</event>
<event>
 7    1  0.5575489E-006  0.1372156E+03  0.7818608E-02  0.1317662E+00
          2   -1    0    0  502    0  0.00000000000E+00  0.00000000000E+00  0.21691378781E+04  0.21691378781E+04  0.00000000000E+00 0. -1.
          1   -1    0    0  501    0 -0.00000000000E+00 -0.00000000000E+00 -0.90196891254E+03  0.90196891254E+03  0.00000000000E+00 0. -1.
         25    2    1    2    0    0 -0.23599990202E+02  0.12992948022E+03  0.13446170929E+04  0.13568561877E+04  0.12499983347E+03 0.  0.
          2    1    1    2  501    0  0.73311113580E+02 -0.11605750225E+03 -0.88976696024E+03  0.90029390020E+03  0.00000000000E+00 0. -1.
          1    1    1    2  502    0 -0.49711123378E+02 -0.13871977968E+02  0.81231883295E+03  0.81395670273E+03  0.00000000000E+00 0. -1.
         22    1    3    3    0    0 -0.13393738261E+02 -0.15803140895E+00  0.12365997399E+02  0.18230060071E+02  0.00000000000E+00 0. -1.
         22    1    3    3    0    0 -0.10206251941E+02  0.13008751163E+03  0.13322510955E+04  0.13386261277E+04  0.00000000000E+00 0. -1.
</event>
<event>
 7    1  0.5575489E-006  0.5248635E+02  0.7818608E-02  0.1437238E+00
          2   -1    0    0  502    0  0.00000000000E+00  0.00000000000E+00  0.23589985652E+04  0.23589985652E+04  0.00000000000E+00 0. -1.
          1   -1    0    0  501    0 -0.00000000000E+00 -0.00000000000E+00 -0.96939187474E+02  0.96939187474E+02  0.00000000000E+00 0. -1.
         25    2    1    2    0    0 -0.92313099028E+01  0.29782621363E+02  0.52806129276E+03  0.54355211836E+03  0.12501181884E+03 0.  0.
          2    1    1    2  501    0  0.52919213930E+02 -0.42552483278E+01 -0.80909738900E+02  0.96772600410E+02  0.00000000000E+00 0. -1.
          1    1    1    2  502    0 -0.43687904028E+02 -0.25527373035E+02  0.18149078239E+04  0.18156130339E+04  0.00000000000E+00 0. -1.
         22    1    3    3    0    0 -0.33051027562E+00 -0.25099071934E+02  0.19045323490E+02  0.31508681277E+02  0.00000000000E+00 0. -1.
         22    1    3    3    0    0 -0.89007996272E+01  0.54881693297E+02  0.50901596927E+03  0.51204343709E+03  0.00000000000E+00 0. -1.
</event>
<event>
 7    1  0.5575489E-006  0.1244912E+03  0.7818608E-02  0.1238097E+00
          2   -1    0    0  502    0  0.00000000000E+00  0.00000000000E+00  0.23229210427E+03  0.23229210427E+03  0.00000000000E+00 0. -1.
          1   -1    0    0  501    0 -0.00000000000E+00 -0.00000000000E+00 -0.27626856613E+03  0.27626856613E+03  0.00000000000E+00 0. -1.
         25    2    1    2    0    0  0.33819803137E+02  0.24079719688E+02  0.14299506972E+02  0.13248707268E+03  0.12499894616E+03 0.  0.
          2    1    1    2  501    0 -0.83286056282E+02 -0.13832138542E+03 -0.15082723275E+03  0.22094847131E+03  0.00000000000E+00 0. -1.
          1    1    1    2  502    0  0.49466253146E+02  0.11424166573E+03  0.92551263921E+02  0.15512512641E+03  0.00000000000E+00 0. -1.
         22    1    3    3    0    0 -0.16557610217E+01 -0.49547091372E+02  0.34115118217E+00  0.49575923512E+02  0.00000000000E+00 0. -1.
         22    1    3    3    0    0  0.35475564158E+02  0.73626811060E+02  0.13958355790E+02  0.82911149163E+02  0.00000000000E+00 0. -1.
</event>
<event>
 7    1  0.5575489E-006  0.6700404E+02  0.7818608E-02  0.1500371E+00
          2   -1    0    0  502    0  0.00000000000E+00  0.00000000000E+00  0.79847665353E+02  0.79847665353E+02  0.00000000000E+00 0. -1.
          1   -1    0    0  501    0 -0.00000000000E+00 -0.00000000000E+00 -0.75167125453E+03  0.75167125453E+03  0.00000000000E+00 0. -1.
         25    2    1    2    0    0  0.69475503987E+02  0.28134250143E+02 -0.36447226436E+03  0.39253367370E+03  0.12499708722E+03 0.  0.
          2    1    1    2  501    0 -0.19379649187E+02  0.16097104701E+02 -0.35564331715E+03  0.35653450971E+03  0.00000000000E+00 0. -1.
          1    1    1    2  502    0 -0.50095854799E+02 -0.44231354844E+02  0.48291992341E+02  0.82450736465E+02  0.00000000000E+00 0. -1.
         22    1    3    3    0    0  0.79440797567E+02 -0.31088543282E+02 -0.19966884100E+03  0.21712895686E+03  0.00000000000E+00 0. -1.
         22    1    3    3    0    0 -0.99652935807E+01  0.59222793425E+02 -0.16480342336E+03  0.17540471684E+03  0.00000000000E+00 0. -1.
</event>
<event>
 7    1  0.5575489E-006  0.5299453E+02  0.7818608E-02  0.1498839E+00
          2   -1    0    0  502    0  0.00000000000E+00  0.00000000000E+00  0.78322503330E+03  0.78322503330E+03  0.00000000000E+00 0. -1.
          1   -1    0    0  501    0 -0.00000000000E+00 -0.00000000000E+00 -0.17874484144E+03  0.17874484144E+03  0.00000000000E+00 0. -1.
         25    2    1    2    0    0  0.63335498986E+02  0.50533413846E+02  0.18607147676E+03  0.23835443886E+03  0.12500093084E+03 0.  0.
          2    1    1    2  501    0 -0.32554907072E+02 -0.41112186287E+02 -0.14762733206E+03  0.15666481101E+03  0.00000000000E+00 0. -1.
          1    1    1    2  502    0 -0.30780591913E+02 -0.94212275584E+01  0.56603604716E+03  0.56695062488E+03  0.00000000000E+00 0. -1.
         22    1    3    3    0    0 -0.10718612523E+02  0.43723856762E+02  0.84653203316E+01  0.45807487956E+02  0.00000000000E+00 0. -1.
         22    1    3    3    0    0  0.74054111509E+02  0.68095570840E+01  0.17760615643E+03  0.19254695090E+03  0.00000000000E+00 0. -1.
</event>
<event>
 7    1  0.5575489E-006  0.9374013E+02  0.7818608E-02  0.1323743E+00
          2   -1    0    0  502    0  0.00000000000E+00  0.00000000000E+00  0.62700611137E+02  0.62700611137E+02  0.00000000000E+00 0. -1.
          1   -1    0    0  501    0 -0.00000000000E+00 -0.00000000000E+00 -0.56869016511E+03  0.56869016511E+03  0.00000000000E+00 0. -1.
         25    2    1    2    0    0 -0.10110011675E+02 -0.67101895565E+02 -0.16463066494E+03  0.21757114760E+03  0.12501628576E+03 0.  0.
          2    1    1    2  501    0  0.81645153141E+02  0.68828542789E+02 -0.32264436397E+03  0.33985685948E+03  0.00000000000E+00 0. -1.
          1    1    1    2  502    0 -0.71535141466E+02 -0.17266472240E+01 -0.18714525065E+02  0.73962769172E+02  0.00000000000E+00 0. -1.
         22    1    3    3    0    0 -0.47140940802E+02 -0.24396240386E+02 -0.11458774061E+02  0.54302378840E+02  0.00000000000E+00 0. -1.
         22    1    3    3    0    0  0.37030929128E+02 -0.42705655179E+02 -0.15317189088E+03  0.16326876876E+03  0.00000000000E+00 0. -1.
</event>
<event>
 7    1  0.5575489E-006  0.6111540E+02  0.7818608E-02  0.1394385E+00
          2   -1    0    0  502    0  0.00000000000E+00  0.00000000000E+00  0.22106745782E+03  0.22106745782E+03  0.00000000000E+00 0. -1.
          1   -1    0    0  501    0 -0.00000000000E+00 -0.00000000000E+00 -0.10819781218E+04  0.10819781218E+04  0.00000000000E+00 0. -1.
         25    2    1    2    0    0 -0.18326297525E+02  0.44914220360E+01 -0.10374946688E+03  0.16353831242E+03  0.12499920679E+03 0.  0.
          2    1    1    2  501    0 -0.14041308915E+02 -0.58893585265E+02 -0.94209537944E+03  0.94403883220E+03  0.00000000000E+00 0. -1.
          1    1    1    2  502    0  0.32367606440E+02  0.54402163229E+02  0.18493418230E+03  0.19546843503E+03  0.00000000000E+00 0. -1.
         22    1    3    3    0    0 -0.66768522803E+01  0.46631817120E+01 -0.13237882511E+03  0.13262910298E+03  0.00000000000E+00 0.  1.
         22    1    3    3    0    0 -0.11649445245E+02 -0.17175967599E+00  0.28629358225E+02  0.30909209441E+02  0.00000000000E+00 0.  1.
</event>
<event>
 7    1  0.5575489E-006  0.5499848E+02  0.7818608E-02  0.1505022E+00
          2   -1    0    0  502    0  0.00000000000E+00  0.00000000000E+00  0.53594314453E+03  0.53594314453E+03  0.00000000000E+00 0. -1.
          1   -1    0    0  501    0 -0.00000000000E+00 -0.00000000000E+00 -0.22321194433E+03  0.22321194433E+03  0.00000000000E+00 0. -1.
         25    2    1    2    0    0 -0.78456944270E+02 -0.26611691413E+02 -0.11898661290E+03  0.19143338322E+03  0.12500100774E+03 0.  0.
          2    1    1    2  501    0  0.24636718707E+02  0.16641419354E+02 -0.63169763117E+02  0.69816357102E+02  0.00000000000E+00 0. -1.
          1    1    1    2  502    0  0.53820225563E+02  0.99702720593E+01  0.49488757622E+03  0.49790534853E+03  0.00000000000E+00 0. -1.
         22    1    3    3    0    0 -0.64502201057E+02 -0.32402389655E+00 -0.14057419169E+03  0.15466655198E+03  0.00000000000E+00 0.  1.
         22    1    3    3    0    0 -0.13954743213E+02 -0.26287667516E+02  0.21587578787E+02  0.36766831240E+02  0.00000000000E+00 0.  1.
</event>
<event>
 7    1  0.1338994E-005  0.7845594E+02  0.7818608E-02  0.1392896E+00
          2   -1    0    0  502    0  0.00000000000E+00  0.00000000000E+00  0.11104788767E+04  0.11104788767E+04  0.00000000000E+00 0. -1.
          1   -1    0    0  501    0 -0.00000000000E+00 -0.00000000000E+00 -0.20221762723E+04  0.20221762723E+04  0.00000000000E+00 0. -1.
         25    2    1    2    0    0  0.32137917882E+02 -0.80507774107E+01 -0.19451268968E+03  0.23357686329E+03  0.12500121532E+03 0.  0.
          2    1    1    2  501    0  0.36218725423E+02 -0.31081571345E+02 -0.18063941961E+04  0.18070245853E+04  0.00000000000E+00 0. -1.
          1    1    1    2  502    0 -0.68356643305E+02  0.39132348756E+02  0.10892094902E+04  0.10920537005E+04  0.00000000000E+00 0. -1.
         22    1    3    3    0    0  0.34829314283E+02 -0.67680666161E+01  0.33985169476E+01  0.35643200987E+02  0.00000000000E+00 0. -1.
         22    1    3    3    0    0 -0.26913964011E+01 -0.12827107946E+01 -0.19791120663E+03  0.19793366230E+03  0.00000000000E+00 0. -1.
</event>
<event>
 7    1  0.5575489E-006  0.7139364E+02  0.7818608E-02  0.1442156E+00
          2   -1    0    0  502    0  0.00000000000E+00  0.00000000000E+00  0.12747423072E+03  0.12747423072E+03  0.00000000000E+00 0. -1.
          1   -1    0    0  501    0 -0.00000000000E+00 -0.00000000000E+00 -0.86403989182E+03  0.86403989182E+03  0.00000000000E+00 0. -1.
         25    2    1    2    0    0  0.43310067069E+02  0.27891764854E+01 -0.36620423573E+03  0.38937715003E+03  0.12500192513E+03 0.  0.
          2    1    1    2  501    0 -0.79154319183E+02 -0.37122977253E+01 -0.48014829424E+03  0.48664316687E+03  0.00000000000E+00 0. -1.
          1    1    1    2  502    0  0.35844252113E+02  0.92312123993E+00  0.10978686887E+03  0.11549380563E+03  0.00000000000E+00 0. -1.
         22    1    3    3    0    0 -0.29307117426E+02  0.39897495118E+02 -0.16526903182E+03  0.17252411462E+03  0.00000000000E+00 0. -1.
         22    1    3    3    0    0  0.72617184496E+02 -0.37108318632E+02 -0.20093520391E+03  0.21685303541E+03  0.00000000000E+00 0. -1.
</event>
<event>
 7    1  0.5575489E-006  0.7723172E+02  0.7818608E-02  0.1471219E+00
          2   -1    0    0  502    0  0.00000000000E+00  0.00000000000E+00  0.11963054601E+04  0.11963054601E+04  0.00000000000E+00 0. -1.
          1   -1    0    0  501    0 -0.00000000000E+00 -0.00000000000E+00 -0.76949652357E+02  0.76949652357E+02  0.00000000000E+00 0. -1.
         25    2    1    2    0    0 -0.22188507043E+02 -0.89356769449E+02  0.32744885925E+03  0.36238834501E+03  0.12500238030E+03 0.  0.
          2    1    1    2  501    0 -0.12645841948E+01  0.76366044048E+02 -0.34654390260E+02  0.83870725650E+02  0.00000000000E+00 0. -1.
          1    1    1    2  502    0  0.23453091238E+02  0.12990725401E+02  0.82656133875E+03  0.82699604180E+03  0.00000000000E+00 0. -1.
         22    1    3    3    0    0 -0.47426660471E+02 -0.11574147695E+01  0.44900336401E+02  0.65319736231E+02  0.00000000000E+00 0.  1.
         22    1    3    3    0    0  0.25238153428E+02 -0.88199354679E+02  0.28254852285E+03  0.29706860878E+03  0.00000000000E+00 0.  1.
</event>
<event>
 7    1  0.5575489E-006  0.1485001E+03  0.7818608E-02  0.1229799E+00
          2   -1    0    0  502    0  0.00000000000E+00  0.00000000000E+00  0.97534755392E+03  0.97534755392E+03  0.00000000000E+00 0. -1.
          1   -1    0    0  501    0 -0.00000000000E+00 -0.00000000000E+00 -0.12599136952E+04  0.12599136952E+04  0.00000000000E+00 0. -1.
         25    2    1    2    0    0 -0.94439754251E+01 -0.11353575298E+03 -0.17452554366E+03  0.24302911325E+03  0.12499771446E+03 0.  0.
          2    1    1    2  501    0 -0.10911868164E+03  0.20775494369E+02 -0.10421459107E+04  0.10480489526E+04  0.00000000000E+00 0. -1.
          1    1    1    2  502    0  0.11856265706E+03  0.92760258613E+02  0.93210531299E+03  0.94418318336E+03  0.00000000000E+00 0. -1.
         22    1    3    3    0    0 -0.48616176589E+02 -0.10665469510E+03 -0.84155997938E+02  0.14429479756E+03  0.00000000000E+00 0. -1.
         22    1    3    3    0    0  0.39172201164E+02 -0.68810578840E+01 -0.90369545725E+02  0.98734315698E+02  0.00000000000E+00 0. -1.
</event>
<event>
 7    1  0.5575489E-006  0.1255154E+03  0.7818608E-02  0.1289702E+00
          2   -1    0    0  502    0  0.00000000000E+00  0.00000000000E+00  0.65731286600E+03  0.65731286600E+03  0.00000000000E+00 0. -1.
          1   -1    0    0  501    0 -0.00000000000E+00 -0.00000000000E+00 -0.14711988132E+04  0.14711988132E+04  0.00000000000E+00 0. -1.
         25    2    1    2    0    0  0.20740310506E+02 -0.57978201376E+02  0.24816188198E+03  0.28460697028E+03  0.12500070219E+03 0.  0.
          2    1    1    2  501    0 -0.84001936495E+02  0.94209592100E+02 -0.14468057095E+04  0.14523011167E+04  0.00000000000E+00 0. -1.
          1    1    1    2  502    0  0.63261625989E+02 -0.36231390724E+02  0.38475788029E+03  0.39160359223E+03  0.00000000000E+00 0. -1.
         22    1    3    3    0    0  0.48957907841E+02  0.39362693558E+01  0.18623852340E+03  0.19260622668E+03  0.00000000000E+00 0. -1.
         22    1    3    3    0    0 -0.28217597334E+02 -0.61914470732E+02  0.61923358582E+02  0.92000743602E+02  0.00000000000E+00 0. -1.
</event>
<event>
 7    1  0.5575489E-006  0.4258666E+02  0.7818608E-02  0.1508731E+00
          2   -1    0    0  502    0  0.00000000000E+00  0.00000000000E+00  0.74573045445E+02  0.74573045445E+02  0.00000000000E+00 0. -1.
          1   -1    0    0  501    0 -0.00000000000E+00 -0.00000000000E+00 -0.62172059193E+03  0.62172059193E+03  0.00000000000E+00 0. -1.
         25    2    1    2    0    0 -0.26666134812E+02 -0.40837478868E+02 -0.23521956299E+03  0.27079840078E+03  0.12499899450E+03 0.  0.
          2    1    1    2  501    0  0.37431899952E+02 -0.67784125057E+00 -0.35950010983E+03  0.36144423577E+03  0.00000000000E+00 0. -1.
          1    1    1    2  502    0 -0.10765765139E+02  0.41515320119E+02  0.47572126329E+02  0.64051000828E+02  0.00000000000E+00 0. -1.
         22    1    3    3    0    0 -0.14251112912E+01  0.12701970184E+02  0.11429397872E+02  0.17146490150E+02  0.00000000000E+00 0. -1.
         22    1    3    3    0    0 -0.25241023521E+02 -0.53539449052E+02 -0.24664896086E+03  0.25365191063E+03  0.00000000000E+00 0. -1.
</event>
<event>
 7    1  0.5575489E-006  0.1274959E+03  0.7818608E-02  0.1306670E+00
          2   -1    0    0  502    0  0.00000000000E+00  0.00000000000E+00  0.17345804285E+04  0.17345804285E+04  0.00000000000E+00 0. -1.
          1   -1    0    0  501    0 -0.00000000000E+00 -0.00000000000E+00 -0.12989052117E+04  0.12989052117E+04  0.00000000000E+00 0. -1.
         25    2    1    2    0    0  0.93623546190E+02  0.20093926214E+02 -0.43562666581E+02  0.16337550296E+03  0.12499885910E+03 0.  0.
          2    1    1    2  501    0 -0.10166259037E+03 -0.80915470352E+02 -0.11913407568E+04  0.11984053548E+04  0.00000000000E+00 0. -1.
          1    1    1    2  502    0  0.80390441786E+01  0.60821544139E+02  0.16705786401E+04  0.16717047824E+04  0.00000000000E+00 0. -1.
         22    1    3    3    0    0  0.73577818715E+02 -0.44088273376E+02 -0.43411707700E+02  0.96135568972E+02  0.00000000000E+00 0. -1.
         22    1    3    3    0    0  0.20045727474E+02  0.64182199589E+02 -0.15095888091E+00  0.67239933988E+02  0.00000000000E+00 0. -1.
</event>
<event>
 7    1  0.5575489E-006  0.1271432E+03  0.7818608E-02  0.1333675E+00
          2   -1    0    0  502    0  0.00000000000E+00  0.00000000000E+00  0.21607234950E+03  0.21607234950E+03  0.00000000000E+00 0. -1.
          1   -1    0    0  501    0 -0.00000000000E+00 -0.00000000000E+00 -0.82788962571E+03  0.82788962571E+03  0.00000000000E+00 0. -1.
         25    2    1    2    0    0 -0.63735450237E+02  0.63647958911E+02 -0.95002847479E+02  0.18100900034E+03  0.12500178753E+03 0.  0.
          2    1    1    2  501    0 -0.13399660721E+02  0.46440294094E+02 -0.66276903813E+03  0.66452919404E+03  0.00000000000E+00 0. -1.
          1    1    1    2  502    0  0.77135110958E+02 -0.11008825301E+03  0.14595460940E+03  0.19842378083E+03  0.00000000000E+00 0. -1.
         22    1    3    3    0    0 -0.59706475379E+02 -0.80539770665E+01 -0.90930810875E+02  0.10907860521E+03  0.00000000000E+00 0.  1.
         22    1    3    3    0    0 -0.40289748579E+01  0.71701935978E+02 -0.40720366039E+01  0.71930395129E+02  0.00000000000E+00 0.  1.
</event>
<event>
 7    1  0.5575489E-006  0.4699217E+02  0.7818608E-02  0.1578753E+00
          2   -1    0    0  502    0  0.00000000000E+00  0.00000000000E+00  0.60492418005E+02  0.60492418005E+02  0.00000000000E+00 0. -1.
          1   -1    0    0  501    0 -0.00000000000E+00 -0.00000000000E+00 -0.61116767721E+03  0.61116767721E+03  0.00000000000E+00 0. -1.
         25    2    1    2    0    0 -0.36992578992E+02 -0.31803934700E+02 -0.18997176222E+03  0.23257606439E+03  0.12498965606E+03 0.  0.
          2    1    1    2  501    0  0.18235264878E+02 -0.11488862969E+02 -0.38528199440E+03  0.38588435323E+03  0.00000000000E+00 0. -1.
          1    1    1    2  502    0  0.18757314114E+02  0.43292797669E+02  0.24578497407E+02  0.53199677607E+02  0.00000000000E+00 0. -1.
         22    1    3    3    0    0  0.62158678982E+01 -0.71281231502E+02 -0.75552734561E+02  0.10405703570E+03  0.00000000000E+00 0.  1.
         22    1    3    3    0    0 -0.43208446890E+02  0.39477296802E+02 -0.11441902766E+03  0.12851902869E+03  0.00000000000E+00 0.  1.
</event>
<event>
 7    1  0.5575489E-006  0.5128187E+02  0.7818608E-02  0.1450922E+00
          2   -1    0    0  502    0  0.00000000000E+00  0.00000000000E+00  0.58474108599E+03  0.58474108599E+03  0.00000000000E+00 0. -1.
          1   -1    0    0  501    0 -0.00000000000E+00 -0.00000000000E+00 -0.28362174181E+04  0.28362174181E+04  0.00000000000E+00 0. -1.
         25    2    1    2    0    0 -0.34710467946E+02 -0.10433474670E+02 -0.52562718127E+03  0.54150018597E+03  0.12499937492E+03 0.  0.
          2    1    1    2  501    0  0.11755084676E+02  0.51195489404E+02 -0.23014050137E+04  0.23020043869E+04  0.00000000000E+00 0. -1.
          1    1    1    2  502    0  0.22955383270E+02 -0.40762014734E+02  0.57555586285E+03  0.57745393126E+03  0.00000000000E+00 0. -1.
         22    1    3    3    0    0  0.45596922901E+02 -0.18752840054E+02 -0.18867412386E+03  0.19500941875E+03  0.00000000000E+00 0.  1.
         22    1    3    3    0    0 -0.80307390847E+02  0.83193653845E+01 -0.33695305741E+03  0.34649076721E+03  0.00000000000E+00 0.  1.
</event>
<event>
 7    1  0.5575489E-006  0.8076102E+02  0.7818608E-02  0.1392392E+00
          2   -1    0    0  502    0  0.00000000000E+00  0.00000000000E+00  0.95488478593E+03  0.95488478593E+03  0.00000000000E+00 0. -1.
          1   -1    0    0  501    0 -0.00000000000E+00 -0.00000000000E+00 -0.57725483884E+03  0.57725483884E+03  0.00000000000E+00 0. -1.
         25    2    1    2    0    0 -0.12620649783E+02  0.47120423798E+02  0.22586148173E+02  0.13607091279E+03  0.12500217629E+03 0.  0.
          2    1    1    2  501    0 -0.45209500721E+02  0.11100495447E+02 -0.51754265871E+03  0.51963210403E+03  0.00000000000E+00 0. -1.
          1    1    1    2  502    0  0.57830150504E+02 -0.58220919246E+02  0.87258645762E+03  0.87643660796E+03  0.00000000000E+00 0. -1.
         22    1    3    3    0    0 -0.42216145442E+02  0.53616568609E+02 -0.30655497720E+02  0.74811088121E+02  0.00000000000E+00 0. -1.
         22    1    3    3    0    0  0.29595495659E+02 -0.64961448104E+01  0.53241645893E+02  0.61259824666E+02  0.00000000000E+00 0. -1.
</event>
<event>
 7    1  0.5575489E-006  0.1947569E+03  0.7818608E-02  0.1267645E+00
          2   -1    0    0  502    0  0.00000000000E+00  0.00000000000E+00  0.12598082238E+04  0.12598082238E+04  0.00000000000E+00 0. -1.
          1   -1    0    0  501    0 -0.00000000000E+00 -0.00000000000E+00 -0.14479377121E+03  0.14479377121E+03  0.00000000000E+00 0. -1.
         25    2    1    2    0    0 -0.14562523334E+03 -0.15808990625E+03  0.49746732237E+03  0.55614547740E+03  0.12499971264E+03 0.  0.
          2    1    1    2  501    0  0.16293101924E+03  0.10275027857E+03 -0.32914057140E+02  0.19541615065E+03  0.00000000000E+00 0. -1.
          1    1    1    2  502    0 -0.17305785900E+02  0.55339627677E+02  0.65046118733E+03  0.65304036693E+03  0.00000000000E+00 0. -1.
         22    1    3    3    0    0 -0.59710165408E+02 -0.51147095566E+02  0.63652465245E+02  0.10115812162E+03  0.00000000000E+00 0.  1.
         22    1    3    3    0    0 -0.85915067934E+02 -0.10694281069E+03  0.43381485713E+03  0.45498735578E+03  0.00000000000E+00 0.  1.
</event>
<event>
 7    1  0.5575489E-006  0.5464988E+02  0.7818608E-02  0.1495924E+00
          2   -1    0    0  502    0  0.00000000000E+00  0.00000000000E+00  0.81419498874E+02  0.81419498874E+02  0.00000000000E+00 0. -1.
          1   -1    0    0  501    0 -0.00000000000E+00 -0.00000000000E+00 -0.26302900395E+04  0.26302900395E+04  0.00000000000E+00 0. -1.
         25    2    1    2    0    0 -0.10068736832E+02  0.58312835072E+02 -0.17352194268E+02  0.13938281552E+03  0.12499881768E+03 0.  0.
          2    1    1    2  501    0 -0.20820282509E+02 -0.50552042228E+02 -0.25390180484E+04  0.25396065922E+04  0.00000000000E+00 0. -1.
          1    1    1    2  502    0  0.30889019341E+02 -0.77607928445E+01  0.74997020000E+01  0.32720130677E+02  0.00000000000E+00 0. -1.
         22    1    3    3    0    0 -0.23531765165E+02  0.69551675231E+02  0.37036368503E+02  0.82236683366E+02  0.00000000000E+00 0.  1.
         22    1    3    3    0    0  0.13463028333E+02 -0.11238840159E+02 -0.54388562770E+02  0.57146132155E+02  0.00000000000E+00 0.  1.
</event>
<event>
 7    1  0.5575489E-006  0.1315604E+03  0.7818608E-02  0.1368057E+00
          2   -1    0    0  502    0  0.00000000000E+00  0.00000000000E+00  0.25473646560E+04  0.25473646560E+04  0.00000000000E+00 0. -1.
          1   -1    0    0  501    0 -0.00000000000E+00 -0.00000000000E+00 -0.28189920574E+03  0.28189920574E+03  0.00000000000E+00 0. -1.
         25    2    1    2    0    0  0.15786309247E+03 -0.20193180069E+02  0.40381337165E+03  0.45168305112E+03  0.12499527613E+03 0.  0.
          2    1    1    2  501    0 -0.32620928001E+02 -0.12259718202E+02 -0.25480297602E+03  0.25717500310E+03  0.00000000000E+00 0. -1.
          1    1    1    2  502    0 -0.12524216447E+03  0.32452898271E+02  0.21164550546E+04  0.21204058075E+04  0.00000000000E+00 0. -1.
         22    1    3    3    0    0  0.51392670618E+02 -0.65901428943E+02  0.20793987956E+03  0.22410532890E+03  0.00000000000E+00 0.  1.
         22    1    3    3    0    0  0.10647042185E+03  0.45708248874E+02  0.19587349209E+03  0.22757772222E+03  0.00000000000E+00 0.  1.
</event>
<event>
 7    1  0.5575489E-006  0.2763209E+02  0.7818608E-02  0.1656289E+00
          2   -1    0    0  502    0  0.00000000000E+00  0.00000000000E+00  0.43659386487E+03  0.43659386487E+03  0.00000000000E+00 0. -1.
          1   -1    0    0  501    0 -0.00000000000E+00 -0.00000000000E+00 -0.96433944902E+03  0.96433944902E+03  0.00000000000E+00 0. -1.
         25    2    1    2    0    0 -0.30045362138E+00  0.57962341349E+01 -0.63580377779E+03  0.64800039763E+03  0.12499753946E+03 0.  0.
          2    1    1    2  501    0 -0.17178261274E+02  0.15625835951E+02 -0.32157432725E+03  0.32241170474E+03  0.00000000000E+00 0. -1.
          1    1    1    2  502    0  0.17478714895E+02 -0.21422070085E+02  0.42963252089E+03  0.43052121152E+03  0.00000000000E+00 0. -1.
         22    1    3    3    0    0  0.49520823026E+02  0.83263009142E+01 -0.12415894416E+03  0.13392939414E+03  0.00000000000E+00 0. -1.
         22    1    3    3    0    0 -0.49821276647E+02 -0.25300667793E+01 -0.51164483363E+03  0.51407100348E+03  0.00000000000E+00 0. -1.
</event>
<event>
 7    1  0.5575489E-006  0.1047215E+03  0.7818608E-02  0.1273366E+00
          2   -1    0    0  502    0  0.00000000000E+00  0.00000000000E+00  0.15725373945E+04  0.15725373945E+04  0.00000000000E+00 0. -1.
          1   -1    0    0  501    0 -0.00000000000E+00 -0.00000000000E+00 -0.12942498387E+03  0.12942498387E+03  0.00000000000E+00 0. -1.
         25    2    1    2    0    0 -0.12832209579E+03  0.48883044681E+01  0.22281220545E+03  0.28593785276E+03  0.12499888381E+03 0.  0.
          2    1    1    2  501    0  0.63983312191E+02  0.79481243131E+02 -0.68479642612E+02  0.12288447299E+03  0.00000000000E+00 0. -1.
          1    1    1    2  502    0  0.64338783594E+02 -0.84369547599E+02  0.12887798478E+04  0.12931400526E+04  0.00000000000E+00 0. -1.
         22    1    3    3    0    0 -0.53000211486E+02  0.49911848166E+02  0.16636739624E+03  0.18159935445E+03  0.00000000000E+00 0.  1.
         22    1    3    3    0    0 -0.75321884299E+02 -0.45023543698E+02  0.56444809210E+02  0.10433849830E+03  0.00000000000E+00 0.  1.
</event>
<event>
 7    1  0.5575489E-006  0.9347882E+02  0.7818608E-02  0.1452141E+00
          2   -1    0    0  502    0  0.00000000000E+00  0.00000000000E+00  0.39061356981E+03  0.39061356981E+03  0.00000000000E+00 0. -1.
          1   -1    0    0  501    0 -0.00000000000E+00 -0.00000000000E+00 -0.93536283458E+03  0.93536283458E+03  0.00000000000E+00 0. -1.
         25    2    1    2    0    0  0.10453324748E+03  0.18623489516E+01  0.24982677284E+02  0.16486012422E+03  0.12499623282E+03 0.  0.
          2    1    1    2  501    0 -0.14746766695E+02  0.20723743143E+02 -0.85798383913E+03  0.85836076848E+03  0.00000000000E+00 0. -1.
          1    1    1    2  502    0 -0.89786480786E+02 -0.22586092094E+02  0.28825189708E+03  0.30275551169E+03  0.00000000000E+00 0. -1.
         22    1    3    3    0    0  0.68358597620E+00 -0.46735491466E+02  0.17669845230E+02  0.49968959193E+02  0.00000000000E+00 0.  1.
         22    1    3    3    0    0  0.10384966150E+03  0.48597840418E+02  0.73128320540E+01  0.11489116502E+03  0.00000000000E+00 0.  1.
</event>
<event>
 7    1  0.5575489E-006  0.4466227E+02  0.7818608E-02  0.1539018E+00
          2   -1    0    0  502    0  0.00000000000E+00  0.00000000000E+00  0.15067671766E+04  0.15067671766E+04  0.00000000000E+00 0. -1.
          1   -1    0    0  501    0 -0.00000000000E+00 -0.00000000000E+00 -0.35817854082E+03  0.35817854082E+03  0.00000000000E+00 0. -1.
         25    2    1    2    0    0  0.32566331984E+02  0.32930767069E+01  0.16973861958E+03  0.21332903515E+03  0.12500667153E+03 0.  0.
          2    1    1    2  501    0 -0.13709483307E+01  0.29151963845E+02 -0.33536435520E+03  0.33663179772E+03  0.00000000000E+00 0. -1.
          1    1    1    2  502    0 -0.31195383654E+02 -0.32445040552E+02  0.13142143714E+04  0.13149848846E+04  0.00000000000E+00 0. -1.
         22    1    3    3    0    0  0.69765486720E+02 -0.25516145397E+02  0.13753093291E+03  0.15631076201E+03  0.00000000000E+00 0.  1.
         22    1    3    3    0    0 -0.37199154736E+02  0.28809222104E+02  0.32207686677E+02  0.57018273145E+02  0.00000000000E+00 0.  1.
</event>
<event>
 7    1  0.5575489E-006  0.7025189E+02  0.7818608E-02  0.1389778E+00
          2   -1    0    0  502    0  0.00000000000E+00  0.00000000000E+00  0.32780176259E+04  0.32780176259E+04  0.00000000000E+00 0. -1.
          1   -1    0    0  501    0 -0.00000000000E+00 -0.00000000000E+00 -0.60779338112E+01  0.60779338112E+01  0.00000000000E+00 0. -1.
         25    2    1    2    0    0 -0.16195011271E+01 -0.31340913635E+01  0.13064619669E+04  0.13124328343E+04  0.12499851384E+03 0.  0.
          2    1    1    2  501    0 -0.65548079394E+02  0.25274031521E+02  0.55733857070E+03  0.56174870696E+03  0.00000000000E+00 0. -1.
          1    1    1    2  502    0  0.67167580521E+02 -0.22139940158E+02  0.14081391546E+04  0.14099140184E+04  0.00000000000E+00 0. -1.
         22    1    3    3    0    0 -0.69429194971E+01  0.36624330905E+02  0.12874436255E+03  0.13403229698E+03  0.00000000000E+00 0.  1.
         22    1    3    3    0    0  0.53234183700E+01 -0.39758422269E+02  0.11777176043E+04  0.11784005373E+04  0.00000000000E+00 0.  1.
</event>
<event>
 7    1  0.5575489E-006  0.2462862E+03  0.7818608E-02  0.1291062E+00
          2   -1    0    0  502    0  0.00000000000E+00  0.00000000000E+00  0.11206822189E+03  0.11206822189E+03  0.00000000000E+00 0. -1.
          1   -1    0    0  501    0 -0.00000000000E+00 -0.00000000000E+00 -0.16259555670E+04  0.16259555670E+04  0.00000000000E+00 0. -1.
         25    2    1    2    0    0 -0.22158137395E+03  0.10973045911E+03 -0.74017661172E+03  0.79034035200E+03  0.12504949628E+03 0.  0.
          2    1    1    2  501    0  0.20244620953E+03 -0.14102787939E+03 -0.83805399441E+03  0.87361766699E+03  0.00000000000E+00 0. -1.
          1    1    1    2  502    0  0.19135164418E+02  0.31297420281E+02  0.64343261025E+02  0.74065769914E+02  0.00000000000E+00 0. -1.
         22    1    3    3    0    0 -0.10774108210E+02  0.78872226257E+01  0.68188374514E+00  0.13369916002E+02  0.00000000000E+00 0.  1.
         22    1    3    3    0    0 -0.21080726574E+03  0.10184323649E+03 -0.74085849547E+03  0.77697043600E+03  0.00000000000E+00 0.  1.
</event>
<event>
 7    1  0.5575489E-006  0.1569415E+03  0.7818608E-02  0.1216085E+00
          2   -1    0    0  502    0  0.00000000000E+00  0.00000000000E+00  0.29130106820E+03  0.29130106820E+03  0.00000000000E+00 0. -1.
          1   -1    0    0  501    0 -0.00000000000E+00 -0.00000000000E+00 -0.10906467237E+04  0.10906467237E+04  0.00000000000E+00 0. -1.
         25    2    1    2    0    0 -0.23908213320E+03 -0.12101864836E+03 -0.20384011824E+03  0.35913972234E+03  0.12499906676E+03 0.  0.
          2    1    1    2  501    0  0.10989611829E+03  0.51334409860E+02 -0.77868479441E+03  0.78807511539E+03  0.00000000000E+00 0. -1.
          1    1    1    2  502    0  0.12918601490E+03  0.69684238496E+02  0.18317925713E+03  0.23473295419E+03  0.00000000000E+00 0. -1.
         22    1    3    3    0    0 -0.10481695254E+03 -0.79269059638E+02 -0.16936154436E+03  0.21436769828E+03  0.00000000000E+00 0.  1.
         22    1    3    3    0    0 -0.13426518065E+03 -0.41749588718E+02 -0.34478573884E+02  0.14477202406E+03  0.00000000000E+00 0.  1.
</event>
<event>
 7    1  0.5575489E-006  0.5197227E+02  0.7818608E-02  0.1495645E+00
          2   -1    0    0  502    0  0.00000000000E+00  0.00000000000E+00  0.39477579231E+03  0.39477579231E+03  0.00000000000E+00 0. -1.
          1   -1    0    0  501    0 -0.00000000000E+00 -0.00000000000E+00 -0.74867288259E+03  0.74867288259E+03  0.00000000000E+00 0. -1.
         25    2    1    2    0    0  0.75446206489E+02 -0.20281802352E+02  0.24392269527E+03  0.28499759946E+03  0.12498747478E+03 0.  0.
          2    1    1    2  501    0 -0.51776994165E+02 -0.35018632867E+01 -0.72503257729E+03  0.72688744542E+03  0.00000000000E+00 0. -1.
          1    1    1    2  502    0 -0.23669212324E+02  0.23783665639E+02  0.12721279174E+03  0.13156363003E+03  0.00000000000E+00 0. -1.
         22    1    3    3    0    0  0.97229149467E+02  0.16383650982E+02  0.20400346728E+03  0.22658187524E+03  0.00000000000E+00 0.  1.
         22    1    3    3    0    0 -0.21782942978E+02 -0.36665453334E+02  0.39919227987E+02  0.58415724220E+02  0.00000000000E+00 0.  1.
</event>
<event>
 7    1  0.5575489E-006  0.1554770E+03  0.7818608E-02  0.1237994E+00
          2   -1    0    0  502    0  0.00000000000E+00  0.00000000000E+00  0.65202778871E+03  0.65202778871E+03  0.00000000000E+00 0. -1.
          1   -1    0    0  501    0 -0.00000000000E+00 -0.00000000000E+00 -0.18049936312E+03  0.18049936312E+03  0.00000000000E+00 0. -1.
         25    2    1    2    0    0  0.19500419661E+03  0.67162684644E+01  0.17858186397E+03  0.29255429894E+03  0.12499916292E+03 0.  0.
          2    1    1    2  501    0 -0.13439615501E+03  0.69707859187E+02 -0.68080618893E+02  0.16600145416E+03  0.00000000000E+00 0. -1.
          1    1    1    2  502    0 -0.60608041598E+02 -0.76424127651E+02  0.36102718051E+03  0.37397139872E+03  0.00000000000E+00 0. -1.
         22    1    3    3    0    0  0.13682153215E+02  0.29103091075E+02  0.77156767797E+02  0.83590418372E+02  0.00000000000E+00 0.  1.
         22    1    3    3    0    0  0.18132204340E+03 -0.22386822610E+02  0.10142509618E+03  0.20896388057E+03  0.00000000000E+00 0.  1.
</event>
<event>
 7    1  0.5575489E-006  0.3570679E+03  0.7818608E-02  0.1186286E+00
          2   -1    0    0  502    0  0.00000000000E+00  0.00000000000E+00  0.16604113578E+04  0.16604113578E+04  0.00000000000E+00 0. -1.
          1   -1    0    0  501    0 -0.00000000000E+00 -0.00000000000E+00 -0.70573839601E+03  0.70573839601E+03  0.00000000000E+00 0. -1.
         25    2    1    2    0    0  0.38511683923E+03 -0.13596215795E+02 -0.12354787651E+03  0.42354530640E+03  0.12500684715E+03 0.  0.
          2    1    1    2  501    0 -0.38119262378E+02 -0.63004044898E+02 -0.40794891439E+03  0.41454180077E+03  0.00000000000E+00 0. -1.
          1    1    1    2  502    0 -0.34699757686E+03  0.76600260692E+02  0.14861697527E+04  0.15280626467E+04  0.00000000000E+00 0. -1.
         22    1    3    3    0    0  0.22510618888E+03 -0.69519612768E+02 -0.69439614558E+02  0.24561684164E+03  0.00000000000E+00 0.  1.
         22    1    3    3    0    0  0.16001065036E+03  0.55923396973E+02 -0.54108261955E+02  0.17792846475E+03  0.00000000000E+00 0.  1.
</event>
<event>
 7    1  0.5575489E-006  0.1275380E+03  0.7818608E-02  0.1345316E+00
          2   -1    0    0  502    0  0.00000000000E+00  0.00000000000E+00  0.13716741590E+04  0.13716741590E+04  0.00000000000E+00 0. -1.
          1   -1    0    0  501    0 -0.00000000000E+00 -0.00000000000E+00 -0.81868831120E+02  0.81868831120E+02  0.00000000000E+00 0. -1.
         25    2    1    2    0    0 -0.82631855565E+02 -0.53726353905E+02  0.37979428378E+03  0.41180394153E+03  0.12499697440E+03 0.  0.
          2    1    1    2  501    0  0.12521077431E+03  0.44535235328E+02  0.22303744002E+01  0.13291388099E+03  0.00000000000E+00 0. -1.
          1    1    1    2  502    0 -0.42578918748E+02  0.91911185777E+01  0.90778066967E+03  0.90882516757E+03  0.00000000000E+00 0. -1.
         22    1    3    3    0    0  0.85504463287E+01 -0.43145460966E+02  0.38740083379E+02  0.58612583927E+02  0.00000000000E+00 0.  1.
         22    1    3    3    0    0 -0.91182301894E+02 -0.10580892939E+02  0.34105420040E+03  0.35319135760E+03  0.00000000000E+00 0.  1.
</event>
<event>
 7    1  0.5575489E-006  0.1332344E+03  0.7818608E-02  0.1365145E+00
          2   -1    0    0  502    0  0.00000000000E+00  0.00000000000E+00  0.51853806320E+03  0.51853806320E+03  0.00000000000E+00 0. -1.
          1   -1    0    0  501    0 -0.00000000000E+00 -0.00000000000E+00 -0.35474938006E+03  0.35474938006E+03  0.00000000000E+00 0. -1.
         25    2    1    2    0    0  0.59653628508E+02  0.82834836811E+02  0.33256856593E+03  0.36965821366E+03  0.12500071318E+03 0.  0.
          2    1    1    2  501    0 -0.90979327598E+02 -0.99008527975E+02 -0.32066019633E+03  0.34771092616E+03  0.00000000000E+00 0. -1.
          1    1    1    2  502    0  0.31325699090E+02  0.16173691164E+02  0.15188031353E+03  0.15591830344E+03  0.00000000000E+00 0. -1.
         22    1    3    3    0    0  0.50934321937E+02 -0.19428223494E+02  0.77841841739E+02  0.95032170052E+02  0.00000000000E+00 0. -1.
         22    1    3    3    0    0  0.87193065710E+01  0.10226306031E+03  0.25472672419E+03  0.27462604360E+03  0.00000000000E+00 0. -1.
</event>
<event>
 7    1  0.5575489E-006  0.7253219E+02  0.7818608E-02  0.1365892E+00
          2   -1    0    0  502    0  0.00000000000E+00  0.00000000000E+00  0.49738648608E+03  0.49738648608E+03  0.00000000000E+00 0. -1.
          1   -1    0    0  501    0 -0.00000000000E+00 -0.00000000000E+00 -0.94138393913E+02  0.94138393913E+02  0.00000000000E+00 0. -1.
         25    2    1    2    0    0  0.56020247853E+02 -0.85972612987E+02  0.12964031228E+03  0.20726664598E+03  0.12499317427E+03 0.  0.
          2    1    1    2  501    0 -0.62615236022E+02  0.14872765331E+02 -0.30970699571E+02  0.71421643517E+02  0.00000000000E+00 0. -1.
          1    1    1    2  502    0  0.65949881689E+01  0.71099847656E+02  0.30457847945E+03  0.31283659049E+03  0.00000000000E+00 0. -1.
         22    1    3    3    0    0  0.85103320844E+01 -0.10419297143E+03  0.11249953076E+03  0.15357325766E+03  0.00000000000E+00 0.  1.
         22    1    3    3    0    0  0.47509915769E+02  0.18220358442E+02  0.17140781523E+02  0.53693388321E+02  0.00000000000E+00 0.  1.
</event>
<event>
 7    1  0.5575489E-006  0.1335669E+03  0.7818608E-02  0.1343883E+00
          2   -1    0    0  502    0  0.00000000000E+00  0.00000000000E+00  0.23200322975E+04  0.23200322975E+04  0.00000000000E+00 0. -1.
          1   -1    0    0  501    0 -0.00000000000E+00 -0.00000000000E+00 -0.13573990591E+03  0.13573990591E+03  0.00000000000E+00 0. -1.
         25    2    1    2    0    0 -0.44751962275E+02 -0.93946281029E+02  0.27593982578E+03  0.32030551875E+03  0.12499678412E+03 0.  0.
          2    1    1    2  501    0  0.14438045834E+02 -0.39556957559E+02 -0.10724983809E+03  0.11522038808E+03  0.00000000000E+00 0. -1.
          1    1    1    2  502    0  0.30313916441E+02  0.13350323859E+03  0.20156024039E+04  0.20202462966E+04  0.00000000000E+00 0. -1.
         22    1    3    3    0    0  0.22722776464E+02 -0.73721476146E+02  0.21037540594E+03  0.22407363084E+03  0.00000000000E+00 0.  1.
         22    1    3    3    0    0 -0.67474738739E+02 -0.20224804883E+02  0.65564419843E+02  0.96231887905E+02  0.00000000000E+00 0.  1.
</event>
<event>
 7    1  0.5575489E-006  0.5210882E+02  0.7818608E-02  0.1451352E+00
          2   -1    0    0  502    0  0.00000000000E+00  0.00000000000E+00  0.14810718474E+04  0.14810718474E+04  0.00000000000E+00 0. -1.
          1   -1    0    0  501    0 -0.00000000000E+00 -0.00000000000E+00 -0.18311630038E+03  0.18311630038E+03  0.00000000000E+00 0. -1.
         25    2    1    2    0    0  0.35058253952E+02  0.12351193342E+02  0.13466886307E+03  0.18746305996E+03  0.12500025209E+03 0.  0.
          2    1    1    2  501    0 -0.11508744726E+02 -0.51742176766E+02 -0.15182539008E+03  0.16081247817E+03  0.00000000000E+00 0. -1.
          1    1    1    2  502    0 -0.23549509227E+02  0.39390983424E+02  0.13151120740E+04  0.13159126096E+04  0.00000000000E+00 0. -1.
         22    1    3    3    0    0 -0.29023658647E+02  0.40867711028E+02  0.93618454134E+02  0.10619302011E+03  0.00000000000E+00 0.  1.
         22    1    3    3    0    0  0.64081912600E+02 -0.28516517686E+02  0.41050408931E+02  0.81270039847E+02  0.00000000000E+00 0.  1.
</event>
<event>
 7    1  0.5575489E-006  0.2319641E+03  0.7818608E-02  0.1236140E+00
          2   -1    0    0  502    0  0.00000000000E+00  0.00000000000E+00  0.26878574813E+03  0.26878574813E+03  0.00000000000E+00 0. -1.
          1   -1    0    0  501    0 -0.00000000000E+00 -0.00000000000E+00 -0.14663879302E+04  0.14663879302E+04  0.00000000000E+00 0. -1.
         25    2    1    2    0    0  0.28556424422E+03  0.59205327893E+02 -0.10047468516E+03  0.33282668155E+03  0.12500491656E+03 0.  0.
          2    1    1    2  501    0 -0.21893985511E+03 -0.58766919639E+02 -0.12315923116E+04  0.12522810519E+04  0.00000000000E+00 0. -1.
          1    1    1    2  502    0 -0.66624389108E+02 -0.43840825453E+00  0.13446481468E+03  0.15006594488E+03  0.00000000000E+00 0. -1.
         22    1    3    3    0    0 -0.91393953859E+01 -0.10544534930E+02 -0.84291417009E+01  0.16302337094E+02  0.00000000000E+00 0.  1.
         22    1    3    3    0    0  0.29470363960E+03  0.69749862824E+02 -0.92045543464E+02  0.31652434445E+03  0.00000000000E+00 0.  1.
</event>
<event>
 7    1  0.5575489E-006  0.5337514E+02  0.7818608E-02  0.1470495E+00
          2   -1    0    0  502    0  0.00000000000E+00  0.00000000000E+00  0.21688791026E+04  0.21688791026E+04  0.00000000000E+00 0. -1.
          1   -1    0    0  501    0 -0.00000000000E+00 -0.00000000000E+00 -0.16100892005E+02  0.16100892005E+02  0.00000000000E+00 0. -1.
         25    2    1    2    0    0 -0.23104184191E+02  0.58951611516E+02  0.72177998958E+03  0.73525495306E+03  0.12499758721E+03 0.  0.
          2    1    1    2  501    0  0.38250910012E+02 -0.75829708341E+01  0.34104061800E+02  0.51804638737E+02  0.00000000000E+00 0. -1.
          1    1    1    2  502    0 -0.15146725821E+02 -0.51368640682E+02  0.13968941592E+04  0.13979204028E+04  0.00000000000E+00 0. -1.
         22    1    3    3    0    0 -0.36295259512E+02  0.90764272791E+02  0.40597881291E+03  0.41758148380E+03  0.00000000000E+00 0. -1.
         22    1    3    3    0    0  0.13191075321E+02 -0.31812661275E+02  0.31580117667E+03  0.31767346926E+03  0.00000000000E+00 0. -1.
</event>
<event>
 7    1  0.5575489E-006  0.4132053E+02  0.7818608E-02  0.1609894E+00
          2   -1    0    0  502    0  0.00000000000E+00  0.00000000000E+00  0.35546766257E+03  0.35546766257E+03  0.00000000000E+00 0. -1.
          1   -1    0    0  501    0 -0.00000000000E+00 -0.00000000000E+00 -0.10197064246E+04  0.10197064246E+04  0.00000000000E+00 0. -1.
         25    2    1    2    0    0 -0.42201824178E+02  0.31182950441E+02 -0.18821700054E+03  0.23195522439E+03  0.12499686584E+03 0.  0.
          2    1    1    2  501    0  0.24304088269E+01 -0.20148882928E+02 -0.80821581774E+03  0.80847058847E+03  0.00000000000E+00 0. -1.
          1    1    1    2  502    0  0.39771415351E+02 -0.11034067512E+02  0.33219405627E+03  0.33474827430E+03  0.00000000000E+00 0. -1.
         22    1    3    3    0    0  0.14114999047E+02 -0.41246678876E+02 -0.66927799830E+02  0.79873976404E+02  0.00000000000E+00 0. -1.
         22    1    3    3    0    0 -0.56316823225E+02  0.72429629316E+02 -0.12128920071E+03  0.15208124799E+03  0.00000000000E+00 0. -1.
</event>
<event>
 7    1  0.5575489E-006  0.1208117E+03  0.7818608E-02  0.1350736E+00
          2   -1    0    0  502    0  0.00000000000E+00  0.00000000000E+00  0.14371924303E+04  0.14371924303E+04  0.00000000000E+00 0. -1.
          1   -1    0    0  501    0 -0.00000000000E+00 -0.00000000000E+00 -0.30617320074E+03  0.30617320074E+03  0.00000000000E+00 0. -1.
         25    2    1    2    0    0 -0.34649786019E+02 -0.91726269310E+02  0.28667301116E+03  0.32773042957E+03  0.12494600028E+03 0.  0.
          2    1    1    2  501    0 -0.43436357431E+02 -0.63694090389E+01 -0.28045366635E+03  0.28386888785E+03  0.00000000000E+00 0. -1.
          1    1    1    2  502    0  0.78086143450E+02  0.98095678349E+02  0.11247998847E+04  0.11317663136E+04  0.00000000000E+00 0. -1.
         22    1    3    3    0    0 -0.74445021670E+02 -0.73833123004E+02  0.14130904049E+03  0.17595918910E+03  0.00000000000E+00 0. -1.
         22    1    3    3    0    0  0.39795235652E+02 -0.17893146307E+02  0.14536397066E+03  0.15177124047E+03  0.00000000000E+00 0. -1.
</event>
<event>
 7    1  0.5575489E-006  0.4983577E+02  0.7818608E-02  0.1568805E+00
          2   -1    0    0  502    0  0.00000000000E+00  0.00000000000E+00  0.16389376318E+04  0.16389376318E+04  0.00000000000E+00 0. -1.
          1   -1    0    0  501    0 -0.00000000000E+00 -0.00000000000E+00 -0.17358591157E+03  0.17358591157E+03  0.00000000000E+00 0. -1.
         25    2    1    2    0    0 -0.25590851451E+01 -0.42830155202E+02  0.37314321468E+03  0.39585638922E+03  0.12500180444E+03 0.  0.
          2    1    1    2  501    0 -0.21580808759E+02 -0.13211802793E+01 -0.16100176580E+03  0.16244705419E+03  0.00000000000E+00 0. -1.
          1    1    1    2  502    0  0.24139893904E+02  0.44151335481E+02  0.12532102714E+04  0.12542201000E+04  0.00000000000E+00 0. -1.
         22    1    3    3    0    0 -0.40168683623E+02 -0.56629949446E+02  0.11284427336E+03  0.13249265771E+03  0.00000000000E+00 0. -1.
         22    1    3    3    0    0  0.37609598478E+02  0.13799794244E+02  0.26029894133E+03  0.26336373151E+03  0.00000000000E+00 0. -1.
</event>
<event>
 7    1  0.5575489E-006  0.1787571E+03  0.7818608E-02  0.1263906E+00
          2   -1    0    0  502    0  0.00000000000E+00  0.00000000000E+00  0.41079688076E+04  0.41079688076E+04  0.00000000000E+00 0. -1.
          1   -1    0    0  501    0 -0.00000000000E+00 -0.00000000000E+00 -0.47349454458E+03  0.47349454458E+03  0.00000000000E+00 0. -1.
         25    2    1    2    0    0 -0.11660451811E+03  0.62745819167E+02  0.87724959767E+01  0.18230567309E+03  0.12499900115E+03 0.  0.
          2    1    1    2  501    0 -0.10488995062E+02  0.64669142393E+02 -0.38191941461E+03  0.38749781451E+03  0.00000000000E+00 0. -1.
          1    1    1    2  502    0  0.12709351317E+03 -0.12741496156E+03  0.40076211816E+04  0.40116598646E+04  0.00000000000E+00 0. -1.
         22    1    3    3    0    0 -0.13374257000E+03  0.81458633898E+02  0.98652397828E+01  0.15690731985E+03  0.00000000000E+00 0. -1.
         22    1    3    3    0    0  0.17138051897E+02 -0.18712814730E+02 -0.10927438061E+01  0.25398353234E+02  0.00000000000E+00 0. -1.
</event>
<event>
 7    1  0.5575489E-006  0.1077012E+03  0.7818608E-02  0.1286275E+00
          2   -1    0    0  502    0  0.00000000000E+00  0.00000000000E+00  0.24291801403E+04  0.24291801403E+04  0.00000000000E+00 0. -1.
          1   -1    0    0  501    0 -0.00000000000E+00 -0.00000000000E+00 -0.22748339406E+02  0.22748339406E+02  0.00000000000E+00 0. -1.
         25    2    1    2    0    0  0.56963485348E+02 -0.70691825574E+02  0.86919513417E+03  0.88281706504E+03  0.12499446467E+03 0.  0.
          2    1    1    2  501    0 -0.71147011750E+02 -0.51346890182E+02  0.13191649052E+03  0.15843093411E+03  0.00000000000E+00 0. -1.
          1    1    1    2  502    0  0.14183526402E+02  0.12203871576E+03  0.14053201762E+04  0.14106804805E+04  0.00000000000E+00 0. -1.
         22    1    3    3    0    0  0.91057046603E+02 -0.70838656369E+02  0.75075980527E+03  0.75957210730E+03  0.00000000000E+00 0. -1.
         22    1    3    3    0    0 -0.34093561255E+02  0.14683079431E+00  0.11843532890E+03  0.12324495774E+03  0.00000000000E+00 0. -1.
</event>
<event>
 7    1  0.5575489E-006  0.6466391E+02  0.7818608E-02  0.1417986E+00
          2   -1    0    0  502    0  0.00000000000E+00  0.00000000000E+00  0.76685649212E+03  0.76685649212E+03  0.00000000000E+00 0. -1.
          1   -1    0    0  501    0 -0.00000000000E+00 -0.00000000000E+00 -0.82485562069E+03  0.82485562069E+03  0.00000000000E+00 0. -1.
         25    2    1    2    0    0  0.52135191929E+02 -0.54075255966E+01 -0.36124036883E+02  0.14027920847E+03  0.12500396281E+03 0.  0.
          2    1    1    2  501    0 -0.40401254872E+02  0.51484760347E+02 -0.73440657495E+03  0.73731672927E+03  0.00000000000E+00 0. -1.
          1    1    1    2  502    0 -0.11733937057E+02 -0.46077234750E+02  0.71253148327E+03  0.71411617506E+03  0.00000000000E+00 0. -1.
         22    1    3    3    0    0  0.13988958894E+02 -0.10520949749E+02 -0.80013008761E+02  0.81905206950E+02  0.00000000000E+00 0. -1.
         22    1    3    3    0    0  0.38146233034E+02  0.51134241523E+01  0.43888971878E+02  0.58374001523E+02  0.00000000000E+00 0. -1.
</event>
<event>
 7    1  0.5575489E-006  0.8338525E+02  0.7818608E-02  0.1350038E+00
          2   -1    0    0  502    0  0.00000000000E+00  0.00000000000E+00  0.21527265154E+04  0.21527265154E+04  0.00000000000E+00 0. -1.
          1   -1    0    0  501    0 -0.00000000000E+00 -0.00000000000E+00 -0.19489411153E+04  0.19489411153E+04  0.00000000000E+00 0. -1.
         25    2    1    2    0    0 -0.14568844219E+02  0.12045808092E+03 -0.19903489083E+03  0.26450617212E+03  0.12500490727E+03 0.  0.
          2    1    1    2  501    0 -0.31775191699E+02 -0.76341121641E+02 -0.17156918038E+04  0.17176833221E+04  0.00000000000E+00 0. -1.
          1    1    1    2  502    0  0.46344035918E+02 -0.44116959281E+02  0.21185120947E+04  0.21194781365E+04  0.00000000000E+00 0. -1.
         22    1    3    3    0    0  0.83846001898E+01  0.17381837044E+02 -0.14425900480E+03  0.14554411786E+03  0.00000000000E+00 0. -1.
         22    1    3    3    0    0 -0.22953444409E+02  0.10307624388E+03 -0.54775886030E+02  0.11896205426E+03  0.00000000000E+00 0. -1.
</event>
<event>
 7    1  0.5575489E-006  0.6351048E+02  0.7818608E-02  0.1496782E+00
          2   -1    0    0  502    0  0.00000000000E+00  0.00000000000E+00  0.78186498394E+03  0.78186498394E+03  0.00000000000E+00 0. -1.
          1   -1    0    0  501    0 -0.00000000000E+00 -0.00000000000E+00 -0.91554994243E+03  0.91554994243E+03  0.00000000000E+00 0. -1.
         25    2    1    2    0    0 -0.71248462736E+02 -0.11661085513E+02 -0.87993463494E+03  0.89169592054E+03  0.12499731429E+03 0.  0.
          2    1    1    2  501    0  0.92938087681E+01  0.25609362683E+02 -0.21896364660E+02  0.34952326443E+02  0.00000000000E+00 0. -1.
          1    1    1    2  502    0  0.61954653968E+02 -0.13948277170E+02  0.76814604111E+03  0.77076667939E+03  0.00000000000E+00 0. -1.
         22    1    3    3    0    0 -0.82276297505E+01 -0.61827138231E+02 -0.32306927620E+03  0.32903502266E+03  0.00000000000E+00 0. -1.
         22    1    3    3    0    0 -0.63020832986E+02  0.50166052718E+02 -0.55686535874E+03  0.56266089788E+03  0.00000000000E+00 0. -1.
</event>
<event>
 7    1  0.5575489E-006  0.2868686E+02  0.7818608E-02  0.1671611E+00
          2   -1    0    0  502    0  0.00000000000E+00  0.00000000000E+00  0.14030349035E+04  0.14030349035E+04  0.00000000000E+00 0. -1.
          1   -1    0    0  501    0 -0.00000000000E+00 -0.00000000000E+00 -0.27474690775E+02  0.27474690775E+02  0.00000000000E+00 0. -1.
         25    2    1    2    0    0  0.17942847362E+02 -0.22954738678E+02  0.23855216400E+03  0.27088950043E+03  0.12500048278E+03 0.  0.
          2    1    1    2  501    0 -0.28650605266E+02  0.54209536642E+01  0.77447677549E+01  0.30169941139E+02  0.00000000000E+00 0. -1.
          1    1    1    2  502    0  0.10707757904E+02  0.17533785014E+02  0.11292632810E+04  0.11294501527E+04  0.00000000000E+00 0. -1.
         22    1    3    3    0    0 -0.51614413568E+02  0.35274551985E+01  0.74035328243E+02  0.90320099957E+02  0.00000000000E+00 0.  1.
         22    1    3    3    0    0  0.69557260930E+02 -0.26482193876E+02  0.16451683575E+03  0.18056940047E+03  0.00000000000E+00 0.  1.
</event>
<event>
 7    1  0.5575489E-006  0.7266035E+02  0.7818608E-02  0.1468338E+00
          2   -1    0    0  502    0  0.00000000000E+00  0.00000000000E+00  0.15648076849E+04  0.15648076849E+04  0.00000000000E+00 0. -1.
          1   -1    0    0  501    0 -0.00000000000E+00 -0.00000000000E+00 -0.21894191770E+03  0.21894191770E+03  0.00000000000E+00 0. -1.
         25    2    1    2    0    0 -0.89703121915E+02 -0.25720516021E+02  0.10743578562E+03  0.18940779537E+03  0.12499867955E+03 0.  0.
          2    1    1    2  501    0  0.27150565392E+02 -0.10448172520E+02 -0.17583846280E+03  0.17822873648E+03  0.00000000000E+00 0. -1.
          1    1    1    2  502    0  0.62552556523E+02  0.36168688541E+02  0.14142684444E+04  0.14161130707E+04  0.00000000000E+00 0. -1.
         22    1    3    3    0    0 -0.63536274479E+02  0.42203030902E+02  0.82762200809E+02  0.11255014827E+03  0.00000000000E+00 0. -1.
         22    1    3    3    0    0 -0.26166847436E+02 -0.67923546923E+02  0.24673584815E+02  0.76857647108E+02  0.00000000000E+00 0. -1.
</event>
<event>
 7    1  0.5575489E-006  0.5933953E+02  0.7818608E-02  0.1432908E+00
          2   -1    0    0  502    0  0.00000000000E+00  0.00000000000E+00  0.65274529690E+01  0.65274529690E+01  0.00000000000E+00 0. -1.
          1   -1    0    0  501    0 -0.00000000000E+00 -0.00000000000E+00 -0.35912284472E+04  0.35912284472E+04  0.00000000000E+00 0. -1.
         25    2    1    2    0    0  0.76216514535E+02  0.19289063408E+02 -0.27085810112E+04  0.27126037666E+04  0.12500830159E+03 0.  0.
          2    1    1    2  501    0 -0.35288208125E+02 -0.40802460735E+02 -0.72769421638E+03  0.72969101063E+03  0.00000000000E+00 0. -1.
          1    1    1    2  502    0 -0.40928306410E+02  0.21513397327E+02 -0.14842576663E+03  0.15546112288E+03  0.00000000000E+00 0. -1.
         22    1    3    3    0    0  0.64582313485E+02  0.40043295607E+02 -0.74240634716E+03  0.74628514995E+03  0.00000000000E+00 0. -1.
         22    1    3    3    0    0  0.11634201050E+02 -0.20754232199E+02 -0.19661746640E+04  0.19663186167E+04  0.00000000000E+00 0. -1.
</event>
<event>
 7    1  0.5575489E-006  0.5755000E+02  0.7818608E-02  0.1416027E+00
          2   -1    0    0  502    0  0.00000000000E+00  0.00000000000E+00  0.13219387071E+04  0.13219387071E+04  0.00000000000E+00 0. -1.
          1   -1    0    0  501    0 -0.00000000000E+00 -0.00000000000E+00 -0.53955332952E+02  0.53955332952E+02  0.00000000000E+00 0. -1.
         25    2    1    2    0    0 -0.76908032298E+01 -0.16541765105E+01  0.66393365896E+03  0.67564358735E+03  0.12499787547E+03 0.  0.
          2    1    1    2  501    0  0.46807981966E+02 -0.35919755663E+02 -0.28398633801E+02  0.65480519427E+02  0.00000000000E+00 0. -1.
          1    1    1    2  502    0 -0.39117178736E+02  0.37573932173E+02  0.63244834901E+03  0.63476993330E+03  0.00000000000E+00 0. -1.
         22    1    3    3    0    0  0.33280164487E+02  0.47505533159E+00  0.59120709580E+03  0.59214324715E+03  0.00000000000E+00 0.  1.
         22    1    3    3    0    0 -0.40970967717E+02 -0.21292318421E+01  0.72726563166E+02  0.83500340202E+02  0.00000000000E+00 0.  1.
</event>
<event>
 7    1  0.5575489E-006  0.5785754E+02  0.7818608E-02  0.1483531E+00
          2   -1    0    0  502    0  0.00000000000E+00  0.00000000000E+00  0.17918248614E+02  0.17918248614E+02  0.00000000000E+00 0. -1.
          1   -1    0    0  501    0 -0.00000000000E+00 -0.00000000000E+00 -0.13359889648E+04  0.13359889648E+04  0.00000000000E+00 0. -1.
         25    2    1    2    0    0 -0.40299832927E+02  0.16844179655E+02 -0.55052559873E+03  0.56622517674E+03  0.12499885199E+03 0.  0.
          2    1    1    2  501    0  0.40055315629E+01  0.32551459669E+02 -0.68011594296E+03  0.68090626204E+03  0.00000000000E+00 0. -1.
          1    1    1    2  502    0  0.36294301364E+02 -0.49395639324E+02 -0.87429174486E+02  0.10677577463E+03  0.00000000000E+00 0. -1.
         22    1    3    3    0    0  0.63561441115E+01 -0.42652718162E+02 -0.93220173889E+02  0.10271151715E+03  0.00000000000E+00 0. -1.
         22    1    3    3    0    0 -0.46655977038E+02  0.59496897817E+02 -0.45730542484E+03  0.46351365959E+03  0.00000000000E+00 0. -1.
</event>
<event>
 7    1  0.5575489E-006  0.3577124E+02  0.7818608E-02  0.1563257E+00
          2   -1    0    0  502    0  0.00000000000E+00  0.00000000000E+00  0.21084414282E+04  0.21084414282E+04  0.00000000000E+00 0. -1.
          1   -1    0    0  501    0 -0.00000000000E+00 -0.00000000000E+00 -0.83528550760E+02  0.83528550760E+02  0.00000000000E+00 0. -1.
         25    2    1    2    0    0  0.27952509927E+02 -0.22292829168E+02  0.10188841037E+04  0.10271453186E+04  0.12499750255E+03 0.  0.
          2    1    1    2  501    0  0.15104025265E+00  0.35824608002E+02 -0.75120419783E+02  0.83225613966E+02  0.00000000000E+00 0. -1.
          1    1    1    2  502    0 -0.28103550180E+02 -0.13531778834E+02  0.10811491935E+04  0.10815990464E+04  0.00000000000E+00 0. -1.
         22    1    3    3    0    0 -0.24082907707E+02 -0.39860991085E+01  0.83031182422E+03  0.83067057301E+03  0.00000000000E+00 0.  1.
         22    1    3    3    0    0  0.52035417634E+02 -0.18306730059E+02  0.18857227950E+03  0.19647474558E+03  0.00000000000E+00 0.  1.
</event>
<event>
 7    1  0.5575489E-006  0.1129194E+03  0.7818608E-02  0.1324944E+00
          2   -1    0    0  502    0  0.00000000000E+00  0.00000000000E+00  0.49248655313E+03  0.49248655313E+03  0.00000000000E+00 0. -1.
          1   -1    0    0  501    0 -0.00000000000E+00 -0.00000000000E+00 -0.12628067822E+04  0.12628067822E+04  0.00000000000E+00 0. -1.
         25    2    1    2    0    0 -0.68572160514E+01  0.86736816335E+02 -0.27485379260E+03  0.31423087728E+03  0.12500456074E+03 0.  0.
          2    1    1    2  501    0 -0.47240988798E+02 -0.10970636488E+03 -0.96273288142E+03  0.97011432238E+03  0.00000000000E+00 0. -1.
          1    1    1    2  502    0  0.54098204849E+02  0.22969548543E+02  0.46726644494E+03  0.47094813568E+03  0.00000000000E+00 0. -1.
         22    1    3    3    0    0 -0.33103679315E+02  0.58920074173E+02 -0.44946024873E+02  0.81163870513E+02  0.00000000000E+00 0. -1.
         22    1    3    3    0    0  0.26246463264E+02  0.27816742162E+02 -0.22990776773E+03  0.23306700676E+03  0.00000000000E+00 0. -1.
</event>
<event>
 7    1  0.5575489E-006  0.7511829E+02  0.7818608E-02  0.1411905E+00
          2   -1    0    0  502    0  0.00000000000E+00  0.00000000000E+00  0.16381411458E+04  0.16381411458E+04  0.00000000000E+00 0. -1.
          1   -1    0    0  501    0 -0.00000000000E+00 -0.00000000000E+00 -0.71674918165E+02  0.71674918165E+02  0.00000000000E+00 0. -1.
         25    2    1    2    0    0 -0.40700814339E+02 -0.36957883128E+02  0.89238425118E+03  0.90277183428E+03  0.12499956646E+03 0.  0.
          2    1    1    2  501    0  0.56007699786E+01 -0.42537594191E+02 -0.56705668748E+02  0.71108005260E+02  0.00000000000E+00 0. -1.
          1    1    1    2  502    0  0.35100044360E+02  0.79495477319E+02  0.73078764523E+03  0.73593622444E+03  0.00000000000E+00 0. -1.
         22    1    3    3    0    0 -0.64246098478E+02 -0.54036213106E+02  0.36265878532E+03  0.37224839566E+03  0.00000000000E+00 0.  1.
         22    1    3    3    0    0  0.23545284139E+02  0.17078329978E+02  0.52972546585E+03  0.53052343863E+03  0.00000000000E+00 0.  1.
</event>
<event>
 7    1  0.5575489E-006  0.5488043E+02  0.7818608E-02  0.1503715E+00
          2   -1    0    0  502    0  0.00000000000E+00  0.00000000000E+00  0.60788821497E+03  0.60788821497E+03  0.00000000000E+00 0. -1.
          1   -1    0    0  501    0 -0.00000000000E+00 -0.00000000000E+00 -0.89208051735E+03  0.89208051735E+03  0.00000000000E+00 0. -1.
         25    2    1    2    0    0  0.54680565759E+02 -0.10977305569E+02  0.80687301677E+02  0.15888868502E+03  0.12499883226E+03 0.  0.
          2    1    1    2  501    0 -0.28769016813E+01  0.29923676908E+02 -0.85115524542E+03  0.85168594846E+03  0.00000000000E+00 0. -1.
          1    1    1    2  502    0 -0.51803664078E+02 -0.18946371339E+02  0.48627564136E+03  0.48939409884E+03  0.00000000000E+00 0. -1.
         22    1    3    3    0    0  0.94842719662E+02 -0.16689120625E+02  0.55878653085E+02  0.11133773884E+03  0.00000000000E+00 0.  1.
         22    1    3    3    0    0 -0.40162153902E+02  0.57118150560E+01  0.24808648592E+02  0.47550946176E+02  0.00000000000E+00 0.  1.
</event>
<event>
 7    1  0.5575489E-006  0.9588738E+02  0.7818608E-02  0.1477425E+00
          2   -1    0    0  502    0  0.00000000000E+00  0.00000000000E+00  0.93729979847E+02  0.93729979847E+02  0.00000000000E+00 0. -1.
          1   -1    0    0  501    0 -0.00000000000E+00 -0.00000000000E+00 -0.95882020336E+03  0.95882020336E+03  0.00000000000E+00 0. -1.
         25    2    1    2    0    0  0.47899487052E+01  0.78357748779E+02 -0.34478429360E+02  0.15157883363E+03  0.12499800123E+03 0.  0.
          2    1    1    2  501    0  0.49321476859E+01 -0.96588461771E+02 -0.85979352756E+03  0.86521590777E+03  0.00000000000E+00 0. -1.
          1    1    1    2  502    0 -0.97220963911E+01  0.18230712992E+02  0.29181733405E+02  0.35755441809E+02  0.00000000000E+00 0. -1.
         22    1    3    3    0    0 -0.13367745946E+02  0.73327893712E+02 -0.75711692865E+02  0.10624470370E+03  0.00000000000E+00 0.  1.
         22    1    3    3    0    0  0.18157694651E+02  0.50298550668E+01  0.41233263505E+02  0.45334129928E+02  0.00000000000E+00 0.  1.
</event>
<event>
 7    1  0.5575489E-006  0.6064481E+02  0.7818608E-02  0.1507110E+00
          2   -1    0    0  502    0  0.00000000000E+00  0.00000000000E+00  0.10658035061E+04  0.10658035061E+04  0.00000000000E+00 0. -1.
          1   -1    0    0  501    0 -0.00000000000E+00 -0.00000000000E+00 -0.13713272596E+04  0.13713272596E+04  0.00000000000E+00 0. -1.
         25    2    1    2    0    0  0.81858432400E+02  0.15368771284E+02  0.40322604365E+02  0.15552292265E+03  0.12499785983E+03 0.  0.
          2    1    1    2  501    0 -0.60493000362E+02  0.44540581681E+00 -0.13128479520E+04  0.13142409773E+04  0.00000000000E+00 0. -1.
          1    1    1    2  502    0 -0.21365432038E+02 -0.15814177101E+02  0.96700159409E+03  0.96736686570E+03  0.00000000000E+00 0. -1.
         22    1    3    3    0    0  0.33483722237E+02  0.32078913465E+02  0.78842161511E+02  0.91467495733E+02  0.00000000000E+00 0.  1.
         22    1    3    3    0    0  0.48374710163E+02 -0.16710142181E+02 -0.38519557146E+02  0.64055426919E+02  0.00000000000E+00 0.  1.
</event>
<event>
 7    1  0.5575489E-006  0.5202384E+02  0.7818608E-02  0.1450898E+00
          2   -1    0    0  502    0  0.00000000000E+00  0.00000000000E+00  0.89743758941E+03  0.89743758941E+03  0.00000000000E+00 0. -1.
          1   -1    0    0  501    0 -0.00000000000E+00 -0.00000000000E+00 -0.66221715094E+03  0.66221715094E+03  0.00000000000E+00 0. -1.
         25    2    1    2    0    0 -0.87627157449E+02 -0.33350798153E+02  0.37388762032E+03  0.40522597305E+03  0.12500136856E+03 0.  0.
          2    1    1    2  501    0  0.45277344284E+02  0.87887343085E+01 -0.64454219284E+03  0.64619031106E+03  0.00000000000E+00 0. -1.
          1    1    1    2  502    0  0.42349813165E+02  0.24562063844E+02  0.50587501099E+03  0.50823845624E+03  0.00000000000E+00 0. -1.
         22    1    3    3    0    0 -0.16844132622E+02 -0.59370922031E+02  0.75796224962E+02  0.97743024841E+02  0.00000000000E+00 0.  1.
         22    1    3    3    0    0 -0.70783024827E+02  0.26020123879E+02  0.29809139536E+03  0.30748294821E+03  0.00000000000E+00 0.  1.
</event>
<event>
 7    1  0.5575489E-006  0.7144154E+02  0.7818608E-02  0.1434371E+00
          2   -1    0    0  502    0  0.00000000000E+00  0.00000000000E+00  0.25364200221E+04  0.25364200221E+04  0.00000000000E+00 0. -1.
          1   -1    0    0  501    0 -0.00000000000E+00 -0.00000000000E+00 -0.23082342398E+03  0.23082342398E+03  0.00000000000E+00 0. -1.
         25    2    1    2    0    0 -0.42062964568E+02  0.35798929743E+02  0.40298603867E+03  0.42552747962E+03  0.12500012877E+03 0.  0.
          2    1    1    2  501    0  0.70921857479E+02 -0.11101941774E+02 -0.21350991064E+03  0.22525462242E+03  0.00000000000E+00 0. -1.
          1    1    1    2  502    0 -0.28858892911E+02 -0.24696987970E+02  0.21161204701E+04  0.21164613441E+04  0.00000000000E+00 0. -1.
         22    1    3    3    0    0 -0.73097939119E+02  0.77001784305E+01  0.12992129903E+03  0.14927205162E+03  0.00000000000E+00 0.  1.
         22    1    3    3    0    0  0.31034974551E+02  0.28098751313E+02  0.27306473963E+03  0.27625542800E+03  0.00000000000E+00 0.  1.
</event>
<event>
 7    1  0.5575489E-006  0.1335830E+03  0.7818608E-02  0.1279926E+00
          2   -1    0    0  502    0  0.00000000000E+00  0.00000000000E+00  0.37768663772E+03  0.37768663772E+03  0.00000000000E+00 0. -1.
          1   -1    0    0  501    0 -0.00000000000E+00 -0.00000000000E+00 -0.11579371305E+04  0.11579371305E+04  0.00000000000E+00 0. -1.
         25    2    1    2    0    0  0.42509128443E+01  0.93597450993E+02 -0.69744754468E+02  0.17107914301E+03  0.12500075722E+03 0.  0.
          2    1    1    2  501    0  0.65300371048E+02 -0.12199206010E+03 -0.10285157573E+04  0.10377817035E+04  0.00000000000E+00 0. -1.
          1    1    1    2  502    0 -0.69551283892E+02  0.28394609105E+02  0.31801001890E+03  0.32676292176E+03  0.00000000000E+00 0. -1.
         22    1    3    3    0    0 -0.30725362961E+01  0.10438016378E+03 -0.44756653907E+01  0.10452124497E+03  0.00000000000E+00 0. -1.
         22    1    3    3    0    0  0.73234491405E+01 -0.10782712785E+02 -0.65269089077E+02  0.66557898038E+02  0.00000000000E+00 0. -1.
</event>
<event>
 7    1  0.5575489E-006  0.6659664E+02  0.7818608E-02  0.1420163E+00
          2   -1    0    0  502    0  0.00000000000E+00  0.00000000000E+00  0.33536636343E+03  0.33536636343E+03  0.00000000000E+00 0. -1.
          1   -1    0    0  501    0 -0.00000000000E+00 -0.00000000000E+00 -0.14141876410E+03  0.14141876410E+03  0.00000000000E+00 0. -1.
         25    2    1    2    0    0 -0.95246940404E+02 -0.21590984003E+02  0.12699552072E+03  0.20320194232E+03  0.12500006734E+03 0.  0.
          2    1    1    2  501    0  0.64051281972E+02 -0.11394178185E+02 -0.89517217785E+02  0.11066040981E+03  0.00000000000E+00 0. -1.
          1    1    1    2  502    0  0.31195658432E+02  0.32985162187E+02  0.15646929640E+03  0.16292277540E+03  0.00000000000E+00 0. -1.
         22    1    3    3    0    0 -0.34032320562E+02  0.49817247158E+02  0.27554510336E+02  0.66326525592E+02  0.00000000000E+00 0.  1.
         22    1    3    3    0    0 -0.61214619842E+02 -0.71408231161E+02  0.99441010383E+02  0.13687541673E+03  0.00000000000E+00 0.  1.
</event>
<event>
 7    1  0.5575489E-006  0.6660903E+02  0.7818608E-02  0.1412385E+00
          2   -1    0    0  502    0  0.00000000000E+00  0.00000000000E+00  0.10799769315E+04  0.10799769315E+04  0.00000000000E+00 0. -1.
          1   -1    0    0  501    0 -0.00000000000E+00 -0.00000000000E+00 -0.38780924945E+02  0.38780924945E+02  0.00000000000E+00 0. -1.
         25    2    1    2    0    0 -0.81007197559E+02  0.51977873286E+02  0.89608145406E+03  0.90986418875E+03  0.12500801688E+03 0.  0.
          2    1    1    2  501    0  0.44936902208E+02 -0.17448147096E+02 -0.70749520683E+01  0.48721842781E+02  0.00000000000E+00 0. -1.
          1    1    1    2  502    0  0.36070295350E+02 -0.34529726190E+02  0.15218950452E+03  0.16017182487E+03  0.00000000000E+00 0. -1.
         22    1    3    3    0    0  0.33498750422E+01 -0.66663467289E+01 -0.44142509765E+00  0.74737338476E+01  0.00000000000E+00 0. -1.
         22    1    3    3    0    0 -0.84357072601E+02  0.58644220015E+02  0.89652287916E+03  0.90239045490E+03  0.00000000000E+00 0. -1.
</event>
<event>
 7    1  0.5575489E-006  0.9243845E+02  0.7818608E-02  0.1323730E+00
          2   -1    0    0  502    0  0.00000000000E+00  0.00000000000E+00  0.68947717065E+03  0.68947717065E+03  0.00000000000E+00 0. -1.
          1   -1    0    0  501    0 -0.00000000000E+00 -0.00000000000E+00 -0.47866926110E+03  0.47866926110E+03  0.00000000000E+00 0. -1.
         25    2    1    2    0    0  0.10040297907E+02 -0.28163222854E+02  0.10842915529E+03  0.16816655697E+03  0.12501653676E+03 0.  0.
          2    1    1    2  501    0  0.22540862304E+02 -0.68982587662E+02 -0.44104742040E+03  0.44697820407E+03  0.00000000000E+00 0. -1.
          1    1    1    2  502    0 -0.32581160211E+02  0.97145810516E+02  0.54342617466E+03  0.55300167071E+03  0.00000000000E+00 0. -1.
         22    1    3    3    0    0  0.64005946781E+02 -0.42928591255E+01  0.32232566897E+02  0.71792257462E+02  0.00000000000E+00 0. -1.
         22    1    3    3    0    0 -0.53965648874E+02 -0.23870363728E+02  0.76196588395E+02  0.96374299509E+02  0.00000000000E+00 0. -1.
</event>
<event>
 7    1  0.5575489E-006  0.7934467E+02  0.7818608E-02  0.1458930E+00
          2   -1    0    0  502    0  0.00000000000E+00  0.00000000000E+00  0.30434754024E+03  0.30434754024E+03  0.00000000000E+00 0. -1.
          1   -1    0    0  501    0 -0.00000000000E+00 -0.00000000000E+00 -0.50052740848E+03  0.50052740848E+03  0.00000000000E+00 0. -1.
         25    2    1    2    0    0  0.53406295347E+02 -0.11224011959E+02  0.35049921329E+02  0.14082209268E+03  0.12499661585E+03 0.  0.
          2    1    1    2  501    0  0.27893150677E+02 -0.59238270726E+01 -0.43918673967E+03  0.44011147666E+03  0.00000000000E+00 0. -1.
          1    1    1    2  502    0 -0.81299446024E+02  0.17147839032E+02  0.20795695010E+03  0.22394137939E+03  0.00000000000E+00 0. -1.
         22    1    3    3    0    0 -0.21295631898E+02 -0.41333049120E+02 -0.11362707912E+02  0.47864768030E+02  0.00000000000E+00 0. -1.
         22    1    3    3    0    0  0.74701927245E+02  0.30109037160E+02  0.46412629241E+02  0.92957324649E+02  0.00000000000E+00 0. -1.
</event>
<event>
 7    1  0.5575489E-006  0.8056666E+02  0.7818608E-02  0.1503387E+00
          2   -1    0    0  502    0  0.00000000000E+00  0.00000000000E+00  0.29348801380E+04  0.29348801380E+04  0.00000000000E+00 0. -1.
          1   -1    0    0  501    0 -0.00000000000E+00 -0.00000000000E+00 -0.34986530679E+03  0.34986530679E+03  0.00000000000E+00 0. -1.
         25    2    1    2    0    0  0.57774202703E+02  0.36167523543E+02  0.27921322973E+03  0.31341879140E+03  0.12500145157E+03 0.  0.
          2    1    1    2  501    0  0.18540911560E+02 -0.87999433234E+01 -0.33182263238E+03  0.33245670961E+03  0.00000000000E+00 0. -1.
          1    1    1    2  502    0 -0.76315114263E+02 -0.27367580219E+02  0.26376242339E+04  0.26388699438E+04  0.00000000000E+00 0. -1.
         22    1    3    3    0    0  0.69068305056E+02  0.12762948092E+02  0.59149143804E+02  0.91825621806E+02  0.00000000000E+00 0.  1.
         22    1    3    3    0    0 -0.11294102353E+02  0.23404575451E+02  0.22006408592E+03  0.22159316960E+03  0.00000000000E+00 0.  1.
</event>
<event>
 7    1  0.5575489E-006  0.6072041E+02  0.7818608E-02  0.1461870E+00
          2   -1    0    0  502    0  0.00000000000E+00  0.00000000000E+00  0.94982550809E+03  0.94982550809E+03  0.00000000000E+00 0. -1.
          1   -1    0    0  501    0 -0.00000000000E+00 -0.00000000000E+00 -0.58525506977E+02  0.58525506977E+02  0.00000000000E+00 0. -1.
         25    2    1    2    0    0 -0.33387746445E+02  0.30404024382E+02  0.43192022360E+03  0.45190701309E+03  0.12500289042E+03 0.  0.
          2    1    1    2  501    0 -0.31011351000E+02 -0.19201302870E+02 -0.39230673887E+02  0.53567151281E+02  0.00000000000E+00 0. -1.
          1    1    1    2  502    0  0.64399097445E+02 -0.11202721513E+02  0.49861045141E+03  0.50287685070E+03  0.00000000000E+00 0. -1.
         22    1    3    3    0    0 -0.69446882661E+02  0.24836601672E+02  0.14503618962E+03  0.16271208496E+03  0.00000000000E+00 0. -1.
         22    1    3    3    0    0  0.36059136216E+02  0.55674227100E+01  0.28688403398E+03  0.28919492813E+03  0.00000000000E+00 0. -1.
</event>
<event>
 7    1  0.5575489E-006  0.1816212E+03  0.7818608E-02  0.1226240E+00
          2   -1    0    0  502    0  0.00000000000E+00  0.00000000000E+00  0.24258014576E+04  0.24258014576E+04  0.00000000000E+00 0. -1.
          1   -1    0    0  501    0 -0.00000000000E+00 -0.00000000000E+00 -0.21677020376E+04  0.21677020376E+04  0.00000000000E+00 0. -1.
         25    2    1    2    0    0  0.19753596689E+03 -0.71383841461E+02 -0.25750651316E+03  0.35503590588E+03  0.12499911642E+03 0.  0.
          2    1    1    2  501    0 -0.17236954939E+02  0.92642215343E+02 -0.18567678047E+04  0.18591574364E+04  0.00000000000E+00 0. -1.
          1    1    1    2  502    0 -0.18029901195E+03 -0.21258373882E+02  0.23723737379E+04  0.23793101530E+04  0.00000000000E+00 0. -1.
         22    1    3    3    0    0  0.13863753954E+02 -0.34410474334E+02 -0.11148913425E+03  0.11749941052E+03  0.00000000000E+00 0.  1.
         22    1    3    3    0    0  0.18367221294E+03 -0.36973367127E+02 -0.14601737890E+03  0.23753649535E+03  0.00000000000E+00 0.  1.
</event>
<event>
 7    1  0.5575489E-006  0.1360888E+03  0.7818608E-02  0.1263725E+00
          2   -1    0    0  502    0  0.00000000000E+00  0.00000000000E+00  0.84504085236E+03  0.84504085236E+03  0.00000000000E+00 0. -1.
          1   -1    0    0  501    0 -0.00000000000E+00 -0.00000000000E+00 -0.23021457533E+03  0.23021457533E+03  0.00000000000E+00 0. -1.
         25    2    1    2    0    0  0.76280024509E+02  0.20135697295E+03 -0.10332245276E+03  0.26956304257E+03  0.12500172789E+03 0.  0.
          2    1    1    2  501    0 -0.96205832148E+01 -0.85669053368E+02  0.12008354872E+02  0.87039892653E+02  0.00000000000E+00 0. -1.
          1    1    1    2  502    0 -0.66659441295E+02 -0.11568791958E+03  0.70614037492E+03  0.71865249247E+03  0.00000000000E+00 0. -1.
         22    1    3    3    0    0  0.93587522500E+02  0.14019460015E+03 -0.27779863578E+02  0.17083580157E+03  0.00000000000E+00 0. -1.
         22    1    3    3    0    0 -0.17307497990E+02  0.61162372807E+02 -0.75542589183E+02  0.98727240996E+02  0.00000000000E+00 0. -1.
</event>
<event>
 7    1  0.5575489E-006  0.2131501E+03  0.7818608E-02  0.1174717E+00
          2   -1    0    0  502    0  0.00000000000E+00  0.00000000000E+00  0.45711460335E+03  0.45711460335E+03  0.00000000000E+00 0. -1.
          1   -1    0    0  501    0 -0.00000000000E+00 -0.00000000000E+00 -0.95391661188E+03  0.95391661188E+03  0.00000000000E+00 0. -1.
         25    2    1    2    0    0  0.23600472836E+03 -0.14091946927E+03 -0.14673323849E+03  0.33572335655E+03  0.12499200067E+03 0.  0.
          2    1    1    2  501    0 -0.10153887581E+03  0.18156030770E+03 -0.68298819266E+03  0.71396579746E+03  0.00000000000E+00 0. -1.
          1    1    1    2  502    0 -0.13446585255E+03 -0.40640838438E+02  0.33291942261E+03  0.36134206122E+03  0.00000000000E+00 0. -1.
         22    1    3    3    0    0  0.11143678590E+03  0.31777790672E+01 -0.53720880290E+02  0.12375050913E+03  0.00000000000E+00 0. -1.
         22    1    3    3    0    0  0.12456794246E+03 -0.14409724833E+03 -0.93012358198E+02  0.21197284742E+03  0.00000000000E+00 0. -1.
</event>
<event>
 7    1  0.5575489E-006  0.1133786E+03  0.7818608E-02  0.1386485E+00
          2   -1    0    0  502    0  0.00000000000E+00  0.00000000000E+00  0.10336393341E+04  0.10336393341E+04  0.00000000000E+00 0. -1.
          1   -1    0    0  501    0 -0.00000000000E+00 -0.00000000000E+00 -0.81431128822E+02  0.81431128822E+02  0.00000000000E+00 0. -1.
         25    2    1    2    0    0  0.13003306520E+03  0.56698932003E+02  0.31147285681E+03  0.36436748628E+03  0.12499983035E+03 0.  0.
          2    1    1    2  501    0 -0.10325568602E+03 -0.34514715943E+02 -0.15336679685E+00  0.10887160251E+03  0.00000000000E+00 0. -1.
          1    1    1    2  502    0 -0.26777379185E+02 -0.22184216060E+02  0.64088871530E+03  0.64183137418E+03  0.00000000000E+00 0. -1.
         22    1    3    3    0    0  0.94906121486E+02 -0.18361991266E+02  0.22348975861E+03  0.24349950066E+03  0.00000000000E+00 0.  1.
         22    1    3    3    0    0  0.35126943716E+02  0.75060923269E+02  0.87983098200E+02  0.12086798561E+03  0.00000000000E+00 0.  1.
</event>
<event>
 7    1  0.5575489E-006  0.6606672E+02  0.7818608E-02  0.1414339E+00
          2   -1    0    0  502    0  0.00000000000E+00  0.00000000000E+00  0.50333638708E+03  0.50333638708E+03  0.00000000000E+00 0. -1.
          1   -1    0    0  501    0 -0.00000000000E+00 -0.00000000000E+00 -0.67036921721E+03  0.67036921721E+03  0.00000000000E+00 0. -1.
         25    2    1    2    0    0 -0.72021338890E+01  0.55203713567E+02 -0.51462570505E+01  0.13692213601E+03  0.12498746595E+03 0.  0.
          2    1    1    2  501    0  0.47831307196E+02 -0.19122859631E+01 -0.59580298934E+03  0.59772292317E+03  0.00000000000E+00 0. -1.
          1    1    1    2  502    0 -0.40629173306E+02 -0.53291427604E+02  0.43391641625E+03  0.43906054511E+03  0.00000000000E+00 0. -1.
         22    1    3    3    0    0  0.33539918396E+02  0.49622863678E+02 -0.48572850520E+02  0.77114697258E+02  0.00000000000E+00 0.  1.
         22    1    3    3    0    0 -0.40742052285E+02  0.55808498883E+01  0.43426593469E+02  0.59807438753E+02  0.00000000000E+00 0.  1.
</event>
<event>
 7    1  0.5575489E-006  0.1646305E+03  0.7818608E-02  0.1355195E+00
          2   -1    0    0  502    0  0.00000000000E+00  0.00000000000E+00  0.71610707788E+03  0.71610707788E+03  0.00000000000E+00 0. -1.
          1   -1    0    0  501    0 -0.00000000000E+00 -0.00000000000E+00 -0.56951351334E+03  0.56951351334E+03  0.00000000000E+00 0. -1.
         25    2    1    2    0    0  0.31383640959E+02 -0.18882334446E+03  0.71191147505E+02  0.23944074690E+03  0.12499801382E+03 0.  0.
          2    1    1    2  501    0 -0.10350857009E+02  0.29240737364E+02 -0.47332040092E+03  0.47433570695E+03  0.00000000000E+00 0. -1.
          1    1    1    2  502    0 -0.21032783950E+02  0.15958260710E+03  0.54872281796E+03  0.57184413737E+03  0.00000000000E+00 0. -1.
         22    1    3    3    0    0  0.70322909289E+02 -0.55393280605E+02  0.24486241609E+02  0.92807882937E+02  0.00000000000E+00 0.  1.
         22    1    3    3    0    0 -0.38939268331E+02 -0.13343006386E+03  0.46704905896E+02  0.14663286396E+03  0.00000000000E+00 0.  1.
</event>
<event>
 7    1  0.5575489E-006  0.9071856E+02  0.7818608E-02  0.1345328E+00
          2   -1    0    0  502    0  0.00000000000E+00  0.00000000000E+00  0.12052470477E+03  0.12052470477E+03  0.00000000000E+00 0. -1.
          1   -1    0    0  501    0 -0.00000000000E+00 -0.00000000000E+00 -0.32756698532E+03  0.32756698532E+03  0.00000000000E+00 0. -1.
         25    2    1    2    0    0  0.40343287882E+02 -0.77893750760E+02 -0.20552379320E+03  0.25604703299E+03  0.12500014498E+03 0.  0.
          2    1    1    2  501    0 -0.59792177445E+02 -0.13204256966E+02 -0.56971493092E+02  0.83637359540E+02  0.00000000000E+00 0. -1.
          1    1    1    2  502    0  0.19448889564E+02  0.91098007726E+02  0.55453005745E+02  0.10840729755E+03  0.00000000000E+00 0. -1.
         22    1    3    3    0    0  0.85801640824E+02 -0.53055607471E+02 -0.13807580080E+03  0.17100218074E+03  0.00000000000E+00 0. -1.
         22    1    3    3    0    0 -0.45458352942E+02 -0.24838143288E+02 -0.67447992407E+02  0.85044852248E+02  0.00000000000E+00 0. -1.
</event>
<event>
 7    1  0.5575489E-006  0.8447963E+02  0.7818608E-02  0.1317427E+00
          2   -1    0    0  502    0  0.00000000000E+00  0.00000000000E+00  0.21005548570E+03  0.21005548570E+03  0.00000000000E+00 0. -1.
          1   -1    0    0  501    0 -0.00000000000E+00 -0.00000000000E+00 -0.56178564251E+03  0.56178564251E+03  0.00000000000E+00 0. -1.
         25    2    1    2    0    0 -0.12657671894E+02  0.68038375011E+01 -0.35464415224E+03  0.37630230839E+03  0.12499777486E+03 0.  0.
          2    1    1    2  501    0  0.31988555362E+02  0.77675528887E+02 -0.17695426836E+03  0.19588151662E+03  0.00000000000E+00 0. -1.
          1    1    1    2  502    0 -0.19330883468E+02 -0.84479366388E+02  0.17986826379E+03  0.19965730319E+03  0.00000000000E+00 0. -1.
         22    1    3    3    0    0  0.37153121170E+02 -0.37929035291E+02 -0.10267149503E+03  0.11558720527E+03  0.00000000000E+00 0. -1.
         22    1    3    3    0    0 -0.49810793064E+02  0.44732872792E+02 -0.25197265721E+03  0.26071510312E+03  0.00000000000E+00 0. -1.
</event>
<event>
 7    1  0.5575489E-006  0.1567123E+03  0.7818608E-02  0.1335311E+00
          2   -1    0    0  502    0  0.00000000000E+00  0.00000000000E+00  0.10115372808E+04  0.10115372808E+04  0.00000000000E+00 0. -1.
          1   -1    0    0  501    0 -0.00000000000E+00 -0.00000000000E+00 -0.10623755892E+04  0.10623755892E+04  0.00000000000E+00 0. -1.
         25    2    1    2    0    0  0.13495068245E+03  0.10380276336E+03  0.56503131116E+03  0.60322426947E+03  0.12502974171E+03 0.  0.
          2    1    1    2  501    0 -0.11229872854E+01 -0.38642162751E+02 -0.10299461508E+04  0.10306714081E+04  0.00000000000E+00 0. -1.
          1    1    1    2  502    0 -0.13382769516E+03 -0.65160600610E+02  0.41407653130E+03  0.44001719243E+03  0.00000000000E+00 0. -1.
         22    1    3    3    0    0  0.31283533981E+02  0.10283450855E+03  0.29555054830E+03  0.31448962184E+03  0.00000000000E+00 0.  1.
         22    1    3    3    0    0  0.10366714847E+03  0.96825481405E+00  0.26948076286E+03  0.28873464763E+03  0.00000000000E+00 0.  1.
</event>
<event>
 7    1  0.5575489E-006  0.1557383E+03  0.7818608E-02  0.1334816E+00
          2   -1    0    0  502    0  0.00000000000E+00  0.00000000000E+00  0.49557309359E+03  0.49557309359E+03  0.00000000000E+00 0. -1.
          1   -1    0    0  501    0 -0.00000000000E+00 -0.00000000000E+00 -0.11363904022E+03  0.11363904022E+03  0.00000000000E+00 0. -1.
         25    2    1    2    0    0 -0.73046776172E+02 -0.10502576910E+03  0.25850514761E+03  0.31435362005E+03  0.12500817339E+03 0.  0.
          2    1    1    2  501    0  0.10738565902E+03  0.12365884810E+03 -0.16850915987E+01  0.16378653794E+03  0.00000000000E+00 0. -1.
          1    1    1    2  502    0 -0.34338882846E+02 -0.18633079004E+02  0.12511399736E+03  0.13107197581E+03  0.00000000000E+00 0. -1.
         22    1    3    3    0    0 -0.59110241872E+02 -0.43234768640E+02  0.33372793509E+02  0.80479868663E+02  0.00000000000E+00 0.  1.
         22    1    3    3    0    0 -0.13936534300E+02 -0.61791000458E+02  0.22513235410E+03  0.23387375139E+03  0.00000000000E+00 0.  1.
</event>
<event>
 7    1  0.5575489E-006  0.1514638E+03  0.7818608E-02  0.1275895E+00
          2   -1    0    0  502    0  0.00000000000E+00  0.00000000000E+00  0.17275770451E+04  0.17275770451E+04  0.00000000000E+00 0. -1.
          1   -1    0    0  501    0 -0.00000000000E+00 -0.00000000000E+00 -0.26156272323E+03  0.26156272323E+03  0.00000000000E+00 0. -1.
         25    2    1    2    0    0  0.57111879874E+01  0.15533053206E+03  0.25551060709E+03  0.32414660949E+03  0.12500064900E+03 0.  0.
          2    1    1    2  501    0  0.65747849316E+02 -0.20450127933E+02 -0.21786762136E+03  0.22848914167E+03  0.00000000000E+00 0. -1.
          1    1    1    2  502    0 -0.71459037303E+02 -0.13488040413E+03  0.14283713361E+04  0.14365040171E+04  0.00000000000E+00 0. -1.
         22    1    3    3    0    0  0.17925593132E+01 -0.21923684582E+02  0.24192534348E+02  0.32697705313E+02  0.00000000000E+00 0.  1.
         22    1    3    3    0    0  0.39186286741E+01  0.17725421664E+03  0.23131807274E+03  0.29144890418E+03  0.00000000000E+00 0.  1.
</event>
<event>
 7    1  0.5575489E-006  0.5322105E+02  0.7818608E-02  0.1551589E+00
          2   -1    0    0  502    0  0.00000000000E+00  0.00000000000E+00  0.13496740296E+03  0.13496740296E+03  0.00000000000E+00 0. -1.
          1   -1    0    0  501    0 -0.00000000000E+00 -0.00000000000E+00 -0.12286267226E+04  0.12286267226E+04  0.00000000000E+00 0. -1.
         25    2    1    2    0    0 -0.10025761772E+02 -0.65477963421E+02 -0.10549521152E+04  0.10643950417E+04  0.12499983982E+03 0.  0.
          2    1    1    2  501    0  0.13210470712E+02  0.43123947082E+02 -0.16492328376E+03  0.17097918258E+03  0.00000000000E+00 0. -1.
          1    1    1    2  502    0 -0.31847089398E+01  0.22354016339E+02  0.12621607927E+03  0.12821990128E+03  0.00000000000E+00 0. -1.
         22    1    3    3    0    0 -0.20640464983E+02  0.30681560464E+02 -0.47425043465E+03  0.47568987977E+03  0.00000000000E+00 0.  1.
         22    1    3    3    0    0  0.10614703211E+02 -0.96159523884E+02 -0.58070168051E+03  0.58870516195E+03  0.00000000000E+00 0.  1.
</event>
<event>
 7    1  0.5575489E-006  0.9043037E+02  0.7818608E-02  0.1478551E+00
          2   -1    0    0  502    0  0.00000000000E+00  0.00000000000E+00  0.10009525833E+04  0.10009525833E+04  0.00000000000E+00 0. -1.
          1   -1    0    0  501    0 -0.00000000000E+00 -0.00000000000E+00 -0.15859015611E+03  0.15859015611E+03  0.00000000000E+00 0. -1.
         25    2    1    2    0    0  0.20804940183E+02 -0.73676037220E+02  0.30999746812E+03  0.34290387123E+03  0.12499452253E+03 0.  0.
          2    1    1    2  501    0 -0.74334600350E+01  0.90809646939E+02 -0.12733809718E+03  0.15657790169E+03  0.00000000000E+00 0. -1.
          1    1    1    2  502    0 -0.13371480148E+02 -0.17133609719E+02  0.65970305629E+03  0.66006096654E+03  0.00000000000E+00 0. -1.
         22    1    3    3    0    0  0.28246451084E+02 -0.70661269730E+02  0.32065462266E+03  0.32956071379E+03  0.00000000000E+00 0.  1.
         22    1    3    3    0    0 -0.74415109008E+01 -0.30147674900E+01 -0.10657154540E+02  0.13343157437E+02  0.00000000000E+00 0.  1.
</event>
<event>
 7    1  0.5575489E-006  0.6229435E+02  0.7818608E-02  0.1435759E+00
          2   -1    0    0  502    0  0.00000000000E+00  0.00000000000E+00  0.78155656803E+03  0.78155656803E+03  0.00000000000E+00 0. -1.
          1   -1    0    0  501    0 -0.00000000000E+00 -0.00000000000E+00 -0.17483265789E+03  0.17483265789E+03  0.00000000000E+00 0. -1.
         25    2    1    2    0    0 -0.20839006468E+02  0.25496769529E+02  0.63107475003E+02  0.14384745271E+03  0.12500074721E+03 0.  0.
          2    1    1    2  501    0  0.33920933246E+01 -0.64917390611E+02 -0.12587193608E+03  0.14166692696E+03  0.00000000000E+00 0. -1.
          1    1    1    2  502    0  0.17446913143E+02  0.39420621082E+02  0.66948837121E+03  0.67087484625E+03  0.00000000000E+00 0. -1.
         22    1    3    3    0    0 -0.43980200513E+02  0.52370509778E+02 -0.34029955905E+01  0.68472685872E+02  0.00000000000E+00 0.  1.
         22    1    3    3    0    0  0.23141194045E+02 -0.26873740249E+02  0.66510470594E+02  0.75374766835E+02  0.00000000000E+00 0.  1.
</event>
<event>
 7    1  0.5575489E-006  0.8003726E+02  0.7818608E-02  0.1468397E+00
          2   -1    0    0  502    0  0.00000000000E+00  0.00000000000E+00  0.82759026816E+03  0.82759026816E+03  0.00000000000E+00 0. -1.
          1   -1    0    0  501    0 -0.00000000000E+00 -0.00000000000E+00 -0.13959074290E+03  0.13959074290E+03  0.00000000000E+00 0. -1.
         25    2    1    2    0    0 -0.73187983246E+02 -0.32397100708E+02  0.27083437862E+03  0.30884006000E+03  0.12499947597E+03 0.  0.
          2    1    1    2  501    0 -0.71429489446E+01  0.25414360689E+02 -0.11607479752E+03  0.11903894349E+03  0.00000000000E+00 0. -1.
          1    1    1    2  502    0  0.80330932190E+02  0.69827400196E+01  0.53323994416E+03  0.53930200757E+03  0.00000000000E+00 0. -1.
         22    1    3    3    0    0 -0.14823338797E+02  0.40647176605E+02  0.36725630500E+02  0.56751178620E+02  0.00000000000E+00 0.  1.
         22    1    3    3    0    0 -0.58364644448E+02 -0.73044277314E+02  0.23410874812E+03  0.25208888138E+03  0.00000000000E+00 0.  1.
</event>
<event>
 7    1  0.5575489E-006  0.7553746E+02  0.7818608E-02  0.1409553E+00
          2   -1    0    0  502    0  0.00000000000E+00  0.00000000000E+00  0.85427456354E+03  0.85427456354E+03  0.00000000000E+00 0. -1.
          1   -1    0    0  501    0 -0.00000000000E+00 -0.00000000000E+00 -0.33164984119E+03  0.33164984119E+03  0.00000000000E+00 0. -1.
         25    2    1    2    0    0  0.52431488165E+02 -0.93770737281E+02  0.16576288445E+03  0.23376085535E+03  0.12499916604E+03 0.  0.
          2    1    1    2  501    0 -0.37846537052E+02  0.21356126548E+02 -0.29396419951E+03  0.29715887182E+03  0.00000000000E+00 0. -1.
          1    1    1    2  502    0 -0.14584951113E+02  0.72414610733E+02  0.65082603742E+03  0.65500467756E+03  0.00000000000E+00 0. -1.
         22    1    3    3    0    0  0.18974154543E+02  0.14014558040E+02 -0.93964569309E+01  0.25391332784E+02  0.00000000000E+00 0. -1.
         22    1    3    3    0    0  0.33457333622E+02 -0.10778529532E+03  0.17515934138E+03  0.20836952256E+03  0.00000000000E+00 0. -1.
</event>
<event>
 7    1  0.5575489E-006  0.6472596E+02  0.7818608E-02  0.1424835E+00
          2   -1    0    0  502    0  0.00000000000E+00  0.00000000000E+00  0.16202378112E+04  0.16202378112E+04  0.00000000000E+00 0. -1.
          1   -1    0    0  501    0 -0.00000000000E+00 -0.00000000000E+00 -0.50496586115E+03  0.50496586115E+03  0.00000000000E+00 0. -1.
         25    2    1    2    0    0 -0.17327334484E+02  0.10824607651E+03  0.62690609768E+03  0.64857816337E+03  0.12499971638E+03 0.  0.
          2    1    1    2  501    0  0.11292808276E+02 -0.63582247028E+02 -0.49149974946E+03  0.49572394877E+03  0.00000000000E+00 0. -1.
          1    1    1    2  502    0  0.60345262076E+01 -0.44663829479E+02  0.97986560182E+03  0.98090156019E+03  0.00000000000E+00 0. -1.
         22    1    3    3    0    0 -0.59644530216E+02  0.16531853351E+02  0.30425423671E+03  0.31048576895E+03  0.00000000000E+00 0. -1.
         22    1    3    3    0    0  0.42317195732E+02  0.91714223156E+02  0.32265186097E+03  0.33809239443E+03  0.00000000000E+00 0. -1.
</event>
<event>
 7    1  0.5575489E-006  0.1398728E+03  0.7818608E-02  0.1299653E+00
          2   -1    0    0  502    0  0.00000000000E+00  0.00000000000E+00  0.10052730972E+04  0.10052730972E+04  0.00000000000E+00 0. -1.
          1   -1    0    0  501    0 -0.00000000000E+00 -0.00000000000E+00 -0.12921139659E+04  0.12921139659E+04  0.00000000000E+00 0. -1.
         25    2    1    2    0    0  0.17727328590E+03 -0.17788178458E+02 -0.98761397238E+02  0.23899965052E+03  0.12499912870E+03 0.  0.
          2    1    1    2  501    0 -0.13567745956E+03 -0.24950605661E+02 -0.11180389014E+04  0.11265175945E+04  0.00000000000E+00 0. -1.
          1    1    1    2  502    0 -0.41595826347E+02  0.42738784119E+02  0.92995942994E+03  0.93186981804E+03  0.00000000000E+00 0. -1.
         22    1    3    3    0    0  0.16028863357E+03 -0.60202541965E+02 -0.85753503190E+02  0.19149531435E+03  0.00000000000E+00 0. -1.
         22    1    3    3    0    0  0.16984652335E+02  0.42414363507E+02 -0.13007894049E+02  0.47504336163E+02  0.00000000000E+00 0. -1.
</event>
<event>
 7    1  0.5575489E-006  0.1125354E+03  0.7818608E-02  0.1398189E+00
          2   -1    0    0  502    0  0.00000000000E+00  0.00000000000E+00  0.10705139544E+04  0.10705139544E+04  0.00000000000E+00 0. -1.
          1   -1    0    0  501    0 -0.00000000000E+00 -0.00000000000E+00 -0.62585486859E+03  0.62585486859E+03  0.00000000000E+00 0. -1.
         25    2    1    2    0    0  0.11206860563E+03  0.70886505169E+02 -0.37394181687E+03  0.41598276232E+03  0.12499962863E+03 0.  0.
          2    1    1    2  501    0 -0.81827453729E+02 -0.60735543573E+02 -0.21939170440E+03  0.24190340716E+03  0.00000000000E+00 0. -1.
          1    1    1    2  502    0 -0.30241151901E+02 -0.10150961596E+02  0.10379926071E+04  0.10384826535E+04  0.00000000000E+00 0. -1.
         22    1    3    3    0    0  0.85544399603E+02  0.78041780490E+02 -0.14577746409E+03  0.18617044030E+03  0.00000000000E+00 0.  1.
         22    1    3    3    0    0  0.26524206027E+02 -0.71552753214E+01 -0.22816435278E+03  0.22981232201E+03  0.00000000000E+00 0.  1.
</event>
<event>
 7    1  0.5575489E-006  0.1334480E+03  0.7818608E-02  0.1293164E+00
          2   -1    0    0  502    0  0.00000000000E+00  0.00000000000E+00  0.44339467294E+03  0.44339467294E+03  0.00000000000E+00 0. -1.
          1   -1    0    0  501    0 -0.00000000000E+00 -0.00000000000E+00 -0.80793007906E+03  0.80793007906E+03  0.00000000000E+00 0. -1.
         25    2    1    2    0    0 -0.16775201400E+02  0.93408057148E+02 -0.72674723556E+02  0.17295331781E+03  0.12499904870E+03 0.  0.
          2    1    1    2  501    0  0.79413416141E+02 -0.11539905422E+03 -0.67507158958E+03  0.68945274198E+03  0.00000000000E+00 0. -1.
          1    1    1    2  502    0 -0.62638214741E+02  0.21990997073E+02  0.38321090701E+03  0.38891869221E+03  0.00000000000E+00 0. -1.
         22    1    3    3    0    0 -0.75878860360E+01  0.11952771146E+03 -0.32390016742E+02  0.12407079836E+03  0.00000000000E+00 0.  1.
         22    1    3    3    0    0 -0.91873153641E+01 -0.26119654309E+02 -0.40284706814E+02  0.48882519451E+02  0.00000000000E+00 0.  1.
</event>
<event>
 7    1  0.5575489E-006  0.1379839E+03  0.7818608E-02  0.1279995E+00
          2   -1    0    0  502    0  0.00000000000E+00  0.00000000000E+00  0.29659449050E+03  0.29659449050E+03  0.00000000000E+00 0. -1.
          1   -1    0    0  501    0 -0.00000000000E+00 -0.00000000000E+00 -0.14954745470E+04  0.14954745470E+04  0.00000000000E+00 0. -1.
         25    2    1    2    0    0  0.51288592855E+02 -0.19288148189E+03 -0.61801368980E+02  0.24346556448E+03  0.12498914379E+03 0.  0.
          2    1    1    2  501    0 -0.34139938259E+02  0.64162833064E+02 -0.13212544867E+04  0.13232519878E+04  0.00000000000E+00 0. -1.
          1    1    1    2  502    0 -0.17148654597E+02  0.12871864883E+03  0.18417579916E+03  0.22535148526E+03  0.00000000000E+00 0. -1.
         22    1    3    3    0    0  0.43837474859E+02 -0.16231149758E+01 -0.15661222648E+02  0.46579315142E+02  0.00000000000E+00 0.  1.
         22    1    3    3    0    0  0.74511179962E+01 -0.19125836692E+03 -0.46140146332E+02  0.19688624934E+03  0.00000000000E+00 0.  1.
</event>
<event>
 7    1  0.5575489E-006  0.6989670E+02  0.7818608E-02  0.1404902E+00
          2   -1    0    0  502    0  0.00000000000E+00  0.00000000000E+00  0.22036375496E+04  0.22036375496E+04  0.00000000000E+00 0. -1.
          1   -1    0    0  501    0 -0.00000000000E+00 -0.00000000000E+00 -0.84342323841E+02  0.84342323841E+02  0.00000000000E+00 0. -1.
         25    2    1    2    0    0  0.54776542306E+02  0.31635300682E+02  0.56281660267E+03  0.57998968168E+03  0.12499696303E+03 0.  0.
          2    1    1    2  501    0  0.15641006333E+02 -0.46126229241E+02 -0.67048523725E+02  0.82872037726E+02  0.00000000000E+00 0. -1.
          1    1    1    2  502    0 -0.70417548638E+02  0.14490928560E+02  0.16235271468E+04  0.16251181541E+04  0.00000000000E+00 0. -1.
         22    1    3    3    0    0  0.96708017651E+00  0.63712832033E+02  0.15817268055E+03  0.17052523884E+03  0.00000000000E+00 0. -1.
         22    1    3    3    0    0  0.53809462129E+02 -0.32077531351E+02  0.40464392213E+03  0.40946444284E+03  0.00000000000E+00 0. -1.
</event>
<event>
 7    1  0.5575489E-006  0.8270784E+02  0.7818608E-02  0.1416931E+00
          2   -1    0    0  502    0  0.00000000000E+00  0.00000000000E+00  0.15259606141E+04  0.15259606141E+04  0.00000000000E+00 0. -1.
          1   -1    0    0  501    0 -0.00000000000E+00 -0.00000000000E+00 -0.60275854282E+02  0.60275854282E+02  0.00000000000E+00 0. -1.
         25    2    1    2    0    0 -0.10726115227E+03  0.16508428794E+02  0.10493235390E+04  0.10623007615E+04  0.12500214132E+03 0.  0.
          2    1    1    2  501    0  0.74419546036E+02 -0.34565914827E+02 -0.21218160271E+02  0.84754242521E+02  0.00000000000E+00 0. -1.
          1    1    1    2  502    0  0.32841606233E+02  0.18057486033E+02  0.43757938105E+03  0.43918146434E+03  0.00000000000E+00 0. -1.
         22    1    3    3    0    0 -0.70839916226E+02 -0.43275232693E+02  0.76479529144E+03  0.76928725279E+03  0.00000000000E+00 0.  1.
         22    1    3    3    0    0 -0.36421236043E+02  0.59783661487E+02  0.28452824757E+03  0.29301350870E+03  0.00000000000E+00 0.  1.
</event>
<event>
 7    1  0.5575489E-006  0.9952795E+02  0.7818608E-02  0.1290821E+00
          2   -1    0    0  502    0  0.00000000000E+00  0.00000000000E+00  0.20723511602E+04  0.20723511602E+04  0.00000000000E+00 0. -1.
          1   -1    0    0  501    0 -0.00000000000E+00 -0.00000000000E+00 -0.35758795075E+03  0.35758795075E+03  0.00000000000E+00 0. -1.
         25    2    1    2    0    0  0.33615594992E+02  0.18319081711E+02  0.70017759764E+02  0.14830187346E+03  0.12500144802E+03 0.  0.
          2    1    1    2  501    0 -0.34986571523E+02  0.83983438564E+02 -0.31058286550E+03  0.32363404407E+03  0.00000000000E+00 0. -1.
          1    1    1    2  502    0  0.13709765311E+01 -0.10230252028E+03  0.19553283151E+04  0.19580031934E+04  0.00000000000E+00 0. -1.
         22    1    3    3    0    0 -0.45347796809E+02  0.20520700965E+02  0.14822090407E+02  0.51934730263E+02  0.00000000000E+00 0. -1.
         22    1    3    3    0    0  0.78963391801E+02 -0.22016192533E+01  0.55195669356E+02  0.96367143196E+02  0.00000000000E+00 0. -1.
</event>
<event>
 7    1  0.5575489E-006  0.2859170E+03  0.7818608E-02  0.1123026E+00
          2   -1    0    0  502    0  0.00000000000E+00  0.00000000000E+00  0.24303834517E+04  0.24303834517E+04  0.00000000000E+00 0. -1.
          1   -1    0    0  501    0 -0.00000000000E+00 -0.00000000000E+00 -0.43731260496E+04  0.43731260496E+04  0.00000000000E+00 0. -1.
         25    2    1    2    0    0  0.27344063619E+03 -0.15275652777E+03  0.28006464504E+03  0.43836758854E+03  0.12500239591E+03 0.  0.
          2    1    1    2  501    0 -0.11418188208E+03  0.26265010875E+03 -0.42846644491E+04  0.42942254276E+04  0.00000000000E+00 0. -1.
          1    1    1    2  502    0 -0.15925875411E+03 -0.10989358098E+03  0.20618572062E+04  0.20709164852E+04  0.00000000000E+00 0. -1.
         22    1    3    3    0    0  0.25722354428E+03 -0.11949695975E+03  0.28373359123E+03  0.40118353146E+03  0.00000000000E+00 0. -1.
         22    1    3    3    0    0  0.16217091915E+02 -0.33259568015E+02 -0.36689461905E+01  0.37184057079E+02  0.00000000000E+00 0. -1.
</event>
<event>
 7    1  0.5575489E-006  0.3117704E+02  0.7818608E-02  0.1603016E+00
          2   -1    0    0  502    0  0.00000000000E+00  0.00000000000E+00  0.39325619920E+03  0.39325619920E+03  0.00000000000E+00 0. -1.
          1   -1    0    0  501    0 -0.00000000000E+00 -0.00000000000E+00 -0.19931185655E+04  0.19931185655E+04  0.00000000000E+00 0. -1.
         25    2    1    2    0    0 -0.14676019604E+02 -0.83872214300E+01  0.71158317776E+02  0.14482402450E+03  0.12499904339E+03 0.  0.
          2    1    1    2  501    0  0.26005867711E+02 -0.17245226156E+02 -0.19554726386E+04  0.19557215914E+04  0.00000000000E+00 0. -1.
          1    1    1    2  502    0 -0.11329848107E+02  0.25632447586E+02  0.28445195453E+03  0.28582914873E+03  0.00000000000E+00 0. -1.
         22    1    3    3    0    0  0.56642794484E+01  0.69055928248E+01 -0.34761243051E+02  0.35890323102E+02  0.00000000000E+00 0. -1.
         22    1    3    3    0    0 -0.20340299053E+02 -0.15292814255E+02  0.10591956083E+03  0.10893370139E+03  0.00000000000E+00 0. -1.
</event>
<event>
 7    1  0.5575489E-006  0.8871587E+02  0.7818608E-02  0.1389803E+00
          2   -1    0    0  502    0  0.00000000000E+00  0.00000000000E+00  0.36070608664E+03  0.36070608664E+03  0.00000000000E+00 0. -1.
          1   -1    0    0  501    0 -0.00000000000E+00 -0.00000000000E+00 -0.15962480262E+03  0.15962480262E+03  0.00000000000E+00 0. -1.
         25    2    1    2    0    0  0.57551982531E+02  0.70308913185E+02  0.29517492644E+01  0.15456477865E+03  0.12500393598E+03 0.  0.
          2    1    1    2  501    0 -0.83288966232E+02 -0.35528542275E+02 -0.56997934003E+02  0.10699576484E+03  0.00000000000E+00 0. -1.
          1    1    1    2  502    0  0.25736983701E+02 -0.34780370910E+02  0.25512746877E+03  0.25877034577E+03  0.00000000000E+00 0. -1.
         22    1    3    3    0    0  0.12458899035E+02  0.96528724102E+02  0.20623971447E+02  0.99490536938E+02  0.00000000000E+00 0.  1.
         22    1    3    3    0    0  0.45093083497E+02 -0.26219810917E+02 -0.17672222183E+02  0.55074241716E+02  0.00000000000E+00 0.  1.
</event>
<event>
 7    1  0.5575489E-006  0.5982897E+02  0.7818608E-02  0.1466604E+00
          2   -1    0    0  502    0  0.00000000000E+00  0.00000000000E+00  0.13164939680E+04  0.13164939680E+04  0.00000000000E+00 0. -1.
          1   -1    0    0  501    0 -0.00000000000E+00 -0.00000000000E+00 -0.67116543658E+02  0.67116543658E+02  0.00000000000E+00 0. -1.
         25    2    1    2    0    0 -0.61017448673E+02  0.16403014890E+02  0.45983541907E+03  0.48069324517E+03  0.12500078152E+03 0.  0.
          2    1    1    2  501    0  0.36644318581E+01 -0.35585712009E+02 -0.49845359109E+02  0.61354142360E+02  0.00000000000E+00 0. -1.
          1    1    1    2  502    0  0.57353016815E+02  0.19182697119E+02  0.83938736439E+03  0.84156312414E+03  0.00000000000E+00 0. -1.
         22    1    3    3    0    0  0.34733281727E+02  0.25087857639E+02  0.17054427577E+03  0.17584411124E+03  0.00000000000E+00 0.  1.
         22    1    3    3    0    0 -0.95750730400E+02 -0.86848427493E+01  0.28929114330E+03  0.30484913393E+03  0.00000000000E+00 0.  1.
</event>
<event>
 7    1  0.5575489E-006  0.8361236E+02  0.7818608E-02  0.1371065E+00
          2   -1    0    0  502    0  0.00000000000E+00  0.00000000000E+00  0.37354116803E+03  0.37354116803E+03  0.00000000000E+00 0. -1.
          1   -1    0    0  501    0 -0.00000000000E+00 -0.00000000000E+00 -0.30973136001E+03  0.30973136001E+03  0.00000000000E+00 0. -1.
         25    2    1    2    0    0  0.28980941073E+02  0.12563244145E+03 -0.47240617251E+02  0.18568762192E+03  0.12499924689E+03 0.  0.
          2    1    1    2  501    0  0.80240141383E+01 -0.52878138561E+02 -0.18391508605E+03  0.19153391663E+03  0.00000000000E+00 0. -1.
          1    1    1    2  502    0 -0.37004955211E+02 -0.72754302892E+02  0.29496551132E+03  0.30605098949E+03  0.00000000000E+00 0. -1.
         22    1    3    3    0    0 -0.28665298761E+01  0.16792315496E+02  0.39432441701E+02  0.42954817096E+02  0.00000000000E+00 0. -1.
         22    1    3    3    0    0  0.31847470949E+02  0.10884012596E+03 -0.86673058952E+02  0.14273280482E+03  0.00000000000E+00 0. -1.
</event>
<event>
 7    1  0.5575489E-006  0.1749464E+03  0.7818608E-02  0.1325795E+00
          2   -1    0    0  502    0  0.00000000000E+00  0.00000000000E+00  0.15456470400E+03  0.15456470400E+03  0.00000000000E+00 0. -1.
          1   -1    0    0  501    0 -0.00000000000E+00 -0.00000000000E+00 -0.14070880373E+04  0.14070880373E+04  0.00000000000E+00 0. -1.
         25    2    1    2    0    0 -0.14681218078E+03  0.14031715941E+03 -0.61385609952E+03  0.65854838344E+03  0.12499576298E+03 0.  0.
          2    1    1    2  501    0  0.89155775045E+01 -0.36579128675E+02 -0.71387497678E+03  0.71486712237E+03  0.00000000000E+00 0. -1.
          1    1    1    2  502    0  0.13789660327E+03 -0.10373803074E+03  0.75207743007E+02  0.18823723549E+03  0.00000000000E+00 0. -1.
         22    1    3    3    0    0 -0.94175596905E+02  0.67547429217E+02 -0.17032275428E+03  0.20601344342E+03  0.00000000000E+00 0. -1.
         22    1    3    3    0    0 -0.52636583873E+02  0.72769730197E+02 -0.44353334525E+03  0.45253494002E+03  0.00000000000E+00 0. -1.
</event>
<event>
 7    1  0.5575489E-006  0.3618179E+02  0.7818608E-02  0.1547499E+00
          2   -1    0    0  502    0  0.00000000000E+00  0.00000000000E+00  0.12394335569E+03  0.12394335569E+03  0.00000000000E+00 0. -1.
          1   -1    0    0  501    0 -0.00000000000E+00 -0.00000000000E+00 -0.86609484831E+03  0.86609484831E+03  0.00000000000E+00 0. -1.
         25    2    1    2    0    0  0.51298120041E+02  0.31399058825E+02 -0.17839965829E+03  0.22598314146E+03  0.12499817652E+03 0.  0.
          2    1    1    2  501    0 -0.17200425870E+02 -0.31454486331E+02 -0.66050094768E+03  0.66147315988E+03  0.00000000000E+00 0. -1.
          1    1    1    2  502    0 -0.34097694171E+02  0.55427505821E-01  0.96749113340E+02  0.10258190265E+03  0.00000000000E+00 0. -1.
         22    1    3    3    0    0 -0.29636848827E+02 -0.99966193934E+01 -0.10372463534E+03  0.10833778281E+03  0.00000000000E+00 0. -1.
         22    1    3    3    0    0  0.80934968868E+02  0.41395678218E+02 -0.74675022949E+02  0.11764535866E+03  0.00000000000E+00 0. -1.
</event>
<event>
 7    1  0.5575489E-006  0.9907179E+02  0.7818608E-02  0.1284033E+00
          2   -1    0    0  502    0  0.00000000000E+00  0.00000000000E+00  0.21556900905E+03  0.21556900905E+03  0.00000000000E+00 0. -1.
          1   -1    0    0  501    0 -0.00000000000E+00 -0.00000000000E+00 -0.19248382582E+03  0.19248382582E+03  0.00000000000E+00 0. -1.
         25    2    1    2    0    0  0.17541877235E+02  0.47882015020E+02 -0.19298732667E+02  0.13637374328E+03  0.12499980782E+03 0.  0.
          2    1    1    2  501    0 -0.76925717174E+02  0.59779967691E+02 -0.57624006387E+02  0.11318894209E+03  0.00000000000E+00 0. -1.
          1    1    1    2  502    0  0.59383839938E+02 -0.10766198271E+03  0.10000792228E+03  0.15849014949E+03  0.00000000000E+00 0. -1.
         22    1    3    3    0    0  0.67146140941E-01 -0.29404891105E+02 -0.44400790032E+02  0.53254880387E+02  0.00000000000E+00 0.  1.
         22    1    3    3    0    0  0.17474731094E+02  0.77286906125E+02  0.25102057365E+02  0.83118862896E+02  0.00000000000E+00 0.  1.
</event>
<event>
 7    1  0.5575489E-006  0.7715071E+02  0.7818608E-02  0.1363999E+00
          2   -1    0    0  502    0  0.00000000000E+00  0.00000000000E+00  0.89884019821E+03  0.89884019821E+03  0.00000000000E+00 0. -1.
          1   -1    0    0  501    0 -0.00000000000E+00 -0.00000000000E+00 -0.14230834864E+04  0.14230834864E+04  0.00000000000E+00 0. -1.
         25    2    1    2    0    0  0.81852962414E+01  0.13451220272E+03  0.21988979034E+02  0.18511904618E+03  0.12500005722E+03 0.  0.
          2    1    1    2  501    0  0.96060868414E+01 -0.60712011878E+02 -0.13390001850E+04  0.13404102807E+04  0.00000000000E+00 0. -1.
          1    1    1    2  502    0 -0.17791383083E+02 -0.73800190839E+02  0.79276791779E+03  0.79639435768E+03  0.00000000000E+00 0. -1.
         22    1    3    3    0    0 -0.35088824274E+02  0.13348006950E+03  0.35274665022E+01  0.13806012300E+03  0.00000000000E+00 0.  1.
         22    1    3    3    0    0  0.43274120516E+02  0.10321332131E+01  0.18461512532E+02  0.47058923174E+02  0.00000000000E+00 0.  1.
</event>
<event>
 7    1  0.5575489E-006  0.6529307E+02  0.7818608E-02  0.1404808E+00
          2   -1    0    0  502    0  0.00000000000E+00  0.00000000000E+00  0.20472761794E+04  0.20472761794E+04  0.00000000000E+00 0. -1.
          1   -1    0    0  501    0 -0.00000000000E+00 -0.00000000000E+00 -0.20063275290E+03  0.20063275290E+03  0.00000000000E+00 0. -1.
         25    2    1    2    0    0 -0.11837492747E+02 -0.22140449023E+02  0.22212317818E+03  0.25611474614E+03  0.12500292472E+03 0.  0.
          2    1    1    2  501    0 -0.52134699250E+02  0.21412288255E+01 -0.17929543861E+03  0.18673367676E+03  0.00000000000E+00 0. -1.
          1    1    1    2  502    0  0.63972191997E+02  0.19999220198E+02  0.18038156869E+04  0.18050605094E+04  0.00000000000E+00 0. -1.
         22    1    3    3    0    0  0.33473740185E+02 -0.52771206646E+02  0.66944799841E+02  0.91580007417E+02  0.00000000000E+00 0.  1.
         22    1    3    3    0    0 -0.45311232932E+02  0.30630757622E+02  0.15517837834E+03  0.16453473872E+03  0.00000000000E+00 0.  1.
</event>
<event>
 7    1  0.5575489E-006  0.4060573E+02  0.7818608E-02  0.1612363E+00
          2   -1    0    0  502    0  0.00000000000E+00  0.00000000000E+00  0.31225804448E+03  0.31225804448E+03  0.00000000000E+00 0. -1.
          1   -1    0    0  501    0 -0.00000000000E+00 -0.00000000000E+00 -0.99866168416E+03  0.99866168416E+03  0.00000000000E+00 0. -1.
         25    2    1    2    0    0  0.55786759134E+02  0.22684473471E+02 -0.34621812847E+02  0.14300609991E+03  0.12500130741E+03 0.  0.
          2    1    1    2  501    0 -0.38769691665E+02 -0.11520950343E+02 -0.90899609327E+03  0.90989544392E+03  0.00000000000E+00 0. -1.
          1    1    1    2  502    0 -0.17017067470E+02 -0.11163523128E+02  0.25721426644E+03  0.25801818481E+03  0.00000000000E+00 0. -1.
         22    1    3    3    0    0  0.80309889359E+02 -0.83986808682E+01 -0.55755091242E+02  0.98126685303E+02  0.00000000000E+00 0. -1.
         22    1    3    3    0    0 -0.24523130224E+02  0.31083154339E+02  0.21133278395E+02  0.44879414606E+02  0.00000000000E+00 0. -1.
</event>
<event>
 7    1  0.5575489E-006  0.8577132E+02  0.7818608E-02  0.1377923E+00
          2   -1    0    0  502    0  0.00000000000E+00  0.00000000000E+00  0.10660524271E+04  0.10660524271E+04  0.00000000000E+00 0. -1.
          1   -1    0    0  501    0 -0.00000000000E+00 -0.00000000000E+00 -0.20618280441E+04  0.20618280441E+04  0.00000000000E+00 0. -1.
         25    2    1    2    0    0  0.11466363265E+03  0.73434759029E+01  0.61357964288E+02  0.18053574983E+03  0.12500672740E+03 0.  0.
          2    1    1    2  501    0 -0.76478835507E+02 -0.38492917370E+02 -0.20006805663E+04  0.20025117841E+04  0.00000000000E+00 0. -1.
          1    1    1    2  502    0 -0.38184797139E+02  0.31149441467E+02  0.94354698506E+03  0.94483293733E+03  0.00000000000E+00 0. -1.
         22    1    3    3    0    0  0.54384589831E+02  0.55555654068E+02 -0.61565488532E+01  0.77987290014E+02  0.00000000000E+00 0.  1.
         22    1    3    3    0    0  0.60279042815E+02 -0.48212178165E+02  0.67514513141E+02  0.10254845982E+03  0.00000000000E+00 0.  1.
</event>
<event>
 7    1  0.5575489E-006  0.6689492E+02  0.7818608E-02  0.1375644E+00
          2   -1    0    0  502    0  0.00000000000E+00  0.00000000000E+00  0.25021945667E+03  0.25021945667E+03  0.00000000000E+00 0. -1.
          1   -1    0    0  501    0 -0.00000000000E+00 -0.00000000000E+00 -0.13570348146E+03  0.13570348146E+03  0.00000000000E+00 0. -1.
         25    2    1    2    0    0 -0.20161387738E+00 -0.32693251216E+02 -0.12810453579E+02  0.12983747436E+03  0.12499909081E+03 0.  0.
          2    1    1    2  501    0  0.48048063360E+02  0.75760909889E+02 -0.22949741839E+02  0.92601417432E+02  0.00000000000E+00 0. -1.
          1    1    1    2  502    0 -0.47846449482E+02 -0.43067658673E+02  0.15027617062E+03  0.16348404634E+03  0.00000000000E+00 0. -1.
         22    1    3    3    0    0  0.51386070381E+02 -0.33028707323E+02  0.24868946276E+02  0.65953682426E+02  0.00000000000E+00 0. -1.
         22    1    3    3    0    0 -0.51587684259E+02  0.33545610669E+00 -0.37679399855E+02  0.63883791930E+02  0.00000000000E+00 0. -1.
</event>
<event>
 7    1  0.5575489E-006  0.1279368E+03  0.7818608E-02  0.1314471E+00
          2   -1    0    0  502    0  0.00000000000E+00  0.00000000000E+00  0.15288908905E+04  0.15288908905E+04  0.00000000000E+00 0. -1.
          1   -1    0    0  501    0 -0.00000000000E+00 -0.00000000000E+00 -0.65444021737E+02  0.65444021737E+02  0.00000000000E+00 0. -1.
         25    2    1    2    0    0 -0.84520072401E+02  0.42508017672E+02  0.30880018195E+03  0.34631626250E+03  0.12500730817E+03 0.  0.
          2    1    1    2  501    0 -0.50439907983E+02 -0.26472042068E+02 -0.23817554861E+02  0.61743252653E+02  0.00000000000E+00 0. -1.
          1    1    1    2  502    0  0.13495998038E+03 -0.16035975605E+02  0.11784642417E+04  0.11862753971E+04  0.00000000000E+00 0. -1.
         22    1    3    3    0    0 -0.71590322260E+02 -0.33358594417E+02  0.17417744699E+03  0.19124788392E+03  0.00000000000E+00 0. -1.
         22    1    3    3    0    0 -0.12929750141E+02  0.75866612090E+02  0.13462273496E+03  0.15506837859E+03  0.00000000000E+00 0. -1.
</event>
<event>
 7    1  0.5575489E-006  0.7266060E+02  0.7818608E-02  0.1483864E+00
          2   -1    0    0  502    0  0.00000000000E+00  0.00000000000E+00  0.10577314832E+04  0.10577314832E+04  0.00000000000E+00 0. -1.
          1   -1    0    0  501    0 -0.00000000000E+00 -0.00000000000E+00 -0.12918977789E+04  0.12918977789E+04  0.00000000000E+00 0. -1.
         25    2    1    2    0    0  0.42656753021E+02 -0.28388953618E+02 -0.25029395597E+03  0.28442695011E+03  0.12500437709E+03 0.  0.
          2    1    1    2  501    0  0.25791938528E+02  0.36870246560E+01 -0.10230991555E+04  0.10234308478E+04  0.00000000000E+00 0. -1.
          1    1    1    2  502    0 -0.68448691549E+02  0.24701928962E+02  0.10392268158E+04  0.10417714641E+04  0.00000000000E+00 0. -1.
         22    1    3    3    0    0  0.68984124276E+00 -0.73455848743E+02 -0.13198493429E+03  0.15105052293E+03  0.00000000000E+00 0.  1.
         22    1    3    3    0    0  0.41966911778E+02  0.45066895126E+02 -0.11830902167E+03  0.13337642719E+03  0.00000000000E+00 0.  1.
</event>
<event>
 7    1  0.5575489E-006  0.3070423E+02  0.7818608E-02  0.1600707E+00
          2   -1    0    0  502    0  0.00000000000E+00  0.00000000000E+00  0.33463346059E+03  0.33463346059E+03  0.00000000000E+00 0. -1.
          1   -1    0    0  501    0 -0.00000000000E+00 -0.00000000000E+00 -0.24257036293E+04  0.24257036293E+04  0.00000000000E+00 0. -1.
         25    2    1    2    0    0 -0.24499678454E+02 -0.48763277040E+02 -0.31398993517E+03  0.34233328610E+03  0.12499723177E+03 0.  0.
          2    1    1    2  501    0  0.12047153475E+01  0.28828340466E+02 -0.20967091693E+04  0.20969076912E+04  0.00000000000E+00 0. -1.
          1    1    1    2  502    0  0.23294963107E+02  0.19934936574E+02  0.31962893574E+03  0.32109611266E+03  0.00000000000E+00 0. -1.
         22    1    3    3    0    0  0.31999133573E+02  0.81266593849E+01 -0.20153971746E+03  0.20422596518E+03  0.00000000000E+00 0. -1.
         22    1    3    3    0    0 -0.56498812027E+02 -0.56889936425E+02 -0.11245021771E+03  0.13810732092E+03  0.00000000000E+00 0. -1.
</event>
<event>
 7    1  0.5575489E-006  0.1004729E+03  0.7818608E-02  0.1362208E+00
          2   -1    0    0  502    0  0.00000000000E+00  0.00000000000E+00  0.15088060348E+04  0.15088060348E+04  0.00000000000E+00 0. -1.
          1   -1    0    0  501    0 -0.00000000000E+00 -0.00000000000E+00 -0.11005584745E+03  0.11005584745E+03  0.00000000000E+00 0. -1.
         25    2    1    2    0    0  0.18363097326E+02  0.10766184302E+03  0.45157340468E+03  0.48111511046E+03  0.12499973564E+03 0.  0.
          2    1    1    2  501    0  0.40281151495E+02 -0.25941444485E+02 -0.86663071608E+02  0.99025338617E+02  0.00000000000E+00 0. -1.
          1    1    1    2  502    0 -0.58644248821E+02 -0.81720398537E+02  0.10338398543E+04  0.10387214332E+04  0.00000000000E+00 0. -1.
         22    1    3    3    0    0  0.26767306069E+02  0.23521305780E+02  0.19054931121E+02  0.40408302363E+02  0.00000000000E+00 0.  1.
         22    1    3    3    0    0 -0.84042087431E+01  0.84140537242E+02  0.43251847356E+03  0.44070680809E+03  0.00000000000E+00 0.  1.
</event>
<event>
 7    1  0.5575489E-006  0.5609610E+02  0.7818608E-02  0.1538997E+00
          2   -1    0    0  502    0  0.00000000000E+00  0.00000000000E+00  0.72227437932E+02  0.72227437932E+02  0.00000000000E+00 0. -1.
          1   -1    0    0  501    0 -0.00000000000E+00 -0.00000000000E+00 -0.65261259553E+03  0.65261259553E+03  0.00000000000E+00 0. -1.
         25    2    1    2    0    0 -0.58164692122E+02  0.21113686630E+02 -0.82733217922E+02  0.16216287116E+03  0.12499236882E+03 0.  0.
          2    1    1    2  501    0  0.25094712434E+01 -0.23102895526E+02 -0.50585237482E+03  0.50638588678E+03  0.00000000000E+00 0. -1.
          1    1    1    2  502    0  0.55655220879E+02  0.19892088955E+01  0.82004351382E+01  0.56291275519E+02  0.00000000000E+00 0. -1.
         22    1    3    3    0    0 -0.64785365865E+02 -0.39167126526E+02 -0.62694729317E+02  0.98294641333E+02  0.00000000000E+00 0. -1.
         22    1    3    3    0    0  0.66206737431E+01  0.60280813157E+02 -0.20038488604E+02  0.63868229826E+02  0.00000000000E+00 0. -1.
</event>
<event>
 7    1  0.5575489E-006  0.1084264E+03  0.7818608E-02  0.1392676E+00
          2   -1    0    0  502    0  0.00000000000E+00  0.00000000000E+00  0.80027940753E+03  0.80027940753E+03  0.00000000000E+00 0. -1.
          1   -1    0    0  501    0 -0.00000000000E+00 -0.00000000000E+00 -0.49313646355E+03  0.49313646355E+03  0.00000000000E+00 0. -1.
         25    2    1    2    0    0 -0.24229549540E+02  0.91679171327E+02 -0.26638117999E+02  0.15914321055E+03  0.12499932242E+03 0.  0.
          2    1    1    2  501    0 -0.34593902880E+02  0.33874672521E+00 -0.39542401824E+03  0.39693451231E+03  0.00000000000E+00 0. -1.
          1    1    1    2  502    0  0.58823452421E+02 -0.92017918052E+02  0.72920508022E+03  0.73733814821E+03  0.00000000000E+00 0. -1.
         22    1    3    3    0    0  0.43894693266E+02  0.31584064678E+01 -0.16440852609E+02  0.46978944889E+02  0.00000000000E+00 0.  1.
         22    1    3    3    0    0 -0.68124242807E+02  0.88520764859E+02 -0.10197265389E+02  0.11216426566E+03  0.00000000000E+00 0.  1.
</event>
<event>
 7    1  0.5575489E-006  0.1962212E+03  0.7818608E-02  0.1292881E+00
          2   -1    0    0  502    0  0.00000000000E+00  0.00000000000E+00  0.31704025819E+04  0.31704025819E+04  0.00000000000E+00 0. -1.
          1   -1    0    0  501    0 -0.00000000000E+00 -0.00000000000E+00 -0.32098371832E+03  0.32098371832E+03  0.00000000000E+00 0. -1.
         25    2    1    2    0    0  0.94336769125E+02  0.19953525900E+03 -0.24838143178E+02  0.25487099017E+03  0.12501416992E+03 0.  0.
          2    1    1    2  501    0 -0.54202534442E+02 -0.17859688191E+03 -0.13283353426E+03  0.22908406490E+03  0.00000000000E+00 0. -1.
          1    1    1    2  502    0 -0.40134234683E+02 -0.20938377091E+02  0.30070905410E+04  0.30074312451E+04  0.00000000000E+00 0. -1.
         22    1    3    3    0    0  0.15069557468E+02  0.74774032035E+01  0.34847306933E+02  0.38695450914E+02  0.00000000000E+00 0. -1.
         22    1    3    3    0    0  0.79267211656E+02  0.19205785580E+03 -0.59685450111E+02  0.21617553926E+03  0.00000000000E+00 0. -1.
</event>
<event>
 7    1  0.5575489E-006  0.5630223E+02  0.7818608E-02  0.1453188E+00
          2   -1    0    0  502    0  0.00000000000E+00  0.00000000000E+00  0.12336474868E+04  0.12336474868E+04  0.00000000000E+00 0. -1.
          1   -1    0    0  501    0 -0.00000000000E+00 -0.00000000000E+00 -0.67448888911E+03  0.67448888911E+03  0.00000000000E+00 0. -1.
         25    2    1    2    0    0 -0.88189464853E+02  0.25022705367E+02 -0.14343288538E+03  0.21118749024E+03  0.12499458360E+03 0.  0.
          2    1    1    2  501    0  0.54871599704E+02  0.39573672020E+00 -0.49529711377E+03  0.49832748266E+03  0.00000000000E+00 0. -1.
          1    1    1    2  502    0  0.33317865149E+02 -0.25418442087E+02  0.11978885969E+04  0.11986214031E+04  0.00000000000E+00 0. -1.
         22    1    3    3    0    0 -0.65077536067E+02 -0.40684055482E+02 -0.10947503860E+03  0.13369765199E+03  0.00000000000E+00 0.  1.
         22    1    3    3    0    0 -0.23111928786E+02  0.65706760849E+02 -0.33957846776E+02  0.77489838245E+02  0.00000000000E+00 0.  1.
</event>
<event>
 7    1  0.5575489E-006  0.8887134E+02  0.7818608E-02  0.1314207E+00
          2   -1    0    0  502    0  0.00000000000E+00  0.00000000000E+00  0.24304759032E+03  0.24304759032E+03  0.00000000000E+00 0. -1.
          1   -1    0    0  501    0 -0.00000000000E+00 -0.00000000000E+00 -0.32310365420E+03  0.32310365420E+03  0.00000000000E+00 0. -1.
         25    2    1    2    0    0  0.54975785655E+02 -0.24078868667E+02 -0.54486284960E+02  0.14899478115E+03  0.12501424174E+03 0.  0.
          2    1    1    2  501    0  0.23369835286E+02  0.78807432708E+02 -0.20112510966E+03  0.21727418252E+03  0.00000000000E+00 0. -1.
          1    1    1    2  502    0 -0.78345620940E+02 -0.54728564040E+02  0.17555533075E+03  0.19988228084E+03  0.00000000000E+00 0. -1.
         22    1    3    3    0    0  0.32550090000E+02  0.13711028070E+02  0.34735662398E+02  0.49538539461E+02  0.00000000000E+00 0. -1.
         22    1    3    3    0    0  0.22425695654E+02 -0.37789896737E+02 -0.89221947358E+02  0.99456241691E+02  0.00000000000E+00 0. -1.
</event>
<event>
 7    1  0.5575489E-006  0.7338993E+02  0.7818608E-02  0.1426404E+00
          2   -1    0    0  502    0  0.00000000000E+00  0.00000000000E+00  0.14861139048E+04  0.14861139048E+04  0.00000000000E+00 0. -1.
          1   -1    0    0  501    0 -0.00000000000E+00 -0.00000000000E+00 -0.10923820332E+04  0.10923820332E+04  0.00000000000E+00 0. -1.
         25    2    1    2    0    0 -0.25892996605E+02 -0.59497585560E+02 -0.74412491685E+03  0.75733600011E+03  0.12500206087E+03 0.  0.
          2    1    1    2  501    0 -0.34803703273E+02  0.18202430369E+02 -0.33960838698E+03  0.34187202685E+03  0.00000000000E+00 0. -1.
          1    1    1    2  502    0  0.60696699878E+02  0.41295155191E+02  0.14774651754E+04  0.14792879111E+04  0.00000000000E+00 0. -1.
         22    1    3    3    0    0  0.74233955742E+01  0.30414594178E+02 -0.36249640877E+03  0.36384584745E+03  0.00000000000E+00 0.  1.
         22    1    3    3    0    0 -0.33316392179E+02 -0.89912179738E+02 -0.38162850809E+03  0.39349015266E+03  0.00000000000E+00 0.  1.
</event>
<event>
 7    1  0.5575489E-006  0.6964443E+02  0.7818608E-02  0.1448868E+00
          2   -1    0    0  502    0  0.00000000000E+00  0.00000000000E+00  0.48895675325E+03  0.48895675325E+03  0.00000000000E+00 0. -1.
          1   -1    0    0  501    0 -0.00000000000E+00 -0.00000000000E+00 -0.59076508287E+03  0.59076508287E+03  0.00000000000E+00 0. -1.
         25    2    1    2    0    0 -0.29901298130E+02 -0.12307554737E+02 -0.51040328035E+03  0.52648158224E+03  0.12500313720E+03 0.  0.
          2    1    1    2  501    0  0.42372385744E+02 -0.56211189365E+02 -0.51932629022E+02  0.87476367326E+02  0.00000000000E+00 0. -1.
          1    1    1    2  502    0 -0.12471087613E+02  0.68518744102E+02  0.46052757974E+03  0.46576388656E+03  0.00000000000E+00 0. -1.
         22    1    3    3    0    0 -0.68529713376E+02  0.59570432913E+01 -0.16973571439E+03  0.18314480806E+03  0.00000000000E+00 0. -1.
         22    1    3    3    0    0  0.38628415246E+02 -0.18264598029E+02 -0.34066756596E+03  0.34333677418E+03  0.00000000000E+00 0. -1.
</event>
<event>
 7    1  0.5575489E-006  0.1248885E+03  0.7818608E-02  0.1251305E+00
          2   -1    0    0  502    0  0.00000000000E+00  0.00000000000E+00  0.18076724132E+04  0.18076724132E+04  0.00000000000E+00 0. -1.
          1   -1    0    0  501    0 -0.00000000000E+00 -0.00000000000E+00 -0.10517051703E+03  0.10517051703E+03  0.00000000000E+00 0. -1.
         25    2    1    2    0    0 -0.87861211600E+02 -0.12480809313E+02  0.29018376152E+03  0.32819100832E+03  0.12500943719E+03 0.  0.
          2    1    1    2  501    0  0.10027478578E+03 -0.92977561145E+02 -0.28700022945E+02  0.13972670059E+03  0.00000000000E+00 0. -1.
          1    1    1    2  502    0 -0.12413574180E+02  0.10545837046E+03  0.14410181576E+04  0.14449252214E+04  0.00000000000E+00 0. -1.
         22    1    3    3    0    0 -0.12069159468E+01 -0.66253182216E+00 -0.12781445127E+02  0.12855385410E+02  0.00000000000E+00 0. -1.
         22    1    3    3    0    0 -0.86654295653E+02 -0.11818277491E+02  0.30296520664E+03  0.31533562291E+03  0.00000000000E+00 0. -1.
</event>
<event>
 7    1  0.5575489E-006  0.8937510E+02  0.7818608E-02  0.1401024E+00
          2   -1    0    0  502    0  0.00000000000E+00  0.00000000000E+00  0.29265197021E+03  0.29265197021E+03  0.00000000000E+00 0. -1.
          1   -1    0    0  501    0 -0.00000000000E+00 -0.00000000000E+00 -0.99125259804E+03  0.99125259804E+03  0.00000000000E+00 0. -1.
         25    2    1    2    0    0  0.10328045096E+03  0.64517286055E+02 -0.21616094138E+03  0.27781542455E+03  0.12500610299E+03 0.  0.
          2    1    1    2  501    0 -0.80532487627E+02 -0.32502694163E+02 -0.74023883752E+03  0.74531566686E+03  0.00000000000E+00 0. -1.
          1    1    1    2  502    0 -0.22747963337E+02 -0.32014591892E+02  0.25779915108E+03  0.26077347684E+03  0.00000000000E+00 0. -1.
         22    1    3    3    0    0  0.10169931095E+03  0.75375944757E+02 -0.22855033956E+03  0.26126526866E+03  0.00000000000E+00 0.  1.
         22    1    3    3    0    0  0.15811400153E+01 -0.10858658701E+02  0.12389398180E+02  0.16550155884E+02  0.00000000000E+00 0.  1.
</event>
<event>
 7    1  0.5575489E-006  0.2338384E+02  0.7818608E-02  0.1711503E+00
          2   -1    0    0  502    0  0.00000000000E+00  0.00000000000E+00  0.93439819969E+03  0.93439819969E+03  0.00000000000E+00 0. -1.
          1   -1    0    0  501    0 -0.00000000000E+00 -0.00000000000E+00 -0.13265438757E+03  0.13265438757E+03  0.00000000000E+00 0. -1.
         25    2    1    2    0    0  0.31829559200E+02 -0.52381501683E+01  0.44623340415E+02  0.13659386248E+03  0.12500432674E+03 0.  0.
          2    1    1    2  501    0 -0.11502507685E+02  0.16784954213E+02 -0.85310415220E+02  0.87703530807E+02  0.00000000000E+00 0. -1.
          1    1    1    2  502    0 -0.20327051514E+02 -0.11546804045E+02  0.84243088693E+03  0.84275519397E+03  0.00000000000E+00 0. -1.
         22    1    3    3    0    0 -0.45995376688E+02  0.99562564548E+01  0.30423035011E+02  0.56038047598E+02  0.00000000000E+00 0.  1.
         22    1    3    3    0    0  0.77824935888E+02 -0.15194406623E+02  0.14200305404E+02  0.80555814887E+02  0.00000000000E+00 0.  1.
</event>
<event>
 7    1  0.5575489E-006  0.9135408E+02  0.7818608E-02  0.1418654E+00
          2   -1    0    0  502    0  0.00000000000E+00  0.00000000000E+00  0.16738774010E+04  0.16738774010E+04  0.00000000000E+00 0. -1.
          1   -1    0    0  501    0 -0.00000000000E+00 -0.00000000000E+00 -0.29333765270E+04  0.29333765270E+04  0.00000000000E+00 0. -1.
         25    2    1    2    0    0  0.26109064208E+02  0.55250490368E+02  0.58323969234E+02  0.15087375973E+03  0.12500762404E+03 0.  0.
          2    1    1    2  501    0 -0.23133094884E+02 -0.88601181394E+02 -0.28861967980E+04  0.28876490899E+04  0.00000000000E+00 0. -1.
          1    1    1    2  502    0 -0.29759693246E+01  0.33350691026E+02  0.15683737028E+04  0.15687310785E+04  0.00000000000E+00 0. -1.
         22    1    3    3    0    0  0.40837498124E+02  0.77878255439E+02  0.77937116950E+02  0.11750284304E+03  0.00000000000E+00 0. -1.
         22    1    3    3    0    0 -0.14728433916E+02 -0.22627765071E+02 -0.19613147716E+02  0.33370916695E+02  0.00000000000E+00 0. -1.
</event>
<event>
 7    1  0.5575489E-006  0.3973341E+02  0.7818608E-02  0.1577914E+00
          2   -1    0    0  502    0  0.00000000000E+00  0.00000000000E+00  0.35319948862E+02  0.35319948862E+02  0.00000000000E+00 0. -1.
          1   -1    0    0  501    0 -0.00000000000E+00 -0.00000000000E+00 -0.39013943849E+03  0.39013943849E+03  0.00000000000E+00 0. -1.
         25    2    1    2    0    0 -0.17684751849E+02  0.23619305996E+02 -0.11246630561E+03  0.17071947943E+03  0.12500339474E+03 0.  0.
          2    1    1    2  501    0  0.38938318361E+01  0.25325126492E+02 -0.11023835409E+03  0.11317693524E+03  0.00000000000E+00 0. -1.
          1    1    1    2  502    0  0.13790920013E+02 -0.48944432488E+02 -0.13211482993E+03  0.14156297268E+03  0.00000000000E+00 0. -1.
         22    1    3    3    0    0 -0.71123660336E+02  0.22374995186E+02 -0.58599168762E+02  0.94831840902E+02  0.00000000000E+00 0.  1.
         22    1    3    3    0    0  0.53438908487E+02  0.12443108103E+01 -0.53867136847E+02  0.75887638531E+02  0.00000000000E+00 0.  1.
</event>
<event>
 7    1  0.5575489E-006  0.1177889E+03  0.7818608E-02  0.1322453E+00
          2   -1    0    0  502    0  0.00000000000E+00  0.00000000000E+00  0.61413426556E+03  0.61413426556E+03  0.00000000000E+00 0. -1.
          1   -1    0    0  501    0 -0.00000000000E+00 -0.00000000000E+00 -0.11697466072E+04  0.11697466072E+04  0.00000000000E+00 0. -1.
         25    2    1    2    0    0  0.64402988719E+02  0.77986408121E+02 -0.45159290129E+03  0.47935972539E+03  0.12497989048E+03 0.  0.
          2    1    1    2  501    0  0.45688356061E+02 -0.35082340899E+02 -0.69725646044E+03  0.69963188045E+03  0.00000000000E+00 0. -1.
          1    1    1    2  502    0 -0.11009134478E+03 -0.42904067222E+02  0.59323702011E+03  0.60488926690E+03  0.00000000000E+00 0. -1.
         22    1    3    3    0    0  0.49931956937E+01  0.85529425985E+02 -0.35904779519E+03  0.36912807254E+03  0.00000000000E+00 0.  1.
         22    1    3    3    0    0  0.59409793025E+02 -0.75430178634E+01 -0.92545106106E+02  0.11023165285E+03  0.00000000000E+00 0.  1.
</event>
<event>
 7    1  0.5575489E-006  0.8352623E+02  0.7818608E-02  0.1338200E+00
          2   -1    0    0  502    0  0.00000000000E+00  0.00000000000E+00  0.17477129973E+03  0.17477129973E+03  0.00000000000E+00 0. -1.
          1   -1    0    0  501    0 -0.00000000000E+00 -0.00000000000E+00 -0.11444218161E+04  0.11444218161E+04  0.00000000000E+00 0. -1.
         25    2    1    2    0    0  0.13293557348E+02  0.14027852387E+03 -0.56253436953E+02  0.19658458746E+03  0.12500507162E+03 0.  0.
          2    1    1    2  501    0  0.22455126324E+02 -0.79248384852E+02 -0.10041646876E+04  0.10075372246E+04  0.00000000000E+00 0. -1.
          1    1    1    2  502    0 -0.35748683672E+02 -0.61030139020E+02  0.90767608171E+02  0.11507130375E+03  0.00000000000E+00 0. -1.
         22    1    3    3    0    0 -0.13048499771E+02  0.15019422807E+03 -0.22169645229E+02  0.15238130679E+03  0.00000000000E+00 0.  1.
         22    1    3    3    0    0  0.26342057118E+02 -0.99157041953E+01 -0.34083791724E+02  0.44203280661E+02  0.00000000000E+00 0.  1.
</event>
<event>
 7    1  0.5636377E-006  0.8186550E+02  0.7818608E-02  0.1353477E+00
          2   -1    0    0  502    0  0.00000000000E+00  0.00000000000E+00  0.18678183892E+04  0.18678183892E+04  0.00000000000E+00 0. -1.
          1   -1    0    0  501    0 -0.00000000000E+00 -0.00000000000E+00 -0.34254387165E+03  0.34254387165E+03  0.00000000000E+00 0. -1.
         25    2    1    2    0    0  0.71687988445E+02 -0.84139893897E+02  0.32391612002E+02  0.16998067492E+03  0.12500209552E+03 0.  0.
          2    1    1    2  501    0 -0.63229096069E+02  0.28450311913E+01 -0.26913084015E+03  0.27647318480E+03  0.00000000000E+00 0. -1.
          1    1    1    2  502    0 -0.84588923758E+01  0.81294862706E+02  0.17620137457E+04  0.17639084011E+04  0.00000000000E+00 0. -1.
         22    1    3    3    0    0  0.61433666989E+02 -0.31337992552E+02 -0.40052023716E+02  0.79751675974E+02  0.00000000000E+00 0.  1.
         22    1    3    3    0    0  0.10254321456E+02 -0.52801901346E+02  0.72443635718E+02  0.90228998943E+02  0.00000000000E+00 0.  1.
</event>
<event>
 7    1  0.5575489E-006  0.3255412E+02  0.7818608E-02  0.1631374E+00
          2   -1    0    0  502    0  0.00000000000E+00  0.00000000000E+00  0.64981891716E+03  0.64981891716E+03  0.00000000000E+00 0. -1.
          1   -1    0    0  501    0 -0.00000000000E+00 -0.00000000000E+00 -0.35198252368E+03  0.35198252368E+03  0.00000000000E+00 0. -1.
         25    2    1    2    0    0  0.36970537549E+02  0.62376975120E+01  0.39941181713E+03  0.42019007827E+03  0.12499669073E+03 0.  0.
          2    1    1    2  501    0 -0.28901077528E+02  0.14993967173E+02 -0.34027722305E+03  0.34183136173E+03  0.00000000000E+00 0. -1.
          1    1    1    2  502    0 -0.80694600206E+01 -0.21231664685E+02  0.23870179940E+03  0.23978000085E+03  0.00000000000E+00 0. -1.
         22    1    3    3    0    0  0.78511781444E+02 -0.75357710091E+01  0.31936457902E+03  0.32895990942E+03  0.00000000000E+00 0. -1.
         22    1    3    3    0    0 -0.41541243895E+02  0.13773468521E+02  0.80047238111E+02  0.91230168851E+02  0.00000000000E+00 0. -1.
</event>
<event>
 7    1  0.5575489E-006  0.6372657E+02  0.7818608E-02  0.1488387E+00
          2   -1    0    0  502    0  0.00000000000E+00  0.00000000000E+00  0.27296623926E+04  0.27296623926E+04  0.00000000000E+00 0. -1.
          1   -1    0    0  501    0 -0.00000000000E+00 -0.00000000000E+00 -0.11285787049E+02  0.11285787049E+02  0.00000000000E+00 0. -1.
         25    2    1    2    0    0 -0.46889067067E+02 -0.59837769988E+02  0.61755715104E+03  0.63465024763E+03  0.12499983475E+03 0.  0.
          2    1    1    2  501    0  0.18402523903E+02  0.55734014017E+02  0.32576848393E+03  0.33101365278E+03  0.00000000000E+00 0. -1.
          1    1    1    2  502    0  0.28486543163E+02  0.41037559705E+01  0.17750509706E+04  0.17752842792E+04  0.00000000000E+00 0. -1.
         22    1    3    3    0    0 -0.15318488075E+02 -0.95323967200E+02  0.46301891340E+03  0.47297761995E+03  0.00000000000E+00 0. -1.
         22    1    3    3    0    0 -0.31570578992E+02  0.35486197213E+02  0.15453823763E+03  0.16167262768E+03  0.00000000000E+00 0. -1.
</event>
<event>
 7    1  0.5575489E-006  0.3157835E+03  0.7818608E-02  0.1135328E+00
          2   -1    0    0  502    0  0.00000000000E+00  0.00000000000E+00  0.98522320504E+03  0.98522320504E+03  0.00000000000E+00 0. -1.
          1   -1    0    0  501    0 -0.00000000000E+00 -0.00000000000E+00 -0.62023005921E+03  0.62023005921E+03  0.00000000000E+00 0. -1.
         25    2    1    2    0    0  0.28155134136E+02  0.24894171057E+03  0.11303615558E+03  0.30195677209E+03  0.12504412383E+03 0.  0.
          2    1    1    2  501    0  0.10362934675E+03 -0.32182448497E+03 -0.46274571337E+03  0.57310002258E+03  0.00000000000E+00 0. -1.
          1    1    1    2  502    0 -0.13178448089E+03  0.72882774398E+02  0.71470270363E+03  0.73039646958E+03  0.00000000000E+00 0. -1.
         22    1    3    3    0    0 -0.46601002253E+02  0.74312538709E+02  0.54140457491E+02  0.10307859117E+03  0.00000000000E+00 0.  1.
         22    1    3    3    0    0  0.74756136389E+02  0.17462917186E+03  0.58895698087E+02  0.19887818092E+03  0.00000000000E+00 0.  1.
</event>
<event>
 7    1  0.5575489E-006  0.6751016E+02  0.7818608E-02  0.1373409E+00
          2   -1    0    0  502    0  0.00000000000E+00  0.00000000000E+00  0.25550960671E+04  0.25550960671E+04  0.00000000000E+00 0. -1.
          1   -1    0    0  501    0 -0.00000000000E+00 -0.00000000000E+00 -0.21976889908E+02  0.21976889908E+02  0.00000000000E+00 0. -1.
         25    2    1    2    0    0  0.46807281269E+02  0.72669448225E+01  0.37262722048E+03  0.39587745368E+03  0.12499673125E+03 0.  0.
          2    1    1    2  501    0 -0.61853200035E+02  0.55937953707E+02  0.16719159655E+03  0.18683656755E+03  0.00000000000E+00 0. -1.
          1    1    1    2  502    0  0.15045918765E+02 -0.63204898529E+02  0.19933003602E+04  0.19943589358E+04  0.00000000000E+00 0. -1.
         22    1    3    3    0    0  0.46779343621E+02 -0.38331547568E+02  0.83077933270E+02  0.10275970769E+03  0.00000000000E+00 0. -1.
         22    1    3    3    0    0  0.27937647827E-01  0.45598492390E+02  0.28954928721E+03  0.29311774598E+03  0.00000000000E+00 0. -1.
</event>
<event>
 7    1  0.5575489E-006  0.7139287E+02  0.7818608E-02  0.1520953E+00
          2   -1    0    0  502    0  0.00000000000E+00  0.00000000000E+00  0.17703549962E+03  0.17703549962E+03  0.00000000000E+00 0. -1.
          1   -1    0    0  501    0 -0.00000000000E+00 -0.00000000000E+00 -0.90913437040E+03  0.90913437040E+03  0.00000000000E+00 0. -1.
         25    2    1    2    0    0  0.29459345367E+02  0.83606174344E+02 -0.30292646506E+03  0.33948019297E+03  0.12499805107E+03 0.  0.
          2    1    1    2  501    0 -0.14956948900E+02 -0.14118403522E+02 -0.57980477196E+03  0.58016946940E+03  0.00000000000E+00 0. -1.
          1    1    1    2  502    0 -0.14502396467E+02 -0.69487770822E+02  0.15063236623E+03  0.16652020765E+03  0.00000000000E+00 0. -1.
         22    1    3    3    0    0  0.55329731359E+02 -0.28385312895E+01 -0.17016913852E+03  0.17896081173E+03  0.00000000000E+00 0.  1.
         22    1    3    3    0    0 -0.25870385992E+02  0.86444705633E+02 -0.13275732654E+03  0.16051938124E+03  0.00000000000E+00 0.  1.
</event>
<event>
 7    1  0.5575489E-006  0.8269284E+02  0.7818608E-02  0.1389792E+00
          2   -1    0    0  502    0  0.00000000000E+00  0.00000000000E+00  0.36319507068E+03  0.36319507068E+03  0.00000000000E+00 0. -1.
          1   -1    0    0  501    0 -0.00000000000E+00 -0.00000000000E+00 -0.13265160577E+04  0.13265160577E+04  0.00000000000E+00 0. -1.
         25    2    1    2    0    0  0.10155226146E+03 -0.76782008863E+02 -0.73410217517E+02  0.19293079122E+03  0.12499956589E+03 0.  0.
          2    1    1    2  501    0 -0.60852738620E+02  0.54451688558E+02 -0.11901627329E+04  0.11929607592E+04  0.00000000000E+00 0. -1.
          1    1    1    2  502    0 -0.40699522843E+02  0.22330320306E+02  0.30025196345E+03  0.30381957791E+03  0.00000000000E+00 0. -1.
         22    1    3    3    0    0  0.64600662594E+02 -0.21513635339E+02 -0.10028984563E+03  0.12121936829E+03  0.00000000000E+00 0. -1.
         22    1    3    3    0    0  0.36951598868E+02 -0.55268373524E+02  0.26879628113E+02  0.71711422929E+02  0.00000000000E+00 0. -1.
</event>
<event>
 7    1  0.5575489E-006  0.2688192E+02  0.7818608E-02  0.1635766E+00
          2   -1    0    0  502    0  0.00000000000E+00  0.00000000000E+00  0.17802954396E+03  0.17802954396E+03  0.00000000000E+00 0. -1.
          1   -1    0    0  501    0 -0.00000000000E+00 -0.00000000000E+00 -0.34235036633E+03  0.34235036633E+03  0.00000000000E+00 0. -1.
         25    2    1    2    0    0 -0.19246395807E+00  0.24722176960E+02 -0.12751357097E+03  0.18026516263E+03  0.12499837999E+03 0.  0.
          2    1    1    2  501    0  0.24247024199E+02 -0.12721511693E+02 -0.18626087711E+03  0.18826276686E+03  0.00000000000E+00 0. -1.
          1    1    1    2  502    0 -0.24054560241E+02 -0.12000665266E+02  0.14945362572E+03  0.15185198081E+03  0.00000000000E+00 0. -1.
         22    1    3    3    0    0  0.35945534713E+02 -0.25155015540E+01  0.84138931060E+01  0.37002740588E+02  0.00000000000E+00 0.  1.
         22    1    3    3    0    0 -0.36137998671E+02  0.27237678514E+02 -0.13592746407E+03  0.14326242204E+03  0.00000000000E+00 0.  1.
</event>
<event>
 7    1  0.5575489E-006  0.1369124E+03  0.7818608E-02  0.1263607E+00
          2   -1    0    0  502    0  0.00000000000E+00  0.00000000000E+00  0.75583239514E+02  0.75583239514E+02  0.00000000000E+00 0. -1.
          1   -1    0    0  501    0 -0.00000000000E+00 -0.00000000000E+00 -0.14469655844E+04  0.14469655844E+04  0.00000000000E+00 0. -1.
         25    2    1    2    0    0 -0.30036655819E+02 -0.18545799746E+03 -0.20608160585E+03  0.30560031435E+03  0.12500021739E+03 0.  0.
          2    1    1    2  501    0 -0.18614535240E+02  0.83743879808E+02 -0.10574407726E+04  0.10609149475E+04  0.00000000000E+00 0. -1.
          1    1    1    2  502    0  0.48651191059E+02  0.10171411765E+03 -0.10785996643E+03  0.15603356203E+03  0.00000000000E+00 0. -1.
         22    1    3    3    0    0  0.23442524005E+02  0.45105854086E+01 -0.61068085143E+01  0.24641234196E+02  0.00000000000E+00 0. -1.
         22    1    3    3    0    0 -0.53479179824E+02 -0.18996858287E+03 -0.19997479734E+03  0.28095908016E+03  0.00000000000E+00 0. -1.
</event>
<event>
 7    1  0.5575489E-006  0.1263990E+03  0.7818608E-02  0.1306857E+00
          2   -1    0    0  502    0  0.00000000000E+00  0.00000000000E+00  0.55207947220E+03  0.55207947220E+03  0.00000000000E+00 0. -1.
          1   -1    0    0  501    0 -0.00000000000E+00 -0.00000000000E+00 -0.64118268782E+03  0.64118268782E+03  0.00000000000E+00 0. -1.
         25    2    1    2    0    0  0.14537228822E+03  0.75964960489E+02  0.23798376025E+03  0.31490916755E+03  0.12501094458E+03 0.  0.
          2    1    1    2  501    0 -0.31839356489E+02 -0.52940211930E+02 -0.58886053074E+03  0.59209216793E+03  0.00000000000E+00 0. -1.
          1    1    1    2  502    0 -0.11353293173E+03 -0.23024748559E+02  0.26177355487E+03  0.28626082453E+03  0.00000000000E+00 0. -1.
         22    1    3    3    0    0 -0.14261008971E+02 -0.37675492567E+01  0.64042628104E+02  0.65719319981E+02  0.00000000000E+00 0. -1.
         22    1    3    3    0    0  0.15963329719E+03  0.79732509745E+02  0.17394113215E+03  0.24918984757E+03  0.00000000000E+00 0. -1.
</event>
<event>
 7    1  0.5575489E-006  0.1598116E+03  0.7818608E-02  0.1247957E+00
          2   -1    0    0  502    0  0.00000000000E+00  0.00000000000E+00  0.12608679253E+04  0.12608679253E+04  0.00000000000E+00 0. -1.
          1   -1    0    0  501    0 -0.00000000000E+00 -0.00000000000E+00 -0.34786452780E+03  0.34786452780E+03  0.00000000000E+00 0. -1.
         25    2    1    2    0    0 -0.11056542067E+03 -0.20585148305E+03  0.64588775481E+03  0.69813921751E+03  0.12501131906E+03 0.  0.
          2    1    1    2  501    0  0.44170444745E+02  0.15149774057E+03 -0.29895922116E+03  0.33805208105E+03  0.00000000000E+00 0. -1.
          1    1    1    2  502    0  0.66394975929E+02  0.54353742480E+02  0.56607486387E+03  0.57254115455E+03  0.00000000000E+00 0. -1.
         22    1    3    3    0    0 -0.19396658991E+02 -0.53637779438E+01  0.19809644443E+03  0.19911605106E+03  0.00000000000E+00 0. -1.
         22    1    3    3    0    0 -0.91168761683E+02 -0.20048770511E+03  0.44779131038E+03  0.49902316646E+03  0.00000000000E+00 0. -1.
</event>
<event>
 7    1  0.5575489E-006  0.8868196E+02  0.7818608E-02  0.1328360E+00
          2   -1    0    0  502    0  0.00000000000E+00  0.00000000000E+00  0.14533686994E+04  0.14533686994E+04  0.00000000000E+00 0. -1.
          1   -1    0    0  501    0 -0.00000000000E+00 -0.00000000000E+00 -0.22951736592E+04  0.22951736592E+04  0.00000000000E+00 0. -1.
         25    2    1    2    0    0 -0.15986258504E+02  0.30454865101E+01  0.34607869211E+03  0.36832074014E+03  0.12499948415E+03 0.  0.
          2    1    1    2  501    0  0.88021282222E+02 -0.12160244405E+02 -0.22819846214E+04  0.22837139554E+04  0.00000000000E+00 0. -1.
          1    1    1    2  502    0 -0.72035023718E+02  0.91147578947E+01  0.10941009696E+04  0.10965076631E+04  0.00000000000E+00 0. -1.
         22    1    3    3    0    0 -0.57471958389E+01  0.63912341527E+02  0.16706105804E+03  0.17896148964E+03  0.00000000000E+00 0.  1.
         22    1    3    3    0    0 -0.10239062665E+02 -0.60866855017E+02  0.17901763407E+03  0.18935925051E+03  0.00000000000E+00 0.  1.
</event>
<event>
 7    1  0.5575489E-006  0.1347532E+03  0.7818608E-02  0.1267837E+00
          2   -1    0    0  502    0  0.00000000000E+00  0.00000000000E+00  0.10948757379E+04  0.10948757379E+04  0.00000000000E+00 0. -1.
          1   -1    0    0  501    0 -0.00000000000E+00 -0.00000000000E+00 -0.69493297245E+02  0.69493297245E+02  0.00000000000E+00 0. -1.
         25    2    1    2    0    0 -0.59669683217E+02  0.34775359268E+02  0.13339439357E+03  0.19540364132E+03  0.12497488587E+03 0.  0.
          2    1    1    2  501    0 -0.83515836994E+02  0.46547051087E+01  0.22134632033E+02  0.86524581731E+02  0.00000000000E+00 0. -1.
          1    1    1    2  502    0  0.14318552021E+03 -0.39430064376E+02  0.86985341504E+03  0.88244081209E+03  0.00000000000E+00 0. -1.
         22    1    3    3    0    0 -0.27259654640E+02  0.73713593251E+02  0.37790431218E+02  0.87206073715E+02  0.00000000000E+00 0. -1.
         22    1    3    3    0    0 -0.32410028577E+02 -0.38938233983E+02  0.95603962356E+02  0.10819756761E+03  0.00000000000E+00 0. -1.
</event>
<event>
 7    1  0.5575489E-006  0.5587951E+02  0.7818608E-02  0.1471695E+00
          2   -1    0    0  502    0  0.00000000000E+00  0.00000000000E+00  0.20898438211E+04  0.20898438211E+04  0.00000000000E+00 0. -1.
          1   -1    0    0  501    0 -0.00000000000E+00 -0.00000000000E+00 -0.48901874489E+02  0.48901874489E+02  0.00000000000E+00 0. -1.
         25    2    1    2    0    0  0.18730107692E+02  0.47103060152E+01  0.56886460659E+02  0.13868688359E+03  0.12499991342E+03 0.  0.
          2    1    1    2  501    0  0.35780535508E+02  0.91396250228E+01  0.37292029944E+02  0.52483092174E+02  0.00000000000E+00 0. -1.
          1    1    1    2  502    0 -0.54510643200E+02 -0.13849931038E+02  0.19467634560E+04  0.19475757198E+04  0.00000000000E+00 0. -1.
         22    1    3    3    0    0 -0.39223486806E+02 -0.25015052507E+02  0.56973975244E+02  0.73554528237E+02  0.00000000000E+00 0.  1.
         22    1    3    3    0    0  0.57953594498E+02  0.29725358523E+02 -0.87514585092E-01  0.65132355350E+02  0.00000000000E+00 0.  1.
</event>
<event>
 7    1  0.5575489E-006  0.1580339E+03  0.7818608E-02  0.1214019E+00
          2   -1    0    0  502    0  0.00000000000E+00  0.00000000000E+00  0.63454488953E+03  0.63454488953E+03  0.00000000000E+00 0. -1.
          1   -1    0    0  501    0 -0.00000000000E+00 -0.00000000000E+00 -0.12365398783E+04  0.12365398783E+04  0.00000000000E+00 0. -1.
         25    2    1    2    0    0 -0.15130280936E+03 -0.13745158652E+03 -0.53883801638E+03  0.58970910465E+03  0.12499976580E+03 0.  0.
          2    1    1    2  501    0 -0.59546455669E+01  0.12297551944E+03 -0.65620809547E+03  0.66765822150E+03  0.00000000000E+00 0. -1.
          1    1    1    2  502    0  0.15725745492E+03  0.14476067081E+02  0.59305112308E+03  0.61371744169E+03  0.00000000000E+00 0. -1.
         22    1    3    3    0    0 -0.19888853600E+02  0.23175070359E+02 -0.94102505857E+02  0.98933977946E+02  0.00000000000E+00 0.  1.
         22    1    3    3    0    0 -0.13141395576E+03 -0.16062665688E+03 -0.44473551053E+03  0.49077512670E+03  0.00000000000E+00 0.  1.
</event>
<event>
 7    1  0.5575489E-006  0.5556296E+02  0.7818608E-02  0.1421349E+00
          2   -1    0    0  502    0  0.00000000000E+00  0.00000000000E+00  0.11758690909E+04  0.11758690909E+04  0.00000000000E+00 0. -1.
          1   -1    0    0  501    0 -0.00000000000E+00 -0.00000000000E+00 -0.16852927460E+03  0.16852927460E+03  0.00000000000E+00 0. -1.
         25    2    1    2    0    0  0.89367651999E+01  0.17178147070E+02 -0.37685735945E+02  0.13198086062E+03  0.12499511337E+03 0.  0.
          2    1    1    2  501    0 -0.49492108214E+02  0.21404833303E+02 -0.74238233578E+02  0.91754841774E+02  0.00000000000E+00 0. -1.
          1    1    1    2  502    0  0.40555343015E+02 -0.38582980373E+02  0.11192637858E+04  0.11206626631E+04  0.00000000000E+00 0. -1.
         22    1    3    3    0    0  0.20662787402E+02  0.24769202258E+02 -0.80618902001E+02  0.86832433592E+02  0.00000000000E+00 0. -1.
         22    1    3    3    0    0 -0.11726022202E+02 -0.75910551875E+01  0.42933166055E+02  0.45148427028E+02  0.00000000000E+00 0. -1.
</event>
<event>
 7    1  0.5575489E-006  0.6362289E+02  0.7818608E-02  0.1386590E+00
          2   -1    0    0  502    0  0.00000000000E+00  0.00000000000E+00  0.74921241050E+03  0.74921241050E+03  0.00000000000E+00 0. -1.
          1   -1    0    0  501    0 -0.00000000000E+00 -0.00000000000E+00 -0.81992201107E+03  0.81992201107E+03  0.00000000000E+00 0. -1.
         25    2    1    2    0    0  0.12289335419E+03 -0.34776872005E+01 -0.44442228398E+03  0.47775492596E+03  0.12499492780E+03 0.  0.
          2    1    1    2  501    0 -0.61009887133E+02 -0.10545142495E+02 -0.35477326806E+03  0.36013536078E+03  0.00000000000E+00 0. -1.
          1    1    1    2  502    0 -0.61883467062E+02  0.14022829696E+02  0.72848595146E+03  0.73124413483E+03  0.00000000000E+00 0. -1.
         22    1    3    3    0    0  0.11529918047E+03 -0.24196833988E+02 -0.43967221230E+03  0.45518242723E+03  0.00000000000E+00 0. -1.
         22    1    3    3    0    0  0.75941737273E+01  0.20719146788E+02 -0.47500716782E+01  0.22572498736E+02  0.00000000000E+00 0. -1.
</event>
<event>
 7    1  0.5575489E-006  0.4058364E+02  0.7818608E-02  0.1520757E+00
          2   -1    0    0  502    0  0.00000000000E+00  0.00000000000E+00  0.15371598764E+03  0.15371598764E+03  0.00000000000E+00 0. -1.
          1   -1    0    0  501    0 -0.00000000000E+00 -0.00000000000E+00 -0.19236861588E+04  0.19236861588E+04  0.00000000000E+00 0. -1.
         25    2    1    2    0    0  0.14127553980E+02 -0.15062052136E+02 -0.91750808602E+03  0.92621448604E+03  0.12500293211E+03 0.  0.
          2    1    1    2  501    0 -0.27780495553E+02 -0.23255621268E+02 -0.99872080189E+03  0.99937771637E+03  0.00000000000E+00 0. -1.
          1    1    1    2  502    0  0.13652941572E+02  0.38317673404E+02  0.14625871670E+03  0.15180994407E+03  0.00000000000E+00 0. -1.
         22    1    3    3    0    0 -0.23641769368E+02 -0.25344626252E+02 -0.73109674529E+02  0.80909256877E+02  0.00000000000E+00 0. -1.
         22    1    3    3    0    0  0.37769323348E+02  0.10282574115E+02 -0.84439841149E+03  0.84530522916E+03  0.00000000000E+00 0. -1.
</event>
<event>
 7    1  0.5575489E-006  0.9230091E+02  0.7818608E-02  0.1471836E+00
          2   -1    0    0  502    0  0.00000000000E+00  0.00000000000E+00  0.40808953050E+03  0.40808953050E+03  0.00000000000E+00 0. -1.
          1   -1    0    0  501    0 -0.00000000000E+00 -0.00000000000E+00 -0.99761896580E+03  0.99761896580E+03  0.00000000000E+00 0. -1.
         25    2    1    2    0    0 -0.44797516727E+02  0.68674167462E+02  0.29845738491E+02  0.15244302374E+03  0.12500059439E+03 0.  0.
          2    1    1    2  501    0  0.31932966880E+02 -0.86931767811E+02 -0.93363297546E+03  0.93821499642E+03  0.00000000000E+00 0. -1.
          1    1    1    2  502    0  0.12864549848E+02  0.18257600349E+02  0.31425780166E+03  0.31505047615E+03  0.00000000000E+00 0. -1.
         22    1    3    3    0    0 -0.21869789808E+02 -0.11777015192E+02  0.58870652145E+02  0.63896318181E+02  0.00000000000E+00 0. -1.
         22    1    3    3    0    0 -0.22927726920E+02  0.80451182654E+02 -0.29024913654E+02  0.88546705556E+02  0.00000000000E+00 0. -1.
</event>
<event>
 7    1  0.5575489E-006  0.1998263E+03  0.7818608E-02  0.1204150E+00
          2   -1    0    0  502    0  0.00000000000E+00  0.00000000000E+00  0.11824931436E+04  0.11824931436E+04  0.00000000000E+00 0. -1.
          1   -1    0    0  501    0 -0.00000000000E+00 -0.00000000000E+00 -0.79734058040E+03  0.79734058040E+03  0.00000000000E+00 0. -1.
         25    2    1    2    0    0 -0.28309310356E+03 -0.11306813989E+03  0.37236602113E+03  0.49719816779E+03  0.12499381914E+03 0.  0.
          2    1    1    2  501    0  0.18276099318E+03  0.72544434065E+02 -0.71771499585E+03  0.74416334955E+03  0.00000000000E+00 0. -1.
          1    1    1    2  502    0  0.10033211039E+03  0.40523705826E+02  0.73050153792E+03  0.73847220666E+03  0.00000000000E+00 0. -1.
         22    1    3    3    0    0 -0.36418805817E+02 -0.22082134123E+02  0.15340289419E+01  0.42618110110E+02  0.00000000000E+00 0.  1.
         22    1    3    3    0    0 -0.24667429775E+03 -0.90986005768E+02  0.37083199218E+03  0.45458005768E+03  0.00000000000E+00 0.  1.
</event>
<event>
 7    1  0.5575489E-006  0.3181611E+03  0.7818608E-02  0.1111182E+00
          2   -1    0    0  502    0  0.00000000000E+00  0.00000000000E+00  0.18697571364E+04  0.18697571364E+04  0.00000000000E+00 0. -1.
          1   -1    0    0  501    0 -0.00000000000E+00 -0.00000000000E+00 -0.98701849962E+03  0.98701849962E+03  0.00000000000E+00 0. -1.
         25    2    1    2    0    0 -0.13658957646E+03  0.18872301937E+03  0.30171370672E+03  0.40115966988E+03  0.12499931790E+03 0.  0.
          2    1    1    2  501    0  0.97561547580E+02  0.17665171906E+03 -0.90377123472E+03  0.92602728369E+03  0.00000000000E+00 0. -1.
          1    1    1    2  502    0  0.39028028885E+02 -0.36537473843E+03  0.14847961648E+04  0.15295886825E+04  0.00000000000E+00 0. -1.
         22    1    3    3    0    0 -0.10464149589E+03  0.10254085905E+03  0.94137978270E+02  0.17414485175E+03  0.00000000000E+00 0.  1.
         22    1    3    3    0    0 -0.31948080573E+02  0.86182160324E+02  0.20757572845E+03  0.22701481813E+03  0.00000000000E+00 0.  1.
</event>
<event>
 7    1  0.5575489E-006  0.1999210E+03  0.7818608E-02  0.1269350E+00
          2   -1    0    0  502    0  0.00000000000E+00  0.00000000000E+00  0.14003306330E+04  0.14003306330E+04  0.00000000000E+00 0. -1.
          1   -1    0    0  501    0 -0.00000000000E+00 -0.00000000000E+00 -0.43133735200E+03  0.43133735200E+03  0.00000000000E+00 0. -1.
         25    2    1    2    0    0  0.35321076800E+02 -0.20802156307E+03 -0.52946676419E+02  0.25089517043E+03  0.12499794733E+03 0.  0.
          2    1    1    2  501    0  0.19126893894E+02  0.19696666120E+03 -0.24369156330E+03  0.31392241353E+03  0.00000000000E+00 0. -1.
          1    1    1    2  502    0 -0.54447970694E+02  0.11054901870E+02  0.12656315207E+04  0.12668504010E+04  0.00000000000E+00 0. -1.
         22    1    3    3    0    0 -0.39906449801E+02 -0.95177004842E+02  0.51980421174E+01  0.10333540840E+03  0.00000000000E+00 0. -1.
         22    1    3    3    0    0  0.75227526601E+02 -0.11284455823E+03 -0.58144718536E+02  0.14755976204E+03  0.00000000000E+00 0. -1.
</event>
<event>
 7    1  0.5575489E-006  0.8422391E+02  0.7818608E-02  0.1384950E+00
          2   -1    0    0  502    0  0.00000000000E+00  0.00000000000E+00  0.88783342954E+03  0.88783342954E+03  0.00000000000E+00 0. -1.
          1   -1    0    0  501    0 -0.00000000000E+00 -0.00000000000E+00 -0.16037680183E+03  0.16037680183E+03  0.00000000000E+00 0. -1.
         25    2    1    2    0    0  0.57627229843E+02 -0.20187261097E+02  0.19924755753E+03  0.24300890139E+03  0.12500125536E+03 0.  0.
          2    1    1    2  501    0 -0.53693047071E+02  0.67418347403E+02 -0.12414404742E+03  0.15112882379E+03  0.00000000000E+00 0. -1.
          1    1    1    2  502    0 -0.39341827719E+01 -0.47231086306E+02  0.65235311761E+03  0.65407250619E+03  0.00000000000E+00 0. -1.
         22    1    3    3    0    0  0.21867740943E+02 -0.71426022974E+02  0.88127894321E+02  0.11552662295E+03  0.00000000000E+00 0.  1.
         22    1    3    3    0    0  0.35759488900E+02  0.51238761877E+02  0.11111966321E+03  0.12748227844E+03  0.00000000000E+00 0.  1.
</event>
<event>
 7    1  0.5575489E-006  0.6279487E+02  0.7818608E-02  0.1389676E+00
          2   -1    0    0  502    0  0.00000000000E+00  0.00000000000E+00  0.44263276906E+03  0.44263276906E+03  0.00000000000E+00 0. -1.
          1   -1    0    0  501    0 -0.00000000000E+00 -0.00000000000E+00 -0.18533359989E+03  0.18533359989E+03  0.00000000000E+00 0. -1.
         25    2    1    2    0    0  0.10935510011E+03  0.37289206394E+01  0.10982289519E+03  0.19914412773E+03  0.12499949013E+03 0.  0.
          2    1    1    2  501    0 -0.55625026697E+02  0.25551537029E+02 -0.13052525295E+03  0.14416610662E+03  0.00000000000E+00 0. -1.
          1    1    1    2  502    0 -0.53730073410E+02 -0.29280457668E+02  0.27800152693E+03  0.28465613460E+03  0.00000000000E+00 0. -1.
         22    1    3    3    0    0  0.74470952045E+02 -0.56856003544E+02  0.79754616823E+02  0.12304197147E+03  0.00000000000E+00 0. -1.
         22    1    3    3    0    0  0.34884148062E+02  0.60584924184E+02  0.30068278366E+02  0.76102156265E+02  0.00000000000E+00 0. -1.
</event>
<event>
 7    1  0.5575489E-006  0.6920317E+02  0.7818608E-02  0.1375120E+00
          2   -1    0    0  502    0  0.00000000000E+00  0.00000000000E+00  0.24134145500E+04  0.24134145500E+04  0.00000000000E+00 0. -1.
          1   -1    0    0  501    0 -0.00000000000E+00 -0.00000000000E+00 -0.27048004498E+03  0.27048004498E+03  0.00000000000E+00 0. -1.
         25    2    1    2    0    0 -0.48560690515E+02  0.11145234480E+03  0.33520241703E+03  0.37784223214E+03  0.12499730467E+03 0.  0.
          2    1    1    2  501    0  0.44830708145E+02 -0.43542549129E+02 -0.24466905682E+03  0.25252463908E+03  0.00000000000E+00 0. -1.
          1    1    1    2  502    0  0.37299823700E+01 -0.67909795673E+02  0.20524011448E+04  0.20535277238E+04  0.00000000000E+00 0. -1.
         22    1    3    3    0    0 -0.44010436158E+02  0.12892334700E+03  0.20337725265E+03  0.24478654944E+03  0.00000000000E+00 0.  1.
         22    1    3    3    0    0 -0.45502543577E+01 -0.17471002194E+02  0.13182516439E+03  0.13305568270E+03  0.00000000000E+00 0.  1.
</event>
<event>
 7    1  0.5575489E-006  0.1528262E+03  0.7818608E-02  0.1382306E+00
          2   -1    0    0  502    0  0.00000000000E+00  0.00000000000E+00  0.19705722428E+03  0.19705722428E+03  0.00000000000E+00 0. -1.
          1   -1    0    0  501    0 -0.00000000000E+00 -0.00000000000E+00 -0.61621516372E+03  0.61621516372E+03  0.00000000000E+00 0. -1.
         25    2    1    2    0    0 -0.31900372204E+02  0.14506196729E+03 -0.17720228944E+03  0.26283875447E+03  0.12499180520E+03 0.  0.
          2    1    1    2  501    0  0.25226102528E+02  0.87046767549E+01 -0.35717644415E+03  0.35817194182E+03  0.00000000000E+00 0. -1.
          1    1    1    2  502    0  0.66742696757E+01 -0.15376664405E+03  0.11522079415E+03  0.19226169172E+03  0.00000000000E+00 0. -1.
         22    1    3    3    0    0 -0.64611568775E+02  0.13437076293E+03 -0.17265986837E+03  0.22812625210E+03  0.00000000000E+00 0.  1.
         22    1    3    3    0    0  0.32711196571E+02  0.10691204367E+02 -0.45424210682E+01  0.34712502374E+02  0.00000000000E+00 0.  1.
</event>
<event>
 7    1  0.5575489E-006  0.9355746E+02  0.7818608E-02  0.1368977E+00
          2   -1    0    0  502    0  0.00000000000E+00  0.00000000000E+00  0.88117989672E+03  0.88117989672E+03  0.00000000000E+00 0. -1.
          1   -1    0    0  501    0 -0.00000000000E+00 -0.00000000000E+00 -0.56994659089E+03  0.56994659089E+03  0.00000000000E+00 0. -1.
         25    2    1    2    0    0 -0.27032298960E+02 -0.51560526304E+02 -0.25431598485E+02  0.14021990190E+03  0.12500248649E+03 0.  0.
          2    1    1    2  501    0  0.74557035942E+02  0.61875322639E+02 -0.48157398893E+03  0.49122379215E+03  0.00000000000E+00 0. -1.
          1    1    1    2  502    0 -0.47524736982E+02 -0.10314796336E+02  0.81823889325E+03  0.81968279357E+03  0.00000000000E+00 0. -1.
         22    1    3    3    0    0 -0.47188090075E+02 -0.35650863510E+02 -0.68239342388E+02  0.90301205770E+02  0.00000000000E+00 0. -1.
         22    1    3    3    0    0  0.20155791115E+02 -0.15909662793E+02  0.42807743902E+02  0.49918696134E+02  0.00000000000E+00 0. -1.
</event>
<event>
 7    1  0.5575489E-006  0.1277532E+03  0.7818608E-02  0.1273078E+00
          2   -1    0    0  502    0  0.00000000000E+00  0.00000000000E+00  0.59719943461E+03  0.59719943461E+03  0.00000000000E+00 0. -1.
          1   -1    0    0  501    0 -0.00000000000E+00 -0.00000000000E+00 -0.11649310002E+04  0.11649310002E+04  0.00000000000E+00 0. -1.
         25    2    1    2    0    0  0.17287165847E+03 -0.71329936574E+02  0.14216255067E+03  0.26610202745E+03  0.12501011177E+03 0.  0.
          2    1    1    2  501    0 -0.52803129003E+02  0.65163112630E+02 -0.10921222161E+04  0.10953380010E+04  0.00000000000E+00 0. -1.
          1    1    1    2  502    0 -0.12006852947E+03  0.61668239437E+01  0.38222809978E+03  0.40069040636E+03  0.00000000000E+00 0. -1.
         22    1    3    3    0    0  0.48285754340E+02  0.22079418604E+02  0.85014307490E+02  0.10023196734E+03  0.00000000000E+00 0. -1.
         22    1    3    3    0    0  0.12458590413E+03 -0.93409355178E+02  0.57148243180E+02  0.16587006011E+03  0.00000000000E+00 0. -1.
</event>
<event>
 7    1  0.5575489E-006  0.4524610E+02  0.7818608E-02  0.1496119E+00
          2   -1    0    0  502    0  0.00000000000E+00  0.00000000000E+00  0.10943861393E+04  0.10943861393E+04  0.00000000000E+00 0. -1.
          1   -1    0    0  501    0 -0.00000000000E+00 -0.00000000000E+00 -0.36288726307E+03  0.36288726307E+03  0.00000000000E+00 0. -1.
         25    2    1    2    0    0 -0.52390366717E+02  0.61051739657E+02  0.72891762332E+02  0.16556082117E+03  0.12500044420E+03 0.  0.
          2    1    1    2  501    0  0.36408154568E+02 -0.26117642750E+02 -0.31458627735E+03  0.31776124823E+03  0.00000000000E+00 0. -1.
          1    1    1    2  502    0  0.15982212149E+02 -0.34934096907E+02  0.97319339121E+03  0.97395133294E+03  0.00000000000E+00 0. -1.
         22    1    3    3    0    0 -0.58147268134E+02 -0.17884298523E+02  0.45730909891E+01  0.61007098655E+02  0.00000000000E+00 0. -1.
         22    1    3    3    0    0  0.57569014173E+01  0.78936038180E+02  0.68318671343E+02  0.10455372251E+03  0.00000000000E+00 0. -1.
</event>
<event>
 7    1  0.5575489E-006  0.3915100E+02  0.7818608E-02  0.1547167E+00
          2   -1    0    0  502    0  0.00000000000E+00  0.00000000000E+00  0.14123383833E+04  0.14123383833E+04  0.00000000000E+00 0. -1.
          1   -1    0    0  501    0 -0.00000000000E+00 -0.00000000000E+00 -0.68124554871E+03  0.68124554871E+03  0.00000000000E+00 0. -1.
         25    2    1    2    0    0 -0.60948534689E+02  0.30035067718E+02 -0.24067467222E+03  0.27957097723E+03  0.12497521469E+03 0.  0.
          2    1    1    2  501    0  0.30159604251E+02 -0.23013851732E+02 -0.42008885420E+03  0.42179839322E+03  0.00000000000E+00 0. -1.
          1    1    1    2  502    0  0.30788930437E+02 -0.70212159862E+01  0.13918563610E+04  0.13922145616E+04  0.00000000000E+00 0. -1.
         22    1    3    3    0    0 -0.87941889748E+02  0.22835854141E+02 -0.95824938020E+02  0.13205177376E+03  0.00000000000E+00 0. -1.
         22    1    3    3    0    0  0.26993355059E+02  0.71992135778E+01 -0.14484973420E+03  0.14751920347E+03  0.00000000000E+00 0. -1.
</event>
<event>
 7    1  0.5575489E-006  0.7833066E+02  0.7818608E-02  0.1386519E+00
          2   -1    0    0  502    0  0.00000000000E+00  0.00000000000E+00  0.12879441553E+04  0.12879441553E+04  0.00000000000E+00 0. -1.
          1   -1    0    0  501    0 -0.00000000000E+00 -0.00000000000E+00 -0.25084021945E+03  0.25084021945E+03  0.00000000000E+00 0. -1.
         25    2    1    2    0    0  0.21080273191E+01 -0.65743765638E+02  0.43839417538E+03  0.46058812058E+03  0.12500110923E+03 0.  0.
          2    1    1    2  501    0 -0.50290425387E+02 -0.16679769252E+01 -0.23502649297E+03  0.24035257734E+03  0.00000000000E+00 0. -1.
          1    1    1    2  502    0  0.48182398068E+02  0.67411742563E+02  0.83373625343E+03  0.83784367683E+03  0.00000000000E+00 0. -1.
         22    1    3    3    0    0 -0.87765005228E+01 -0.33455559418E+02  0.18330382765E+02  0.39144659275E+02  0.00000000000E+00 0. -1.
         22    1    3    3    0    0  0.10884527842E+02 -0.32288206219E+02  0.42006379261E+03  0.42144346130E+03  0.00000000000E+00 0. -1.
</event>
<event>
 7    1  0.5575489E-006  0.9601795E+02  0.7818608E-02  0.1416065E+00
          2   -1    0    0  502    0  0.00000000000E+00  0.00000000000E+00  0.92627881035E+02  0.92627881035E+02  0.00000000000E+00 0. -1.
          1   -1    0    0  501    0 -0.00000000000E+00 -0.00000000000E+00 -0.99895242846E+03  0.99895242846E+03  0.00000000000E+00 0. -1.
         25    2    1    2    0    0  0.92496281512E+02  0.43918323170E+02 -0.77924295725E+02  0.17939132171E+03  0.12499867695E+03 0.  0.
          2    1    1    2  501    0 -0.95250481300E+02 -0.11535218468E+02 -0.86089832339E+03  0.86622839868E+03  0.00000000000E+00 0. -1.
          1    1    1    2  502    0  0.27541997876E+01 -0.32383104702E+02  0.32498071696E+02  0.45960589102E+02  0.00000000000E+00 0. -1.
         22    1    3    3    0    0  0.96014449266E+02 -0.85340775575E+01 -0.15255453918E+02  0.97592693486E+02  0.00000000000E+00 0.  1.
         22    1    3    3    0    0 -0.35181677535E+01  0.52452400727E+02 -0.62668841807E+02  0.81798628227E+02  0.00000000000E+00 0.  1.
</event>
<event>
 7    1  0.5575489E-006  0.8020570E+02  0.7818608E-02  0.1384004E+00
          2   -1    0    0  502    0  0.00000000000E+00  0.00000000000E+00  0.55167341987E+02  0.55167341987E+02  0.00000000000E+00 0. -1.
          1   -1    0    0  501    0 -0.00000000000E+00 -0.00000000000E+00 -0.82705616187E+03  0.82705616187E+03  0.00000000000E+00 0. -1.
         25    2    1    2    0    0  0.26115261424E+02 -0.11036204138E+03 -0.16069624467E+03  0.23304591776E+03  0.12500131870E+03 0.  0.
          2    1    1    2  501    0 -0.29267274600E+02  0.40726183341E+02 -0.56110392791E+03  0.56334076125E+03  0.00000000000E+00 0. -1.
          1    1    1    2  502    0  0.31520131766E+01  0.69635858035E+02 -0.50088647297E+02  0.85836824844E+02  0.00000000000E+00 0. -1.
         22    1    3    3    0    0  0.21421576309E+02 -0.50703180969E+02  0.65354731945E+01  0.55429314463E+02  0.00000000000E+00 0. -1.
         22    1    3    3    0    0  0.46936851148E+01 -0.59658860407E+02 -0.16723171787E+03  0.17761660330E+03  0.00000000000E+00 0. -1.
</event>
<event>
 7    1  0.5575489E-006  0.7725134E+02  0.7818608E-02  0.1394941E+00
          2   -1    0    0  502    0  0.00000000000E+00  0.00000000000E+00  0.14621932293E+04  0.14621932293E+04  0.00000000000E+00 0. -1.
          1   -1    0    0  501    0 -0.00000000000E+00 -0.00000000000E+00 -0.13730177025E+03  0.13730177025E+03  0.00000000000E+00 0. -1.
         25    2    1    2    0    0  0.11139965355E+02  0.11061797412E+03  0.24772992900E+03  0.29892230632E+03  0.12499596980E+03 0.  0.
          2    1    1    2  501    0 -0.30009019194E+02 -0.37059618221E+02 -0.10534235390E+03  0.11563290215E+03  0.00000000000E+00 0. -1.
          1    1    1    2  502    0  0.18869053839E+02 -0.73558355900E+02  0.11825038839E+04  0.11849397910E+04  0.00000000000E+00 0. -1.
         22    1    3    3    0    0 -0.21278056676E+00  0.80635848405E+01  0.16885409132E+03  0.16904665283E+03  0.00000000000E+00 0. -1.
         22    1    3    3    0    0  0.11352745922E+02  0.10255438928E+03  0.78875837678E+02  0.12987565349E+03  0.00000000000E+00 0. -1.
</event>
<event>
 7    1  0.5575489E-006  0.5044392E+02  0.7818608E-02  0.1529202E+00
          2   -1    0    0  502    0  0.00000000000E+00  0.00000000000E+00  0.30717936782E+03  0.30717936782E+03  0.00000000000E+00 0. -1.
          1   -1    0    0  501    0 -0.00000000000E+00 -0.00000000000E+00 -0.29111589827E+03  0.29111589827E+03  0.00000000000E+00 0. -1.
         25    2    1    2    0    0  0.18953918312E+02  0.17721441700E+02 -0.69700401428E+02  0.14545476801E+03  0.12500257223E+03 0.  0.
          2    1    1    2  501    0  0.56711443846E+01  0.26968072351E+02 -0.18006363046E+03  0.18216023117E+03  0.00000000000E+00 0. -1.
          1    1    1    2  502    0 -0.24625062697E+02 -0.44689514051E+02  0.26582750143E+03  0.27068026692E+03  0.00000000000E+00 0. -1.
         22    1    3    3    0    0  0.37005915046E+02 -0.19085444005E+02 -0.90401279936E+02  0.99529308926E+02  0.00000000000E+00 0. -1.
         22    1    3    3    0    0 -0.18051996734E+02  0.36806885705E+02  0.20700878508E+02  0.45925459087E+02  0.00000000000E+00 0. -1.
</event>
<event>
 7    1  0.5575489E-006  0.3066256E+02  0.7818608E-02  0.1654182E+00
          2   -1    0    0  502    0  0.00000000000E+00  0.00000000000E+00  0.29364101527E+02  0.29364101527E+02  0.00000000000E+00 0. -1.
          1   -1    0    0  501    0 -0.00000000000E+00 -0.00000000000E+00 -0.17529527638E+04  0.17529527638E+04  0.00000000000E+00 0. -1.
         25    2    1    2    0    0 -0.24304934424E+02 -0.35589499212E+02 -0.30091226337E+03  0.32868020066E+03  0.12500056706E+03 0.  0.
          2    1    1    2  501    0  0.20434250439E+02  0.55547359180E+01 -0.14231916027E+04  0.14233491320E+04  0.00000000000E+00 0. -1.
          1    1    1    2  502    0  0.38706839850E+01  0.30034763295E+02  0.51520375106E+00  0.30287532676E+02  0.00000000000E+00 0. -1.
         22    1    3    3    0    0 -0.72905191562E+02 -0.40399291010E+02 -0.19328305430E+03  0.21048897536E+03  0.00000000000E+00 0. -1.
         22    1    3    3    0    0  0.48600257138E+02  0.48097917975E+01 -0.10762920908E+03  0.11819122530E+03  0.00000000000E+00 0. -1.
</event>
<event>
 7    1  0.5575489E-006  0.5011907E+02  0.7818608E-02  0.1554567E+00
          2   -1    0    0  502    0  0.00000000000E+00  0.00000000000E+00  0.59171172222E+03  0.59171172222E+03  0.00000000000E+00 0. -1.
          1   -1    0    0  501    0 -0.00000000000E+00 -0.00000000000E+00 -0.18990216660E+02  0.18990216660E+02  0.00000000000E+00 0. -1.
         25    2    1    2    0    0 -0.22767670016E+02  0.42389208821E+02  0.31887065702E+03  0.34585916261E+03  0.12499941051E+03 0.  0.
          2    1    1    2  501    0  0.21525771980E+02  0.94897882295E+01  0.85260174094E+02  0.88446097859E+02  0.00000000000E+00 0. -1.
          1    1    1    2  502    0  0.12418980357E+01 -0.51878997051E+02  0.16859067444E+03  0.17639667841E+03  0.00000000000E+00 0. -1.
         22    1    3    3    0    0 -0.74626364600E+00 -0.43920649017E+02  0.12531153857E+03  0.13278765763E+03  0.00000000000E+00 0.  1.
         22    1    3    3    0    0 -0.22021406370E+02  0.86309857838E+02  0.19355911845E+03  0.21307150498E+03  0.00000000000E+00 0.  1.
</event>
<event>
 7    1  0.5575489E-006  0.4450676E+02  0.7818608E-02  0.1571130E+00
          2   -1    0    0  502    0  0.00000000000E+00  0.00000000000E+00  0.64712263390E+03  0.64712263390E+03  0.00000000000E+00 0. -1.
          1   -1    0    0  501    0 -0.00000000000E+00 -0.00000000000E+00 -0.91613486872E+03  0.91613486872E+03  0.00000000000E+00 0. -1.
         25    2    1    2    0    0  0.16410721204E+02 -0.52835083582E+02  0.17084089665E+02  0.13776057074E+03  0.12500100361E+03 0.  0.
          2    1    1    2  501    0  0.57875206818E+01  0.44085307261E+02 -0.85496883751E+03  0.85612424497E+03  0.00000000000E+00 0. -1.
          1    1    1    2  502    0 -0.22198241886E+02  0.87497763210E+01  0.56887251302E+03  0.56937268691E+03  0.00000000000E+00 0. -1.
         22    1    3    3    0    0  0.68575672018E+02 -0.37092712175E+02 -0.68134932999E+01  0.78261841150E+02  0.00000000000E+00 0. -1.
         22    1    3    3    0    0 -0.52164950814E+02 -0.15742371407E+02  0.23897582964E+02  0.59498729587E+02  0.00000000000E+00 0. -1.
</event>
<event>
 7    1  0.5575489E-006  0.1455862E+03  0.7818608E-02  0.1248093E+00
          2   -1    0    0  502    0  0.00000000000E+00  0.00000000000E+00  0.62486769530E+03  0.62486769530E+03  0.00000000000E+00 0. -1.
          1   -1    0    0  501    0 -0.00000000000E+00 -0.00000000000E+00 -0.55581564556E+03  0.55581564556E+03  0.00000000000E+00 0. -1.
         25    2    1    2    0    0  0.10295169880E+03 -0.35511333833E+02 -0.56996168243E+02  0.17530792784E+03  0.12499679697E+03 0.  0.
          2    1    1    2  501    0 -0.15244672933E+03 -0.44474982233E+02 -0.42117956224E+03  0.45012248663E+03  0.00000000000E+00 0. -1.
          1    1    1    2  502    0  0.49495030536E+02  0.79986316066E+02  0.54722778023E+03  0.55525292638E+03  0.00000000000E+00 0. -1.
         22    1    3    3    0    0 -0.16659188208E+01  0.77093224574E+01 -0.61520071648E+02  0.62023609649E+02  0.00000000000E+00 0.  1.
         22    1    3    3    0    0  0.10461761762E+03 -0.43220656291E+02  0.45239034055E+01  0.11328431819E+03  0.00000000000E+00 0.  1.
</event>
<event>
 7    1  0.5575489E-006  0.1315992E+03  0.7818608E-02  0.1397745E+00
          2   -1    0    0  502    0  0.00000000000E+00  0.00000000000E+00  0.86254594257E+03  0.86254594257E+03  0.00000000000E+00 0. -1.
          1   -1    0    0  501    0 -0.00000000000E+00 -0.00000000000E+00 -0.21556259360E+03  0.21556259360E+03  0.00000000000E+00 0. -1.
         25    2    1    2    0    0 -0.78724961618E+02  0.13490137791E+03  0.64049021961E+03  0.67100582991E+03  0.12500040405E+03 0.  0.
          2    1    1    2  501    0  0.73853199307E+02 -0.10796364097E+03 -0.17783011717E+03  0.22075777086E+03  0.00000000000E+00 0. -1.
          1    1    1    2  502    0  0.48717623111E+01 -0.26937736939E+02  0.18432324653E+03  0.18634493540E+03  0.00000000000E+00 0. -1.
         22    1    3    3    0    0  0.94939977044E+01  0.10532749789E+03  0.30303139024E+03  0.32095488978E+03  0.00000000000E+00 0.  1.
         22    1    3    3    0    0 -0.88218959323E+02  0.29573880018E+02  0.33745882938E+03  0.35005094013E+03  0.00000000000E+00 0.  1.
</event>
<event>
 7    1  0.5575489E-006  0.4882970E+02  0.7818608E-02  0.1455493E+00
          2   -1    0    0  502    0  0.00000000000E+00  0.00000000000E+00  0.19714326596E+02  0.19714326596E+02  0.00000000000E+00 0. -1.
          1   -1    0    0  501    0 -0.00000000000E+00 -0.00000000000E+00 -0.17462937386E+04  0.17462937386E+04  0.00000000000E+00 0. -1.
         25    2    1    2    0    0 -0.57782760527E+02 -0.32850086570E+02 -0.42957139500E+03  0.45230040058E+03  0.12500437336E+03 0.  0.
          2    1    1    2  501    0  0.12509416152E+02  0.47259436673E+02 -0.12331263390E+04  0.12340950157E+04  0.00000000000E+00 0. -1.
          1    1    1    2  502    0  0.45273344375E+02 -0.14409350103E+02 -0.63881677966E+02  0.79612648876E+02  0.00000000000E+00 0. -1.
         22    1    3    3    0    0 -0.66007743664E+02  0.14582103040E+02 -0.36792965991E+03  0.37408808401E+03  0.00000000000E+00 0.  1.
         22    1    3    3    0    0  0.82249831376E+01 -0.47432189610E+02 -0.61641735087E+02  0.78212316571E+02  0.00000000000E+00 0.  1.
</event>
<event>
 7    1  0.5575489E-006  0.1292716E+03  0.7818608E-02  0.1260472E+00
          2   -1    0    0  502    0  0.00000000000E+00  0.00000000000E+00  0.25536667590E+03  0.25536667590E+03  0.00000000000E+00 0. -1.
          1   -1    0    0  501    0 -0.00000000000E+00 -0.00000000000E+00 -0.22866830052E+04  0.22866830052E+04  0.00000000000E+00 0. -1.
         25    2    1    2    0    0 -0.98106183165E+02 -0.29177474553E+02 -0.93296441653E+01  0.16183376814E+03  0.12500791196E+03 0.  0.
          2    1    1    2  501    0 -0.35370110526E+02  0.86758078428E+02 -0.21704290089E+04  0.21724502507E+04  0.00000000000E+00 0. -1.
          1    1    1    2  502    0  0.13347629369E+03 -0.57580603875E+02  0.14844232380E+03  0.20776566226E+03  0.00000000000E+00 0. -1.
         22    1    3    3    0    0  0.84610354846E+01  0.35775819885E+02 -0.20782184878E+01  0.36821425855E+02  0.00000000000E+00 0.  1.
         22    1    3    3    0    0 -0.10656721865E+03 -0.64953294438E+02 -0.72514256775E+01  0.12501234228E+03  0.00000000000E+00 0.  1.
</event>
<event>
 7    1  0.5575489E-006  0.7123740E+02  0.7818608E-02  0.1415007E+00
          2   -1    0    0  502    0  0.00000000000E+00  0.00000000000E+00  0.57462282580E+03  0.57462282580E+03  0.00000000000E+00 0. -1.
          1   -1    0    0  501    0 -0.00000000000E+00 -0.00000000000E+00 -0.20794747325E+03  0.20794747325E+03  0.00000000000E+00 0. -1.
         25    2    1    2    0    0 -0.78222827139E+02 -0.75303346233E+02  0.28774815172E+03  0.33198455732E+03  0.12500137135E+03 0.  0.
          2    1    1    2  501    0  0.29971382909E+02  0.32439341549E+02 -0.17917415511E+03  0.18453718469E+03  0.00000000000E+00 0. -1.
          1    1    1    2  502    0  0.48251444230E+02  0.42864004684E+02  0.25810135594E+03  0.26604855704E+03  0.00000000000E+00 0. -1.
         22    1    3    3    0    0 -0.95189872215E+02 -0.76328213094E+01  0.15610540952E+03  0.18299800713E+03  0.00000000000E+00 0.  1.
         22    1    3    3    0    0  0.16967045076E+02 -0.67670524924E+02  0.13164274221E+03  0.14898655019E+03  0.00000000000E+00 0.  1.
</event>
<event>
 7    1  0.5575489E-006  0.7622580E+02  0.7818608E-02  0.1356167E+00
          2   -1    0    0  502    0  0.00000000000E+00  0.00000000000E+00  0.63226454595E+03  0.63226454595E+03  0.00000000000E+00 0. -1.
          1   -1    0    0  501    0 -0.00000000000E+00 -0.00000000000E+00 -0.17026788366E+03  0.17026788366E+03  0.00000000000E+00 0. -1.
         25    2    1    2    0    0  0.36749112645E+02 -0.61719637928E+02  0.16438258325E+03  0.21864649580E+03  0.12499938185E+03 0.  0.
          2    1    1    2  501    0 -0.77450350053E+02  0.91998024765E+01 -0.12974980300E+03  0.15138759681E+03  0.00000000000E+00 0. -1.
          1    1    1    2  502    0  0.40701237408E+02  0.52519835452E+02  0.42736388204E+03  0.43249833701E+03  0.00000000000E+00 0. -1.
         22    1    3    3    0    0  0.31235478038E+01 -0.28295722009E+01  0.14906455161E+03  0.14912412138E+03  0.00000000000E+00 0.  1.
         22    1    3    3    0    0  0.33625564841E+02 -0.58890065728E+02  0.15318031640E+02  0.69522374424E+02  0.00000000000E+00 0.  1.
</event>
<event>
 7    1  0.5575489E-006  0.1113714E+03  0.7818608E-02  0.1280029E+00
          2   -1    0    0  502    0  0.00000000000E+00  0.00000000000E+00  0.59755311617E+03  0.59755311617E+03  0.00000000000E+00 0. -1.
          1   -1    0    0  501    0 -0.00000000000E+00 -0.00000000000E+00 -0.28688264947E+03  0.28688264947E+03  0.00000000000E+00 0. -1.
         25    2    1    2    0    0 -0.13365708297E+02 -0.45109855617E+02  0.13230007462E+03  0.18798960983E+03  0.12499296951E+03 0.  0.
          2    1    1    2  501    0 -0.40425542263E+02 -0.80430096041E+02 -0.24001073734E+03  0.25633645635E+03  0.00000000000E+00 0. -1.
          1    1    1    2  502    0  0.53791250561E+02  0.12553995166E+03  0.41838112942E+03  0.44010969946E+03  0.00000000000E+00 0. -1.
         22    1    3    3    0    0 -0.32440228757E+02 -0.48921030269E+02  0.15038168789E+03  0.16143199093E+03  0.00000000000E+00 0. -1.
         22    1    3    3    0    0  0.19074520459E+02  0.38111746519E+01 -0.18081613269E+02  0.26557618896E+02  0.00000000000E+00 0. -1.
</event>
<event>
 7    1  0.5575489E-006  0.2085596E+03  0.7818608E-02  0.1326451E+00
          2   -1    0    0  502    0  0.00000000000E+00  0.00000000000E+00  0.14844781988E+04  0.14844781988E+04  0.00000000000E+00 0. -1.
          1   -1    0    0  501    0 -0.00000000000E+00 -0.00000000000E+00 -0.16469100951E+03  0.16469100951E+03  0.00000000000E+00 0. -1.
         25    2    1    2    0    0  0.19645828671E+03  0.14022413391E+02  0.84181834714E+03  0.87354168255E+03  0.12499782031E+03 0.  0.
          2    1    1    2  501    0 -0.20920491608E+03  0.14673082983E+02 -0.74281433399E+02  0.22248534249E+03  0.00000000000E+00 0. -1.
          1    1    1    2  502    0  0.12746629373E+02 -0.28695496374E+02  0.55225027557E+03  0.55314218330E+03  0.00000000000E+00 0. -1.
         22    1    3    3    0    0  0.17008754583E+03  0.22832713101E+02  0.46429532759E+03  0.49499621943E+03  0.00000000000E+00 0. -1.
         22    1    3    3    0    0  0.26370740875E+02 -0.88102997101E+01  0.37752301955E+03  0.37854546312E+03  0.00000000000E+00 0. -1.
</event>
<event>
 7    1  0.5575489E-006  0.5705995E+02  0.7818608E-02  0.1425765E+00
          2   -1    0    0  502    0  0.00000000000E+00  0.00000000000E+00  0.16461331588E+03  0.16461331588E+03  0.00000000000E+00 0. -1.
          1   -1    0    0  501    0 -0.00000000000E+00 -0.00000000000E+00 -0.66526442436E+03  0.66526442436E+03  0.00000000000E+00 0. -1.
         25    2    1    2    0    0 -0.22496632205E+02  0.81470717678E+02 -0.27667384111E+03  0.31514534697E+03  0.12499839622E+03 0.  0.
          2    1    1    2  501    0 -0.21788231601E+02 -0.45849570434E+02 -0.36196063442E+03  0.36550295623E+03  0.00000000000E+00 0. -1.
          1    1    1    2  502    0  0.44284863806E+02 -0.35621147245E+02  0.13798336706E+03  0.14922943703E+03  0.00000000000E+00 0. -1.
         22    1    3    3    0    0  0.52036434375E+02  0.27389364031E+02 -0.10791278248E+03  0.12289481839E+03  0.00000000000E+00 0.  1.
         22    1    3    3    0    0 -0.74533066581E+02  0.54081353648E+02 -0.16876105863E+03  0.19225052857E+03  0.00000000000E+00 0.  1.
</event>
<event>
 7    1  0.5575489E-006  0.9173554E+02  0.7818608E-02  0.1331658E+00
          2   -1    0    0  502    0  0.00000000000E+00  0.00000000000E+00  0.66960394994E+03  0.66960394994E+03  0.00000000000E+00 0. -1.
          1   -1    0    0  501    0 -0.00000000000E+00 -0.00000000000E+00 -0.67186259383E+03  0.67186259383E+03  0.00000000000E+00 0. -1.
         25    2    1    2    0    0 -0.12916150088E+03  0.66492367584E+02 -0.31797189048E+03  0.37126148377E+03  0.12500015176E+03 0.  0.
          2    1    1    2  501    0  0.62275676264E+02 -0.53245718609E+02 -0.32026615201E+03  0.33058096516E+03  0.00000000000E+00 0. -1.
          1    1    1    2  502    0  0.66885824611E+02 -0.13246648976E+02  0.63597939860E+03  0.63962409483E+03  0.00000000000E+00 0. -1.
         22    1    3    3    0    0 -0.28632377481E+02 -0.32248366996E+02 -0.12563575498E+03  0.13283114523E+03  0.00000000000E+00 0.  1.
         22    1    3    3    0    0 -0.10052912339E+03  0.98740734581E+02 -0.19233613551E+03  0.23843033854E+03  0.00000000000E+00 0.  1.
</event>
<event>
 7    1  0.5575489E-006  0.6967795E+02  0.7818608E-02  0.1382646E+00
          2   -1    0    0  502    0  0.00000000000E+00  0.00000000000E+00  0.23489230740E+04  0.23489230740E+04  0.00000000000E+00 0. -1.
          1   -1    0    0  501    0 -0.00000000000E+00 -0.00000000000E+00 -0.36982206860E+03  0.36982206860E+03  0.00000000000E+00 0. -1.
         25    2    1    2    0    0  0.16948542529E+02  0.10417089955E+03  0.22455106626E+03  0.27782276315E+03  0.12499390769E+03 0.  0.
          2    1    1    2  501    0 -0.44876779910E+02 -0.52917120326E+02 -0.33926840357E+03  0.34629062456E+03  0.00000000000E+00 0. -1.
          1    1    1    2  502    0  0.27928237381E+02 -0.51253779220E+02  0.20938183427E+04  0.20946317548E+04  0.00000000000E+00 0. -1.
         22    1    3    3    0    0 -0.12342983048E+02  0.96259999088E+02  0.22750376861E+03  0.24733843491E+03  0.00000000000E+00 0.  1.
         22    1    3    3    0    0  0.29291525577E+02  0.79109004579E+01 -0.29527023509E+01  0.30484328234E+02  0.00000000000E+00 0.  1.
</event>
<event>
 7    1  0.5575489E-006  0.5507289E+02  0.7818608E-02  0.1462504E+00
          2   -1    0    0  502    0  0.00000000000E+00  0.00000000000E+00  0.55952482215E+03  0.55952482215E+03  0.00000000000E+00 0. -1.
          1   -1    0    0  501    0 -0.00000000000E+00 -0.00000000000E+00 -0.16397037429E+04  0.16397037429E+04  0.00000000000E+00 0. -1.
         25    2    1    2    0    0  0.53480045815E+01 -0.47507911709E+02 -0.40902794644E+03  0.43037249754E+03  0.12502408905E+03 0.  0.
          2    1    1    2  501    0  0.34565533396E+02  0.44449773096E+02 -0.12186226574E+04  0.12199228417E+04  0.00000000000E+00 0. -1.
          1    1    1    2  502    0 -0.39913537978E+02  0.30581386133E+01  0.54747168307E+03  0.54893322589E+03  0.00000000000E+00 0. -1.
         22    1    3    3    0    0  0.40771004013E+02 -0.74388951546E+02 -0.21100891273E+03  0.22742196932E+03  0.00000000000E+00 0.  1.
         22    1    3    3    0    0 -0.35422999432E+02  0.26881039837E+02 -0.19801903372E+03  0.20295052822E+03  0.00000000000E+00 0.  1.
</event>
<event>
 7    1  0.5575489E-006  0.3265996E+02  0.7818608E-02  0.1595959E+00
          2   -1    0    0  502    0  0.00000000000E+00  0.00000000000E+00  0.16536836927E+04  0.16536836927E+04  0.00000000000E+00 0. -1.
          1   -1    0    0  501    0 -0.00000000000E+00 -0.00000000000E+00 -0.45008652691E+03  0.45008652691E+03  0.00000000000E+00 0. -1.
         25    2    1    2    0    0 -0.20032086575E+02  0.55303542412E+02  0.30753560664E+03  0.33713666543E+03  0.12499286190E+03 0.  0.
          2    1    1    2  501    0  0.31462978399E+01 -0.27735446250E+02 -0.43464197992E+03  0.43553737483E+03  0.00000000000E+00 0. -1.
          1    1    1    2  502    0  0.16885788735E+02 -0.27568096162E+02  0.13307035391E+04  0.13310961794E+04  0.00000000000E+00 0. -1.
         22    1    3    3    0    0  0.34430862759E+02  0.66046852421E+02  0.11714903287E+03  0.13882206931E+03  0.00000000000E+00 0. -1.
         22    1    3    3    0    0 -0.54462949334E+02 -0.10743310009E+02  0.19038657377E+03  0.19831459611E+03  0.00000000000E+00 0. -1.
</event>
<event>
 7    1  0.5575489E-006  0.4741768E+02  0.7818608E-02  0.1504181E+00
          2   -1    0    0  502    0  0.00000000000E+00  0.00000000000E+00  0.78082562298E+03  0.78082562298E+03  0.00000000000E+00 0. -1.
          1   -1    0    0  501    0 -0.00000000000E+00 -0.00000000000E+00 -0.50888569154E+02  0.50888569154E+02  0.00000000000E+00 0. -1.
         25    2    1    2    0    0 -0.66669960474E+02  0.44521826848E+02  0.28098795290E+03  0.31781488421E+03  0.12499997701E+03 0.  0.
          2    1    1    2  501    0  0.36561401689E+02 -0.27307930636E+02 -0.15471635798E+02  0.48185378315E+02  0.00000000000E+00 0. -1.
          1    1    1    2  502    0  0.30108558785E+02 -0.17213896211E+02  0.46442073673E+03  0.46571392962E+03  0.00000000000E+00 0. -1.
         22    1    3    3    0    0 -0.32038629938E+00  0.26180157250E+02  0.23164245362E+03  0.23311741591E+03  0.00000000000E+00 0.  1.
         22    1    3    3    0    0 -0.66349574174E+02  0.18341669597E+02  0.49345499276E+02  0.84697468295E+02  0.00000000000E+00 0.  1.
</event>
<event>
 7    1  0.5575489E-006  0.1364621E+03  0.7818608E-02  0.1236488E+00
          2   -1    0    0  502    0  0.00000000000E+00  0.00000000000E+00  0.51341884470E+03  0.51341884470E+03  0.00000000000E+00 0. -1.
          1   -1    0    0  501    0 -0.00000000000E+00 -0.00000000000E+00 -0.11275081415E+03  0.11275081415E+03  0.00000000000E+00 0. -1.
         25    2    1    2    0    0  0.67231347613E+02  0.62546774332E+02  0.19791341592E+03  0.25144925796E+03  0.12499942419E+03 0.  0.
          2    1    1    2  501    0 -0.15896336623E+02 -0.16304686401E+03  0.27259900130E+02  0.16607250084E+03  0.00000000000E+00 0. -1.
          1    1    1    2  502    0 -0.51335010990E+02  0.10050008968E+03  0.17549471450E+03  0.20864790005E+03  0.00000000000E+00 0. -1.
         22    1    3    3    0    0  0.54206348006E+02  0.93900635985E+02  0.98818730221E+02  0.14669969000E+03  0.00000000000E+00 0.  1.
         22    1    3    3    0    0  0.13024999607E+02 -0.31353861653E+02  0.99094685696E+02  0.10474956796E+03  0.00000000000E+00 0.  1.
</event>
<event>
 7    1  0.5575489E-006  0.9170535E+02  0.7818608E-02  0.1471465E+00
          2   -1    0    0  502    0  0.00000000000E+00  0.00000000000E+00  0.72714108542E+03  0.72714108542E+03  0.00000000000E+00 0. -1.
          1   -1    0    0  501    0 -0.00000000000E+00 -0.00000000000E+00 -0.46275785625E+03  0.46275785625E+03  0.00000000000E+00 0. -1.
         25    2    1    2    0    0 -0.77570709846E+02 -0.72481694640E+02  0.30441595231E+03  0.34578155040E+03  0.12499998998E+03 0.  0.
          2    1    1    2  501    0  0.22285676693E+02  0.33721571693E+01 -0.43691055419E+03  0.43749154871E+03  0.00000000000E+00 0. -1.
          1    1    1    2  502    0  0.55285033154E+02  0.69109537471E+02  0.39687783105E+03  0.40662584256E+03  0.00000000000E+00 0. -1.
         22    1    3    3    0    0 -0.67431779126E+02 -0.10780503312E+03  0.24091237624E+03  0.27241098184E+03  0.00000000000E+00 0. -1.
         22    1    3    3    0    0 -0.10138930720E+02  0.35323338478E+02  0.63503576070E+02  0.73370568562E+02  0.00000000000E+00 0. -1.
</event>
<event>
 7    1  0.5575489E-006  0.1106568E+03  0.7818608E-02  0.1399090E+00
          2   -1    0    0  502    0  0.00000000000E+00  0.00000000000E+00  0.18052557323E+04  0.18052557323E+04  0.00000000000E+00 0. -1.
          1   -1    0    0  501    0 -0.00000000000E+00 -0.00000000000E+00 -0.10208171043E+03  0.10208171043E+03  0.00000000000E+00 0. -1.
         25    2    1    2    0    0  0.13683397834E+03  0.13685499999E+02  0.67712986584E+03  0.70216850206E+03  0.12499967815E+03 0.  0.
          2    1    1    2  501    0 -0.32089755434E+02 -0.27775703534E+01 -0.84091653193E+02  0.90049283382E+02  0.00000000000E+00 0. -1.
          1    1    1    2  502    0 -0.10474422291E+03 -0.10907929646E+02  0.11101358092E+04  0.11151196573E+04  0.00000000000E+00 0. -1.
         22    1    3    3    0    0  0.13229678244E+02 -0.46230299135E+02  0.19623819096E+03  0.20204378866E+03  0.00000000000E+00 0.  1.
         22    1    3    3    0    0  0.12360430010E+03  0.59915799134E+02  0.48089167488E+03  0.50012471340E+03  0.00000000000E+00 0.  1.
</event>
<event>
 7    1  0.5575489E-006  0.5009402E+02  0.7818608E-02  0.1565673E+00
          2   -1    0    0  502    0  0.00000000000E+00  0.00000000000E+00  0.28944795084E+04  0.28944795084E+04  0.00000000000E+00 0. -1.
          1   -1    0    0  501    0 -0.00000000000E+00 -0.00000000000E+00 -0.54019803476E+03  0.54019803476E+03  0.00000000000E+00 0. -1.
         25    2    1    2    0    0  0.95656256814E+01  0.60226036054E+02  0.49426229030E+03  0.51345766804E+03  0.12499955456E+03 0.  0.
          2    1    1    2  501    0  0.14458510576E+02 -0.16497800305E+02 -0.53011315194E+03  0.53056684762E+03  0.00000000000E+00 0. -1.
          1    1    1    2  502    0 -0.24024136257E+02 -0.43728235748E+02  0.23901323353E+04  0.23906530275E+04  0.00000000000E+00 0. -1.
         22    1    3    3    0    0  0.33227489359E+02  0.50632775571E+02  0.48078890942E+03  0.48458819572E+03  0.00000000000E+00 0. -1.
         22    1    3    3    0    0 -0.23661863678E+02  0.95932604824E+01  0.13473380878E+02  0.28869472314E+02  0.00000000000E+00 0. -1.
</event>
<event>
 7    1  0.5575489E-006  0.2757247E+03  0.7818608E-02  0.1269877E+00
          2   -1    0    0  502    0  0.00000000000E+00  0.00000000000E+00  0.98407933822E+03  0.98407933822E+03  0.00000000000E+00 0. -1.
          1   -1    0    0  501    0 -0.00000000000E+00 -0.00000000000E+00 -0.19791864596E+03  0.19791864596E+03  0.00000000000E+00 0. -1.
         25    2    1    2    0    0  0.28160262656E+03  0.59123931750E+02  0.12377454914E+03  0.33725508634E+03  0.12500070262E+03 0.  0.
          2    1    1    2  501    0 -0.23904395885E+02  0.32170604141E+02 -0.60112449731E+02  0.72248699131E+02  0.00000000000E+00 0. -1.
          1    1    1    2  502    0 -0.25769823068E+03 -0.91294535890E+02  0.72249859285E+03  0.77249419871E+03  0.00000000000E+00 0. -1.
         22    1    3    3    0    0  0.28792050259E+03  0.56250056733E+02  0.13587744740E+03  0.32330320971E+03  0.00000000000E+00 0.  1.
         22    1    3    3    0    0 -0.63178760310E+01  0.28738750170E+01 -0.12102898262E+02  0.13951876630E+02  0.00000000000E+00 0.  1.
</event>
<event>
 7    1  0.5575489E-006  0.4663851E+02  0.7818608E-02  0.1481434E+00
          2   -1    0    0  502    0  0.00000000000E+00  0.00000000000E+00  0.90157415222E+03  0.90157415222E+03  0.00000000000E+00 0. -1.
          1   -1    0    0  501    0 -0.00000000000E+00 -0.00000000000E+00 -0.34245474453E+03  0.34245474453E+03  0.00000000000E+00 0. -1.
         25    2    1    2    0    0  0.49508966186E+02 -0.49244497682E+02 -0.16898088199E+03  0.22148530341E+03  0.12500017145E+03 0.  0.
          2    1    1    2  501    0 -0.41151517999E+02  0.33957147893E+01 -0.14369170383E+03  0.14950680272E+03  0.00000000000E+00 0. -1.
          1    1    1    2  502    0 -0.83574481868E+01  0.45848782893E+02  0.87179199351E+03  0.87303679062E+03  0.00000000000E+00 0. -1.
         22    1    3    3    0    0  0.33699618867E+02  0.12121894839E+02 -0.15160288475E+03  0.15577560563E+03  0.00000000000E+00 0.  1.
         22    1    3    3    0    0  0.15809347319E+02 -0.61366392521E+02 -0.17377997242E+02  0.65709697776E+02  0.00000000000E+00 0.  1.
</event>
<event>
 7    1  0.5575489E-006  0.1543514E+03  0.7818608E-02  0.1298564E+00
          2   -1    0    0  502    0  0.00000000000E+00  0.00000000000E+00  0.23029537330E+03  0.23029537330E+03  0.00000000000E+00 0. -1.
          1   -1    0    0  501    0 -0.00000000000E+00 -0.00000000000E+00 -0.29694107583E+04  0.29694107583E+04  0.00000000000E+00 0. -1.
         25    2    1    2    0    0  0.80204238390E+02  0.17430709568E+03 -0.31400259213E+03  0.38863567214E+03  0.12499749732E+03 0.  0.
          2    1    1    2  501    0 -0.47842391851E+02 -0.26291486900E+02 -0.25880204599E+04  0.25885961519E+04  0.00000000000E+00 0. -1.
          1    1    1    2  502    0 -0.32361846540E+02 -0.14801560878E+03  0.16290766702E+03  0.22247430757E+03  0.00000000000E+00 0. -1.
         22    1    3    3    0    0  0.78089831202E+02  0.29906869792E+02 -0.98346216775E+02  0.12909074696E+03  0.00000000000E+00 0.  1.
         22    1    3    3    0    0  0.21144071884E+01  0.14440022589E+03 -0.21565637535E+03  0.25954492517E+03  0.00000000000E+00 0.  1.
</event>
<event>
 7    1  0.5575489E-006  0.1447013E+03  0.7818608E-02  0.1283026E+00
          2   -1    0    0  502    0  0.00000000000E+00  0.00000000000E+00  0.64763829033E+03  0.64763829033E+03  0.00000000000E+00 0. -1.
          1   -1    0    0  501    0 -0.00000000000E+00 -0.00000000000E+00 -0.51169698955E+03  0.51169698955E+03  0.00000000000E+00 0. -1.
         25    2    1    2    0    0  0.15265692280E+03  0.14576257158E+02 -0.20759992523E+03  0.28677436335E+03  0.12500081268E+03 0.  0.
          2    1    1    2  501    0 -0.12424277181E+03 -0.75628445044E+02 -0.24243926505E+03  0.28272376144E+03  0.00000000000E+00 0. -1.
          1    1    1    2  502    0 -0.28414150992E+02  0.61052187886E+02  0.58598049106E+03  0.58983715509E+03  0.00000000000E+00 0. -1.
         22    1    3    3    0    0  0.87860382259E+02  0.69481200710E+02 -0.13146931477E+03  0.17271729719E+03  0.00000000000E+00 0.  1.
         22    1    3    3    0    0  0.64796540542E+02 -0.54904943552E+02 -0.76130610455E+02  0.11405706616E+03  0.00000000000E+00 0.  1.
</event>
<event>
 7    1  0.5575489E-006  0.8834454E+02  0.7818608E-02  0.1481547E+00
          2   -1    0    0  502    0  0.00000000000E+00  0.00000000000E+00  0.19252642629E+04  0.19252642629E+04  0.00000000000E+00 0. -1.
          1   -1    0    0  501    0 -0.00000000000E+00 -0.00000000000E+00 -0.83679002110E+02  0.83679002110E+02  0.00000000000E+00 0. -1.
         25    2    1    2    0    0  0.87597361411E+02  0.62122326155E+02  0.13528727006E+04  0.13628727935E+04  0.12500090522E+03 0.  0.
          2    1    1    2  501    0 -0.66214787177E+02 -0.57974790910E+02 -0.53780855059E+02  0.10313997670E+03  0.00000000000E+00 0. -1.
          1    1    1    2  502    0 -0.21382574235E+02 -0.41475352445E+01  0.54249341528E+03  0.54293049477E+03  0.00000000000E+00 0. -1.
         22    1    3    3    0    0  0.89017022937E+02  0.62263904895E+02  0.58511456653E+03  0.59511333390E+03  0.00000000000E+00 0.  1.
         22    1    3    3    0    0 -0.14196615263E+01 -0.14157874051E+00  0.76775813403E+03  0.76775945963E+03  0.00000000000E+00 0.  1.
</event>
<event>
 7    1  0.5575489E-006  0.6357554E+02  0.7818608E-02  0.1491197E+00
          2   -1    0    0  502    0  0.00000000000E+00  0.00000000000E+00  0.10613333010E+04  0.10613333010E+04  0.00000000000E+00 0. -1.
          1   -1    0    0  501    0 -0.00000000000E+00 -0.00000000000E+00 -0.23938551805E+02  0.23938551805E+02  0.00000000000E+00 0. -1.
         25    2    1    2    0    0  0.10872861697E+02 -0.83319352809E+02  0.67339719810E+03  0.69003558751E+03  0.12499996784E+03 0.  0.
          2    1    1    2  501    0  0.70856778455E+01  0.61460962177E+02  0.48869284216E+02  0.78840748614E+02  0.00000000000E+00 0. -1.
          1    1    1    2  502    0 -0.17958539542E+02  0.21858390632E+02  0.31512826686E+03  0.31639551666E+03  0.00000000000E+00 0. -1.
         22    1    3    3    0    0 -0.24412436688E+02  0.25969727473E+02  0.17198212394E+03  0.17563668399E+03  0.00000000000E+00 0.  1.
         22    1    3    3    0    0  0.35285298385E+02 -0.10928908028E+03  0.50141507416E+03  0.51439890352E+03  0.00000000000E+00 0.  1.
</event>
<event>
 7    1  0.5575489E-006  0.4186357E+03  0.7818608E-02  0.1241144E+00
          2   -1    0    0  502    0  0.00000000000E+00  0.00000000000E+00  0.82514051973E+03  0.82514051973E+03  0.00000000000E+00 0. -1.
          1   -1    0    0  501    0 -0.00000000000E+00 -0.00000000000E+00 -0.91952207802E+03  0.91952207802E+03  0.00000000000E+00 0. -1.
         25    2    1    2    0    0  0.42514397251E+03  0.74484785746E+02  0.60703394307E+01  0.44939650086E+03  0.12499994121E+03 0.  0.
          2    1    1    2  501    0 -0.40276239785E+03 -0.10150237549E+03 -0.63543006630E+03  0.75913875577E+03  0.00000000000E+00 0. -1.
          1    1    1    2  502    0 -0.22381574656E+02  0.27017589740E+02  0.53497816858E+03  0.53612734112E+03  0.00000000000E+00 0. -1.
         22    1    3    3    0    0  0.37570426906E+03  0.78562124606E+02  0.44834041461E+02  0.38643990022E+03  0.00000000000E+00 0.  1.
         22    1    3    3    0    0  0.49439703450E+02 -0.40773388604E+01 -0.38763702030E+02  0.62956600643E+02  0.00000000000E+00 0.  1.
</event>
<event>
 7    1  0.5575489E-006  0.7835428E+02  0.7818608E-02  0.1340125E+00
          2   -1    0    0  502    0  0.00000000000E+00  0.00000000000E+00  0.26278844157E+04  0.26278844157E+04  0.00000000000E+00 0. -1.
          1   -1    0    0  501    0 -0.00000000000E+00 -0.00000000000E+00 -0.65707297959E+03  0.65707297959E+03  0.00000000000E+00 0. -1.
         25    2    1    2    0    0  0.91736473527E+02  0.11846506970E+03  0.45476764557E+03  0.49486165964E+03  0.12499958963E+03 0.  0.
          2    1    1    2  501    0 -0.36599073960E+02 -0.68886366017E+02 -0.63399647196E+03  0.63877723041E+03  0.00000000000E+00 0. -1.
          1    1    1    2  502    0 -0.55137399567E+02 -0.49578703681E+02  0.21500402625E+04  0.21513185052E+04  0.00000000000E+00 0. -1.
         22    1    3    3    0    0  0.83096050234E+02  0.93369196952E+02  0.18188861940E+03  0.22069488071E+03  0.00000000000E+00 0. -1.
         22    1    3    3    0    0  0.86404232926E+01  0.25095872746E+02  0.27287902617E+03  0.27416677893E+03  0.00000000000E+00 0. -1.
</event>
<event>
 7    1  0.5575489E-006  0.4213737E+02  0.7818608E-02  0.1597157E+00
          2   -1    0    0  502    0  0.00000000000E+00  0.00000000000E+00  0.20302390916E+03  0.20302390916E+03  0.00000000000E+00 0. -1.
          1   -1    0    0  501    0 -0.00000000000E+00 -0.00000000000E+00 -0.34603690845E+03  0.34603690845E+03  0.00000000000E+00 0. -1.
         25    2    1    2    0    0 -0.46369183181E+02  0.11236470964E+02 -0.19045580633E+03  0.23273847984E+03  0.12496970194E+03 0.  0.
          2    1    1    2  501    0  0.40854411682E+02  0.95226793114E+01 -0.13050575263E+03  0.13708214999E+03  0.00000000000E+00 0. -1.
          1    1    1    2  502    0  0.55147714991E+01 -0.20759150275E+02  0.17794855968E+03  0.17924018778E+03  0.00000000000E+00 0. -1.
         22    1    3    3    0    0 -0.46208248316E+02  0.49304097975E+02 -0.42187191176E+02  0.79660877404E+02  0.00000000000E+00 0. -1.
         22    1    3    3    0    0 -0.16093486515E+00 -0.38067627011E+02 -0.14826861516E+03  0.15307760243E+03  0.00000000000E+00 0. -1.
</event>
<event>
 7    1  0.5575489E-006  0.3622510E+02  0.7818608E-02  0.1549843E+00
          2   -1    0    0  502    0  0.00000000000E+00  0.00000000000E+00  0.11178391840E+03  0.11178391840E+03  0.00000000000E+00 0. -1.
          1   -1    0    0  501    0 -0.00000000000E+00 -0.00000000000E+00 -0.13038428087E+04  0.13038428087E+04  0.00000000000E+00 0. -1.
         25    2    1    2    0    0 -0.92363903509E+00  0.64121280848E+02 -0.45730134234E+03  0.47839610674E+03  0.12500370180E+03 0.  0.
          2    1    1    2  501    0  0.13095275866E+02 -0.32860039994E+02 -0.83282913125E+03  0.83358000836E+03  0.00000000000E+00 0. -1.
          1    1    1    2  502    0 -0.12171636831E+02 -0.31261240854E+02  0.98071583281E+02  0.10365061201E+03  0.00000000000E+00 0. -1.
         22    1    3    3    0    0  0.35103513318E+02  0.89687816851E+02 -0.31502970890E+03  0.32942355506E+03  0.00000000000E+00 0. -1.
         22    1    3    3    0    0 -0.36027152353E+02 -0.25566536002E+02 -0.14227163344E+03  0.14897255167E+03  0.00000000000E+00 0. -1.
</event>
<event>
 7    1  0.5575489E-006  0.1727264E+03  0.7818608E-02  0.1243201E+00
          2   -1    0    0  502    0  0.00000000000E+00  0.00000000000E+00  0.83762673168E+03  0.83762673168E+03  0.00000000000E+00 0. -1.
          1   -1    0    0  501    0 -0.00000000000E+00 -0.00000000000E+00 -0.90608816045E+02  0.90608816045E+02  0.00000000000E+00 0. -1.
         25    2    1    2    0    0 -0.16736813666E+02  0.11013513642E+03  0.40380259638E+03  0.43713917186E+03  0.12499699807E+03 0.  0.
          2    1    1    2  501    0  0.69920501424E+01 -0.19284450509E+03  0.69683797426E+02  0.20516754990E+03  0.00000000000E+00 0. -1.
          1    1    1    2  502    0  0.97447635236E+01  0.82709368671E+02  0.27353152182E+03  0.28592882596E+03  0.00000000000E+00 0. -1.
         22    1    3    3    0    0  0.17850452956E+02  0.11208744721E+03  0.37588701641E+03  0.39264905909E+03  0.00000000000E+00 0.  1.
         22    1    3    3    0    0 -0.34587266623E+02 -0.19523107913E+01  0.27915579969E+02  0.44490112776E+02  0.00000000000E+00 0.  1.
</event>
<event>
 7    1  0.5575489E-006  0.2267611E+03  0.7818608E-02  0.1235188E+00
          2   -1    0    0  502    0  0.00000000000E+00  0.00000000000E+00  0.13129855159E+04  0.13129855159E+04  0.00000000000E+00 0. -1.
          1   -1    0    0  501    0 -0.00000000000E+00 -0.00000000000E+00 -0.58186404778E+03  0.58186404778E+03  0.00000000000E+00 0. -1.
         25    2    1    2    0    0 -0.23484275443E+03 -0.14877190775E+03  0.42281057665E+03  0.52122695792E+03  0.12499823234E+03 0.  0.
          2    1    1    2  501    0  0.20738978958E+03  0.85662922311E+02 -0.50751160357E+03  0.55490241379E+03  0.00000000000E+00 0. -1.
          1    1    1    2  502    0  0.27452964858E+02  0.63108985442E+02  0.81582249503E+03  0.81872019196E+03  0.00000000000E+00 0. -1.
         22    1    3    3    0    0 -0.21011050664E+03 -0.73798154099E+02  0.27702088836E+03  0.35543377040E+03  0.00000000000E+00 0.  1.
         22    1    3    3    0    0 -0.24732247794E+02 -0.74973753654E+02  0.14578968829E+03  0.16579318752E+03  0.00000000000E+00 0.  1.
</event>
<event>
 7    1  0.5575489E-006  0.1110676E+03  0.7818608E-02  0.1364610E+00
          2   -1    0    0  502    0  0.00000000000E+00  0.00000000000E+00  0.60097503785E+03  0.60097503785E+03  0.00000000000E+00 0. -1.
          1   -1    0    0  501    0 -0.00000000000E+00 -0.00000000000E+00 -0.52365281807E+03  0.52365281807E+03  0.00000000000E+00 0. -1.
         25    2    1    2    0    0 -0.37342943711E+02 -0.85654077679E+02  0.11420514952E+03  0.19338395520E+03  0.12499368577E+03 0.  0.
          2    1    1    2  501    0  0.30589982159E+02 -0.29475202034E+02 -0.47566542584E+03  0.47755851148E+03  0.00000000000E+00 0. -1.
          1    1    1    2  502    0  0.67529615520E+01  0.11512927971E+03  0.43878249610E+03  0.45368538925E+03  0.00000000000E+00 0. -1.
         22    1    3    3    0    0 -0.74976351712E+02 -0.72597543573E+02  0.11258613311E+03  0.15351708054E+03  0.00000000000E+00 0.  1.
         22    1    3    3    0    0  0.37633408001E+02 -0.13056534106E+02  0.16190164106E+01  0.39866874655E+02  0.00000000000E+00 0.  1.
</event>
<event>
 7    1  0.5575489E-006  0.1456617E+03  0.7818608E-02  0.1348877E+00
          2   -1    0    0  502    0  0.00000000000E+00  0.00000000000E+00  0.59326968739E+03  0.59326968739E+03  0.00000000000E+00 0. -1.
          1   -1    0    0  501    0 -0.00000000000E+00 -0.00000000000E+00 -0.31250919564E+03  0.31250919564E+03  0.00000000000E+00 0. -1.
         25    2    1    2    0    0  0.10645609047E+03 -0.11198748546E+03  0.23877909931E+03  0.31066726774E+03  0.12499838751E+03 0.  0.
          2    1    1    2  501    0 -0.35027878305E+02 -0.11898806982E+02 -0.25913571796E+03  0.26176297330E+03  0.00000000000E+00 0. -1.
          1    1    1    2  502    0 -0.71428212163E+02  0.12388629244E+03  0.30111711040E+03  0.33334864200E+03  0.00000000000E+00 0. -1.
         22    1    3    3    0    0 -0.16061518505E+02  0.77066586755E+01  0.12970274730E+01  0.17861893653E+02  0.00000000000E+00 0.  1.
         22    1    3    3    0    0  0.12251760897E+03 -0.11969414414E+03  0.23748207184E+03  0.29280537408E+03  0.00000000000E+00 0.  1.
</event>
<event>
 7    1  0.5575489E-006  0.1575589E+03  0.7818608E-02  0.1208086E+00
          2   -1    0    0  502    0  0.00000000000E+00  0.00000000000E+00  0.20912898861E+04  0.20912898861E+04  0.00000000000E+00 0. -1.
          1   -1    0    0  501    0 -0.00000000000E+00 -0.00000000000E+00 -0.51475748210E+02  0.51475748210E+02  0.00000000000E+00 0. -1.
         25    2    1    2    0    0  0.31562774504E+02  0.50330259719E+02  0.12439084069E+04  0.12515842278E+04  0.12500244246E+03 0.  0.
          2    1    1    2  501    0 -0.16268517981E+03 -0.60936484853E+02  0.14257577079E+03  0.22473890035E+03  0.00000000000E+00 0. -1.
          1    1    1    2  502    0  0.13112240530E+03  0.10606225135E+02  0.65332996018E+03  0.66644250619E+03  0.00000000000E+00 0. -1.
         22    1    3    3    0    0 -0.44614137990E+02  0.37261475560E+02  0.66569824459E+03  0.66823124120E+03  0.00000000000E+00 0. -1.
         22    1    3    3    0    0  0.76176912494E+02  0.13068784159E+02  0.57821016236E+03  0.58335298660E+03  0.00000000000E+00 0. -1.
</event>
<event>
 7    1  0.5575489E-006  0.4537948E+02  0.7818608E-02  0.1506744E+00
          2   -1    0    0  502    0  0.00000000000E+00  0.00000000000E+00  0.93458857059E+02  0.93458857059E+02  0.00000000000E+00 0. -1.
          1   -1    0    0  501    0 -0.00000000000E+00 -0.00000000000E+00 -0.42164903409E+03  0.42164903409E+03  0.00000000000E+00 0. -1.
         25    2    1    2    0    0 -0.21223788285E+02  0.24348603149E+02 -0.85847932783E+02  0.15504376211E+03  0.12500158776E+03 0.  0.
          2    1    1    2  501    0  0.27606764110E+02  0.22495931089E+02 -0.29044358680E+03  0.29261865534E+03  0.00000000000E+00 0. -1.
          1    1    1    2  502    0 -0.63829758243E+01 -0.46844534238E+02  0.48101342546E+02  0.67445473703E+02  0.00000000000E+00 0. -1.
         22    1    3    3    0    0 -0.21046236768E+02 -0.47513525119E+02 -0.58258059032E+02  0.78067154384E+02  0.00000000000E+00 0. -1.
         22    1    3    3    0    0 -0.17755151739E+00  0.71862128268E+02 -0.27589873751E+02  0.76976607728E+02  0.00000000000E+00 0. -1.
</event>
<event>
 7    1  0.5575489E-006  0.1100782E+03  0.7818608E-02  0.1417637E+00
          2   -1    0    0  502    0  0.00000000000E+00  0.00000000000E+00  0.31381338306E+03  0.31381338306E+03  0.00000000000E+00 0. -1.
          1   -1    0    0  501    0 -0.00000000000E+00 -0.00000000000E+00 -0.86603571496E+03  0.86603571496E+03  0.00000000000E+00 0. -1.
         25    2    1    2    0    0  0.28047104844E+02  0.85836891592E+02 -0.55745908185E+03  0.57839503755E+03  0.12500231792E+03 0.  0.
          2    1    1    2  501    0 -0.14735071575E+02  0.23817057005E+02 -0.28734969516E+03  0.28871131230E+03  0.00000000000E+00 0. -1.
          1    1    1    2  502    0 -0.13312033269E+02 -0.10965394860E+03  0.29258644510E+03  0.31274274817E+03  0.00000000000E+00 0. -1.
         22    1    3    3    0    0  0.17521691076E+02  0.95134681984E+02 -0.21628580783E+03  0.23693283446E+03  0.00000000000E+00 0.  1.
         22    1    3    3    0    0  0.10525413767E+02 -0.92977903923E+01 -0.34117327402E+03  0.34146220310E+03  0.00000000000E+00 0.  1.
</event>
<event>
 7    1  0.5575489E-006  0.1014128E+03  0.7818608E-02  0.1281208E+00
          2   -1    0    0  502    0  0.00000000000E+00  0.00000000000E+00  0.30770803212E+03  0.30770803212E+03  0.00000000000E+00 0. -1.
          1   -1    0    0  501    0 -0.00000000000E+00 -0.00000000000E+00 -0.59862758725E+03  0.59862758725E+03  0.00000000000E+00 0. -1.
         25    2    1    2    0    0 -0.12231231397E+02 -0.16557781806E+03 -0.31273688445E+03  0.37549332686E+03  0.12500105107E+03 0.  0.
          2    1    1    2  501    0  0.59866547758E+02  0.77279890401E+02 -0.23532461485E+03  0.25482123019E+03  0.00000000000E+00 0. -1.
          1    1    1    2  502    0 -0.47635316361E+02  0.88297927659E+02  0.25714194417E+03  0.27602106232E+03  0.00000000000E+00 0. -1.
         22    1    3    3    0    0  0.43940574904E+02 -0.12955960021E+03 -0.24373013114E+03  0.27950105716E+03  0.00000000000E+00 0.  1.
         22    1    3    3    0    0 -0.56171806301E+02 -0.36018217854E+02 -0.69006753311E+02  0.95992269704E+02  0.00000000000E+00 0.  1.
</event>
<event>
 7    1  0.5575489E-006  0.1198218E+03  0.7818608E-02  0.1307347E+00
          2   -1    0    0  502    0  0.00000000000E+00  0.00000000000E+00  0.29413699814E+03  0.29413699814E+03  0.00000000000E+00 0. -1.
          1   -1    0    0  501    0 -0.00000000000E+00 -0.00000000000E+00 -0.28852070697E+04  0.28852070697E+04  0.00000000000E+00 0. -1.
         25    2    1    2    0    0 -0.57014609809E+02 -0.35517571796E+02 -0.17223901457E+03  0.22316146390E+03  0.12499038840E+03 0.  0.
          2    1    1    2  501    0  0.74176050354E+02  0.98084734760E+02 -0.26821607780E+04  0.26849784246E+04  0.00000000000E+00 0. -1.
          1    1    1    2  502    0 -0.17161440545E+02 -0.62567162964E+02  0.26332972100E+03  0.27120417933E+03  0.00000000000E+00 0. -1.
         22    1    3    3    0    0  0.33846957593E+02  0.86171935634E+01 -0.19384985494E+02  0.39945590818E+02  0.00000000000E+00 0. -1.
         22    1    3    3    0    0 -0.90861567402E+02 -0.44134765359E+02 -0.15285402908E+03  0.18321587308E+03  0.00000000000E+00 0. -1.
</event>
<event>
 7    1  0.5575489E-006  0.1073637E+03  0.7818608E-02  0.1315049E+00
          2   -1    0    0  502    0  0.00000000000E+00  0.00000000000E+00  0.74423136133E+02  0.74423136133E+02  0.00000000000E+00 0. -1.
          1   -1    0    0  501    0 -0.00000000000E+00 -0.00000000000E+00 -0.14325220284E+04  0.14325220284E+04  0.00000000000E+00 0. -1.
         25    2    1    2    0    0  0.18415956334E+02  0.74974070914E+02 -0.16245432188E+03  0.21905572451E+03  0.12503497505E+03 0.  0.
          2    1    1    2  501    0  0.43167457279E+02 -0.10267655529E+03 -0.12130517711E+04  0.12181545484E+04  0.00000000000E+00 0. -1.
          1    1    1    2  502    0 -0.61583413612E+02  0.27702484372E+02  0.17407200729E+02  0.69734891623E+02  0.00000000000E+00 0. -1.
         22    1    3    3    0    0 -0.29550206646E+02  0.84342905659E+02 -0.13798870455E+03  0.16440140824E+03  0.00000000000E+00 0.  1.
         22    1    3    3    0    0  0.47966162979E+02 -0.93688347450E+01 -0.24465617325E+02  0.54654316266E+02  0.00000000000E+00 0.  1.
</event>
<event>
 7    1  0.5575489E-006  0.1147365E+03  0.7818608E-02  0.1301293E+00
          2   -1    0    0  502    0  0.00000000000E+00  0.00000000000E+00  0.11874143778E+04  0.11874143778E+04  0.00000000000E+00 0. -1.
          1   -1    0    0  501    0 -0.00000000000E+00 -0.00000000000E+00 -0.78082931079E+03  0.78082931079E+03  0.00000000000E+00 0. -1.
         25    2    1    2    0    0 -0.80699465903E+02 -0.87519379734E+02  0.22017624862E+02  0.17401027404E+03  0.12499101584E+03 0.  0.
          2    1    1    2  501    0  0.11310555107E+03  0.23655996409E+02 -0.69890688961E+03  0.70839488436E+03  0.00000000000E+00 0. -1.
          1    1    1    2  502    0 -0.32406085170E+02  0.63863383325E+02  0.10834743317E+04  0.10858385302E+04  0.00000000000E+00 0. -1.
         22    1    3    3    0    0  0.99528687522E+00 -0.51894023430E+02 -0.39917755136E+02  0.65478297464E+02  0.00000000000E+00 0.  1.
         22    1    3    3    0    0 -0.81694752778E+02 -0.35625356304E+02  0.61935379999E+02  0.10853197657E+03  0.00000000000E+00 0.  1.
</event>
<event>
 7    1  0.5575489E-006  0.5794060E+02  0.7818608E-02  0.1557101E+00
          2   -1    0    0  502    0  0.00000000000E+00  0.00000000000E+00  0.71546360673E+03  0.71546360673E+03  0.00000000000E+00 0. -1.
          1   -1    0    0  501    0 -0.00000000000E+00 -0.00000000000E+00 -0.13068683515E+03  0.13068683515E+03  0.00000000000E+00 0. -1.
         25    2    1    2    0    0 -0.63669667455E+02  0.18568478977E+02  0.31615140989E+03  0.34637445959E+03  0.12499974924E+03 0.  0.
          2    1    1    2  501    0  0.65740754177E+01 -0.18913100913E+02 -0.11256562895E+03  0.11433260547E+03  0.00000000000E+00 0. -1.
          1    1    1    2  502    0  0.57095592037E+02  0.34462193654E+00  0.38119099063E+03  0.38544337682E+03  0.00000000000E+00 0. -1.
         22    1    3    3    0    0 -0.94034936610E+02  0.42091542196E+02  0.22543567037E+03  0.24786187424E+03  0.00000000000E+00 0.  1.
         22    1    3    3    0    0  0.30365269155E+02 -0.23523063219E+02  0.90715739527E+02  0.98512585348E+02  0.00000000000E+00 0.  1.
</event>
<event>
 7    1  0.5575489E-006  0.1760417E+03  0.7818608E-02  0.1257858E+00
          2   -1    0    0  502    0  0.00000000000E+00  0.00000000000E+00  0.24290890188E+03  0.24290890188E+03  0.00000000000E+00 0. -1.
          1   -1    0    0  501    0 -0.00000000000E+00 -0.00000000000E+00 -0.15213345320E+04  0.15213345320E+04  0.00000000000E+00 0. -1.
         25    2    1    2    0    0 -0.16158735356E+03  0.93576638439E+02 -0.76777392719E+02  0.23745899913E+03  0.12499979257E+03 0.  0.
          2    1    1    2  501    0  0.53880946307E+02  0.45608300220E+02 -0.13153599717E+04  0.13172528719E+04  0.00000000000E+00 0. -1.
          1    1    1    2  502    0  0.10770640726E+03 -0.13918493866E+03  0.11371173428E+03  0.20953156284E+03  0.00000000000E+00 0. -1.
         22    1    3    3    0    0 -0.18019743337E+03  0.68453271713E+02 -0.72301757367E+02  0.20587498517E+03  0.00000000000E+00 0.  1.
         22    1    3    3    0    0  0.18610079807E+02  0.25123366727E+02 -0.44756353512E+01  0.31584013961E+02  0.00000000000E+00 0.  1.
</event>
<event>
 7    1  0.5575489E-006  0.4339767E+02  0.7818608E-02  0.1486828E+00
          2   -1    0    0  502    0  0.00000000000E+00  0.00000000000E+00  0.19507370204E+04  0.19507370204E+04  0.00000000000E+00 0. -1.
          1   -1    0    0  501    0 -0.00000000000E+00 -0.00000000000E+00 -0.54208963228E+02  0.54208963228E+02  0.00000000000E+00 0. -1.
         25    2    1    2    0    0 -0.19405325631E+02 -0.79232452028E+02  0.75959645917E+03  0.77412384485E+03  0.12500639292E+03 0.  0.
          2    1    1    2  501    0 -0.29935457983E+01  0.42849055770E+02 -0.36649208182E+02  0.56463858859E+02  0.00000000000E+00 0. -1.
          1    1    1    2  502    0  0.22398871429E+02  0.36383396258E+02  0.11735808061E+04  0.11743582799E+04  0.00000000000E+00 0. -1.
         22    1    3    3    0    0  0.17705707606E+02 -0.10094699259E+03  0.44791692211E+03  0.45949249886E+03  0.00000000000E+00 0.  1.
         22    1    3    3    0    0 -0.37111033236E+02  0.21714540567E+02  0.31167953706E+03  0.31463134600E+03  0.00000000000E+00 0.  1.
</event>
<event>
 7    1  0.5575489E-006  0.3294650E+03  0.7818608E-02  0.1122419E+00
          2   -1    0    0  502    0  0.00000000000E+00  0.00000000000E+00  0.10290422556E+04  0.10290422556E+04  0.00000000000E+00 0. -1.
          1   -1    0    0  501    0 -0.00000000000E+00 -0.00000000000E+00 -0.51804544563E+03  0.51804544563E+03  0.00000000000E+00 0. -1.
         25    2    1    2    0    0  0.18654762894E+03 -0.97510140586E+02  0.16029913968E+03  0.29262324464E+03  0.12499721494E+03 0.  0.
          2    1    1    2  501    0 -0.29177316110E+03  0.23000088372E+03 -0.36393420678E+03  0.52007700479E+03  0.00000000000E+00 0. -1.
          1    1    1    2  502    0  0.10522553216E+03 -0.13249074313E+03  0.71463187707E+03  0.73438745180E+03  0.00000000000E+00 0. -1.
         22    1    3    3    0    0 -0.14910182880E+02 -0.10393334444E+02  0.36139104474E+02  0.40452068260E+02  0.00000000000E+00 0.  1.
         22    1    3    3    0    0  0.20145781182E+03 -0.87116806142E+02  0.12416003521E+03  0.25217117638E+03  0.00000000000E+00 0.  1.
</event>
<event>
 7    1  0.5575489E-006  0.9702614E+02  0.7818608E-02  0.1359910E+00
          2   -1    0    0  502    0  0.00000000000E+00  0.00000000000E+00  0.17197928221E+04  0.17197928221E+04  0.00000000000E+00 0. -1.
          1   -1    0    0  501    0 -0.00000000000E+00 -0.00000000000E+00 -0.64744200078E+02  0.64744200078E+02  0.00000000000E+00 0. -1.
         25    2    1    2    0    0 -0.26640554197E+02 -0.55486379005E+02  0.20888122862E+03  0.25109078242E+03  0.12500702366E+03 0.  0.
          2    1    1    2  501    0  0.21276009376E+02  0.10578069071E+03  0.24200128157E+02  0.11057969663E+03  0.00000000000E+00 0. -1.
          1    1    1    2  502    0  0.53645448207E+01 -0.50294311710E+02  0.14219672652E+04  0.14228665431E+04  0.00000000000E+00 0. -1.
         22    1    3    3    0    0  0.22722539605E+02 -0.76835848874E+02  0.89332732222E+02  0.12000166051E+03  0.00000000000E+00 0.  1.
         22    1    3    3    0    0 -0.49363093802E+02  0.21349469869E+02  0.11954849640E+03  0.13108912192E+03  0.00000000000E+00 0.  1.
</event>
<event>
 7    1  0.5575489E-006  0.4860237E+02  0.7818608E-02  0.1546984E+00
          2   -1    0    0  502    0  0.00000000000E+00  0.00000000000E+00  0.29895801555E+04  0.29895801555E+04  0.00000000000E+00 0. -1.
          1   -1    0    0  501    0 -0.00000000000E+00 -0.00000000000E+00 -0.12207833330E+03  0.12207833330E+03  0.00000000000E+00 0. -1.
         25    2    1    2    0    0 -0.47127142180E+02  0.16670556478E+01  0.14186055318E+03  0.19484479800E+03  0.12496532381E+03 0.  0.
          2    1    1    2  501    0  0.44602137376E+01 -0.25074797061E+02 -0.93676000545E+02  0.97076423669E+02  0.00000000000E+00 0. -1.
          1    1    1    2  502    0  0.42666928443E+02  0.23407741413E+02  0.28193172696E+04  0.28197372671E+04  0.00000000000E+00 0. -1.
         22    1    3    3    0    0 -0.45767170998E+02 -0.29661849569E+02  0.53746028846E+01  0.54802788407E+02  0.00000000000E+00 0.  1.
         22    1    3    3    0    0 -0.13599711818E+01  0.31328905216E+02  0.13648595029E+03  0.14004200959E+03  0.00000000000E+00 0.  1.
</event>
<event>
 7    1  0.5575489E-006  0.5247573E+02  0.7818608E-02  0.1447263E+00
          2   -1    0    0  502    0  0.00000000000E+00  0.00000000000E+00  0.31148088194E+03  0.31148088194E+03  0.00000000000E+00 0. -1.
          1   -1    0    0  501    0 -0.00000000000E+00 -0.00000000000E+00 -0.12037439812E+04  0.12037439812E+04  0.00000000000E+00 0. -1.
         25    2    1    2    0    0 -0.29325209663E+02 -0.53465927767E+02 -0.18792709942E+03  0.23379855192E+03  0.12500637916E+03 0.  0.
          2    1    1    2  501    0 -0.17502161940E+02  0.49834186815E+02 -0.99026137455E+03  0.99166897792E+03  0.00000000000E+00 0. -1.
          1    1    1    2  502    0  0.46827371603E+02  0.36317409519E+01  0.28592537472E+03  0.28975733327E+03  0.00000000000E+00 0. -1.
         22    1    3    3    0    0 -0.42765482667E+01 -0.26487861281E+02  0.12797047662E+02  0.29726420726E+02  0.00000000000E+00 0. -1.
         22    1    3    3    0    0 -0.25048661397E+02 -0.26978066486E+02 -0.20072414708E+03  0.20407213120E+03  0.00000000000E+00 0. -1.
</event>
<event>
 7    1  0.5575489E-006  0.1304767E+03  0.7818608E-02  0.1347292E+00
          2   -1    0    0  502    0  0.00000000000E+00  0.00000000000E+00  0.26126731489E+04  0.26126731489E+04  0.00000000000E+00 0. -1.
          1   -1    0    0  501    0 -0.00000000000E+00 -0.00000000000E+00 -0.13066346015E+03  0.13066346015E+03  0.00000000000E+00 0. -1.
         25    2    1    2    0    0 -0.36460194477E+02  0.11309822744E+03  0.59608708116E+02  0.18246964159E+03  0.12498566792E+03 0.  0.
          2    1    1    2  501    0  0.36090132030E+01 -0.13904621088E+03  0.99244226208E+00  0.13909658039E+03  0.00000000000E+00 0. -1.
          1    1    1    2  502    0  0.32851181274E+02  0.25947983435E+02  0.24214085383E+04  0.24217703870E+04  0.00000000000E+00 0. -1.
         22    1    3    3    0    0 -0.29583862313E+02 -0.16658504209E+02 -0.95544186194E+01  0.35270349970E+02  0.00000000000E+00 0.  1.
         22    1    3    3    0    0 -0.68763321636E+01  0.12975673165E+03  0.69163126735E+02  0.14719929162E+03  0.00000000000E+00 0.  1.
</event>
<event>
 7    1  0.5575489E-006  0.3844598E+02  0.7818608E-02  0.1566294E+00
          2   -1    0    0  502    0  0.00000000000E+00  0.00000000000E+00  0.41993652827E+03  0.41993652827E+03  0.00000000000E+00 0. -1.
          1   -1    0    0  501    0 -0.00000000000E+00 -0.00000000000E+00 -0.27008463157E+03  0.27008463157E+03  0.00000000000E+00 0. -1.
         25    2    1    2    0    0 -0.64571289533E+02  0.11901643844E+02  0.35403423345E+02  0.14556722872E+03  0.12500126053E+03 0.  0.
          2    1    1    2  501    0  0.26710566494E+02 -0.98579805853E+01 -0.21296126245E+03  0.21485607613E+03  0.00000000000E+00 0. -1.
          1    1    1    2  502    0  0.37860723039E+02 -0.20436632583E+01  0.32740973582E+03  0.32959785499E+03  0.00000000000E+00 0. -1.
         22    1    3    3    0    0 -0.16344202192E+00 -0.46495061614E+02 -0.98912758986E+01  0.47535826560E+02  0.00000000000E+00 0. -1.
         22    1    3    3    0    0 -0.64407847511E+02  0.58396705458E+02  0.45294699244E+02  0.98031402157E+02  0.00000000000E+00 0. -1.
</event>
<event>
 7    1  0.5575489E-006  0.5381613E+02  0.7818608E-02  0.1441055E+00
          2   -1    0    0  502    0  0.00000000000E+00  0.00000000000E+00  0.49393305740E+03  0.49393305740E+03  0.00000000000E+00 0. -1.
          1   -1    0    0  501    0 -0.00000000000E+00 -0.00000000000E+00 -0.14383905884E+03  0.14383905884E+03  0.00000000000E+00 0. -1.
         25    2    1    2    0    0  0.24967004734E+02  0.95439346587E+02  0.83098850767E+02  0.17961922013E+03  0.12500250013E+03 0.  0.
          2    1    1    2  501    0 -0.38827627360E+01 -0.47802256918E+02 -0.87536849822E+02  0.99813985441E+02  0.00000000000E+00 0. -1.
          1    1    1    2  502    0 -0.21084241998E+02 -0.47637089669E+02  0.35453199761E+03  0.35833891067E+03  0.00000000000E+00 0. -1.
         22    1    3    3    0    0 -0.92704638283E+01 -0.72832992281E+01 -0.24363874781E+02  0.27066332252E+02  0.00000000000E+00 0.  1.
         22    1    3    3    0    0  0.34237468563E+02  0.10272264582E+03  0.10746272555E+03  0.15255288788E+03  0.00000000000E+00 0.  1.
</event>
<event>
 7    1  0.5575489E-006  0.1682655E+03  0.7818608E-02  0.1238706E+00
          2   -1    0    0  502    0  0.00000000000E+00  0.00000000000E+00  0.82237990054E+03  0.82237990054E+03  0.00000000000E+00 0. -1.
          1   -1    0    0  501    0 -0.00000000000E+00 -0.00000000000E+00 -0.40195226628E+03  0.40195226628E+03  0.00000000000E+00 0. -1.
         25    2    1    2    0    0  0.77758932357E+02 -0.62626703148E+02  0.37705346489E+02  0.16435300117E+03  0.12498664061E+03 0.  0.
          2    1    1    2  501    0 -0.16306662073E+03  0.89616282789E+02 -0.30997163378E+03  0.36153037865E+03  0.00000000000E+00 0. -1.
          1    1    1    2  502    0  0.85307688371E+02 -0.26989579641E+02  0.69269392155E+03  0.69844878700E+03  0.00000000000E+00 0. -1.
         22    1    3    3    0    0  0.83519343942E+02 -0.91898574312E+02  0.11618693715E+02  0.12472298432E+03  0.00000000000E+00 0. -1.
         22    1    3    3    0    0 -0.57604115845E+01  0.29271871164E+02  0.26086652774E+02  0.39630016856E+02  0.00000000000E+00 0. -1.
</event>
<event>
 7    1  0.5575489E-006  0.6667917E+02  0.7818608E-02  0.1373701E+00
          2   -1    0    0  502    0  0.00000000000E+00  0.00000000000E+00  0.22601144521E+04  0.22601144521E+04  0.00000000000E+00 0. -1.
          1   -1    0    0  501    0 -0.00000000000E+00 -0.00000000000E+00 -0.14978718831E+04  0.14978718831E+04  0.00000000000E+00 0. -1.
         25    2    1    2    0    0  0.11600031618E+03  0.61607227293E+02 -0.59507981335E+02  0.19083471620E+03  0.12500066101E+03 0.  0.
          2    1    1    2  501    0 -0.54461270317E+02 -0.36610251005E+02 -0.13714131642E+04  0.13729823041E+04  0.00000000000E+00 0. -1.
          1    1    1    2  502    0 -0.61539045867E+02 -0.24996976288E+02  0.21931637146E+04  0.21941693148E+04  0.00000000000E+00 0. -1.
         22    1    3    3    0    0  0.11675422086E+03  0.87811495874E+02 -0.70738192192E+02  0.16231542974E+03  0.00000000000E+00 0. -1.
         22    1    3    3    0    0 -0.75390468009E+00 -0.26204268581E+02  0.11230210857E+02  0.28519286457E+02  0.00000000000E+00 0. -1.
</event>
<event>
 7    1  0.5575489E-006  0.5131773E+02  0.7818608E-02  0.1491577E+00
          2   -1    0    0  502    0  0.00000000000E+00  0.00000000000E+00  0.22767171950E+04  0.22767171950E+04  0.00000000000E+00 0. -1.
          1   -1    0    0  501    0 -0.00000000000E+00 -0.00000000000E+00 -0.22806261020E+03  0.22806261020E+03  0.00000000000E+00 0. -1.
         25    2    1    2    0    0 -0.46228880400E+02  0.16671175161E+02  0.17834344985E+03  0.22326256669E+03  0.12499900046E+03 0.  0.
          2    1    1    2  501    0 -0.19530448015E+01 -0.34899620654E+02 -0.20379528985E+03  0.20677117321E+03  0.00000000000E+00 0. -1.
          1    1    1    2  502    0  0.48181925202E+02  0.18228445493E+02  0.20741064248E+04  0.20747460653E+04  0.00000000000E+00 0. -1.
         22    1    3    3    0    0 -0.53894290320E+02 -0.10099560968E+02  0.14020107208E+02  0.56596458078E+02  0.00000000000E+00 0.  1.
         22    1    3    3    0    0  0.76654099194E+01  0.26770736130E+02  0.16432334264E+03  0.16666610861E+03  0.00000000000E+00 0.  1.
</event>
<event>
 7    1  0.5575489E-006  0.1150653E+03  0.7818608E-02  0.1390034E+00
          2   -1    0    0  502    0  0.00000000000E+00  0.00000000000E+00  0.23404123289E+03  0.23404123289E+03  0.00000000000E+00 0. -1.
          1   -1    0    0  501    0 -0.00000000000E+00 -0.00000000000E+00 -0.68602552627E+03  0.68602552627E+03  0.00000000000E+00 0. -1.
         25    2    1    2    0    0  0.10381401025E+03  0.73359086124E+02 -0.40623697476E+01  0.17832178153E+03  0.12499300252E+03 0.  0.
          2    1    1    2  501    0 -0.30750870793E+02  0.12771184284E+02 -0.57257001326E+03  0.57353739136E+03  0.00000000000E+00 0. -1.
          1    1    1    2  502    0 -0.73063139457E+02 -0.86130270408E+02  0.12464808963E+03  0.16820758626E+03  0.00000000000E+00 0. -1.
         22    1    3    3    0    0  0.10623308457E+03  0.90707646807E+02  0.27362419337E+02  0.14234481880E+03  0.00000000000E+00 0.  1.
         22    1    3    3    0    0 -0.24190743254E+01 -0.17348560683E+02 -0.31424789085E+02  0.35976962731E+02  0.00000000000E+00 0.  1.
</event>
<event>
 7    1  0.5575489E-006  0.4512656E+02  0.7818608E-02  0.1503000E+00
          2   -1    0    0  502    0  0.00000000000E+00  0.00000000000E+00  0.38033595672E+03  0.38033595672E+03  0.00000000000E+00 0. -1.
          1   -1    0    0  501    0 -0.00000000000E+00 -0.00000000000E+00 -0.14727291628E+04  0.14727291628E+04  0.00000000000E+00 0. -1.
         25    2    1    2    0    0  0.30656604302E+01 -0.79531636940E+02  0.10121983481E+03  0.17945636110E+03  0.12499780411E+03 0.  0.
          2    1    1    2  501    0  0.33244114067E+01  0.36587736800E+02 -0.14314097053E+04  0.14318810909E+04  0.00000000000E+00 0. -1.
          1    1    1    2  502    0 -0.63900718370E+01  0.42943900140E+02  0.23779666445E+03  0.24172766743E+03  0.00000000000E+00 0. -1.
         22    1    3    3    0    0  0.97774628609E+01 -0.12660831501E+02 -0.28884902035E+02  0.33018676531E+02  0.00000000000E+00 0.  1.
         22    1    3    3    0    0 -0.67118024307E+01 -0.66870805439E+02  0.13010473684E+03  0.14643768457E+03  0.00000000000E+00 0.  1.
</event>
<event>
 7    1  0.5575489E-006  0.1263601E+03  0.7818608E-02  0.1319802E+00
          2   -1    0    0  502    0  0.00000000000E+00  0.00000000000E+00  0.14084835406E+04  0.14084835406E+04  0.00000000000E+00 0. -1.
          1   -1    0    0  501    0 -0.00000000000E+00 -0.00000000000E+00 -0.26760761664E+04  0.26760761664E+04  0.00000000000E+00 0. -1.
         25    2    1    2    0    0 -0.68711381958E+02 -0.36842061155E+02 -0.36762263396E+02  0.15184053025E+03  0.12500196453E+03 0.  0.
          2    1    1    2  501    0 -0.54865476561E+02  0.35602317284E+01 -0.25784500399E+04  0.25790361580E+04  0.00000000000E+00 0. -1.
          1    1    1    2  502    0  0.12357685852E+03  0.33281829426E+02  0.13476196775E+04  0.13536830187E+04  0.00000000000E+00 0. -1.
         22    1    3    3    0    0 -0.10559078331E+03 -0.29898902789E+02 -0.25604248821E+02  0.11268955349E+03  0.00000000000E+00 0. -1.
         22    1    3    3    0    0  0.36879401354E+02 -0.69431583657E+01 -0.11158014575E+02  0.39150976764E+02  0.00000000000E+00 0. -1.
</event>
<event>
 7    1  0.5575489E-006  0.1437197E+03  0.7818608E-02  0.1410344E+00
          2   -1    0    0  502    0  0.00000000000E+00  0.00000000000E+00  0.13100513794E+04  0.13100513794E+04  0.00000000000E+00 0. -1.
          1   -1    0    0  501    0 -0.00000000000E+00 -0.00000000000E+00 -0.10043233481E+04  0.10043233481E+04  0.00000000000E+00 0. -1.
         25    2    1    2    0    0  0.14568035708E+03  0.72444425417E+02  0.60274469189E+03  0.63670797692E+03  0.12499969225E+03 0.  0.
          2    1    1    2  501    0 -0.13324031649E+03 -0.53457290389E+02 -0.98193396112E+03  0.99237340141E+03  0.00000000000E+00 0. -1.
          1    1    1    2  502    0 -0.12440040588E+02 -0.18987135029E+02  0.68491730054E+03  0.68529334922E+03  0.00000000000E+00 0. -1.
         22    1    3    3    0    0  0.12957580551E+03  0.40569313419E+02  0.27165220431E+03  0.30369504222E+03  0.00000000000E+00 0. -1.
         22    1    3    3    0    0  0.16104551574E+02  0.31875111998E+02  0.33109248758E+03  0.33301293470E+03  0.00000000000E+00 0. -1.
</event>
<event>
 7    1  0.5575489E-006  0.1943739E+03  0.7818608E-02  0.1191173E+00
          2   -1    0    0  502    0  0.00000000000E+00  0.00000000000E+00  0.16118305701E+04  0.16118305701E+04  0.00000000000E+00 0. -1.
          1   -1    0    0  501    0 -0.00000000000E+00 -0.00000000000E+00 -0.75341936140E+03  0.75341936140E+03  0.00000000000E+00 0. -1.
         25    2    1    2    0    0  0.43509751154E+02 -0.17203075847E+03 -0.99152023723E+02  0.23863156298E+03  0.12500487485E+03 0.  0.
          2    1    1    2  501    0 -0.12803870803E+03 -0.53383674164E+01 -0.57113990939E+03  0.58534024723E+03  0.00000000000E+00 0. -1.
          1    1    1    2  502    0  0.84528956873E+02  0.17736912589E+03  0.15287031419E+04  0.15412781213E+04  0.00000000000E+00 0. -1.
         22    1    3    3    0    0  0.69204811424E+02 -0.35604382777E+02 -0.28671904628E+02  0.82940075429E+02  0.00000000000E+00 0.  1.
         22    1    3    3    0    0 -0.25695060271E+02 -0.13642637569E+03 -0.70480119095E+02  0.15569148755E+03  0.00000000000E+00 0.  1.
</event>
<event>
 7    1  0.5575489E-006  0.1328283E+03  0.7818608E-02  0.1382698E+00
          2   -1    0    0  502    0  0.00000000000E+00  0.00000000000E+00  0.75621387072E+02  0.75621387072E+02  0.00000000000E+00 0. -1.
          1   -1    0    0  501    0 -0.00000000000E+00 -0.00000000000E+00 -0.19955214065E+04  0.19955214065E+04  0.00000000000E+00 0. -1.
         25    2    1    2    0    0  0.92008440440E+02 -0.58533977621E+02 -0.21794119200E+03  0.27388901392E+03  0.12500019652E+03 0.  0.
          2    1    1    2  501    0 -0.12257085694E+03  0.56903409516E+02 -0.17417886378E+04  0.17470229740E+04  0.00000000000E+00 0. -1.
          1    1    1    2  502    0  0.30562416500E+02  0.16305681049E+01  0.39829810288E+02  0.50230805709E+02  0.00000000000E+00 0. -1.
         22    1    3    3    0    0  0.95228641639E+02 -0.86064320687E+02 -0.13429792269E+03  0.18577269315E+03  0.00000000000E+00 0. -1.
         22    1    3    3    0    0 -0.32202011989E+01  0.27530343066E+02 -0.83643269312E+02  0.88116320771E+02  0.00000000000E+00 0. -1.
</event>
<event>
 7    1  0.5575489E-006  0.7476975E+02  0.7818608E-02  0.1348999E+00
          2   -1    0    0  502    0  0.00000000000E+00  0.00000000000E+00  0.62322504658E+03  0.62322504658E+03  0.00000000000E+00 0. -1.
          1   -1    0    0  501    0 -0.00000000000E+00 -0.00000000000E+00 -0.41539014837E+02  0.41539014837E+02  0.00000000000E+00 0. -1.
         25    2    1    2    0    0 -0.24125187704E+02 -0.35976084636E+02  0.33282459547E+03  0.35815655578E+03  0.12501041458E+03 0.  0.
          2    1    1    2  501    0 -0.40768188071E+02  0.73115888885E+02  0.58611619716E+02  0.10219246710E+03  0.00000000000E+00 0. -1.
          1    1    1    2  502    0  0.64893375774E+02 -0.37139804249E+02  0.19024981656E+03  0.20441503854E+03  0.00000000000E+00 0. -1.
         22    1    3    3    0    0 -0.45063872463E+02  0.22645445113E+01  0.34857796949E+02  0.57017074384E+02  0.00000000000E+00 0. -1.
         22    1    3    3    0    0  0.20938684759E+02 -0.38240629147E+02  0.29796679852E+03  0.30113948140E+03  0.00000000000E+00 0. -1.
</event>
<event>
 7    1  0.5575489E-006  0.5601821E+02  0.7818608E-02  0.1519846E+00
          2   -1    0    0  502    0  0.00000000000E+00  0.00000000000E+00  0.10373702134E+04  0.10373702134E+04  0.00000000000E+00 0. -1.
          1   -1    0    0  501    0 -0.00000000000E+00 -0.00000000000E+00 -0.89341153837E+02  0.89341153837E+02  0.00000000000E+00 0. -1.
         25    2    1    2    0    0 -0.57235143069E+02  0.52614808823E+02  0.80986186615E+03  0.82313159355E+03  0.12500079337E+03 0.  0.
          2    1    1    2  501    0  0.31692561570E+02 -0.45911033318E+02 -0.72379205274E+02  0.91383755642E+02  0.00000000000E+00 0. -1.
          1    1    1    2  502    0  0.25542581499E+02 -0.67037755057E+01  0.21054639870E+03  0.21219601806E+03  0.00000000000E+00 0. -1.
         22    1    3    3    0    0  0.31909736653E+02  0.19095287674E+01  0.80831787197E+02  0.86923273148E+02  0.00000000000E+00 0.  1.
         22    1    3    3    0    0 -0.89144879723E+02  0.50705280056E+02  0.72903007895E+03  0.73620832040E+03  0.00000000000E+00 0.  1.
</event>
<event>
 7    1  0.5575489E-006  0.1290907E+03  0.7818608E-02  0.1362168E+00
          2   -1    0    0  502    0  0.00000000000E+00  0.00000000000E+00  0.52950045530E+03  0.52950045530E+03  0.00000000000E+00 0. -1.
          1   -1    0    0  501    0 -0.00000000000E+00 -0.00000000000E+00 -0.60919585718E+03  0.60919585718E+03  0.00000000000E+00 0. -1.
         25    2    1    2    0    0  0.27892074105E+02  0.10693660067E+03  0.73339441504E+02  0.18225941939E+03  0.12500567154E+03 0.  0.
          2    1    1    2  501    0  0.10908774425E+01 -0.13042054888E+03 -0.54617463232E+03  0.56153133356E+03  0.00000000000E+00 0. -1.
          1    1    1    2  502    0 -0.28982951548E+02  0.23483948212E+02  0.39313978893E+03  0.39490555953E+03  0.00000000000E+00 0. -1.
         22    1    3    3    0    0  0.18122448707E+02 -0.26801804620E+02  0.93391374409E+01  0.33674610112E+02  0.00000000000E+00 0. -1.
         22    1    3    3    0    0  0.97696253980E+01  0.13373840529E+03  0.64000304063E+02  0.14858480928E+03  0.00000000000E+00 0. -1.
</event>
<event>
 7    1  0.5575489E-006  0.1309273E+03  0.7818608E-02  0.1384838E+00
          2   -1    0    0  502    0  0.00000000000E+00  0.00000000000E+00  0.27770823853E+03  0.27770823853E+03  0.00000000000E+00 0. -1.
          1   -1    0    0  501    0 -0.00000000000E+00 -0.00000000000E+00 -0.52886101441E+03  0.52886101441E+03  0.00000000000E+00 0. -1.
         25    2    1    2    0    0  0.30125149402E+02  0.10804210708E+03 -0.44866013722E+03  0.47906280496E+03  0.12499852333E+03 0.  0.
          2    1    1    2  501    0  0.28952165826E+02  0.96432747859E+01 -0.43343627558E+02  0.53008402207E+02  0.00000000000E+00 0. -1.
          1    1    1    2  502    0 -0.59077315229E+02 -0.11768538186E+03  0.24085098890E+03  0.27449804578E+03  0.00000000000E+00 0. -1.
         22    1    3    3    0    0  0.28377778145E+02  0.13492566488E+03 -0.33521789540E+03  0.36246554420E+03  0.00000000000E+00 0. -1.
         22    1    3    3    0    0  0.17473712569E+01 -0.26883557806E+02 -0.11344224182E+03  0.11659726075E+03  0.00000000000E+00 0. -1.
</event>
<event>
 7    1  0.5575489E-006  0.1217538E+03  0.7818608E-02  0.1308181E+00
          2   -1    0    0  502    0  0.00000000000E+00  0.00000000000E+00  0.73269364485E+02  0.73269364485E+02  0.00000000000E+00 0. -1.
          1   -1    0    0  501    0 -0.00000000000E+00 -0.00000000000E+00 -0.15040260928E+04  0.15040260928E+04  0.00000000000E+00 0. -1.
         25    2    1    2    0    0 -0.15648604692E+03 -0.81148886975E+02 -0.30806889212E+03  0.37630126413E+03  0.12499269720E+03 0.  0.
          2    1    1    2  501    0  0.94187612760E+02  0.69569103740E+02 -0.11310359701E+04  0.11370811458E+04  0.00000000000E+00 0. -1.
          1    1    1    2  502    0  0.62298434158E+02  0.11579783234E+02  0.83481338930E+01  0.63913047320E+02  0.00000000000E+00 0. -1.
         22    1    3    3    0    0 -0.11302531805E+03 -0.46219155782E+02 -0.91279076607E+02  0.15245590414E+03  0.00000000000E+00 0.  1.
         22    1    3    3    0    0 -0.43460728864E+02 -0.34929731193E+02 -0.21678981552E+03  0.22384535998E+03  0.00000000000E+00 0.  1.
</event>
<event>
 7    1  0.5575489E-006  0.5192945E+02  0.7818608E-02  0.1539487E+00
          2   -1    0    0  502    0  0.00000000000E+00  0.00000000000E+00  0.26944618130E+03  0.26944618130E+03  0.00000000000E+00 0. -1.
          1   -1    0    0  501    0 -0.00000000000E+00 -0.00000000000E+00 -0.14994795389E+03  0.14994795389E+03  0.00000000000E+00 0. -1.
         25    2    1    2    0    0  0.16047147753E+02  0.45278177272E+02 -0.87287577341E+02  0.15984772644E+03  0.12499820080E+03 0.  0.
          2    1    1    2  501    0 -0.24233334090E+02  0.62385276903E+01 -0.16680018014E+02  0.30073189219E+02  0.00000000000E+00 0. -1.
          1    1    1    2  502    0  0.81861863367E+01 -0.51516704963E+02  0.22346582276E+03  0.22947321952E+03  0.00000000000E+00 0. -1.
         22    1    3    3    0    0  0.61827451274E+02  0.42064192512E+02 -0.85960949154E+02  0.11393557303E+03  0.00000000000E+00 0.  1.
         22    1    3    3    0    0 -0.45780303521E+02  0.32139847605E+01 -0.13266281877E+01  0.45912153411E+02  0.00000000000E+00 0.  1.
</event>
<event>
 7    1  0.5575489E-006  0.7779087E+02  0.7818608E-02  0.1358124E+00
          2   -1    0    0  502    0  0.00000000000E+00  0.00000000000E+00  0.57266772235E+03  0.57266772235E+03  0.00000000000E+00 0. -1.
          1   -1    0    0  501    0 -0.00000000000E+00 -0.00000000000E+00 -0.63615466423E+03  0.63615466423E+03  0.00000000000E+00 0. -1.
         25    2    1    2    0    0  0.10669473730E+03  0.59499007445E+02  0.30973430379E+03  0.35564608327E+03  0.12499959497E+03 0.  0.
          2    1    1    2  501    0 -0.63866817244E+02 -0.47330735737E+01 -0.60644167330E+03  0.60981380392E+03  0.00000000000E+00 0. -1.
          1    1    1    2  502    0 -0.42827920052E+02 -0.54765933871E+02  0.23322042762E+03  0.24336249939E+03  0.00000000000E+00 0. -1.
         22    1    3    3    0    0  0.11876770106E+03  0.84588650937E+02  0.24384117774E+03  0.28411182067E+03  0.00000000000E+00 0. -1.
         22    1    3    3    0    0 -0.12072963762E+02 -0.25089643492E+02  0.65893126049E+02  0.71534262596E+02  0.00000000000E+00 0. -1.
</event>
<event>
 7    1  0.5575489E-006  0.4474548E+02  0.7818608E-02  0.1515382E+00
          2   -1    0    0  502    0  0.00000000000E+00  0.00000000000E+00  0.26321373712E+04  0.26321373712E+04  0.00000000000E+00 0. -1.
          1   -1    0    0  501    0 -0.00000000000E+00 -0.00000000000E+00 -0.60132647766E+03  0.60132647766E+03  0.00000000000E+00 0. -1.
         25    2    1    2    0    0 -0.13617425705E+02  0.13455420220E+01  0.45055696738E+03  0.46777644158E+03  0.12500389466E+03 0.  0.
          2    1    1    2  501    0 -0.28833592959E+02 -0.18140677259E+02 -0.59198723877E+03  0.59296656830E+03  0.00000000000E+00 0. -1.
          1    1    1    2  502    0  0.42451018664E+02  0.16795135237E+02  0.21722411649E+04  0.21727208390E+04  0.00000000000E+00 0. -1.
         22    1    3    3    0    0 -0.48099761894E+02  0.39968263867E+02  0.33990340047E+03  0.34560869616E+03  0.00000000000E+00 0. -1.
         22    1    3    3    0    0  0.34482336189E+02 -0.38622721845E+02  0.11065356691E+03  0.12216774542E+03  0.00000000000E+00 0. -1.
</event>
<event>
 7    1  0.5575489E-006  0.2676435E+02  0.7818608E-02  0.1685377E+00
          2   -1    0    0  502    0  0.00000000000E+00  0.00000000000E+00  0.57273837172E+02  0.57273837172E+02  0.00000000000E+00 0. -1.
          1   -1    0    0  501    0 -0.00000000000E+00 -0.00000000000E+00 -0.66164662496E+03  0.66164662496E+03  0.00000000000E+00 0. -1.
         25    2    1    2    0    0  0.83370833358E+01 -0.12814035137E+00 -0.65183367005E+02  0.14122026817E+03  0.12499907771E+03 0.  0.
          2    1    1    2  501    0  0.20139823455E+02 -0.34233793895E+01 -0.54745501763E+03  0.54783604148E+03  0.00000000000E+00 0. -1.
          1    1    1    2  502    0 -0.28476906791E+02  0.35515197408E+01  0.82655968432E+01  0.29864152491E+02  0.00000000000E+00 0. -1.
         22    1    3    3    0    0  0.32921750902E+02  0.43946712540E+02  0.45967954350E+01  0.55102502246E+02  0.00000000000E+00 0.  1.
         22    1    3    3    0    0 -0.24584667566E+02 -0.44074852892E+02 -0.69780162440E+02  0.86117765919E+02  0.00000000000E+00 0.  1.
</event>
<event>
 7    1  0.5575489E-006  0.3819876E+02  0.7818608E-02  0.1535744E+00
          2   -1    0    0  502    0  0.00000000000E+00  0.00000000000E+00  0.22999226705E+04  0.22999226705E+04  0.00000000000E+00 0. -1.
          1   -1    0    0  501    0 -0.00000000000E+00 -0.00000000000E+00 -0.12507035104E+04  0.12507035104E+04  0.00000000000E+00 0. -1.
         25    2    1    2    0    0  0.57195980885E+02  0.44421647063E+02  0.40906467157E+03  0.43382455915E+03  0.12500071857E+03 0.  0.
          2    1    1    2  501    0 -0.28749510013E+02 -0.19714705622E+02 -0.12378892378E+04  0.12383799776E+04  0.00000000000E+00 0. -1.
          1    1    1    2  502    0 -0.28446470873E+02 -0.24706941442E+02  0.18780437264E+04  0.18784216440E+04  0.00000000000E+00 0. -1.
         22    1    3    3    0    0  0.34107196887E+02  0.84767707543E+02  0.32681262970E+03  0.33934548774E+03  0.00000000000E+00 0.  1.
         22    1    3    3    0    0  0.23088783998E+02 -0.40346060479E+02  0.82252041867E+02  0.94479071408E+02  0.00000000000E+00 0.  1.
</event>
<event>
 7    1  0.5575489E-006  0.1366395E+03  0.7818608E-02  0.1312212E+00
          2   -1    0    0  502    0  0.00000000000E+00  0.00000000000E+00  0.19712060209E+03  0.19712060209E+03  0.00000000000E+00 0. -1.
          1   -1    0    0  501    0 -0.00000000000E+00 -0.00000000000E+00 -0.56376437669E+03  0.56376437669E+03  0.00000000000E+00 0. -1.
         25    2    1    2    0    0 -0.12463657780E+03 -0.95251369328E+01 -0.10250766292E+03  0.20434859102E+03  0.12500208373E+03 0.  0.
          2    1    1    2  501    0  0.13434062064E+03 -0.44037707121E+02 -0.39245855426E+03  0.41714558468E+03  0.00000000000E+00 0. -1.
          1    1    1    2  502    0 -0.97040428441E+01  0.53562844053E+02  0.12832244258E+03  0.13939080307E+03  0.00000000000E+00 0. -1.
         22    1    3    3    0    0 -0.12729622529E+03 -0.13895213675E+02 -0.12639162008E+03  0.17992289338E+03  0.00000000000E+00 0. -1.
         22    1    3    3    0    0  0.26596474934E+01  0.43700767420E+01  0.23883957162E+02  0.24425697641E+02  0.00000000000E+00 0. -1.
</event>
<event>
 7    1  0.5575489E-006  0.7394491E+02  0.7818608E-02  0.1470467E+00
          2   -1    0    0  502    0  0.00000000000E+00  0.00000000000E+00  0.15831366642E+03  0.15831366642E+03  0.00000000000E+00 0. -1.
          1   -1    0    0  501    0 -0.00000000000E+00 -0.00000000000E+00 -0.89309315288E+03  0.89309315288E+03  0.00000000000E+00 0. -1.
         25    2    1    2    0    0 -0.47176120015E+02 -0.18256965512E+02 -0.56901044839E+02  0.14636764040E+03  0.12500741643E+03 0.  0.
          2    1    1    2  501    0 -0.28089807232E+02  0.18887996154E+01 -0.77811614023E+03  0.77862528377E+03  0.00000000000E+00 0. -1.
          1    1    1    2  502    0  0.75265927247E+02  0.16368165897E+02  0.10023769861E+03  0.12641389513E+03  0.00000000000E+00 0. -1.
         22    1    3    3    0    0  0.30344588251E+02  0.11829359968E+02  0.15538444618E+02  0.36085607304E+02  0.00000000000E+00 0.  1.
         22    1    3    3    0    0 -0.77520708266E+02 -0.30086325480E+02 -0.72439489457E+02  0.11028203310E+03  0.00000000000E+00 0.  1.
</event>
<event>
 7    1  0.5575489E-006  0.1588483E+03  0.7818608E-02  0.1279969E+00
          2   -1    0    0  502    0  0.00000000000E+00  0.00000000000E+00  0.16006656361E+04  0.16006656361E+04  0.00000000000E+00 0. -1.
          1   -1    0    0  501    0 -0.00000000000E+00 -0.00000000000E+00 -0.33263138849E+03  0.33263138849E+03  0.00000000000E+00 0. -1.
         25    2    1    2    0    0 -0.16481087687E+03 -0.10373504561E+03  0.29728652080E+03  0.37673348086E+03  0.12500102134E+03 0.  0.
          2    1    1    2  501    0  0.15134568549E+03  0.42038266003E+02 -0.27098927776E+03  0.31322183989E+03  0.00000000000E+00 0. -1.
          1    1    1    2  502    0  0.13465191377E+02  0.61696779610E+02  0.12417370046E+04  0.12433417038E+04  0.00000000000E+00 0. -1.
         22    1    3    3    0    0 -0.85975183196E+02 -0.77391689261E+02  0.71155868972E+02  0.13581002681E+03  0.00000000000E+00 0.  1.
         22    1    3    3    0    0 -0.78835693673E+02 -0.26343356352E+02  0.22613065182E+03  0.24092345406E+03  0.00000000000E+00 0.  1.
</event>
<event>
 7    1  0.5575489E-006  0.4126275E+02  0.7818608E-02  0.1563979E+00
          2   -1    0    0  502    0  0.00000000000E+00  0.00000000000E+00  0.74530083244E+03  0.74530083244E+03  0.00000000000E+00 0. -1.
          1   -1    0    0  501    0 -0.00000000000E+00 -0.00000000000E+00 -0.10805051666E+04  0.10805051666E+04  0.00000000000E+00 0. -1.
         25    2    1    2    0    0 -0.96481696085E+01 -0.11063215503E+02 -0.28457484346E+03  0.31116404598E+03  0.12499896025E+03 0.  0.
          2    1    1    2  501    0 -0.22064663785E+02 -0.15417673980E+02 -0.78182095120E+03  0.78228418992E+03  0.00000000000E+00 0. -1.
          1    1    1    2  502    0  0.31712833394E+02  0.26480889483E+02  0.73119146051E+03  0.73235776314E+03  0.00000000000E+00 0. -1.
         22    1    3    3    0    0 -0.48070883722E+02  0.21963448470E+02 -0.23279714565E+03  0.23872099604E+03  0.00000000000E+00 0. -1.
         22    1    3    3    0    0  0.38422714113E+02 -0.33026663972E+02 -0.51777697816E+02  0.72443049937E+02  0.00000000000E+00 0. -1.
</event>
<event>
 7    1  0.5575489E-006  0.8550405E+02  0.7818608E-02  0.1333384E+00
          2   -1    0    0  502    0  0.00000000000E+00  0.00000000000E+00  0.27855189313E+03  0.27855189313E+03  0.00000000000E+00 0. -1.
          1   -1    0    0  501    0 -0.00000000000E+00 -0.00000000000E+00 -0.25162690098E+04  0.25162690098E+04  0.00000000000E+00 0. -1.
         25    2    1    2    0    0  0.41383280258E+02  0.52735907022E+02 -0.16854824882E+03  0.22028976269E+03  0.12500166236E+03 0.  0.
          2    1    1    2  501    0  0.23707430193E+02 -0.83644594782E+02 -0.23158806622E+04  0.23175119637E+04  0.00000000000E+00 0. -1.
          1    1    1    2  502    0 -0.65090710451E+02  0.30908687761E+02  0.24671179441E+03  0.25701917645E+03  0.00000000000E+00 0. -1.
         22    1    3    3    0    0  0.83585376935E+02  0.14475932058E+02 -0.97999798304E+02  0.12961492319E+03  0.00000000000E+00 0.  1.
         22    1    3    3    0    0 -0.42202096677E+02  0.38259974964E+02 -0.70548450520E+02  0.90674839503E+02  0.00000000000E+00 0.  1.
</event>
<event>
 7    1  0.5575489E-006  0.2940702E+02  0.7818608E-02  0.1660249E+00
          2   -1    0    0  502    0  0.00000000000E+00  0.00000000000E+00  0.82368527866E+03  0.82368527866E+03  0.00000000000E+00 0. -1.
          1   -1    0    0  501    0 -0.00000000000E+00 -0.00000000000E+00 -0.33667053630E+03  0.33667053630E+03  0.00000000000E+00 0. -1.
         25    2    1    2    0    0 -0.10071459042E+02 -0.24390458460E+02  0.89641835732E+01  0.12806709425E+03  0.12499798115E+03 0.  0.
          2    1    1    2  501    0 -0.11061274663E+02  0.27377520790E+02 -0.27618113848E+03  0.27775511102E+03  0.00000000000E+00 0. -1.
          1    1    1    2  502    0  0.21132733705E+02 -0.29870623299E+01  0.75423169727E+03  0.75453360969E+03  0.00000000000E+00 0. -1.
         22    1    3    3    0    0 -0.35298302718E+02  0.16666660637E+02  0.50928941196E+02  0.64167786333E+02  0.00000000000E+00 0.  1.
         22    1    3    3    0    0  0.25226843676E+02 -0.41057119097E+02 -0.41964757622E+02  0.63899307920E+02  0.00000000000E+00 0.  1.
</event>
<event>
 7    1  0.5575489E-006  0.1286235E+03  0.7818608E-02  0.1243932E+00
          2   -1    0    0  502    0  0.00000000000E+00  0.00000000000E+00  0.23444035794E+04  0.23444035794E+04  0.00000000000E+00 0. -1.
          1   -1    0    0  501    0 -0.00000000000E+00 -0.00000000000E+00 -0.40203571135E+03  0.40203571135E+03  0.00000000000E+00 0. -1.
         25    2    1    2    0    0  0.22460997964E+02 -0.83204014952E+02 -0.26280734750E+02  0.15408969467E+03  0.12500220979E+03 0.  0.
          2    1    1    2  501    0  0.10186471120E+03  0.44133486966E+02 -0.30004105840E+03  0.31992002248E+03  0.00000000000E+00 0. -1.
          1    1    1    2  502    0 -0.12432570917E+03  0.39070527986E+02  0.22686896612E+04  0.22724295735E+04  0.00000000000E+00 0. -1.
         22    1    3    3    0    0  0.58072298174E+01  0.24731892808E+02 -0.36422059985E+02  0.44406721266E+02  0.00000000000E+00 0.  1.
         22    1    3    3    0    0  0.16653768147E+02 -0.10793590776E+03  0.10141325236E+02  0.10968297341E+03  0.00000000000E+00 0.  1.
</event>
<event>
 7    1  0.5575489E-006  0.1187030E+03  0.7818608E-02  0.1300497E+00
          2   -1    0    0  502    0  0.00000000000E+00  0.00000000000E+00  0.20300592512E+03  0.20300592512E+03  0.00000000000E+00 0. -1.
          1   -1    0    0  501    0 -0.00000000000E+00 -0.00000000000E+00 -0.48605545599E+03  0.48605545599E+03  0.00000000000E+00 0. -1.
         25    2    1    2    0    0  0.52005181046E+02 -0.42452495681E+02 -0.79502667747E+02  0.16264168276E+03  0.12499955819E+03 0.  0.
          2    1    1    2  501    0 -0.11786616875E+03  0.65358979672E+02 -0.34408213855E+03  0.36953585486E+03  0.00000000000E+00 0. -1.
          1    1    1    2  502    0  0.65860987699E+02 -0.22906483991E+02  0.14053527542E+03  0.15688384349E+03  0.00000000000E+00 0. -1.
         22    1    3    3    0    0 -0.15003336962E+02 -0.97611305193E+01 -0.85960939170E+02  0.87804685820E+02  0.00000000000E+00 0. -1.
         22    1    3    3    0    0  0.67008518008E+02 -0.32691365161E+02  0.64582714226E+01  0.74836996944E+02  0.00000000000E+00 0. -1.
</event>
<event>
 7    1  0.5575489E-006  0.1574809E+03  0.7818608E-02  0.1407229E+00
          2   -1    0    0  502    0  0.00000000000E+00  0.00000000000E+00  0.13076942317E+04  0.13076942317E+04  0.00000000000E+00 0. -1.
          1   -1    0    0  501    0 -0.00000000000E+00 -0.00000000000E+00 -0.26477535374E+03  0.26477535374E+03  0.00000000000E+00 0. -1.
         25    2    1    2    0    0 -0.12308581972E+03  0.12623862041E+03  0.11789611657E+03  0.24619172383E+03  0.12499824911E+03 0.  0.
          2    1    1    2  501    0  0.18241977940E+02 -0.10853467445E+02 -0.19464959643E+03  0.19580355693E+03  0.00000000000E+00 0. -1.
          1    1    1    2  502    0  0.10484384178E+03 -0.11538515297E+03  0.11196723578E+04  0.11304743047E+04  0.00000000000E+00 0. -1.
         22    1    3    3    0    0 -0.18741815642E+02 -0.10269405887E+02 -0.17351120900E+02  0.27527763209E+02  0.00000000000E+00 0. -1.
         22    1    3    3    0    0 -0.10434400408E+03  0.13650802630E+03  0.13524723747E+03  0.21866396062E+03  0.00000000000E+00 0. -1.
</event>
<event>
 7    1  0.5575489E-006  0.9912847E+02  0.7818608E-02  0.1417346E+00
          2   -1    0    0  502    0  0.00000000000E+00  0.00000000000E+00  0.71922760567E+03  0.71922760567E+03  0.00000000000E+00 0. -1.
          1   -1    0    0  501    0 -0.00000000000E+00 -0.00000000000E+00 -0.10445113626E+03  0.10445113626E+03  0.00000000000E+00 0. -1.
         25    2    1    2    0    0  0.10707939943E+03  0.69534498911E+02  0.43068570075E+03  0.46627996701E+03  0.12500316188E+03 0.  0.
          2    1    1    2  501    0 -0.84986062852E+02 -0.47546906094E+02 -0.57975740902E+02  0.11333369177E+03  0.00000000000E+00 0. -1.
          1    1    1    2  502    0 -0.22093336575E+02 -0.21987592817E+02  0.24206650957E+03  0.24406508315E+03  0.00000000000E+00 0. -1.
         22    1    3    3    0    0  0.13396740740E+03  0.49571995530E+02  0.37519563516E+03  0.40146782390E+03  0.00000000000E+00 0.  1.
         22    1    3    3    0    0 -0.26888007977E+02  0.19962503381E+02  0.55490065595E+02  0.64812143105E+02  0.00000000000E+00 0.  1.
</event>
<event>
 7    1  0.5575489E-006  0.6697686E+02  0.7818608E-02  0.1434299E+00
          2   -1    0    0  502    0  0.00000000000E+00  0.00000000000E+00  0.21921380773E+04  0.21921380773E+04  0.00000000000E+00 0. -1.
          1   -1    0    0  501    0 -0.00000000000E+00 -0.00000000000E+00 -0.50742524180E+03  0.50742524180E+03  0.00000000000E+00 0. -1.
         25    2    1    2    0    0  0.93242276016E+02 -0.15637156340E+02  0.16891597414E+04  0.16964150456E+04  0.12499892883E+03 0.  0.
          2    1    1    2  501    0 -0.57367396318E+02  0.34513495965E+02 -0.50074331155E+03  0.50519903368E+03  0.00000000000E+00 0. -1.
          1    1    1    2  502    0 -0.35874879698E+02 -0.18876339624E+02  0.49629640563E+03  0.49794923981E+03  0.00000000000E+00 0. -1.
         22    1    3    3    0    0  0.11885505268E+03  0.11479384921E+02  0.12981042532E+04  0.13035846547E+04  0.00000000000E+00 0.  1.
         22    1    3    3    0    0 -0.25612776660E+02 -0.27116541262E+02  0.39105548823E+03  0.39283039090E+03  0.00000000000E+00 0.  1.
</event>
<event>
 7    1  0.5575489E-006  0.8994190E+02  0.7818608E-02  0.1358444E+00
          2   -1    0    0  502    0  0.00000000000E+00  0.00000000000E+00  0.13974559274E+03  0.13974559274E+03  0.00000000000E+00 0. -1.
          1   -1    0    0  501    0 -0.00000000000E+00 -0.00000000000E+00 -0.34521547318E+03  0.34521547318E+03  0.00000000000E+00 0. -1.
         25    2    1    2    0    0  0.62662426715E+02 -0.62144060897E+02 -0.23022336287E+03  0.27643517478E+03  0.12500058008E+03 0.  0.
          2    1    1    2  501    0 -0.99054818611E+02  0.20585334726E+02 -0.52163814662E+02  0.11382739853E+03  0.00000000000E+00 0. -1.
          1    1    1    2  502    0  0.36392391895E+02  0.41558726172E+02  0.76917297090E+02  0.94698492599E+02  0.00000000000E+00 0. -1.
         22    1    3    3    0    0  0.10468498157E+02 -0.77671470144E+02 -0.19850442004E+03  0.21341614631E+03  0.00000000000E+00 0. -1.
         22    1    3    3    0    0  0.52193928558E+02  0.15527409246E+02 -0.31718942829E+02  0.63019028479E+02  0.00000000000E+00 0. -1.
</event>
<event>
 7    1  0.5575489E-006  0.4801814E+02  0.7818608E-02  0.1464968E+00
          2   -1    0    0  502    0  0.00000000000E+00  0.00000000000E+00  0.11293684997E+04  0.11293684997E+04  0.00000000000E+00 0. -1.
          1   -1    0    0  501    0 -0.00000000000E+00 -0.00000000000E+00 -0.39571652614E+02  0.39571652614E+02  0.00000000000E+00 0. -1.
         25    2    1    2    0    0 -0.52874178297E+02 -0.20067131959E+02  0.63085089992E+03  0.64559629565E+03  0.12499340185E+03 0.  0.
          2    1    1    2  501    0  0.42122402471E+02 -0.23734385728E+02 -0.12344736256E+02  0.49900003698E+02  0.00000000000E+00 0. -1.
          1    1    1    2  502    0  0.10751775826E+02  0.43801517687E+02  0.47129068342E+03  0.47344385297E+03  0.00000000000E+00 0. -1.
         22    1    3    3    0    0  0.97772895060E+01 -0.59187370460E+02  0.35474571120E+03  0.35978223946E+03  0.00000000000E+00 0.  1.
         22    1    3    3    0    0 -0.62651467803E+02  0.39120238500E+02  0.27610518872E+03  0.28581405619E+03  0.00000000000E+00 0.  1.
</event>
<event>
 7    1  0.5575489E-006  0.2633598E+03  0.7818608E-02  0.1213578E+00
          2   -1    0    0  502    0  0.00000000000E+00  0.00000000000E+00  0.21651609576E+04  0.21651609576E+04  0.00000000000E+00 0. -1.
          1   -1    0    0  501    0 -0.00000000000E+00 -0.00000000000E+00 -0.28788363320E+03  0.28788363320E+03  0.00000000000E+00 0. -1.
         25    2    1    2    0    0 -0.27262445152E+03  0.76840827236E+01 -0.12824282956E+03  0.32627290758E+03  0.12499860076E+03 0.  0.
          2    1    1    2  501    0  0.23524342391E+03 -0.71811117777E+02  0.19276488357E+03  0.31249736873E+03  0.00000000000E+00 0. -1.
          1    1    1    2  502    0  0.37381027616E+02  0.64127035053E+02  0.18127552703E+04  0.18142743144E+04  0.00000000000E+00 0. -1.
         22    1    3    3    0    0 -0.20412390713E+03  0.60291324254E+02 -0.80278273721E+02  0.22747794283E+03  0.00000000000E+00 0.  1.
         22    1    3    3    0    0 -0.68500544393E+02 -0.52607241530E+02 -0.47964555842E+02  0.98794964754E+02  0.00000000000E+00 0.  1.
</event>
<event>
 7    1  0.5575489E-006  0.1199434E+03  0.7818608E-02  0.1294416E+00
          2   -1    0    0  502    0  0.00000000000E+00  0.00000000000E+00  0.57883439771E+03  0.57883439771E+03  0.00000000000E+00 0. -1.
          1   -1    0    0  501    0 -0.00000000000E+00 -0.00000000000E+00 -0.53159258075E+03  0.53159258075E+03  0.00000000000E+00 0. -1.
         25    2    1    2    0    0 -0.10768811868E+03 -0.72017887009E+02 -0.25423286609E+03  0.31151546065E+03  0.12499690023E+03 0.  0.
          2    1    1    2  501    0  0.47174763410E+02  0.11285747510E+03 -0.23103640948E+03  0.26141937666E+03  0.00000000000E+00 0. -1.
          1    1    1    2  502    0  0.60513355272E+02 -0.40839588094E+02  0.53251109253E+03  0.53749214115E+03  0.00000000000E+00 0. -1.
         22    1    3    3    0    0 -0.91581390843E+02 -0.41074089096E+02 -0.66112038784E+02  0.12018749359E+03  0.00000000000E+00 0.  1.
         22    1    3    3    0    0 -0.16106727839E+02 -0.30943797914E+02 -0.18812082731E+03  0.19132796706E+03  0.00000000000E+00 0.  1.
</event>
<event>
 7    1  0.5575489E-006  0.8775837E+02  0.7818608E-02  0.1339128E+00
          2   -1    0    0  502    0  0.00000000000E+00  0.00000000000E+00  0.98798567490E+03  0.98798567490E+03  0.00000000000E+00 0. -1.
          1   -1    0    0  501    0 -0.00000000000E+00 -0.00000000000E+00 -0.69995271842E+03  0.69995271842E+03  0.00000000000E+00 0. -1.
         25    2    1    2    0    0  0.60126452689E+02 -0.22287040244E+02 -0.11053117872E+03  0.17875490504E+03  0.12499708849E+03 0.  0.
          2    1    1    2  501    0  0.17588502474E+02  0.64420746466E+02 -0.55124208829E+03  0.55527221063E+03  0.00000000000E+00 0. -1.
          1    1    1    2  502    0 -0.77714955162E+02 -0.42133706222E+02  0.94980622349E+03  0.95391127766E+03  0.00000000000E+00 0. -1.
         22    1    3    3    0    0 -0.18749546981E+02  0.68720629785E+01  0.16843819366E+02  0.26124414106E+02  0.00000000000E+00 0.  1.
         22    1    3    3    0    0  0.78875999669E+02 -0.29159103222E+02 -0.12737499809E+03  0.15263049093E+03  0.00000000000E+00 0.  1.
</event>
<event>
 7    1  0.5575489E-006  0.5887816E+02  0.7818608E-02  0.1408846E+00
          2   -1    0    0  502    0  0.00000000000E+00  0.00000000000E+00  0.37816407576E+02  0.37816407576E+02  0.00000000000E+00 0. -1.
          1   -1    0    0  501    0 -0.00000000000E+00 -0.00000000000E+00 -0.74106166633E+03  0.74106166633E+03  0.00000000000E+00 0. -1.
         25    2    1    2    0    0 -0.54638413037E+01 -0.40032955257E+01 -0.55951393960E+03  0.57334677511E+03  0.12499918398E+03 0.  0.
          2    1    1    2  501    0 -0.36787296637E+02  0.45970995746E+02 -0.13241301222E+03  0.14491322731E+03  0.00000000000E+00 0. -1.
          1    1    1    2  502    0  0.42251137941E+02 -0.41967700220E+02 -0.11318306945E+02  0.60618071490E+02  0.00000000000E+00 0. -1.
         22    1    3    3    0    0  0.26120645253E+02  0.39673394737E+01 -0.52581198332E+03  0.52647532677E+03  0.00000000000E+00 0.  1.
         22    1    3    3    0    0 -0.31584486556E+02 -0.79706349994E+01 -0.33701956271E+02  0.46871448343E+02  0.00000000000E+00 0.  1.
</event>
<event>
 7    1  0.5575489E-006  0.5260226E+02  0.7818608E-02  0.1517829E+00
          2   -1    0    0  502    0  0.00000000000E+00  0.00000000000E+00  0.22191223991E+04  0.22191223991E+04  0.00000000000E+00 0. -1.
          1   -1    0    0  501    0 -0.00000000000E+00 -0.00000000000E+00 -0.58974743298E+03  0.58974743298E+03  0.00000000000E+00 0. -1.
         25    2    1    2    0    0 -0.18992623533E+02 -0.42466064023E+02 -0.50798603567E+03  0.52521241732E+03  0.12503673271E+03 0.  0.
          2    1    1    2  501    0  0.26856534780E+02 -0.95533133492E+01 -0.70045796133E+02  0.75623758253E+02  0.00000000000E+00 0. -1.
          1    1    1    2  502    0 -0.78639112471E+01  0.52019377372E+02  0.22074067979E+04  0.22080336565E+04  0.00000000000E+00 0. -1.
         22    1    3    3    0    0 -0.55082732029E+02 -0.65557900545E+02 -0.26538050777E+03  0.27885257682E+03  0.00000000000E+00 0.  1.
         22    1    3    3    0    0  0.36090108497E+02  0.23091836522E+02 -0.24260552790E+03  0.24635984050E+03  0.00000000000E+00 0.  1.
</event>
<event>
 7    1  0.5575489E-006  0.1055563E+03  0.7818608E-02  0.1434075E+00
          2   -1    0    0  502    0  0.00000000000E+00  0.00000000000E+00  0.13756180417E+04  0.13756180417E+04  0.00000000000E+00 0. -1.
          1   -1    0    0  501    0 -0.00000000000E+00 -0.00000000000E+00 -0.88583041447E+03  0.88583041447E+03  0.00000000000E+00 0. -1.
         25    2    1    2    0    0 -0.96670906645E+02  0.83411191968E+02 -0.11833780833E+03  0.21431612209E+03  0.12499948868E+03 0.  0.
          2    1    1    2  501    0  0.24984041086E+02 -0.62971324669E+01 -0.71718427138E+03  0.71764694335E+03  0.00000000000E+00 0. -1.
          1    1    1    2  502    0  0.71686865559E+02 -0.77114059501E+02  0.13253097070E+04  0.13294853908E+04  0.00000000000E+00 0. -1.
         22    1    3    3    0    0 -0.12967598379E+02 -0.28117626120E+02 -0.50520798260E+02  0.59254624825E+02  0.00000000000E+00 0.  1.
         22    1    3    3    0    0 -0.83703308266E+02  0.11152881809E+03 -0.67817010072E+02  0.15506149726E+03  0.00000000000E+00 0.  1.
</event>
<event>
 7    1  0.5575489E-006  0.7186167E+02  0.7818608E-02  0.1451342E+00
          2   -1    0    0  502    0  0.00000000000E+00  0.00000000000E+00  0.20259934879E+04  0.20259934879E+04  0.00000000000E+00 0. -1.
          1   -1    0    0  501    0 -0.00000000000E+00 -0.00000000000E+00 -0.10446331654E+02  0.10446331654E+02  0.00000000000E+00 0. -1.
         25    2    1    2    0    0  0.37901509935E+02 -0.25107176076E+02  0.10797032206E+04  0.10878650270E+04  0.12499751071E+03 0.  0.
          2    1    1    2  501    0 -0.60276285275E+02  0.49744525327E+02  0.25015718090E+03  0.26208083394E+03  0.00000000000E+00 0. -1.
          1    1    1    2  502    0  0.22374775340E+02 -0.24637349251E+02  0.68568675473E+03  0.68649395858E+03  0.00000000000E+00 0. -1.
         22    1    3    3    0    0  0.24039378704E+02 -0.61425114593E+02  0.29876589757E+03  0.30596077851E+03  0.00000000000E+00 0. -1.
         22    1    3    3    0    0  0.13862131230E+02  0.36317938517E+02  0.78093732303E+03  0.78190424851E+03  0.00000000000E+00 0. -1.
</event>
<event>
 7    1  0.5575489E-006  0.1008922E+03  0.7818608E-02  0.1284817E+00
          2   -1    0    0  502    0  0.00000000000E+00  0.00000000000E+00  0.11642515760E+03  0.11642515760E+03  0.00000000000E+00 0. -1.
          1   -1    0    0  501    0 -0.00000000000E+00 -0.00000000000E+00 -0.13988785647E+04  0.13988785647E+04  0.00000000000E+00 0. -1.
         25    2    1    2    0    0 -0.11066028190E+03 -0.11037817838E+03 -0.30099108216E+03  0.36145514758E+03  0.12500060767E+03 0.  0.
          2    1    1    2  501    0  0.16620072202E+02  0.97204507431E+02 -0.10384371118E+04  0.10431090922E+04  0.00000000000E+00 0. -1.
          1    1    1    2  502    0  0.94040209699E+02  0.13173670946E+02  0.56974786870E+02  0.11073948250E+03  0.00000000000E+00 0. -1.
         22    1    3    3    0    0 -0.31321454813E+02  0.20212480855E+02 -0.21797521097E+02  0.43182286182E+02  0.00000000000E+00 0. -1.
         22    1    3    3    0    0 -0.79338827088E+02 -0.13059065923E+03 -0.27919356106E+03  0.31827286139E+03  0.00000000000E+00 0. -1.
</event>
<event>
 7    1  0.5575489E-006  0.3553347E+02  0.7818608E-02  0.1577022E+00
          2   -1    0    0  502    0  0.00000000000E+00  0.00000000000E+00  0.40655933329E+02  0.40655933329E+02  0.00000000000E+00 0. -1.
          1   -1    0    0  501    0 -0.00000000000E+00 -0.00000000000E+00 -0.65003183861E+03  0.65003183861E+03  0.00000000000E+00 0. -1.
         25    2    1    2    0    0  0.34300383866E+02  0.27373397047E+02 -0.24991107720E+03  0.28285435054E+03  0.12500087165E+03 0.  0.
          2    1    1    2  501    0 -0.65241452309E+01 -0.35022172405E+02 -0.37391104707E+03  0.37560429730E+03  0.00000000000E+00 0. -1.
          1    1    1    2  502    0 -0.27776238635E+02  0.76487753580E+01  0.14446218986E+02  0.32229124099E+02  0.00000000000E+00 0. -1.
         22    1    3    3    0    0 -0.15265437256E+02 -0.24140217580E+02 -0.66760711356E+01  0.29331784897E+02  0.00000000000E+00 0.  1.
         22    1    3    3    0    0  0.49565821123E+02  0.51513614627E+02 -0.24323500607E+03  0.25352256565E+03  0.00000000000E+00 0.  1.
</event>
<event>
 7    1  0.5575489E-006  0.1048456E+03  0.7818608E-02  0.1450991E+00
          2   -1    0    0  502    0  0.00000000000E+00  0.00000000000E+00  0.32572871872E+03  0.32572871872E+03  0.00000000000E+00 0. -1.
          1   -1    0    0  501    0 -0.00000000000E+00 -0.00000000000E+00 -0.20260295819E+04  0.20260295819E+04  0.00000000000E+00 0. -1.
         25    2    1    2    0    0 -0.94088319524E+01 -0.82084879635E+02 -0.31493037686E+03  0.34875859013E+03  0.12499983334E+03 0.  0.
          2    1    1    2  501    0 -0.41820631485E+01 -0.22484434347E+02 -0.16851035195E+04  0.16852587074E+04  0.00000000000E+00 0. -1.
          1    1    1    2  502    0  0.13590895101E+02  0.10456931398E+03  0.29973303319E+03  0.31774100308E+03  0.00000000000E+00 0. -1.
         22    1    3    3    0    0 -0.21867597068E+00 -0.79306648380E+02 -0.76680740463E+02  0.11031558482E+03  0.00000000000E+00 0. -1.
         22    1    3    3    0    0 -0.91901559817E+01 -0.27782312555E+01 -0.23824963640E+03  0.23844300531E+03  0.00000000000E+00 0. -1.
</event>
<event>
 7    1  0.5575489E-006  0.7014637E+02  0.7818608E-02  0.1438465E+00
          2   -1    0    0  502    0  0.00000000000E+00  0.00000000000E+00  0.49434832243E+03  0.49434832243E+03  0.00000000000E+00 0. -1.
          1   -1    0    0  501    0 -0.00000000000E+00 -0.00000000000E+00 -0.22728917345E+03  0.22728917345E+03  0.00000000000E+00 0. -1.
         25    2    1    2    0    0  0.47956804133E+02  0.26337655619E+02  0.19473513640E+03  0.23778191367E+03  0.12499975181E+03 0.  0.
          2    1    1    2  501    0  0.27194572703E+02 -0.25840562550E+02 -0.19890274534E+03  0.20240944039E+03  0.00000000000E+00 0. -1.
          1    1    1    2  502    0 -0.75151376836E+02 -0.49709306925E+00  0.27122675791E+03  0.28144614183E+03  0.00000000000E+00 0. -1.
         22    1    3    3    0    0 -0.19630759818E+02 -0.37435679263E+02  0.76483633928E+02  0.87387316424E+02  0.00000000000E+00 0. -1.
         22    1    3    3    0    0  0.67587563952E+02  0.63773334882E+02  0.11825150248E+03  0.15039459725E+03  0.00000000000E+00 0. -1.
</event>
<event>
 7    1  0.5575489E-006  0.6381233E+02  0.7818608E-02  0.1403949E+00
          2   -1    0    0  502    0  0.00000000000E+00  0.00000000000E+00  0.21754860035E+04  0.21754860035E+04  0.00000000000E+00 0. -1.
          1   -1    0    0  501    0 -0.00000000000E+00 -0.00000000000E+00 -0.18336261155E+03  0.18336261155E+03  0.00000000000E+00 0. -1.
         25    2    1    2    0    0  0.43075544698E+02  0.14458435626E+02 -0.45535327773E+02  0.14058066979E+03  0.12499963892E+03 0.  0.
          2    1    1    2  501    0 -0.25773398344E+02  0.47169455532E+02 -0.81779832200E+02  0.97862998892E+02  0.00000000000E+00 0. -1.
          1    1    1    2  502    0 -0.17302146354E+02 -0.61627891158E+02  0.21194385519E+04  0.21204049464E+04  0.00000000000E+00 0. -1.
         22    1    3    3    0    0  0.19274959567E+02  0.16847666076E+02 -0.88106058442E+02  0.91749907100E+02  0.00000000000E+00 0. -1.
         22    1    3    3    0    0  0.23800585131E+02 -0.23892304499E+01  0.42570730669E+02  0.48830762686E+02  0.00000000000E+00 0. -1.
</event>
<event>
 7    1  0.5575489E-006  0.1274555E+03  0.7818608E-02  0.1332981E+00
          2   -1    0    0  502    0  0.00000000000E+00  0.00000000000E+00  0.15674974635E+04  0.15674974635E+04  0.00000000000E+00 0. -1.
          1   -1    0    0  501    0 -0.00000000000E+00 -0.00000000000E+00 -0.36948481028E+03  0.36948481028E+03  0.00000000000E+00 0. -1.
         25    2    1    2    0    0  0.32878215614E+02 -0.12213872560E+03 -0.20126735764E+03  0.26857652052E+03  0.12500381103E+03 0.  0.
          2    1    1    2  501    0 -0.48301630268E+02 -0.44952127953E+01 -0.12744243067E+03  0.13636285257E+03  0.00000000000E+00 0. -1.
          1    1    1    2  502    0  0.15423414654E+02  0.12663393840E+03  0.15267224415E+04  0.15320429007E+04  0.00000000000E+00 0. -1.
         22    1    3    3    0    0  0.64456453075E+02 -0.15867151841E+02 -0.86116740754E+02  0.10873129213E+03  0.00000000000E+00 0.  1.
         22    1    3    3    0    0 -0.31578237461E+02 -0.10627157376E+03 -0.11515061688E+03  0.15984522839E+03  0.00000000000E+00 0.  1.
</event>
<event>
 7    1  0.5575489E-006  0.1054572E+03  0.7818608E-02  0.1274045E+00
          2   -1    0    0  502    0  0.00000000000E+00  0.00000000000E+00  0.18997184390E+04  0.18997184390E+04  0.00000000000E+00 0. -1.
          1   -1    0    0  501    0 -0.00000000000E+00 -0.00000000000E+00 -0.16331414459E+04  0.16331414459E+04  0.00000000000E+00 0. -1.
         25    2    1    2    0    0 -0.86844710451E+01 -0.19064942882E+03  0.42087046936E+03  0.47872399225E+03  0.12498833557E+03 0.  0.
          2    1    1    2  501    0  0.36614578293E+02  0.93768867319E+02 -0.16008790424E+04  0.16040408150E+04  0.00000000000E+00 0. -1.
          1    1    1    2  502    0 -0.27930107248E+02  0.96880561499E+02  0.14465855662E+04  0.14500950777E+04  0.00000000000E+00 0. -1.
         22    1    3    3    0    0  0.21872298145E+02 -0.85418064323E+02  0.74499451257E+02  0.11543314678E+03  0.00000000000E+00 0.  1.
         22    1    3    3    0    0 -0.30556769190E+02 -0.10523136449E+03  0.34637101810E+03  0.36329084547E+03  0.00000000000E+00 0.  1.
</event>
<event>
 7    1  0.5575489E-006  0.2638145E+03  0.7818608E-02  0.1218978E+00
          2   -1    0    0  502    0  0.00000000000E+00  0.00000000000E+00  0.28064891246E+03  0.28064891246E+03  0.00000000000E+00 0. -1.
          1   -1    0    0  501    0 -0.00000000000E+00 -0.00000000000E+00 -0.15114534566E+04  0.15114534566E+04  0.00000000000E+00 0. -1.
         25    2    1    2    0    0 -0.19181170517E+03  0.25309483823E+03 -0.95487020103E+03  0.10140286767E+04  0.12501331499E+03 0.  0.
          2    1    1    2  501    0  0.65085720219E+02 -0.25737421367E+02 -0.45614776986E+03  0.46148602772E+03  0.00000000000E+00 0. -1.
          1    1    1    2  502    0  0.12672598495E+03 -0.22735741686E+03  0.18021342672E+03  0.31658766469E+03  0.00000000000E+00 0. -1.
         22    1    3    3    0    0  0.11724900183E+02  0.44536557996E+02 -0.19058645619E+03  0.19607186327E+03  0.00000000000E+00 0. -1.
         22    1    3    3    0    0 -0.20353660535E+03  0.20855828023E+03 -0.76428374484E+03  0.81795681341E+03  0.00000000000E+00 0. -1.
</event>
<event>
 7    1  0.5575489E-006  0.6655597E+02  0.7818608E-02  0.1490601E+00
          2   -1    0    0  502    0  0.00000000000E+00  0.00000000000E+00  0.44947398862E+03  0.44947398862E+03  0.00000000000E+00 0. -1.
          1   -1    0    0  501    0 -0.00000000000E+00 -0.00000000000E+00 -0.13572336683E+03  0.13572336683E+03  0.00000000000E+00 0. -1.
         25    2    1    2    0    0  0.37059472868E+02  0.27775336677E+02 -0.49822998828E+01  0.13339432705E+03  0.12499739725E+03 0.  0.
          2    1    1    2  501    0  0.26610278700E+02 -0.53099923080E+01 -0.60658283364E+02  0.66450961554E+02  0.00000000000E+00 0. -1.
          1    1    1    2  502    0 -0.63669751567E+02 -0.22465344369E+02  0.37939120504E+03  0.38535206684E+03  0.00000000000E+00 0. -1.
         22    1    3    3    0    0  0.24282487893E+02 -0.11625060709E+02  0.54572517753E+02  0.60851794950E+02  0.00000000000E+00 0. -1.
         22    1    3    3    0    0  0.12776984975E+02  0.39400397387E+02 -0.59554817635E+02  0.72542532096E+02  0.00000000000E+00 0. -1.
</event>
<event>
 7    1  0.5575489E-006  0.8806610E+02  0.7818608E-02  0.1375683E+00
          2   -1    0    0  502    0  0.00000000000E+00  0.00000000000E+00  0.40319380508E+03  0.40319380508E+03  0.00000000000E+00 0. -1.
          1   -1    0    0  501    0 -0.00000000000E+00 -0.00000000000E+00 -0.10060488441E+04  0.10060488441E+04  0.00000000000E+00 0. -1.
         25    2    1    2    0    0  0.43053808197E+02  0.94492109440E+02 -0.34140161715E+02  0.16606005861E+03  0.12501201254E+03 0.  0.
          2    1    1    2  501    0 -0.48402700363E+02 -0.68384543082E+01 -0.89955691732E+03  0.90088413981E+03  0.00000000000E+00 0. -1.
          1    1    1    2  502    0  0.53488921665E+01 -0.87653655132E+02  0.33084204004E+03  0.34229845072E+03  0.00000000000E+00 0. -1.
         22    1    3    3    0    0 -0.21921789509E+02 -0.83576837230E+01  0.21922012888E+02  0.32109038939E+02  0.00000000000E+00 0.  1.
         22    1    3    3    0    0  0.64975597706E+02  0.10284979316E+03 -0.56062174603E+02  0.13395101968E+03  0.00000000000E+00 0.  1.
</event>
<event>
 7    1  0.5575489E-006  0.6221776E+02  0.7818608E-02  0.1514469E+00
          2   -1    0    0  502    0  0.00000000000E+00  0.00000000000E+00  0.28598475889E+04  0.28598475889E+04  0.00000000000E+00 0. -1.
          1   -1    0    0  501    0 -0.00000000000E+00 -0.00000000000E+00 -0.12805828096E+03  0.12805828096E+03  0.00000000000E+00 0. -1.
         25    2    1    2    0    0 -0.62264678089E+02 -0.14941755805E+02 -0.55188397244E+02  0.15090208232E+03  0.12500213220E+03 0.  0.
          2    1    1    2  501    0  0.11890560357E+02 -0.21592592743E+02 -0.18509988822E+02  0.30826046992E+02  0.00000000000E+00 0. -1.
          1    1    1    2  502    0  0.50374117732E+02  0.36534348547E+02  0.28054876940E+04  0.28061777406E+04  0.00000000000E+00 0. -1.
         22    1    3    3    0    0 -0.19973659858E+02 -0.41873410979E+02  0.27696946875E+02  0.54031939641E+02  0.00000000000E+00 0.  1.
         22    1    3    3    0    0 -0.42291018231E+02  0.26931655175E+02 -0.82885344119E+02  0.96870142682E+02  0.00000000000E+00 0.  1.
</event>
<event>
 7    1  0.5575489E-006  0.5218863E+02  0.7818608E-02  0.1453899E+00
          2   -1    0    0  502    0  0.00000000000E+00  0.00000000000E+00  0.60478219731E+03  0.60478219731E+03  0.00000000000E+00 0. -1.
          1   -1    0    0  501    0 -0.00000000000E+00 -0.00000000000E+00 -0.24727792874E+03  0.24727792874E+03  0.00000000000E+00 0. -1.
         25    2    1    2    0    0 -0.22899550940E+02 -0.56076471695E+02  0.43243186920E+03  0.45419321698E+03  0.12500078696E+03 0.  0.
          2    1    1    2  501    0 -0.27235272639E+02  0.35790822124E+02 -0.22962500586E+03  0.23398800469E+03  0.00000000000E+00 0. -1.
          1    1    1    2  502    0  0.50134823579E+02  0.20285649571E+02  0.15469740522E+03  0.16387890437E+03  0.00000000000E+00 0. -1.
         22    1    3    3    0    0 -0.72194802622E+02 -0.52904426101E+02  0.27742263851E+03  0.29150349601E+03  0.00000000000E+00 0. -1.
         22    1    3    3    0    0  0.49295251681E+02 -0.31720455938E+01  0.15500923069E+03  0.16268972098E+03  0.00000000000E+00 0. -1.
</event>
<event>
 7    1  0.5575489E-006  0.1258307E+03  0.7818608E-02  0.1285141E+00
          2   -1    0    0  502    0  0.00000000000E+00  0.00000000000E+00  0.14201944770E+04  0.14201944770E+04  0.00000000000E+00 0. -1.
          1   -1    0    0  501    0 -0.00000000000E+00 -0.00000000000E+00 -0.35114811264E+03  0.35114811264E+03  0.00000000000E+00 0. -1.
         25    2    1    2    0    0 -0.17684800834E+03 -0.72021209211E+02 -0.30606726406E+02  0.23026820340E+03  0.12499760465E+03 0.  0.
          2    1    1    2  501    0  0.11041761189E+03  0.35296099195E+02 -0.20430929168E+03  0.23490455573E+03  0.00000000000E+00 0. -1.
          1    1    1    2  502    0  0.66430396445E+02  0.36725110016E+02  0.13039623825E+04  0.13061698305E+04  0.00000000000E+00 0. -1.
         22    1    3    3    0    0 -0.10530838391E+03  0.31364660015E+01 -0.61516615766E+02  0.12199994736E+03  0.00000000000E+00 0. -1.
         22    1    3    3    0    0 -0.71539624433E+02 -0.75157675212E+02  0.30909889360E+02  0.10826825605E+03  0.00000000000E+00 0. -1.
</event>
<event>
 7    1  0.5575489E-006  0.4244789E+02  0.7818608E-02  0.1574925E+00
          2   -1    0    0  502    0  0.00000000000E+00  0.00000000000E+00  0.27633604370E+04  0.27633604370E+04  0.00000000000E+00 0. -1.
          1   -1    0    0  501    0 -0.00000000000E+00 -0.00000000000E+00 -0.40121025788E+02  0.40121025788E+02  0.00000000000E+00 0. -1.
         25    2    1    2    0    0 -0.28083292376E+02 -0.18762526994E+02  0.14882447342E+04  0.14938661292E+04  0.12499167675E+03 0.  0.
          2    1    1    2  501    0  0.10642154941E+02 -0.21993612476E+02 -0.32880907172E+02  0.40964966838E+02  0.00000000000E+00 0. -1.
          1    1    1    2  502    0  0.17441137435E+02  0.40756139470E+02  0.12678755842E+04  0.12686503668E+04  0.00000000000E+00 0. -1.
         22    1    3    3    0    0  0.18431489460E+02 -0.47960109451E+02  0.30114125666E+03  0.30549295960E+03  0.00000000000E+00 0.  1.
         22    1    3    3    0    0 -0.46514781837E+02  0.29197582457E+02  0.11871034775E+04  0.11883731696E+04  0.00000000000E+00 0.  1.
</event>
<event>
 7    1  0.5575489E-006  0.1426921E+03  0.7818608E-02  0.1356131E+00
          2   -1    0    0  502    0  0.00000000000E+00  0.00000000000E+00  0.89445459965E+03  0.89445459965E+03  0.00000000000E+00 0. -1.
          1   -1    0    0  501    0 -0.00000000000E+00 -0.00000000000E+00 -0.93265698646E+03  0.93265698646E+03  0.00000000000E+00 0. -1.
         25    2    1    2    0    0 -0.30425390810E+02 -0.15629201923E+03  0.32913620932E+02  0.20508955482E+03  0.12500207747E+03 0.  0.
          2    1    1    2  501    0  0.32354567341E+02  0.14623152819E+02 -0.83971910131E+03  0.84046940678E+03  0.00000000000E+00 0. -1.
          1    1    1    2  502    0 -0.19291765310E+01  0.14166886641E+03  0.76860309357E+03  0.78155262451E+03  0.00000000000E+00 0. -1.
         22    1    3    3    0    0 -0.67913414622E+02 -0.46581760323E+02 -0.65632878031E+01  0.82614581202E+02  0.00000000000E+00 0. -1.
         22    1    3    3    0    0  0.37488023811E+02 -0.10971025891E+03  0.39476908735E+02  0.12247497362E+03  0.00000000000E+00 0. -1.
</event>
<event>
 7    1  0.5575489E-006  0.4507413E+02  0.7818608E-02  0.1477969E+00
          2   -1    0    0  502    0  0.00000000000E+00  0.00000000000E+00  0.17204251623E+03  0.17204251623E+03  0.00000000000E+00 0. -1.
          1   -1    0    0  501    0 -0.00000000000E+00 -0.00000000000E+00 -0.26165037889E+03  0.26165037889E+03  0.00000000000E+00 0. -1.
         25    2    1    2    0    0 -0.93339941196E+01  0.33065345831E+02 -0.34962617989E+02  0.13426651456E+03  0.12499868693E+03 0.  0.
          2    1    1    2  501    0 -0.36461863495E+02 -0.24239234887E+02 -0.16971109172E+03  0.17526797382E+03  0.00000000000E+00 0. -1.
          1    1    1    2  502    0  0.45795857614E+02 -0.88261109434E+01  0.11506584704E+03  0.12415840674E+03  0.00000000000E+00 0. -1.
         22    1    3    3    0    0 -0.41325006536E+01 -0.40257036851E+02  0.17364851320E+02  0.44036855462E+02  0.00000000000E+00 0. -1.
         22    1    3    3    0    0 -0.52014934660E+01  0.73322382681E+02 -0.52327469309E+02  0.90229659096E+02  0.00000000000E+00 0. -1.
</event>
<event>
 7    1  0.5575489E-006  0.1594566E+03  0.7818608E-02  0.1407202E+00
          2   -1    0    0  502    0  0.00000000000E+00  0.00000000000E+00  0.12175284326E+04  0.12175284326E+04  0.00000000000E+00 0. -1.
          1   -1    0    0  501    0 -0.00000000000E+00 -0.00000000000E+00 -0.49022853064E+03  0.49022853064E+03  0.00000000000E+00 0. -1.
         25    2    1    2    0    0  0.12197320998E+03  0.12196215263E+03  0.10160915379E+04  0.10381807166E+04  0.12499982479E+03 0.  0.
          2    1    1    2  501    0 -0.12316463025E+03 -0.10102797522E+03 -0.46530699607E+03  0.49181986389E+03  0.00000000000E+00 0. -1.
          1    1    1    2  502    0  0.11914202753E+01 -0.20934177410E+02  0.17651536010E+03  0.17775638277E+03  0.00000000000E+00 0. -1.
         22    1    3    3    0    0 -0.18193572302E+02  0.22711847879E+02  0.58827691855E+02  0.65631786782E+02  0.00000000000E+00 0. -1.
         22    1    3    3    0    0  0.14016678228E+03  0.99250304748E+02  0.95726384609E+03  0.97254892981E+03  0.00000000000E+00 0. -1.
</event>
<event>
 7    1  0.5575489E-006  0.8655452E+02  0.7818608E-02  0.1374023E+00
          2   -1    0    0  502    0  0.00000000000E+00  0.00000000000E+00  0.46133098400E+03  0.46133098400E+03  0.00000000000E+00 0. -1.
          1   -1    0    0  501    0 -0.00000000000E+00 -0.00000000000E+00 -0.14952255884E+03  0.14952255884E+03  0.00000000000E+00 0. -1.
         25    2    1    2    0    0 -0.63233130075E+02 -0.65652219075E+02  0.19076276575E+03  0.24560974426E+03  0.12500028428E+03 0.  0.
          2    1    1    2  501    0  0.16906067159E+02  0.85552588313E+02 -0.10336523466E+03  0.13523842727E+03  0.00000000000E+00 0. -1.
          1    1    1    2  502    0  0.46327062916E+02 -0.19900369237E+02  0.22441089407E+03  0.23000537131E+03  0.00000000000E+00 0. -1.
         22    1    3    3    0    0  0.17057452897E+02 -0.49212710226E+02  0.13958696377E+03  0.14898781159E+03  0.00000000000E+00 0.  1.
         22    1    3    3    0    0 -0.80290582971E+02 -0.16439508850E+02  0.51175801981E+02  0.96621932673E+02  0.00000000000E+00 0.  1.
</event>
<event>
 7    1  0.5575489E-006  0.2557681E+03  0.7818608E-02  0.1235099E+00
          2   -1    0    0  502    0  0.00000000000E+00  0.00000000000E+00  0.13684818470E+04  0.13684818470E+04  0.00000000000E+00 0. -1.
          1   -1    0    0  501    0 -0.00000000000E+00 -0.00000000000E+00 -0.27525307245E+04  0.27525307245E+04  0.00000000000E+00 0. -1.
         25    2    1    2    0    0  0.29722107737E+03 -0.85060086990E+02 -0.29169885485E+03  0.44304750631E+03  0.12500913445E+03 0.  0.
          2    1    1    2  501    0 -0.60628415984E+02 -0.73481774817E+01 -0.23722849280E+04  0.23730709176E+04  0.00000000000E+00 0. -1.
          1    1    1    2  502    0 -0.23659266138E+03  0.92408264472E+02  0.12799349052E+04  0.13048941476E+04  0.00000000000E+00 0. -1.
         22    1    3    3    0    0  0.70228356868E+02 -0.79740918332E+02 -0.99407031372E+02  0.14550736769E+03  0.00000000000E+00 0.  1.
         22    1    3    3    0    0  0.22699272050E+03 -0.53191686581E+01 -0.19229182348E+03  0.29754013862E+03  0.00000000000E+00 0.  1.
</event>
<event>
 7    1  0.5575489E-006  0.9784439E+02  0.7818608E-02  0.1306132E+00
          2   -1    0    0  502    0  0.00000000000E+00  0.00000000000E+00  0.21280699565E+04  0.21280699565E+04  0.00000000000E+00 0. -1.
          1   -1    0    0  501    0 -0.00000000000E+00 -0.00000000000E+00 -0.27030121415E+03  0.27030121415E+03  0.00000000000E+00 0. -1.
         25    2    1    2    0    0  0.37188993944E+02 -0.84117268817E+01  0.17096429229E+03  0.21519337946E+03  0.12500249159E+03 0.  0.
          2    1    1    2  501    0  0.16292094313E+02 -0.78666761324E+02 -0.24029617874E+03  0.25336958221E+03  0.00000000000E+00 0. -1.
          1    1    1    2  502    0 -0.53481088257E+02  0.87078488206E+02  0.19271006288E+04  0.19298082090E+04  0.00000000000E+00 0. -1.
         22    1    3    3    0    0  0.82216684494E+02  0.81737626005E+01  0.11177770936E+03  0.13899874069E+03  0.00000000000E+00 0. -1.
         22    1    3    3    0    0 -0.45027690550E+02 -0.16585489482E+02  0.59186582934E+02  0.76194638768E+02  0.00000000000E+00 0. -1.
</event>
<event>
 7    1  0.5575489E-006  0.1629972E+03  0.7818608E-02  0.1260792E+00
          2   -1    0    0  502    0  0.00000000000E+00  0.00000000000E+00  0.18845490216E+02  0.18845490216E+02  0.00000000000E+00 0. -1.
          1   -1    0    0  501    0 -0.00000000000E+00 -0.00000000000E+00 -0.43722440373E+04  0.43722440373E+04  0.00000000000E+00 0. -1.
         25    2    1    2    0    0 -0.15424134903E+03 -0.48788573551E+02 -0.12850921016E+04  0.13012518046E+04  0.12499532246E+03 0.  0.
          2    1    1    2  501    0  0.30826767221E+02 -0.67353202208E+02 -0.23737363968E+04  0.23748918343E+04  0.00000000000E+00 0. -1.
          1    1    1    2  502    0  0.12341458181E+03  0.11614177576E+03 -0.69457004870E+03  0.71494588861E+03  0.00000000000E+00 0. -1.
         22    1    3    3    0    0 -0.16689157309E+03 -0.28388409389E+02 -0.92521783585E+03  0.94057787702E+03  0.00000000000E+00 0.  1.
         22    1    3    3    0    0  0.12650224064E+02 -0.20400164162E+02 -0.35987426574E+03  0.36067392754E+03  0.00000000000E+00 0.  1.
</event>
<event>
 7    1  0.5575489E-006  0.4718169E+02  0.7818608E-02  0.1505342E+00
          2   -1    0    0  502    0  0.00000000000E+00  0.00000000000E+00  0.60819646644E+02  0.60819646644E+02  0.00000000000E+00 0. -1.
          1   -1    0    0  501    0 -0.00000000000E+00 -0.00000000000E+00 -0.11717714154E+04  0.11717714154E+04  0.00000000000E+00 0. -1.
         25    2    1    2    0    0  0.55303978352E+02  0.45365345548E+02 -0.13833549391E+03  0.19969377383E+03  0.12499739930E+03 0.  0.
          2    1    1    2  501    0 -0.20894135994E+02 -0.41935988391E+02 -0.99210006181E+03  0.99320578164E+03  0.00000000000E+00 0. -1.
          1    1    1    2  502    0 -0.34409842358E+02 -0.34293571569E+01  0.19483786947E+02  0.39691506590E+02  0.00000000000E+00 0. -1.
         22    1    3    3    0    0  0.65400421349E+02  0.49467096019E+02 -0.24846699718E+02  0.85682945725E+02  0.00000000000E+00 0.  1.
         22    1    3    3    0    0 -0.10096442997E+02 -0.41017504713E+01 -0.11348879419E+03  0.11401082810E+03  0.00000000000E+00 0.  1.
</event>
<event>
 7    1  0.5575489E-006  0.7984090E+02  0.7818608E-02  0.1337512E+00
          2   -1    0    0  502    0  0.00000000000E+00  0.00000000000E+00  0.94395545125E+03  0.94395545125E+03  0.00000000000E+00 0. -1.
          1   -1    0    0  501    0 -0.00000000000E+00 -0.00000000000E+00 -0.13565834619E+03  0.13565834619E+03  0.00000000000E+00 0. -1.
         25    2    1    2    0    0  0.54789742703E+02 -0.50196534206E+02  0.37395842402E+03  0.40123754418E+03  0.12500022403E+03 0.  0.
          2    1    1    2  501    0  0.31491269540E+02  0.67448441417E+02 -0.10677191026E+03  0.13015849234E+03  0.00000000000E+00 0. -1.
          1    1    1    2  502    0 -0.86281012243E+02 -0.17251907211E+02  0.54111059130E+03  0.54821776092E+03  0.00000000000E+00 0. -1.
         22    1    3    3    0    0 -0.27768218895E+01 -0.74588386928E+02  0.26808839813E+03  0.27828497519E+03  0.00000000000E+00 0.  1.
         22    1    3    3    0    0  0.57566564592E+02  0.24391852721E+02  0.10587002589E+03  0.12295256898E+03  0.00000000000E+00 0.  1.
</event>
<event>
 7    1  0.5575489E-006  0.3668264E+02  0.7818608E-02  0.1571535E+00
          2   -1    0    0  502    0  0.00000000000E+00  0.00000000000E+00  0.26142272833E+04  0.26142272833E+04  0.00000000000E+00 0. -1.
          1   -1    0    0  501    0 -0.00000000000E+00 -0.00000000000E+00 -0.65047658128E+03  0.65047658128E+03  0.00000000000E+00 0. -1.
         25    2    1    2    0    0  0.88952252781E+01 -0.10062414242E+02  0.17971768206E+02  0.12699734523E+03  0.12499985612E+03 0.  0.
          2    1    1    2  501    0  0.27787383108E+02  0.78557248311E+01 -0.59548107505E+03  0.59618081303E+03  0.00000000000E+00 0. -1.
          1    1    1    2  502    0 -0.36682608386E+02  0.22066894113E+01  0.25412600089E+04  0.25415257063E+04  0.00000000000E+00 0. -1.
         22    1    3    3    0    0  0.62713983366E+02  0.16593489402E+02  0.16425192786E+02  0.66919164357E+02  0.00000000000E+00 0. -1.
         22    1    3    3    0    0 -0.53818758088E+02 -0.26655903645E+02  0.15465754196E+01  0.60078180871E+02  0.00000000000E+00 0. -1.
</event>
<event>
 7    1  0.5575489E-006  0.3453418E+02  0.7818608E-02  0.1553095E+00
          2   -1    0    0  502    0  0.00000000000E+00  0.00000000000E+00  0.15508482890E+04  0.15508482890E+04  0.00000000000E+00 0. -1.
          1   -1    0    0  501    0 -0.00000000000E+00 -0.00000000000E+00 -0.37857105694E+02  0.37857105694E+02  0.00000000000E+00 0. -1.
         25    2    1    2    0    0 -0.20345008548E+01 -0.66179288150E+00  0.31954709687E+03  0.34313182090E+03  0.12499808891E+03 0.  0.
          2    1    1    2  501    0 -0.14786329203E+01 -0.34432058357E+02 -0.14301336141E+02  0.37313284677E+02  0.00000000000E+00 0. -1.
          1    1    1    2  502    0  0.35131337751E+01  0.35093851238E+02  0.12077454226E+04  0.12082602891E+04  0.00000000000E+00 0. -1.
         22    1    3    3    0    0 -0.50713526236E+02  0.25133900431E+02  0.23856343303E+03  0.24518581988E+03  0.00000000000E+00 0. -1.
         22    1    3    3    0    0  0.48679025381E+02 -0.25795693313E+02  0.80983663843E+02  0.97946001016E+02  0.00000000000E+00 0. -1.
</event>
<event>
 7    1  0.5575489E-006  0.1526192E+03  0.7818608E-02  0.1215237E+00
          2   -1    0    0  502    0  0.00000000000E+00  0.00000000000E+00  0.21986325931E+04  0.21986325931E+04  0.00000000000E+00 0. -1.
          1   -1    0    0  501    0 -0.00000000000E+00 -0.00000000000E+00 -0.41340709700E+03  0.41340709700E+03  0.00000000000E+00 0. -1.
         25    2    1    2    0    0  0.79189546650E+02 -0.25633746943E+03  0.85086421979E+02  0.30796816292E+03  0.12499923054E+03 0.  0.
          2    1    1    2  501    0 -0.36963527211E+02  0.13777913412E+03 -0.28301208560E+03  0.31693095895E+03  0.00000000000E+00 0. -1.
          1    1    1    2  502    0 -0.42226019439E+02  0.11855833531E+03  0.19831511597E+04  0.19871405682E+04  0.00000000000E+00 0. -1.
         22    1    3    3    0    0 -0.18333761703E+01 -0.16193259297E+03  0.86410336838E+02  0.18355454843E+03  0.00000000000E+00 0. -1.
         22    1    3    3    0    0  0.81022922820E+02 -0.94404876461E+02 -0.13239148591E+01  0.12441361450E+03  0.00000000000E+00 0. -1.
</event>
<event>
 7    1  0.5575489E-006  0.5674362E+02  0.7818608E-02  0.1452519E+00
          2   -1    0    0  502    0  0.00000000000E+00  0.00000000000E+00  0.70010918966E+03  0.70010918966E+03  0.00000000000E+00 0. -1.
          1   -1    0    0  501    0 -0.00000000000E+00 -0.00000000000E+00 -0.46441539020E+03  0.46441539020E+03  0.00000000000E+00 0. -1.
         25    2    1    2    0    0 -0.31794105466E+02 -0.24402269766E+02 -0.44192630481E+02  0.13850915401E+03  0.12500184496E+03 0.  0.
          2    1    1    2  501    0 -0.24573840676E+02  0.33795571294E+02 -0.37063793984E+03  0.37298592029E+03  0.00000000000E+00 0. -1.
          1    1    1    2  502    0  0.56367946142E+02 -0.93933015276E+01  0.65052436977E+03  0.65302950556E+03  0.00000000000E+00 0. -1.
         22    1    3    3    0    0 -0.79568881477E+02 -0.77096883603E+01 -0.34074140646E+02  0.86900479026E+02  0.00000000000E+00 0. -1.
         22    1    3    3    0    0  0.47774776011E+02 -0.16692581406E+02 -0.10118489835E+02  0.51608674982E+02  0.00000000000E+00 0. -1.
</event>
<event>
 7    1  0.5575489E-006  0.1923461E+03  0.7818608E-02  0.1198267E+00
          2   -1    0    0  502    0  0.00000000000E+00  0.00000000000E+00  0.13540616080E+04  0.13540616080E+04  0.00000000000E+00 0. -1.
          1   -1    0    0  501    0 -0.00000000000E+00 -0.00000000000E+00 -0.12131939391E+03  0.12131939391E+03  0.00000000000E+00 0. -1.
         25    2    1    2    0    0 -0.32599200139E+02  0.49983587912E+02  0.45167982602E+03  0.47244291797E+03  0.12500631423E+03 0.  0.
          2    1    1    2  501    0 -0.18983604552E+03  0.30972460056E+02  0.58968804476E+01  0.19243645876E+03  0.00000000000E+00 0. -1.
          1    1    1    2  502    0  0.22243524566E+03 -0.80956047967E+02  0.77516550763E+03  0.81050162519E+03  0.00000000000E+00 0. -1.
         22    1    3    3    0    0  0.17769570658E+02  0.63799205893E+02  0.12353656792E+03  0.14016911189E+03  0.00000000000E+00 0.  1.
         22    1    3    3    0    0 -0.50368770797E+02 -0.13815617982E+02  0.32814325811E+03  0.33227380609E+03  0.00000000000E+00 0.  1.
</event>
<event>
 7    1  0.5575489E-006  0.6971960E+02  0.7818608E-02  0.1455310E+00
          2   -1    0    0  502    0  0.00000000000E+00  0.00000000000E+00  0.42716267328E+02  0.42716267328E+02  0.00000000000E+00 0. -1.
          1   -1    0    0  501    0 -0.00000000000E+00 -0.00000000000E+00 -0.31367415225E+04  0.31367415225E+04  0.00000000000E+00 0. -1.
         25    2    1    2    0    0 -0.62184098670E+02  0.71783696512E+02 -0.93757995955E+03  0.95062904452E+03  0.12497855220E+03 0.  0.
          2    1    1    2  501    0  0.55452444596E+02 -0.39150734695E+02 -0.21843273533E+04  0.21853818293E+04  0.00000000000E+00 0. -1.
          1    1    1    2  502    0  0.67316540742E+01 -0.32632961816E+02  0.27882057704E+02  0.43446915947E+02  0.00000000000E+00 0. -1.
         22    1    3    3    0    0 -0.15787826101E+02  0.35226827427E+02 -0.61842833968E+02  0.72902132594E+02  0.00000000000E+00 0.  1.
         22    1    3    3    0    0 -0.46396272570E+02  0.36556869085E+02 -0.87573712558E+03  0.87772691192E+03  0.00000000000E+00 0.  1.
</event>
<event>
 7    1  0.5575489E-006  0.7919092E+02  0.7818608E-02  0.1451772E+00
          2   -1    0    0  502    0  0.00000000000E+00  0.00000000000E+00  0.20518433129E+04  0.20518433129E+04  0.00000000000E+00 0. -1.
          1   -1    0    0  501    0 -0.00000000000E+00 -0.00000000000E+00 -0.18927176958E+04  0.18927176958E+04  0.00000000000E+00 0. -1.
         25    2    1    2    0    0  0.53688159928E+02 -0.35883413316E+02 -0.92303606584E+02  0.16826672047E+03  0.12499478214E+03 0.  0.
          2    1    1    2  501    0 -0.46017009020E+02  0.64995220635E+02 -0.17614203104E+04  0.17632196272E+04  0.00000000000E+00 0. -1.
          1    1    1    2  502    0 -0.76711509077E+01 -0.29111807320E+02  0.20128495341E+04  0.20130746610E+04  0.00000000000E+00 0. -1.
         22    1    3    3    0    0  0.86910089165E+02 -0.21263144689E+02 -0.26837253758E+02  0.93411579100E+02  0.00000000000E+00 0. -1.
         22    1    3    3    0    0 -0.33221929238E+02 -0.14620268627E+02 -0.65466352826E+02  0.74855141369E+02  0.00000000000E+00 0. -1.
</event>
<event>
 7    1  0.5575489E-006  0.1337985E+03  0.7818608E-02  0.1392000E+00
          2   -1    0    0  502    0  0.00000000000E+00  0.00000000000E+00  0.59659177068E+03  0.59659177068E+03  0.00000000000E+00 0. -1.
          1   -1    0    0  501    0 -0.00000000000E+00 -0.00000000000E+00 -0.15348334963E+03  0.15348334963E+03  0.00000000000E+00 0. -1.
         25    2    1    2    0    0  0.63872810299E+02  0.13061173127E+03  0.65883740683E+01  0.19185204025E+03  0.12499855374E+03 0.  0.
          2    1    1    2  501    0  0.15148777616E+02 -0.23770809155E+02 -0.48079551590E+02  0.55733115041E+02  0.00000000000E+00 0. -1.
          1    1    1    2  502    0 -0.79021587916E+02 -0.10684092211E+03  0.48459959858E+03  0.50248996501E+03  0.00000000000E+00 0. -1.
         22    1    3    3    0    0  0.63937967884E+02  0.38113049957E+02  0.50003167835E+02  0.89671540121E+02  0.00000000000E+00 0. -1.
         22    1    3    3    0    0 -0.65157584355E-01  0.92498681311E+02 -0.43414793767E+02  0.10218050013E+03  0.00000000000E+00 0. -1.
</event>
<event>
 7    1  0.5575489E-006  0.7681195E+02  0.7818608E-02  0.1347087E+00
          2   -1    0    0  502    0  0.00000000000E+00  0.00000000000E+00  0.34569448551E+03  0.34569448551E+03  0.00000000000E+00 0. -1.
          1   -1    0    0  501    0 -0.00000000000E+00 -0.00000000000E+00 -0.88005065618E+03  0.88005065618E+03  0.00000000000E+00 0. -1.
         25    2    1    2    0    0 -0.55722484904E+02 -0.53397692085E+02  0.12469314568E+03  0.19268991889E+03  0.12499886167E+03 0.  0.
          2    1    1    2  501    0  0.75704898292E+02 -0.14977335080E+02 -0.83742921817E+03  0.84097755477E+03  0.00000000000E+00 0. -1.
          1    1    1    2  502    0 -0.19982413389E+02  0.68375027165E+02  0.17837990181E+03  0.19207766803E+03  0.00000000000E+00 0. -1.
         22    1    3    3    0    0  0.16576110677E+02  0.28064800615E+02  0.53241715263E+02  0.62426602686E+02  0.00000000000E+00 0.  1.
         22    1    3    3    0    0 -0.72298595581E+02 -0.81462492700E+02  0.71451430417E+02  0.13026331620E+03  0.00000000000E+00 0.  1.
</event>
<event>
 7    1  0.5575489E-006  0.6800627E+02  0.7818608E-02  0.1467026E+00
          2   -1    0    0  502    0  0.00000000000E+00  0.00000000000E+00  0.14400208342E+03  0.14400208342E+03  0.00000000000E+00 0. -1.
          1   -1    0    0  501    0 -0.00000000000E+00 -0.00000000000E+00 -0.43928692171E+03  0.43928692171E+03  0.00000000000E+00 0. -1.
         25    2    1    2    0    0  0.29025977134E+02 -0.34899389794E+02 -0.19258010672E+03  0.23403564062E+03  0.12500043527E+03 0.  0.
          2    1    1    2  501    0  0.31356374102E+02  0.11381269885E+01 -0.21504435562E+03  0.21732140349E+03  0.00000000000E+00 0. -1.
          1    1    1    2  502    0 -0.60382351237E+02  0.33761262805E+02  0.11233962406E+03  0.13193196103E+03  0.00000000000E+00 0. -1.
         22    1    3    3    0    0 -0.48359714235E+02 -0.70624284568E+01 -0.53519832930E+02  0.72476978231E+02  0.00000000000E+00 0.  1.
         22    1    3    3    0    0  0.77385691369E+02 -0.27836961337E+02 -0.13906027379E+03  0.16155866238E+03  0.00000000000E+00 0.  1.
</event>
<event>
 7    1  0.5575489E-006  0.2270525E+03  0.7818608E-02  0.1225358E+00
          2   -1    0    0  502    0  0.00000000000E+00  0.00000000000E+00  0.44070344752E+03  0.44070344752E+03  0.00000000000E+00 0. -1.
          1   -1    0    0  501    0 -0.00000000000E+00 -0.00000000000E+00 -0.52950983829E+03  0.52950983829E+03  0.00000000000E+00 0. -1.
         25    2    1    2    0    0 -0.19282123288E+03  0.57115240898E+02  0.90815743827E+02  0.25360710805E+03  0.12500754911E+03 0.  0.
          2    1    1    2  501    0 -0.18964651080E+02  0.73670021879E+02 -0.38590109177E+03  0.39332757689E+03  0.00000000000E+00 0. -1.
          1    1    1    2  502    0  0.21178588396E+03 -0.13078526278E+03  0.20627895717E+03  0.32327860086E+03  0.00000000000E+00 0. -1.
         22    1    3    3    0    0 -0.42856966321E+02  0.45301691222E+02 -0.21402983414E+02  0.65932165813E+02  0.00000000000E+00 0.  1.
         22    1    3    3    0    0 -0.14996426656E+03  0.11813549676E+02  0.11221872724E+03  0.18767494224E+03  0.00000000000E+00 0.  1.
</event>
<event>
 7    1  0.5575489E-006  0.8599122E+02  0.7818608E-02  0.1419423E+00
          2   -1    0    0  502    0  0.00000000000E+00  0.00000000000E+00  0.97691792227E+03  0.97691792227E+03  0.00000000000E+00 0. -1.
          1   -1    0    0  501    0 -0.00000000000E+00 -0.00000000000E+00 -0.98422793794E+02  0.98422793794E+02  0.00000000000E+00 0. -1.
         25    2    1    2    0    0 -0.76505277592E+02 -0.54340161457E+02  0.94547898567E+02  0.18267007784E+03  0.12499256605E+03 0.  0.
          2    1    1    2  501    0  0.30353784713E+02 -0.18140253468E+02 -0.46148939609E+02  0.58139020196E+02  0.00000000000E+00 0. -1.
          1    1    1    2  502    0  0.46151492880E+02  0.72480414925E+02  0.83009616952E+03  0.83453161803E+03  0.00000000000E+00 0. -1.
         22    1    3    3    0    0 -0.10483833497E+03 -0.63772327710E+02  0.90633070968E+02  0.15255274437E+03  0.00000000000E+00 0.  1.
         22    1    3    3    0    0  0.28333057375E+02  0.94321662527E+01  0.39148275991E+01  0.30117333473E+02  0.00000000000E+00 0.  1.
</event>
<event>
 7    1  0.5575489E-006  0.8254733E+02  0.7818608E-02  0.1371131E+00
          2   -1    0    0  502    0  0.00000000000E+00  0.00000000000E+00  0.82666687151E+03  0.82666687151E+03  0.00000000000E+00 0. -1.
          1   -1    0    0  501    0 -0.00000000000E+00 -0.00000000000E+00 -0.80720211862E+03  0.80720211862E+03  0.00000000000E+00 0. -1.
         25    2    1    2    0    0 -0.13229472711E+03 -0.13797481270E+02  0.19511458931E+03  0.26718145941E+03  0.12499585586E+03 0.  0.
          2    1    1    2  501    0  0.81874140689E+02 -0.59333363390E+01 -0.76774543910E+03  0.77212151806E+03  0.00000000000E+00 0. -1.
          1    1    1    2  502    0  0.50420586424E+02  0.19730817609E+02  0.59209560268E+03  0.59456601266E+03  0.00000000000E+00 0. -1.
         22    1    3    3    0    0  0.15423215572E+02 -0.14471387465E+02  0.71504118031E+02  0.74566316317E+02  0.00000000000E+00 0.  1.
         22    1    3    3    0    0 -0.14771794268E+03  0.67390619475E+00  0.12361047127E+03  0.19261514309E+03  0.00000000000E+00 0.  1.
</event>
<event>
 7    1  0.5575489E-006  0.1110125E+03  0.7818608E-02  0.1280956E+00
          2   -1    0    0  502    0  0.00000000000E+00  0.00000000000E+00  0.66771502407E+03  0.66771502407E+03  0.00000000000E+00 0. -1.
          1   -1    0    0  501    0 -0.00000000000E+00 -0.00000000000E+00 -0.10714577571E+04  0.10714577571E+04  0.00000000000E+00 0. -1.
         25    2    1    2    0    0 -0.10861295205E+03 -0.10671343373E+03  0.22492756935E+03  0.29900188379E+03  0.12500073904E+03 0.  0.
          2    1    1    2  501    0  0.10951895644E+03  0.17201763328E+02 -0.10264620779E+04  0.10324314505E+04  0.00000000000E+00 0. -1.
          1    1    1    2  502    0 -0.90600439028E+00  0.89511670404E+02  0.39779177548E+03  0.40773944698E+03  0.00000000000E+00 0. -1.
         22    1    3    3    0    0 -0.12135861239E+03 -0.12175294609E+03  0.21901017645E+03  0.27841901887E+03  0.00000000000E+00 0.  1.
         22    1    3    3    0    0  0.12745660332E+02  0.15039512359E+02  0.59173929089E+01  0.20582864916E+02  0.00000000000E+00 0.  1.
</event>
<event>
 7    1  0.5575489E-006  0.1786427E+03  0.7818608E-02  0.1334446E+00
          2   -1    0    0  502    0  0.00000000000E+00  0.00000000000E+00  0.79653825766E+03  0.79653825766E+03  0.00000000000E+00 0. -1.
          1   -1    0    0  501    0 -0.00000000000E+00 -0.00000000000E+00 -0.72756059485E+03  0.72756059485E+03  0.00000000000E+00 0. -1.
         25    2    1    2    0    0 -0.16862988486E+02  0.14720660986E+03 -0.10721401423E+03  0.22152693327E+03  0.12500076379E+03 0.  0.
          2    1    1    2  501    0 -0.15091967276E+02  0.30656052600E+02 -0.55161182867E+03  0.55266913299E+03  0.00000000000E+00 0. -1.
          1    1    1    2  502    0  0.31954955763E+02 -0.17786266246E+03  0.72780350571E+03  0.74990278624E+03  0.00000000000E+00 0. -1.
         22    1    3    3    0    0  0.49778175819E+02  0.33240311242E+02 -0.48500212496E+02  0.77039312636E+02  0.00000000000E+00 0. -1.
         22    1    3    3    0    0 -0.66641164305E+02  0.11396629862E+03 -0.58713801732E+02  0.14448762063E+03  0.00000000000E+00 0. -1.
</event>
<event>
 7    1  0.5575489E-006  0.8549977E+02  0.7818608E-02  0.1404565E+00
          2   -1    0    0  502    0  0.00000000000E+00  0.00000000000E+00  0.16373492464E+04  0.16373492464E+04  0.00000000000E+00 0. -1.
          1   -1    0    0  501    0 -0.00000000000E+00 -0.00000000000E+00 -0.78233789502E+03  0.78233789502E+03  0.00000000000E+00 0. -1.
         25    2    1    2    0    0  0.10618561512E+03 -0.55365039694E+02  0.36238779382E+02  0.17686052031E+03  0.12500288810E+03 0.  0.
          2    1    1    2  501    0 -0.39858761134E+02  0.22676716332E+01 -0.71028715179E+03  0.71140825211E+03  0.00000000000E+00 0. -1.
          1    1    1    2  502    0 -0.66326853986E+02  0.53097368061E+02  0.15290597237E+04  0.15314183690E+04  0.00000000000E+00 0. -1.
         22    1    3    3    0    0  0.43864920486E+02 -0.89641153317E+02  0.72697423960E+01  0.10006256429E+03  0.00000000000E+00 0.  1.
         22    1    3    3    0    0  0.62320694634E+02  0.34276113623E+02  0.28969036986E+02  0.76797956019E+02  0.00000000000E+00 0.  1.
</event>
<event>
 7    1  0.5575489E-006  0.9734708E+02  0.7818608E-02  0.1356056E+00
          2   -1    0    0  502    0  0.00000000000E+00  0.00000000000E+00  0.13312309819E+04  0.13312309819E+04  0.00000000000E+00 0. -1.
          1   -1    0    0  501    0 -0.00000000000E+00 -0.00000000000E+00 -0.15584158782E+03  0.15584158782E+03  0.00000000000E+00 0. -1.
         25    2    1    2    0    0  0.78507458009E+02 -0.46528673492E+02  0.64562654810E+03  0.66391789893E+03  0.12499999395E+03 0.  0.
          2    1    1    2  501    0 -0.45352008365E+02  0.86688113929E+02 -0.12924160082E+03  0.16209572833E+03  0.00000000000E+00 0. -1.
          1    1    1    2  502    0 -0.33155449644E+02 -0.40159440437E+02  0.65900444677E+03  0.66105894243E+03  0.00000000000E+00 0. -1.
         22    1    3    3    0    0  0.10162975774E+03 -0.16800419837E+02  0.57217793756E+03  0.58137634455E+03  0.00000000000E+00 0. -1.
         22    1    3    3    0    0 -0.23122299728E+02 -0.29728253656E+02  0.73448610538E+02  0.82541554383E+02  0.00000000000E+00 0. -1.
</event>
<event>
 7    1  0.5575489E-006  0.1551935E+03  0.7818608E-02  0.1308887E+00
          2   -1    0    0  502    0  0.00000000000E+00  0.00000000000E+00  0.70097200494E+03  0.70097200494E+03  0.00000000000E+00 0. -1.
          1   -1    0    0  501    0 -0.00000000000E+00 -0.00000000000E+00 -0.11090225309E+04  0.11090225309E+04  0.00000000000E+00 0. -1.
         25    2    1    2    0    0  0.15164705508E+03  0.22327783392E+02 -0.74790915195E+02  0.21145332873E+03  0.12499387990E+03 0.  0.
          2    1    1    2  501    0 -0.13936230996E+03 -0.70169610310E+02 -0.95861894676E+03  0.97123422135E+03  0.00000000000E+00 0. -1.
          1    1    1    2  502    0 -0.12284745122E+02  0.47841826918E+02  0.62535933595E+03  0.62730698580E+03  0.00000000000E+00 0. -1.
         22    1    3    3    0    0  0.81621727886E+02  0.72195150624E+02 -0.59440821227E+02  0.12412677981E+03  0.00000000000E+00 0.  1.
         22    1    3    3    0    0  0.70025327193E+02 -0.49867367232E+02 -0.15350093968E+02  0.87326548930E+02  0.00000000000E+00 0.  1.
</event>
<event>
 7    1  0.5575489E-006  0.1137569E+03  0.7818608E-02  0.1317015E+00
          2   -1    0    0  502    0  0.00000000000E+00  0.00000000000E+00  0.99202328026E+03  0.99202328026E+03  0.00000000000E+00 0. -1.
          1   -1    0    0  501    0 -0.00000000000E+00 -0.00000000000E+00 -0.65826768498E+02  0.65826768498E+02  0.00000000000E+00 0. -1.
         25    2    1    2    0    0  0.81388381205E+02  0.22401788292E+02  0.31303610177E+03  0.34747764115E+03  0.12499280527E+03 0.  0.
          2    1    1    2  501    0 -0.89374862904E+02 -0.84506393025E+02  0.33693378046E+02  0.12753211480E+03  0.00000000000E+00 0. -1.
          1    1    1    2  502    0  0.79864816994E+01  0.62104604733E+02  0.57946703194E+03  0.58284029282E+03  0.00000000000E+00 0. -1.
         22    1    3    3    0    0  0.88247286797E+02 -0.33572948631E+02  0.19848558282E+03  0.21979820994E+03  0.00000000000E+00 0. -1.
         22    1    3    3    0    0 -0.68589055921E+01  0.55974736923E+02  0.11455051895E+03  0.12767943120E+03  0.00000000000E+00 0. -1.
</event>
<event>
 7    1  0.5575489E-006  0.1298181E+03  0.7818608E-02  0.1334555E+00
          2   -1    0    0  502    0  0.00000000000E+00  0.00000000000E+00  0.40012317406E+04  0.40012317406E+04  0.00000000000E+00 0. -1.
          1   -1    0    0  501    0 -0.00000000000E+00 -0.00000000000E+00 -0.91924532435E+02  0.91924532435E+02  0.00000000000E+00 0. -1.
         25    2    1    2    0    0  0.10539887843E+03  0.22862683315E+02  0.13521217266E+04  0.13621633317E+04  0.12499661156E+03 0.  0.
          2    1    1    2  501    0 -0.12968903379E+03  0.17346046252E+02 -0.37320041979E+02  0.13606217821E+03  0.00000000000E+00 0. -1.
          1    1    1    2  502    0  0.24290155360E+02 -0.40208729566E+02  0.25945055236E+04  0.25949307632E+04  0.00000000000E+00 0. -1.
         22    1    3    3    0    0  0.25200701325E+02 -0.17023161399E+02  0.63232284679E+02  0.70165413111E+02  0.00000000000E+00 0. -1.
         22    1    3    3    0    0  0.80198177100E+02  0.39885844714E+02  0.12888894419E+04  0.12919979186E+04  0.00000000000E+00 0. -1.
</event>
<event>
 7    1  0.5575489E-006  0.6129394E+02  0.7818608E-02  0.1520428E+00
          2   -1    0    0  502    0  0.00000000000E+00  0.00000000000E+00  0.72374291260E+03  0.72374291260E+03  0.00000000000E+00 0. -1.
          1   -1    0    0  501    0 -0.00000000000E+00 -0.00000000000E+00 -0.12688236811E+03  0.12688236811E+03  0.00000000000E+00 0. -1.
         25    2    1    2    0    0 -0.11440947018E+02 -0.70742610806E+02  0.51485209936E+02  0.15300748046E+03  0.12500059992E+03 0.  0.
          2    1    1    2  501    0  0.21626025226E+02  0.10501717686E+02 -0.72678532920E+02  0.76551552492E+02  0.00000000000E+00 0. -1.
          1    1    1    2  502    0 -0.10185078208E+02  0.60240893120E+02  0.61805386747E+03  0.62106624777E+03  0.00000000000E+00 0. -1.
         22    1    3    3    0    0 -0.62351073037E+02 -0.67137125267E+02  0.22630767655E+02  0.94377971703E+02  0.00000000000E+00 0. -1.
         22    1    3    3    0    0  0.50910126019E+02 -0.36054855386E+01  0.28854442281E+02  0.58629508753E+02  0.00000000000E+00 0. -1.
</event>
<event>
 7    1  0.5575489E-006  0.7744757E+02  0.7818608E-02  0.1368219E+00
          2   -1    0    0  502    0  0.00000000000E+00  0.00000000000E+00  0.12583899712E+04  0.12583899712E+04  0.00000000000E+00 0. -1.
          1   -1    0    0  501    0 -0.00000000000E+00 -0.00000000000E+00 -0.17185122719E+04  0.17185122719E+04  0.00000000000E+00 0. -1.
         25    2    1    2    0    0 -0.31090671248E+02 -0.32244086033E+02 -0.43340732151E+02  0.13965871098E+03  0.12497930056E+03 0.  0.
          2    1    1    2  501    0  0.78310729959E+02 -0.33249884592E+01 -0.16253456155E+04  0.16272344625E+04  0.00000000000E+00 0. -1.
          1    1    1    2  502    0 -0.47220058711E+02  0.35569074492E+02  0.12085640470E+04  0.12100090697E+04  0.00000000000E+00 0. -1.
         22    1    3    3    0    0 -0.32454797425E+02 -0.39451410953E+02  0.34390112660E+02  0.61582526344E+02  0.00000000000E+00 0. -1.
         22    1    3    3    0    0  0.13641261777E+01  0.72073249207E+01 -0.77730844811E+02  0.78076184639E+02  0.00000000000E+00 0. -1.
</event>
<event>
 7    1  0.5575489E-006  0.1235338E+03  0.7818608E-02  0.1351958E+00
          2   -1    0    0  502    0  0.00000000000E+00  0.00000000000E+00  0.11649692553E+04  0.11649692553E+04  0.00000000000E+00 0. -1.
          1   -1    0    0  501    0 -0.00000000000E+00 -0.00000000000E+00 -0.84364380391E+03  0.84364380391E+03  0.00000000000E+00 0. -1.
         25    2    1    2    0    0 -0.90480883332E+02  0.13879291879E+03  0.55149925588E+03  0.58925943696E+03  0.12499996102E+03 0.  0.
          2    1    1    2  501    0  0.67547611087E+02 -0.10302418568E+03 -0.81939414384E+03  0.82860329806E+03  0.00000000000E+00 0. -1.
          1    1    1    2  502    0  0.22933272245E+02 -0.35768733111E+02  0.58922033938E+03  0.59075032423E+03  0.00000000000E+00 0. -1.
         22    1    3    3    0    0 -0.17860945714E+02 -0.21533442510E+02  0.44350881720E+02  0.52437612812E+02  0.00000000000E+00 0.  1.
         22    1    3    3    0    0 -0.72619937618E+02  0.16032636130E+03  0.50714837416E+03  0.53682182415E+03  0.00000000000E+00 0.  1.
</event>
<event>
 7    1  0.5575489E-006  0.8698866E+02  0.7818608E-02  0.1318788E+00
          2   -1    0    0  502    0  0.00000000000E+00  0.00000000000E+00  0.21870810353E+04  0.21870810353E+04  0.00000000000E+00 0. -1.
          1   -1    0    0  501    0 -0.00000000000E+00 -0.00000000000E+00 -0.17094099965E+03  0.17094099965E+03  0.00000000000E+00 0. -1.
         25    2    1    2    0    0 -0.18112362632E+02 -0.10002855637E+02  0.27547909510E+03  0.30321755943E+03  0.12499616677E+03 0.  0.
          2    1    1    2  501    0 -0.32702457488E+01 -0.80526618818E+02 -0.14551159988E+03  0.16633958202E+03  0.00000000000E+00 0. -1.
          1    1    1    2  502    0  0.21382608381E+02  0.90529474455E+02  0.18861725405E+04  0.18884648935E+04  0.00000000000E+00 0. -1.
         22    1    3    3    0    0 -0.24855115528E+02  0.42738174609E+01  0.28410762232E+03  0.28522479440E+03  0.00000000000E+00 0.  1.
         22    1    3    3    0    0  0.67427528967E+01 -0.14276673098E+02 -0.86285272168E+01  0.17992765026E+02  0.00000000000E+00 0.  1.
</event>
<event>
 7    1  0.5575489E-006  0.5454674E+02  0.7818608E-02  0.1477363E+00
          2   -1    0    0  502    0  0.00000000000E+00  0.00000000000E+00  0.88973557708E+03  0.88973557708E+03  0.00000000000E+00 0. -1.
          1   -1    0    0  501    0 -0.00000000000E+00 -0.00000000000E+00 -0.25545661133E+03  0.25545661133E+03  0.00000000000E+00 0. -1.
         25    2    1    2    0    0 -0.13712038133E+02  0.39160603911E+02 -0.24241807621E+02  0.13391872668E+03  0.12499994892E+03 0.  0.
          2    1    1    2  501    0  0.34440176687E+02  0.11582588693E+02 -0.17359362716E+03  0.17735565828E+03  0.00000000000E+00 0. -1.
          1    1    1    2  502    0 -0.20728138554E+02 -0.50743192604E+02  0.83211440054E+03  0.83391780345E+03  0.00000000000E+00 0. -1.
         22    1    3    3    0    0  0.11865640791E+02 -0.43545451679E+02 -0.79259813212E+01  0.45823803566E+02  0.00000000000E+00 0. -1.
         22    1    3    3    0    0 -0.25577678924E+02  0.82706055590E+02 -0.16315826300E+02  0.88094923112E+02  0.00000000000E+00 0. -1.
</event>
<event>
 7    1  0.5592762E-006  0.8416070E+02  0.7818608E-02  0.1367998E+00
          2   -1    0    0  502    0  0.00000000000E+00  0.00000000000E+00  0.85140678928E+03  0.85140678928E+03  0.00000000000E+00 0. -1.
          1   -1    0    0  501    0 -0.00000000000E+00 -0.00000000000E+00 -0.94436141571E+03  0.94436141571E+03  0.00000000000E+00 0. -1.
         25    2    1    2    0    0 -0.28696624725E+02 -0.40179932319E+02 -0.33863380388E+02  0.13859829079E+03  0.12499933778E+03 0.  0.
          2    1    1    2  501    0  0.30546587411E+02 -0.45137258710E+02 -0.85498190773E+03  0.85671729799E+03  0.00000000000E+00 0. -1.
          1    1    1    2  502    0 -0.18499626862E+01  0.85317191028E+02  0.79589066168E+03  0.80045261621E+03  0.00000000000E+00 0. -1.
         22    1    3    3    0    0 -0.32043588084E+02 -0.64500744777E+02  0.23859978442E+02  0.75871181521E+02  0.00000000000E+00 0. -1.
         22    1    3    3    0    0  0.33469633592E+01  0.24320812458E+02 -0.57723358829E+02  0.62727109266E+02  0.00000000000E+00 0. -1.
</event>
<event>
 7    1  0.5575489E-006  0.1028769E+03  0.7818608E-02  0.1366624E+00
          2   -1    0    0  502    0  0.00000000000E+00  0.00000000000E+00  0.28613724103E+03  0.28613724103E+03  0.00000000000E+00 0. -1.
          1   -1    0    0  501    0 -0.00000000000E+00 -0.00000000000E+00 -0.61746826949E+03  0.61746826949E+03  0.00000000000E+00 0. -1.
         25    2    1    2    0    0 -0.10118459064E+03  0.61596791662E+01 -0.69147519807E+02  0.17516583743E+03  0.12500171230E+03 0.  0.
          2    1    1    2  501    0  0.91076103418E+02 -0.50110871802E+02 -0.48759918679E+03  0.49855684034E+03  0.00000000000E+00 0. -1.
          1    1    1    2  502    0  0.10108487221E+02  0.43951192636E+02  0.22541567814E+03  0.22988283276E+03  0.00000000000E+00 0. -1.
         22    1    3    3    0    0 -0.10519338508E+03  0.34412013793E+02 -0.87628461905E+02  0.14116863070E+03  0.00000000000E+00 0. -1.
         22    1    3    3    0    0  0.40087944387E+01 -0.28252334627E+02  0.18480942098E+02  0.33997206732E+02  0.00000000000E+00 0. -1.
</event>
<event>
 7    1  0.5575489E-006  0.9997308E+02  0.7818608E-02  0.1454285E+00
          2   -1    0    0  502    0  0.00000000000E+00  0.00000000000E+00  0.25896528844E+04  0.25896528844E+04  0.00000000000E+00 0. -1.
          1   -1    0    0  501    0 -0.00000000000E+00 -0.00000000000E+00 -0.30561271615E+03  0.30561271615E+03  0.00000000000E+00 0. -1.
         25    2    1    2    0    0  0.11710328329E+03 -0.10893094823E+02  0.13048070305E+04  0.13160464306E+04  0.12499992917E+03 0.  0.
          2    1    1    2  501    0 -0.23377832038E+02 -0.12613498092E+01 -0.29778731829E+03  0.29870621180E+03  0.00000000000E+00 0. -1.
          1    1    1    2  502    0 -0.93725451255E+02  0.12154444632E+02  0.12770204560E+04  0.12805129581E+04  0.00000000000E+00 0. -1.
         22    1    3    3    0    0  0.14013562417E+03 -0.14741331419E+02  0.94109815225E+03  0.95158868856E+03  0.00000000000E+00 0. -1.
         22    1    3    3    0    0 -0.23032340877E+02  0.38482365966E+01  0.36370887822E+03  0.36445774206E+03  0.00000000000E+00 0. -1.
</event>
<event>
 7    1  0.5575489E-006  0.1209012E+03  0.7818608E-02  0.1288506E+00
          2   -1    0    0  502    0  0.00000000000E+00  0.00000000000E+00  0.98391606832E+03  0.98391606832E+03  0.00000000000E+00 0. -1.
          1   -1    0    0  501    0 -0.00000000000E+00 -0.00000000000E+00 -0.11368391062E+04  0.11368391062E+04  0.00000000000E+00 0. -1.
         25    2    1    2    0    0  0.18486040215E+02 -0.14467408589E+03 -0.10257466791E+02  0.19236002309E+03  0.12499935219E+03 0.  0.
          2    1    1    2  501    0  0.57325208817E+02  0.50714362065E+02 -0.10300227922E+04  0.10328625652E+04  0.00000000000E+00 0. -1.
          1    1    1    2  502    0 -0.75811249032E+02  0.93959723821E+02  0.88735722112E+03  0.89553258626E+03  0.00000000000E+00 0. -1.
         22    1    3    3    0    0  0.55115371231E+02 -0.82875225057E+02 -0.48784898737E+02  0.11084211031E+03  0.00000000000E+00 0. -1.
         22    1    3    3    0    0 -0.36629331017E+02 -0.61798860829E+02  0.38527431946E+02  0.81517912773E+02  0.00000000000E+00 0. -1.
</event>
<event>
 7    1  0.5575489E-006  0.1345921E+03  0.7818608E-02  0.1343684E+00
          2   -1    0    0  502    0  0.00000000000E+00  0.00000000000E+00  0.92984013029E+03  0.92984013029E+03  0.00000000000E+00 0. -1.
          1   -1    0    0  501    0 -0.00000000000E+00 -0.00000000000E+00 -0.72369227040E+02  0.72369227040E+02  0.00000000000E+00 0. -1.
         25    2    1    2    0    0  0.14622528858E+03  0.65887697925E+02  0.57044084668E+03  0.60559952284E+03  0.12499999499E+03 0.  0.
          2    1    1    2  501    0 -0.40067072007E+02 -0.12120376992E+02 -0.34195128609E+02  0.54051647692E+02  0.00000000000E+00 0. -1.
          1    1    1    2  502    0 -0.10615821658E+03 -0.53767320933E+02  0.32122518518E+03  0.34255818680E+03  0.00000000000E+00 0. -1.
         22    1    3    3    0    0  0.86577952317E+02  0.61888421485E+01  0.45146397516E+03  0.45973227476E+03  0.00000000000E+00 0. -1.
         22    1    3    3    0    0  0.59647336267E+02  0.59698855777E+02  0.11897687152E+03  0.14586724808E+03  0.00000000000E+00 0. -1.
</event>
<event>
 7    1  0.5575489E-006  0.9291852E+02  0.7818608E-02  0.1413871E+00
          2   -1    0    0  502    0  0.00000000000E+00  0.00000000000E+00  0.17701411587E+04  0.17701411587E+04  0.00000000000E+00 0. -1.
          1   -1    0    0  501    0 -0.00000000000E+00 -0.00000000000E+00 -0.81359939462E+02  0.81359939462E+02  0.00000000000E+00 0. -1.
         25    2    1    2    0    0 -0.26297226578E+02  0.12205014232E+03  0.73861584126E+03  0.75945148769E+03  0.12500167926E+03 0.  0.
          2    1    1    2  501    0  0.12476093998E+02 -0.90811403100E+02 -0.40914599521E+02  0.10038111530E+03  0.00000000000E+00 0. -1.
          1    1    1    2  502    0  0.13821132580E+02 -0.31238739218E+02  0.99107997751E+03  0.99166849519E+03  0.00000000000E+00 0. -1.
         22    1    3    3    0    0 -0.30599122228E+02 -0.13658470831E+02  0.75872162425E+02  0.82942420616E+02  0.00000000000E+00 0.  1.
         22    1    3    3    0    0  0.43018956504E+01  0.13570861315E+03  0.66274367884E+03  0.67650906707E+03  0.00000000000E+00 0.  1.
</event>
<event>
 7    1  0.5575489E-006  0.7648466E+02  0.7818608E-02  0.1445936E+00
          2   -1    0    0  502    0  0.00000000000E+00  0.00000000000E+00  0.20070895425E+03  0.20070895425E+03  0.00000000000E+00 0. -1.
          1   -1    0    0  501    0 -0.00000000000E+00 -0.00000000000E+00 -0.15336136767E+04  0.15336136767E+04  0.00000000000E+00 0. -1.
         25    2    1    2    0    0  0.91337736654E+02  0.41468119458E+02 -0.82358788396E+03  0.83903748776E+03  0.12499886477E+03 0.  0.
          2    1    1    2  501    0 -0.58825544707E+02 -0.40062500027E+02 -0.69910940330E+03  0.70272285177E+03  0.00000000000E+00 0. -1.
          1    1    1    2  502    0 -0.32512191947E+02 -0.14056194316E+01  0.18979256485E+03  0.19256229138E+03  0.00000000000E+00 0. -1.
         22    1    3    3    0    0  0.54567175313E+02 -0.10644356205E+02 -0.11657223005E+03  0.12915093403E+03  0.00000000000E+00 0. -1.
         22    1    3    3    0    0  0.36770561341E+02  0.52112475663E+02 -0.70701565391E+03  0.70988655373E+03  0.00000000000E+00 0. -1.
</event>
<event>
 7    1  0.5575489E-006  0.1411438E+03  0.7818608E-02  0.1352672E+00
          2   -1    0    0  502    0  0.00000000000E+00  0.00000000000E+00  0.18064371877E+04  0.18064371877E+04  0.00000000000E+00 0. -1.
          1   -1    0    0  501    0 -0.00000000000E+00 -0.00000000000E+00 -0.18956077715E+04  0.18956077715E+04  0.00000000000E+00 0. -1.
         25    2    1    2    0    0  0.42945798940E+02  0.95650724808E+02  0.13420424369E+03  0.21125427569E+03  0.12499674864E+03 0.  0.
          2    1    1    2  501    0 -0.55149110212E+02 -0.13054102614E+03 -0.18541695462E+04  0.18595771266E+04  0.00000000000E+00 0. -1.
          1    1    1    2  502    0  0.12203311271E+02  0.34890301328E+02  0.16307947186E+04  0.16312135569E+04  0.00000000000E+00 0. -1.
         22    1    3    3    0    0  0.15958644938E+02 -0.99100954066E+01  0.92822873191E+02  0.94704667925E+02  0.00000000000E+00 0. -1.
         22    1    3    3    0    0  0.26987154002E+02  0.10556082021E+03  0.41381370496E+02  0.11654960776E+03  0.00000000000E+00 0. -1.
</event>
<event>
 7    1  0.5575489E-006  0.6236859E+02  0.7818608E-02  0.1475961E+00
          2   -1    0    0  502    0  0.00000000000E+00  0.00000000000E+00  0.12128260103E+03  0.12128260103E+03  0.00000000000E+00 0. -1.
          1   -1    0    0  501    0 -0.00000000000E+00 -0.00000000000E+00 -0.11815203547E+04  0.11815203547E+04  0.00000000000E+00 0. -1.
         25    2    1    2    0    0 -0.77016009607E+01  0.64723126351E+02 -0.85736094571E+00  0.14096752719E+03  0.12499084331E+03 0.  0.
          2    1    1    2  501    0 -0.23636584074E+02 -0.57787913877E+02 -0.11046108756E+04  0.11063739501E+04  0.00000000000E+00 0. -1.
          1    1    1    2  502    0  0.31338185034E+02 -0.69352124735E+01  0.45230482830E+02  0.55461478436E+02  0.00000000000E+00 0. -1.
         22    1    3    3    0    0 -0.51346823276E+02  0.35582180342E+02  0.40241618710E+02  0.74309997274E+02  0.00000000000E+00 0. -1.
         22    1    3    3    0    0  0.43645222315E+02  0.29140946009E+02 -0.41098979656E+02  0.66657529912E+02  0.00000000000E+00 0. -1.
</event>
<event>
 7    1  0.5575489E-006  0.5150930E+02  0.7818608E-02  0.1510761E+00
          2   -1    0    0  502    0  0.00000000000E+00  0.00000000000E+00  0.24695565766E+03  0.24695565766E+03  0.00000000000E+00 0. -1.
          1   -1    0    0  501    0 -0.00000000000E+00 -0.00000000000E+00 -0.14608949699E+03  0.14608949699E+03  0.00000000000E+00 0. -1.
         25    2    1    2    0    0  0.51428692066E+02  0.29609485134E+02 -0.15160430095E+02  0.13919851192E+03  0.12499902041E+03 0.  0.
          2    1    1    2  501    0 -0.25013705431E+02 -0.44917080635E+02 -0.57801501707E+02  0.77357890300E+02  0.00000000000E+00 0. -1.
          1    1    1    2  502    0 -0.26414986635E+02  0.15307595501E+02  0.17382809248E+03  0.17648875243E+03  0.00000000000E+00 0. -1.
         22    1    3    3    0    0 -0.48285934618E+01 -0.30513960076E+02 -0.42408510799E+02  0.52468074698E+02  0.00000000000E+00 0. -1.
         22    1    3    3    0    0  0.56257285528E+02  0.60123445210E+02  0.27248080703E+02  0.86730437223E+02  0.00000000000E+00 0. -1.
</event>
<event>
 7    1  0.5575489E-006  0.1067567E+03  0.7818608E-02  0.1309253E+00
          2   -1    0    0  502    0  0.00000000000E+00  0.00000000000E+00  0.42389902300E+03  0.42389902300E+03  0.00000000000E+00 0. -1.
          1   -1    0    0  501    0 -0.00000000000E+00 -0.00000000000E+00 -0.36694105082E+03  0.36694105082E+03  0.00000000000E+00 0. -1.
         25    2    1    2    0    0 -0.96280741547E+02 -0.70495915586E+02  0.18350874041E+03  0.25206880704E+03  0.12499428134E+03 0.  0.
          2    1    1    2  501    0  0.10714936248E+03 -0.23992634476E+00 -0.31737179258E+03  0.33497148859E+03  0.00000000000E+00 0. -1.
          1    1    1    2  502    0 -0.10868620932E+02  0.70735841930E+02  0.19082102436E+03  0.20379977819E+03  0.00000000000E+00 0. -1.
         22    1    3    3    0    0 -0.38370096689E+01  0.19860125041E+02 -0.73778057693E+01  0.21530890084E+02  0.00000000000E+00 0.  1.
         22    1    3    3    0    0 -0.92443731878E+02 -0.90356040626E+02  0.19088654618E+03  0.23053791695E+03  0.00000000000E+00 0.  1.
</event>
<event>
 7    1  0.5575489E-006  0.4215884E+03  0.7818608E-02  0.1211437E+00
          2   -1    0    0  502    0  0.00000000000E+00  0.00000000000E+00  0.15290937019E+03  0.15290937019E+03  0.00000000000E+00 0. -1.
          1   -1    0    0  501    0 -0.00000000000E+00 -0.00000000000E+00 -0.26273083542E+04  0.26273083542E+04  0.00000000000E+00 0. -1.
         25    2    1    2    0    0 -0.39647530487E+03  0.89011253437E+02 -0.41702713958E+03  0.59552705315E+03  0.12500066110E+03 0.  0.
          2    1    1    2  501    0 -0.31544825821E+02  0.35426780347E+02 -0.13351433714E+04  0.13359857615E+04  0.00000000000E+00 0. -1.
          1    1    1    2  502    0  0.42802013069E+03 -0.12443803378E+03 -0.72222847305E+03  0.84870490974E+03  0.00000000000E+00 0. -1.
         22    1    3    3    0    0 -0.22823954673E+03  0.11268095571E+03 -0.26674920667E+03  0.36870778094E+03  0.00000000000E+00 0.  1.
         22    1    3    3    0    0 -0.16823575815E+03 -0.23669702270E+02 -0.15027793291E+03  0.22681927221E+03  0.00000000000E+00 0.  1.
</event>
<event>
 7    1  0.5575489E-006  0.6155371E+02  0.7818608E-02  0.1461098E+00
          2   -1    0    0  502    0  0.00000000000E+00  0.00000000000E+00  0.99076120773E+03  0.99076120773E+03  0.00000000000E+00 0. -1.
          1   -1    0    0  501    0 -0.00000000000E+00 -0.00000000000E+00 -0.19823353058E+03  0.19823353058E+03  0.00000000000E+00 0. -1.
         25    2    1    2    0    0 -0.32879416004E+02  0.78407024390E+02  0.39043760798E+03  0.41867824415E+03  0.12498491480E+03 0.  0.
          2    1    1    2  501    0  0.30860002456E+02 -0.18890447501E+02 -0.18080370669E+03  0.18438863607E+03  0.00000000000E+00 0. -1.
          1    1    1    2  502    0  0.20194135480E+01 -0.59516576889E+02  0.58289377586E+03  0.58592785810E+03  0.00000000000E+00 0. -1.
         22    1    3    3    0    0 -0.36598007955E+02 -0.13537994490E+02  0.23361277145E+03  0.23684935817E+03  0.00000000000E+00 0. -1.
         22    1    3    3    0    0  0.37185919511E+01  0.91945018880E+02  0.15682483653E+03  0.18182888598E+03  0.00000000000E+00 0. -1.
</event>
<event>
 7    1  0.5575489E-006  0.1373103E+03  0.7818608E-02  0.1262071E+00
          2   -1    0    0  502    0  0.00000000000E+00  0.00000000000E+00  0.21504962378E+04  0.21504962378E+04  0.00000000000E+00 0. -1.
          1   -1    0    0  501    0 -0.00000000000E+00 -0.00000000000E+00 -0.16768422683E+03  0.16768422683E+03  0.00000000000E+00 0. -1.
         25    2    1    2    0    0  0.17121561165E+02  0.14275460688E+03  0.29697273297E+03  0.35283131870E+03  0.12500043876E+03 0.  0.
          2    1    1    2  501    0  0.76912017649E+02 -0.40306298502E+02 -0.12333613314E+03  0.15083719003E+03  0.00000000000E+00 0. -1.
          1    1    1    2  502    0 -0.94033578814E+02 -0.10244830838E+03  0.18091754111E+04  0.18145119559E+04  0.00000000000E+00 0. -1.
         22    1    3    3    0    0 -0.20887956271E+02  0.69696241765E+02  0.24470014948E+03  0.25528814307E+03  0.00000000000E+00 0.  1.
         22    1    3    3    0    0  0.38009517436E+02  0.73058365114E+02  0.52272583481E+02  0.97543175633E+02  0.00000000000E+00 0.  1.
</event>
<event>
 7    1  0.5575489E-006  0.6927157E+02  0.7818608E-02  0.1390507E+00
          2   -1    0    0  502    0  0.00000000000E+00  0.00000000000E+00  0.12594305782E+03  0.12594305782E+03  0.00000000000E+00 0. -1.
          1   -1    0    0  501    0 -0.00000000000E+00 -0.00000000000E+00 -0.68983230095E+03  0.68983230095E+03  0.00000000000E+00 0. -1.
         25    2    1    2    0    0 -0.56473910259E+02 -0.73783018779E+02 -0.16167782638E+03  0.22451315277E+03  0.12503279499E+03 0.  0.
          2    1    1    2  501    0  0.16099418199E+01  0.68686809941E+02 -0.48608073922E+03  0.49091236979E+03  0.00000000000E+00 0. -1.
          1    1    1    2  502    0  0.54863968439E+02  0.50962088378E+01  0.83869322465E+02  0.10034983621E+03  0.00000000000E+00 0. -1.
         22    1    3    3    0    0  0.35953613746E+02  0.19798780737E+01 -0.32127260791E+02  0.48257052796E+02  0.00000000000E+00 0.  1.
         22    1    3    3    0    0 -0.92427524005E+02 -0.75762896853E+02 -0.12955056559E+03  0.17625609997E+03  0.00000000000E+00 0.  1.
</event>
<event>
 7    1  0.5575489E-006  0.1710661E+03  0.7818608E-02  0.1242230E+00
          2   -1    0    0  502    0  0.00000000000E+00  0.00000000000E+00  0.17127266945E+04  0.17127266945E+04  0.00000000000E+00 0. -1.
          1   -1    0    0  501    0 -0.00000000000E+00 -0.00000000000E+00 -0.55574175875E+03  0.55574175875E+03  0.00000000000E+00 0. -1.
         25    2    1    2    0    0  0.10321621344E+03  0.50369186358E+01  0.25182269226E+03  0.29953866962E+03  0.12501915452E+03 0.  0.
          2    1    1    2  501    0 -0.16746371653E+03  0.50492865013E+02 -0.51620233576E+03  0.54503071218E+03  0.00000000000E+00 0. -1.
          1    1    1    2  502    0  0.64247503092E+02 -0.55529783648E+02  0.14213645793E+04  0.14238990715E+04  0.00000000000E+00 0. -1.
         22    1    3    3    0    0  0.12694888601E+03  0.20013433219E+02  0.17050394827E+03  0.21351382518E+03  0.00000000000E+00 0. -1.
         22    1    3    3    0    0 -0.23732672576E+02 -0.14976514583E+02  0.81318743987E+02  0.86024844436E+02  0.00000000000E+00 0. -1.
</event>
<event>
 7    1  0.5575489E-006  0.5428882E+02  0.7818608E-02  0.1425150E+00
          2   -1    0    0  502    0  0.00000000000E+00  0.00000000000E+00  0.66852177043E+03  0.66852177043E+03  0.00000000000E+00 0. -1.
          1   -1    0    0  501    0 -0.00000000000E+00 -0.00000000000E+00 -0.36641108880E+03  0.36641108880E+03  0.00000000000E+00 0. -1.
         25    2    1    2    0    0  0.27682579606E+02  0.47177136166E+02 -0.14883740695E+03  0.20191387216E+03  0.12499852269E+03 0.  0.
          2    1    1    2  501    0 -0.57803091310E+02 -0.28343548210E+01 -0.18549970619E+03  0.19431770873E+03  0.00000000000E+00 0. -1.
          1    1    1    2  502    0  0.30120511704E+02 -0.44342781345E+02  0.63644779476E+03  0.63870127833E+03  0.00000000000E+00 0. -1.
         22    1    3    3    0    0  0.13529267359E+01 -0.36530580889E+02 -0.10396976269E+02  0.38005405752E+02  0.00000000000E+00 0. -1.
         22    1    3    3    0    0  0.26329652870E+02  0.83707717055E+02 -0.13844043068E+03  0.16390846641E+03  0.00000000000E+00 0. -1.
</event>
<event>
 7    1  0.5575489E-006  0.1147070E+03  0.7818608E-02  0.1282019E+00
          2   -1    0    0  502    0  0.00000000000E+00  0.00000000000E+00  0.21849173553E+04  0.21849173553E+04  0.00000000000E+00 0. -1.
          1   -1    0    0  501    0 -0.00000000000E+00 -0.00000000000E+00 -0.11255231639E+03  0.11255231639E+03  0.00000000000E+00 0. -1.
         25    2    1    2    0    0  0.16052640870E+03  0.34937518974E+02  0.50858402037E+03  0.54888044571E+03  0.12499071877E+03 0.  0.
          2    1    1    2  501    0 -0.10784244175E+03  0.32736284195E+02 -0.56478560198E+02  0.12606143069E+03  0.00000000000E+00 0. -1.
          1    1    1    2  502    0 -0.52683966949E+02 -0.67673803169E+02  0.16202595787E+04  0.16225277953E+04  0.00000000000E+00 0. -1.
         22    1    3    3    0    0  0.17832088797E+03  0.20310738692E+02  0.47806976897E+03  0.51064818535E+03  0.00000000000E+00 0.  1.
         22    1    3    3    0    0 -0.17794479268E+02  0.14626780282E+02  0.30514251400E+02  0.38232260362E+02  0.00000000000E+00 0.  1.
</event>
<event>
 7    1  0.5575489E-006  0.5535539E+02  0.7818608E-02  0.1492857E+00
          2   -1    0    0  502    0  0.00000000000E+00  0.00000000000E+00  0.66596078723E+03  0.66596078723E+03  0.00000000000E+00 0. -1.
          1   -1    0    0  501    0 -0.00000000000E+00 -0.00000000000E+00 -0.52150367070E+03  0.52150367070E+03  0.00000000000E+00 0. -1.
         25    2    1    2    0    0  0.67409287807E+02  0.24400680305E+02 -0.90802991397E+01  0.14438610616E+03  0.12500196213E+03 0.  0.
          2    1    1    2  501    0 -0.38847701262E+02 -0.39090559113E+02 -0.44262936022E+03  0.44604704486E+03  0.00000000000E+00 0. -1.
          1    1    1    2  502    0 -0.28561586545E+02  0.14689878808E+02  0.59616677588E+03  0.59703130691E+03  0.00000000000E+00 0. -1.
         22    1    3    3    0    0  0.64499219370E+02 -0.15827201044E+02 -0.52843996579E+02  0.84871300018E+02  0.00000000000E+00 0.  1.
         22    1    3    3    0    0  0.29100684364E+01  0.40227881349E+02  0.43763697439E+02  0.59514806139E+02  0.00000000000E+00 0.  1.
</event>
<event>
 7    1  0.5575489E-006  0.1636574E+03  0.7818608E-02  0.1237456E+00
          2   -1    0    0  502    0  0.00000000000E+00  0.00000000000E+00  0.79202235464E+03  0.79202235464E+03  0.00000000000E+00 0. -1.
          1   -1    0    0  501    0 -0.00000000000E+00 -0.00000000000E+00 -0.70795916608E+03  0.70795916608E+03  0.00000000000E+00 0. -1.
         25    2    1    2    0    0 -0.19979673392E+03  0.94945336898E+02 -0.36141552264E+03  0.44179223261E+03  0.12500337956E+03 0.  0.
          2    1    1    2  501    0  0.37348240614E+02 -0.85360304493E+02 -0.29016731754E+03  0.30475948686E+03  0.00000000000E+00 0. -1.
          1    1    1    2  502    0  0.16244849331E+03 -0.95850324055E+01  0.73564602874E+03  0.75342980126E+03  0.00000000000E+00 0. -1.
         22    1    3    3    0    0 -0.14225002264E+03  0.49928397803E+02 -0.12983598882E+03  0.19896054343E+03  0.00000000000E+00 0.  1.
         22    1    3    3    0    0 -0.57546711284E+02  0.45016939095E+02 -0.23157953382E+03  0.24283168918E+03  0.00000000000E+00 0.  1.
</event>
<event>
 7    1  0.5575489E-006  0.6901037E+02  0.7818608E-02  0.1386885E+00
          2   -1    0    0  502    0  0.00000000000E+00  0.00000000000E+00  0.11378938592E+03  0.11378938592E+03  0.00000000000E+00 0. -1.
          1   -1    0    0  501    0 -0.00000000000E+00 -0.00000000000E+00 -0.23013128483E+04  0.23013128483E+04  0.00000000000E+00 0. -1.
         25    2    1    2    0    0 -0.42623313580E+02 -0.73444747354E+02 -0.16451296159E+03  0.22338479359E+03  0.12500149481E+03 0.  0.
          2    1    1    2  501    0 -0.23280986233E+02  0.51968883421E+02 -0.20926715078E+04  0.20934461561E+04  0.00000000000E+00 0. -1.
          1    1    1    2  502    0  0.65904299813E+02  0.21475863934E+02  0.69661006974E+02  0.98271284504E+02  0.00000000000E+00 0. -1.
         22    1    3    3    0    0  0.34876870496E+02 -0.32799561188E+02 -0.15049610587E+02  0.50186632569E+02  0.00000000000E+00 0. -1.
         22    1    3    3    0    0 -0.77500184076E+02 -0.40645186166E+02 -0.14946335100E+03  0.17319816103E+03  0.00000000000E+00 0. -1.
</event>
<event>
 7    1  0.5575489E-006  0.5322379E+02  0.7818608E-02  0.1468067E+00
          2   -1    0    0  502    0  0.00000000000E+00  0.00000000000E+00  0.43969078174E+03  0.43969078174E+03  0.00000000000E+00 0. -1.
          1   -1    0    0  501    0 -0.00000000000E+00 -0.00000000000E+00 -0.47976987467E+03  0.47976987467E+03  0.00000000000E+00 0. -1.
         25    2    1    2    0    0 -0.12709716703E+02 -0.59468539869E+01  0.15395316467E+03  0.19880517843E+03  0.12500008036E+03 0.  0.
          2    1    1    2  501    0  0.44212450081E+02  0.30258286173E+02 -0.45425719521E+03  0.45740562308E+03  0.00000000000E+00 0. -1.
          1    1    1    2  502    0 -0.31502733378E+02 -0.24311432186E+02  0.26022493762E+03  0.26324985490E+03  0.00000000000E+00 0. -1.
         22    1    3    3    0    0 -0.30520121857E+02 -0.60558006921E+02  0.74220607023E+02  0.10053580729E+03  0.00000000000E+00 0.  1.
         22    1    3    3    0    0  0.17810405154E+02  0.54611152934E+02  0.79732557643E+02  0.98269371143E+02  0.00000000000E+00 0.  1.
</event>
<event>
 7    1  0.5575489E-006  0.1038655E+03  0.7818608E-02  0.1323520E+00
          2   -1    0    0  502    0  0.00000000000E+00  0.00000000000E+00  0.27932305400E+03  0.27932305400E+03  0.00000000000E+00 0. -1.
          1   -1    0    0  501    0 -0.00000000000E+00 -0.00000000000E+00 -0.98843019004E+03  0.98843019004E+03  0.00000000000E+00 0. -1.
         25    2    1    2    0    0 -0.75729336825E+02  0.69046719081E+02 -0.89218810338E+02  0.18462715257E+03  0.12499922991E+03 0.  0.
          2    1    1    2  501    0  0.54768691537E+02  0.34461798055E+02 -0.83815647162E+03  0.84065063850E+03  0.00000000000E+00 0. -1.
          1    1    1    2  502    0  0.20960645288E+02 -0.10350851714E+03  0.21826814591E+03  0.24247545296E+03  0.00000000000E+00 0. -1.
         22    1    3    3    0    0 -0.52123520113E+02 -0.76195769841E+01  0.13419389800E+02  0.54359905491E+02  0.00000000000E+00 0.  1.
         22    1    3    3    0    0 -0.23605816712E+02  0.76666296065E+02 -0.10263820014E+03  0.13026724708E+03  0.00000000000E+00 0.  1.
</event>
<event>
 7    1  0.5575489E-006  0.4711273E+02  0.7818608E-02  0.1510972E+00
          2   -1    0    0  502    0  0.00000000000E+00  0.00000000000E+00  0.26792602968E+04  0.26792602968E+04  0.00000000000E+00 0. -1.
          1   -1    0    0  501    0 -0.00000000000E+00 -0.00000000000E+00 -0.23557970043E+02  0.23557970043E+02  0.00000000000E+00 0. -1.
         25    2    1    2    0    0  0.54049783862E+02 -0.56343357988E+02  0.66297856447E+03  0.67916232315E+03  0.12499972443E+03 0.  0.
          2    1    1    2  501    0 -0.27236931302E+02  0.36543443982E+02  0.18560685432E+02  0.49211510529E+02  0.00000000000E+00 0. -1.
          1    1    1    2  502    0 -0.26812852560E+02  0.19799914006E+02  0.19741630768E+04  0.19744444331E+04  0.00000000000E+00 0. -1.
         22    1    3    3    0    0  0.50484655867E+02  0.12472095275E+02  0.49318372165E+03  0.49591777236E+03  0.00000000000E+00 0. -1.
         22    1    3    3    0    0  0.35651279945E+01 -0.68815453263E+02  0.16979484282E+03  0.18324455079E+03  0.00000000000E+00 0. -1.
</event>
<event>
 7    1  0.5575489E-006  0.2790167E+03  0.7818608E-02  0.1170545E+00
          2   -1    0    0  502    0  0.00000000000E+00  0.00000000000E+00  0.14177204297E+04  0.14177204297E+04  0.00000000000E+00 0. -1.
          1   -1    0    0  501    0 -0.00000000000E+00 -0.00000000000E+00 -0.23493349316E+04  0.23493349316E+04  0.00000000000E+00 0. -1.
         25    2    1    2    0    0  0.15849026979E+03 -0.14004996229E+03 -0.76411163355E+02  0.25728861382E+03  0.12500242941E+03 0.  0.
          2    1    1    2  501    0 -0.13969037767E+03  0.25100066441E+03 -0.21706203451E+04  0.21895450253E+04  0.00000000000E+00 0. -1.
          1    1    1    2  502    0 -0.18799892122E+02 -0.11095070212E+03  0.13154170067E+04  0.13202217222E+04  0.00000000000E+00 0. -1.
         22    1    3    3    0    0  0.17886524992E+03 -0.12294808167E+03 -0.78010285477E+02  0.23063957392E+03  0.00000000000E+00 0.  1.
         22    1    3    3    0    0 -0.20374980131E+02 -0.17101880621E+02  0.15991221222E+01  0.26649039901E+02  0.00000000000E+00 0.  1.
</event>
<event>
 7    1  0.5575489E-006  0.9480476E+02  0.7818608E-02  0.1392096E+00
          2   -1    0    0  502    0  0.00000000000E+00  0.00000000000E+00  0.11341325890E+04  0.11341325890E+04  0.00000000000E+00 0. -1.
          1   -1    0    0  501    0 -0.00000000000E+00 -0.00000000000E+00 -0.10034385816E+03  0.10034385816E+03  0.00000000000E+00 0. -1.
         25    2    1    2    0    0  0.47694469091E+02 -0.41109535185E+02  0.15230215019E+03  0.20684834401E+03  0.12500214479E+03 0.  0.
          2    1    1    2  501    0 -0.66774516661E+02  0.75981569333E+02 -0.37426721842E+02  0.10785543316E+03  0.00000000000E+00 0. -1.
          1    1    1    2  502    0  0.19080047570E+02 -0.34872034148E+02  0.91891330254E+03  0.91977267004E+03  0.00000000000E+00 0. -1.
         22    1    3    3    0    0  0.36945786851E+02 -0.35589315594E+02  0.17433160210E+03  0.18172258539E+03  0.00000000000E+00 0. -1.
         22    1    3    3    0    0  0.10748682240E+02 -0.55202195907E+01 -0.22029451917E+02  0.25125758615E+02  0.00000000000E+00 0. -1.
</event>
<event>
 7    1  0.5575489E-006  0.1046620E+03  0.7818608E-02  0.1271766E+00
          2   -1    0    0  502    0  0.00000000000E+00  0.00000000000E+00  0.11545740906E+04  0.11545740906E+04  0.00000000000E+00 0. -1.
          1   -1    0    0  501    0 -0.00000000000E+00 -0.00000000000E+00 -0.55048519546E+03  0.55048519546E+03  0.00000000000E+00 0. -1.
         25    2    1    2    0    0 -0.30422207611E+02 -0.91494313362E+02  0.65856643519E+03  0.67722335531E+03  0.12500001328E+03 0.  0.
          2    1    1    2  501    0  0.10280287031E+03 -0.19639201237E+02 -0.52687724050E+03  0.53717199752E+03  0.00000000000E+00 0. -1.
          1    1    1    2  502    0 -0.72380662695E+02  0.11113351460E+03  0.47239970047E+03  0.49066393326E+03  0.00000000000E+00 0. -1.
         22    1    3    3    0    0 -0.74822937764E+02 -0.28017808173E+02  0.30727039467E+03  0.31748789746E+03  0.00000000000E+00 0. -1.
         22    1    3    3    0    0  0.44400730153E+02 -0.63476505189E+02  0.35129604052E+03  0.35973545785E+03  0.00000000000E+00 0. -1.
</event>
<event>
 7    1  0.5575489E-006  0.4931154E+02  0.7818608E-02  0.1504940E+00
          2   -1    0    0  502    0  0.00000000000E+00  0.00000000000E+00  0.33639924590E+03  0.33639924590E+03  0.00000000000E+00 0. -1.
          1   -1    0    0  501    0 -0.00000000000E+00 -0.00000000000E+00 -0.10288109476E+04  0.10288109476E+04  0.00000000000E+00 0. -1.
         25    2    1    2    0    0 -0.22976856752E+02 -0.38592987792E+02  0.17041998524E+03  0.21606767461E+03  0.12499965596E+03 0.  0.
          2    1    1    2  501    0  0.30577664437E+02 -0.12875263919E+02 -0.10009762138E+04  0.10015259091E+04  0.00000000000E+00 0. -1.
          1    1    1    2  502    0 -0.76008076856E+01  0.51468251711E+02  0.13814452682E+03  0.14761660985E+03  0.00000000000E+00 0. -1.
         22    1    3    3    0    0 -0.26221146570E+02  0.29609983466E+02  0.86612703749E+01  0.40488482965E+02  0.00000000000E+00 0. -1.
         22    1    3    3    0    0  0.32442898188E+01 -0.68202971258E+02  0.16175871486E+03  0.17557919165E+03  0.00000000000E+00 0. -1.
</event>
<event>
 7    1  0.5575489E-006  0.1077050E+03  0.7818608E-02  0.1406579E+00
          2   -1    0    0  502    0  0.00000000000E+00  0.00000000000E+00  0.13826888551E+04  0.13826888551E+04  0.00000000000E+00 0. -1.
          1   -1    0    0  501    0 -0.00000000000E+00 -0.00000000000E+00 -0.21197157274E+03  0.21197157274E+03  0.00000000000E+00 0. -1.
         25    2    1    2    0    0  0.11575912365E+03  0.17917499887E+02  0.26219711922E+03  0.31319845815E+03  0.12499893340E+03 0.  0.
          2    1    1    2  501    0 -0.93053612832E+01 -0.29774674681E+02 -0.18252504087E+03  0.18517157326E+03  0.00000000000E+00 0. -1.
          1    1    1    2  502    0 -0.10645376237E+03  0.11857174794E+02  0.10910452040E+04  0.10962903964E+04  0.00000000000E+00 0. -1.
         22    1    3    3    0    0  0.13787536903E+03  0.35752279603E+02  0.20956850437E+03  0.25339060935E+03  0.00000000000E+00 0. -1.
         22    1    3    3    0    0 -0.22116245381E+02 -0.17834779716E+02  0.52628614852E+02  0.59807848804E+02  0.00000000000E+00 0. -1.
</event>
<event>
 7    1  0.5575489E-006  0.1528415E+03  0.7818608E-02  0.1269130E+00
          2   -1    0    0  502    0  0.00000000000E+00  0.00000000000E+00  0.15949803828E+04  0.15949803828E+04  0.00000000000E+00 0. -1.
          1   -1    0    0  501    0 -0.00000000000E+00 -0.00000000000E+00 -0.61853445958E+03  0.61853445958E+03  0.00000000000E+00 0. -1.
         25    2    1    2    0    0  0.11925672444E+03  0.60869986106E+00  0.47810413047E+02  0.17925862478E+03  0.12500112849E+03 0.  0.
          2    1    1    2  501    0  0.19410462239E+02  0.70193200030E+02 -0.54629632190E+03  0.55112931577E+03  0.00000000000E+00 0. -1.
          1    1    1    2  502    0 -0.13866718668E+03 -0.70801899891E+02  0.14749318320E+04  0.14831269018E+04  0.00000000000E+00 0. -1.
         22    1    3    3    0    0 -0.50627784627E+01 -0.96021206738E+01 -0.30229793665E+02  0.32119664883E+02  0.00000000000E+00 0. -1.
         22    1    3    3    0    0  0.12431950290E+03  0.10210820535E+02  0.78040206712E+02  0.14713895990E+03  0.00000000000E+00 0. -1.
</event>
<event>
 7    1  0.5575489E-006  0.1226083E+03  0.7818608E-02  0.1248059E+00
          2   -1    0    0  502    0  0.00000000000E+00  0.00000000000E+00  0.11855343021E+04  0.11855343021E+04  0.00000000000E+00 0. -1.
          1   -1    0    0  501    0 -0.00000000000E+00 -0.00000000000E+00 -0.11427933465E+03  0.11427933465E+03  0.00000000000E+00 0. -1.
         25    2    1    2    0    0  0.26136411612E+02  0.13827716996E+03  0.10725413772E+03  0.21663958526E+03  0.12500228838E+03 0.  0.
          2    1    1    2  501    0 -0.11138707523E+03 -0.66060127981E+02  0.18175042487E+02  0.13077214231E+03  0.00000000000E+00 0. -1.
          1    1    1    2  502    0  0.85250663614E+02 -0.72217041981E+02  0.94582578721E+03  0.95240190915E+03  0.00000000000E+00 0. -1.
         22    1    3    3    0    0  0.43438302406E+02  0.11436589163E+03  0.13064358490E+03  0.17898097541E+03  0.00000000000E+00 0.  1.
         22    1    3    3    0    0 -0.17301890794E+02  0.23911278330E+02 -0.23389447180E+02  0.37658609849E+02  0.00000000000E+00 0.  1.
</event>
<event>
 7    1  0.5575489E-006  0.3801568E+02  0.7818608E-02  0.1555249E+00
          2   -1    0    0  502    0  0.00000000000E+00  0.00000000000E+00  0.11183429149E+04  0.11183429149E+04  0.00000000000E+00 0. -1.
          1   -1    0    0  501    0 -0.00000000000E+00 -0.00000000000E+00 -0.95098780826E+02  0.95098780826E+02  0.00000000000E+00 0. -1.
         25    2    1    2    0    0 -0.11404312617E+01  0.37702438901E+02  0.22475752413E+03  0.25993048203E+03  0.12500054541E+03 0.  0.
          2    1    1    2  501    0 -0.27624924233E+02 -0.26472258912E+02 -0.72500396889E+02  0.81976975304E+02  0.00000000000E+00 0. -1.
          1    1    1    2  502    0  0.28765355495E+02 -0.11230179989E+02  0.87098700686E+03  0.87153423842E+03  0.00000000000E+00 0. -1.
         22    1    3    3    0    0 -0.20971922901E+02 -0.19374218165E+02  0.14453336580E+01  0.28587949717E+02  0.00000000000E+00 0. -1.
         22    1    3    3    0    0  0.19831491640E+02  0.57076657066E+02  0.22331219047E+03  0.23134253231E+03  0.00000000000E+00 0. -1.
</event>
<event>
 7    1  0.5575489E-006  0.3819248E+02  0.7818608E-02  0.1601816E+00
          2   -1    0    0  502    0  0.00000000000E+00  0.00000000000E+00  0.76663921304E+02  0.76663921304E+02  0.00000000000E+00 0. -1.
          1   -1    0    0  501    0 -0.00000000000E+00 -0.00000000000E+00 -0.19573986712E+03  0.19573986712E+03  0.00000000000E+00 0. -1.
         25    2    1    2    0    0 -0.29728711880E+02  0.51251511214E+02 -0.71801774324E+02  0.15586611302E+03  0.12501294605E+03 0.  0.
          2    1    1    2  501    0  0.13170320477E+02 -0.18907294783E+02 -0.69989818947E+02  0.73685262392E+02  0.00000000000E+00 0. -1.
          1    1    1    2  502    0  0.16558391403E+02 -0.32344216431E+02  0.22715647450E+02  0.42852413018E+02  0.00000000000E+00 0. -1.
         22    1    3    3    0    0  0.48294804789E+02  0.77635740207E+01 -0.22539349969E+02  0.53857994283E+02  0.00000000000E+00 0. -1.
         22    1    3    3    0    0 -0.78023516669E+02  0.43487937194E+02 -0.49262424355E+02  0.10200811874E+03  0.00000000000E+00 0. -1.
</event>
<event>
 7    1  0.5575489E-006  0.8715902E+02  0.7818608E-02  0.1467487E+00
          2   -1    0    0  502    0  0.00000000000E+00  0.00000000000E+00  0.19251308420E+04  0.19251308420E+04  0.00000000000E+00 0. -1.
          1   -1    0    0  501    0 -0.00000000000E+00 -0.00000000000E+00 -0.11367519284E+04  0.11367519284E+04  0.00000000000E+00 0. -1.
         25    2    1    2    0    0  0.84033885918E+01 -0.70439749733E+02  0.12564915052E+03  0.19090860382E+03  0.12500404275E+03 0.  0.
          2    1    1    2  501    0  0.21132553682E+02 -0.12199308091E+02 -0.11028974378E+04  0.11031673338E+04  0.00000000000E+00 0. -1.
          1    1    1    2  502    0 -0.29535942274E+02  0.82639057824E+02  0.17656272009E+04  0.17678068328E+04  0.00000000000E+00 0. -1.
         22    1    3    3    0    0 -0.60404016736E+01  0.35607643367E+02  0.24457566287E+02  0.43618382217E+02  0.00000000000E+00 0.  1.
         22    1    3    3    0    0  0.14443790265E+02 -0.10604739310E+03  0.10119158423E+03  0.14729022160E+03  0.00000000000E+00 0.  1.
</event>
<event>
 7    1  0.5575489E-006  0.5443904E+02  0.7818608E-02  0.1511173E+00
          2   -1    0    0  502    0  0.00000000000E+00  0.00000000000E+00  0.13547906308E+04  0.13547906308E+04  0.00000000000E+00 0. -1.
          1   -1    0    0  501    0 -0.00000000000E+00 -0.00000000000E+00 -0.82894529346E+02  0.82894529346E+02  0.00000000000E+00 0. -1.
         25    2    1    2    0    0  0.94710989198E+01 -0.24813038858E+02  0.14118526260E+03  0.19043017660E+03  0.12499994068E+03 0.  0.
          2    1    1    2  501    0  0.56030302234E+01 -0.28256096456E+02 -0.54030497558E+02  0.61229858737E+02  0.00000000000E+00 0. -1.
          1    1    1    2  502    0 -0.15074129143E+02  0.53069135313E+02  0.11847413364E+04  0.11860251248E+04  0.00000000000E+00 0. -1.
         22    1    3    3    0    0 -0.30851491793E+02  0.27662273185E+02  0.87064683513E+01  0.42341687434E+02  0.00000000000E+00 0. -1.
         22    1    3    3    0    0  0.40322590712E+02 -0.52475312042E+02  0.13247879425E+03  0.14808848916E+03  0.00000000000E+00 0. -1.
</event>
<event>
 7    1  0.5575489E-006  0.9193338E+02  0.7818608E-02  0.1424225E+00
          2   -1    0    0  502    0  0.00000000000E+00  0.00000000000E+00  0.19342281550E+04  0.19342281550E+04  0.00000000000E+00 0. -1.
          1   -1    0    0  501    0 -0.00000000000E+00 -0.00000000000E+00 -0.13378644637E+03  0.13378644637E+03  0.00000000000E+00 0. -1.
         25    2    1    2    0    0  0.69745739714E+02 -0.28802594981E+02  0.39351765552E+02  0.15121919393E+03  0.12499850189E+03 0.  0.
          2    1    1    2  501    0  0.22407244365E+02  0.22676664990E+02 -0.73378026875E+02  0.80004065917E+02  0.00000000000E+00 0. -1.
          1    1    1    2  502    0 -0.92152984080E+02  0.61259299905E+01  0.18344679699E+04  0.18367913415E+04  0.00000000000E+00 0. -1.
         22    1    3    3    0    0 -0.15075632395E+02 -0.47727031912E+02 -0.10340836535E+02  0.51108484300E+02  0.00000000000E+00 0.  1.
         22    1    3    3    0    0  0.84821372109E+02  0.18924436931E+02  0.49692602087E+02  0.10011070963E+03  0.00000000000E+00 0.  1.
</event>
<event>
 7    1  0.5575489E-006  0.1148768E+03  0.7818608E-02  0.1309775E+00
          2   -1    0    0  502    0  0.00000000000E+00  0.00000000000E+00  0.24883017899E+03  0.24883017899E+03  0.00000000000E+00 0. -1.
          1   -1    0    0  501    0 -0.00000000000E+00 -0.00000000000E+00 -0.89244550631E+03  0.89244550631E+03  0.00000000000E+00 0. -1.
         25    2    1    2    0    0  0.28796038036E+02  0.10935135029E+03 -0.11667816866E+03  0.20500319251E+03  0.12500233709E+03 0.  0.
          2    1    1    2  501    0 -0.87077842448E+02 -0.77971257826E+02 -0.72142324289E+03  0.73083073490E+03  0.00000000000E+00 0. -1.
          1    1    1    2  502    0  0.58281804412E+02 -0.31380092468E+02  0.19448608423E+03  0.20544175789E+03  0.00000000000E+00 0. -1.
         22    1    3    3    0    0  0.67687549092E+02  0.94090548786E+02 -0.11486901209E+03  0.16318555577E+03  0.00000000000E+00 0. -1.
         22    1    3    3    0    0 -0.38891511056E+02  0.15260801508E+02 -0.18091565729E+01  0.41817636738E+02  0.00000000000E+00 0. -1.
</event>
<event>
 7    1  0.5575489E-006  0.4561908E+02  0.7818608E-02  0.1547823E+00
          2   -1    0    0  502    0  0.00000000000E+00  0.00000000000E+00  0.13502523309E+04  0.13502523309E+04  0.00000000000E+00 0. -1.
          1   -1    0    0  501    0 -0.00000000000E+00 -0.00000000000E+00 -0.14604611570E+04  0.14604611570E+04  0.00000000000E+00 0. -1.
         25    2    1    2    0    0 -0.26806922820E+02  0.10207430968E+02 -0.14412695285E+03  0.19292806674E+03  0.12500343052E+03 0.  0.
          2    1    1    2  501    0  0.30416650724E+00  0.26985805524E+02 -0.12913993435E+04  0.12916813038E+04  0.00000000000E+00 0. -1.
          1    1    1    2  502    0  0.26502756312E+02 -0.37193236492E+02  0.13253174703E+04  0.13261041174E+04  0.00000000000E+00 0. -1.
         22    1    3    3    0    0  0.42717066904E+01 -0.52537934176E+02 -0.90497441376E+02  0.10472950349E+03  0.00000000000E+00 0.  1.
         22    1    3    3    0    0 -0.31078629510E+02  0.62745365144E+02 -0.53629511474E+02  0.88198563254E+02  0.00000000000E+00 0.  1.
</event>
<event>
 7    1  0.7021228E-006  0.5634704E+02  0.7818608E-02  0.1427488E+00
          2   -1    0    0  502    0  0.00000000000E+00  0.00000000000E+00  0.82791284192E+03  0.82791284192E+03  0.00000000000E+00 0. -1.
          1   -1    0    0  501    0 -0.00000000000E+00 -0.00000000000E+00 -0.78102834839E+03  0.78102834839E+03  0.00000000000E+00 0. -1.
         25    2    1    2    0    0 -0.34608654412E+02  0.89121387887E+02 -0.39847582838E+03  0.42842551628E+03  0.12500022582E+03 0.  0.
          2    1    1    2  501    0 -0.13980493688E+00 -0.52153604753E+02 -0.36493030797E+03  0.36863823420E+03  0.00000000000E+00 0. -1.
          1    1    1    2  502    0  0.34748459349E+02 -0.36967783134E+02  0.81029062989E+03  0.81187743983E+03  0.00000000000E+00 0. -1.
         22    1    3    3    0    0  0.37016204446E+02 -0.56105780797E+01 -0.74724001379E+02  0.83578432386E+02  0.00000000000E+00 0.  1.
         22    1    3    3    0    0 -0.71624858858E+02  0.94731965967E+02 -0.32375182700E+03  0.34484708390E+03  0.00000000000E+00 0.  1.
</event>
<event>
 7    1  0.5575489E-006  0.1146297E+03  0.7818608E-02  0.1253709E+00
          2   -1    0    0  502    0  0.00000000000E+00  0.00000000000E+00  0.11360312943E+04  0.11360312943E+04  0.00000000000E+00 0. -1.
          1   -1    0    0  501    0 -0.00000000000E+00 -0.00000000000E+00 -0.27855563047E+03  0.27855563047E+03  0.00000000000E+00 0. -1.
         25    2    1    2    0    0  0.69317805341E+02  0.13989007249E+03 -0.11750806164E+03  0.23196362041E+03  0.12499914450E+03 0.  0.
          2    1    1    2  501    0  0.40161889466E+02 -0.10557478150E+03 -0.68994019187E+02  0.13236006398E+03  0.00000000000E+00 0. -1.
          1    1    1    2  502    0 -0.10947969481E+03 -0.34315290991E+02  0.10439777446E+04  0.10502632403E+04  0.00000000000E+00 0. -1.
         22    1    3    3    0    0 -0.27440912193E+02  0.59155933803E+02 -0.93135653855E+01  0.65872381666E+02  0.00000000000E+00 0. -1.
         22    1    3    3    0    0  0.96758717534E+02  0.80734138685E+02 -0.10819449625E+03  0.16609123874E+03  0.00000000000E+00 0. -1.
</event>
<event>
 7    1  0.5575489E-006  0.1320279E+03  0.7818608E-02  0.1271846E+00
          2   -1    0    0  502    0  0.00000000000E+00  0.00000000000E+00  0.20804785297E+04  0.20804785297E+04  0.00000000000E+00 0. -1.
          1   -1    0    0  501    0 -0.00000000000E+00 -0.00000000000E+00 -0.13022742173E+03  0.13022742173E+03  0.00000000000E+00 0. -1.
         25    2    1    2    0    0  0.11173190604E+03 -0.81921089393E+02  0.80634962203E+03  0.82765926462E+03  0.12500024657E+03 0.  0.
          2    1    1    2  501    0 -0.13281169063E+03  0.25475807399E+01 -0.80875521130E+02  0.15551940475E+03  0.00000000000E+00 0. -1.
          1    1    1    2  502    0  0.21079784589E+02  0.79373508653E+02  0.12247770071E+04  0.12275272821E+04  0.00000000000E+00 0. -1.
         22    1    3    3    0    0 -0.14502403682E+02 -0.51993960043E+02  0.30833100962E+03  0.31302029181E+03  0.00000000000E+00 0. -1.
         22    1    3    3    0    0  0.12623430972E+03 -0.29927129350E+02  0.49801861242E+03  0.51463897281E+03  0.00000000000E+00 0. -1.
</event>
<event>
 7    1  0.5575489E-006  0.3026913E+02  0.7818608E-02  0.1644309E+00
          2   -1    0    0  502    0  0.00000000000E+00  0.00000000000E+00  0.99390236194E+01  0.99390236194E+01  0.00000000000E+00 0. -1.
          1   -1    0    0  501    0 -0.00000000000E+00 -0.00000000000E+00 -0.28019416266E+04  0.28019416266E+04  0.00000000000E+00 0. -1.
         25    2    1    2    0    0 -0.47794571867E+02  0.16131062853E+02 -0.12126269585E+04  0.12200947530E+04  0.12499013398E+03 0.  0.
          2    1    1    2  501    0  0.22680546028E+02 -0.25475752729E+00 -0.15494493434E+04  0.15496153523E+04  0.00000000000E+00 0. -1.
          1    1    1    2  502    0  0.25114025839E+02 -0.15876305325E+02 -0.29926300981E+02  0.42170544874E+02  0.00000000000E+00 0. -1.
         22    1    3    3    0    0 -0.24852117346E+02 -0.29278347958E+01 -0.11544185161E+04  0.11546897031E+04  0.00000000000E+00 0.  1.
         22    1    3    3    0    0 -0.22942454521E+02  0.19058897648E+02 -0.58208442381E+02  0.65405049985E+02  0.00000000000E+00 0.  1.
</event>
<event>
 7    1  0.5575489E-006  0.7167689E+02  0.7818608E-02  0.1382365E+00
          2   -1    0    0  502    0  0.00000000000E+00  0.00000000000E+00  0.10968357735E+04  0.10968357735E+04  0.00000000000E+00 0. -1.
          1   -1    0    0  501    0 -0.00000000000E+00 -0.00000000000E+00 -0.41787891836E+03  0.41787891836E+03  0.00000000000E+00 0. -1.
         25    2    1    2    0    0  0.68280694107E+02  0.10206695291E+03 -0.21189951916E+01  0.17524473371E+03  0.12500524185E+03 0.  0.
          2    1    1    2  501    0 -0.50315685730E+02 -0.48108049502E+02 -0.32470455754E+03  0.33208297509E+03  0.00000000000E+00 0. -1.
          1    1    1    2  502    0 -0.17965008377E+02 -0.53958903404E+02  0.10057804079E+04  0.10073869831E+04  0.00000000000E+00 0. -1.
         22    1    3    3    0    0  0.44329428160E+02  0.40382160632E+02  0.59752707653E+02  0.84653429760E+02  0.00000000000E+00 0.  1.
         22    1    3    3    0    0  0.23951265947E+02  0.61684792274E+02 -0.61871702845E+02  0.90591303950E+02  0.00000000000E+00 0.  1.
</event>
<event>
 7    1  0.5575489E-006  0.1089793E+03  0.7818608E-02  0.1315224E+00
          2   -1    0    0  502    0  0.00000000000E+00  0.00000000000E+00  0.18728584179E+04  0.18728584179E+04  0.00000000000E+00 0. -1.
          1   -1    0    0  501    0 -0.00000000000E+00 -0.00000000000E+00 -0.21799167231E+04  0.21799167231E+04  0.00000000000E+00 0. -1.
         25    2    1    2    0    0  0.13118077833E+03  0.10602339199E+03  0.21494784092E+03  0.30046124449E+03  0.12500011550E+03 0.  0.
          2    1    1    2  501    0 -0.68342701539E+02 -0.84501039024E+02 -0.21350944720E+04  0.21378586377E+04  0.00000000000E+00 0. -1.
          1    1    1    2  502    0 -0.62838076794E+02 -0.21522352964E+02  0.16130883259E+04  0.16144552588E+04  0.00000000000E+00 0. -1.
         22    1    3    3    0    0  0.70830643707E+01 -0.25962830724E+01  0.97987983650E+02  0.98277949849E+02  0.00000000000E+00 0.  1.
         22    1    3    3    0    0  0.12409771396E+03  0.10861967506E+03  0.11695985727E+03  0.20218329464E+03  0.00000000000E+00 0.  1.
</event>
<event>
 7    1  0.5575489E-006  0.6810155E+02  0.7818608E-02  0.1480819E+00
          2   -1    0    0  502    0  0.00000000000E+00  0.00000000000E+00  0.41231205321E+02  0.41231205321E+02  0.00000000000E+00 0. -1.
          1   -1    0    0  501    0 -0.00000000000E+00 -0.00000000000E+00 -0.16753391164E+04  0.16753391164E+04  0.00000000000E+00 0. -1.
         25    2    1    2    0    0 -0.20976460405E+02 -0.35478601853E+02 -0.14242615884E+04  0.14303301782E+04  0.12499841348E+03 0.  0.
          2    1    1    2  501    0 -0.57668398197E+01 -0.27809134203E+02 -0.21544250661E+03  0.21730641509E+03  0.00000000000E+00 0. -1.
          1    1    1    2  502    0  0.26743300225E+02  0.63287736056E+02  0.55961839281E+01  0.68933728439E+02  0.00000000000E+00 0. -1.
         22    1    3    3    0    0 -0.65191524081E+02  0.48462692324E+01 -0.52040988876E+03  0.52449964104E+03  0.00000000000E+00 0. -1.
         22    1    3    3    0    0  0.44215063676E+02 -0.40324871086E+02 -0.90385169962E+03  0.90583053712E+03  0.00000000000E+00 0. -1.
</event>
<event>
 7    1  0.5575489E-006  0.5304965E+02  0.7818608E-02  0.1435582E+00
          2   -1    0    0  502    0  0.00000000000E+00  0.00000000000E+00  0.26785866866E+04  0.26785866866E+04  0.00000000000E+00 0. -1.
          1   -1    0    0  501    0 -0.00000000000E+00 -0.00000000000E+00 -0.35013090094E+03  0.35013090094E+03  0.00000000000E+00 0. -1.
         25    2    1    2    0    0 -0.58622638987E+02 -0.75735601014E+02  0.43402013817E+03  0.46170485282E+03  0.12500158287E+03 0.  0.
          2    1    1    2  501    0  0.43709734654E+02  0.25667175475E+02 -0.33407059680E+03  0.33789422671E+03  0.00000000000E+00 0. -1.
          1    1    1    2  502    0  0.14912904333E+02  0.50068425539E+02  0.22285062443E+04  0.22291185080E+04  0.00000000000E+00 0. -1.
         22    1    3    3    0    0 -0.82422083984E+02 -0.93225421799E+02  0.38351956027E+03  0.40320172656E+03  0.00000000000E+00 0. -1.
         22    1    3    3    0    0  0.23799444997E+02  0.17489820785E+02  0.50500577905E+02  0.58503126258E+02  0.00000000000E+00 0. -1.
</event>
<event>
 7    1  0.5575489E-006  0.3237967E+02  0.7818608E-02  0.1640695E+00
          2   -1    0    0  502    0  0.00000000000E+00  0.00000000000E+00  0.38645487830E+03  0.38645487830E+03  0.00000000000E+00 0. -1.
          1   -1    0    0  501    0 -0.00000000000E+00 -0.00000000000E+00 -0.12481181023E+04  0.12481181023E+04  0.00000000000E+00 0. -1.
         25    2    1    2    0    0 -0.18836160409E+02 -0.74156572070E+01 -0.87245658962E+03  0.88159685487E+03  0.12499088298E+03 0.  0.
          2    1    1    2  501    0  0.34321165621E+02 -0.77077510062E+01 -0.36994972340E+03  0.37161828491E+03  0.00000000000E+00 0. -1.
          1    1    1    2  502    0 -0.15485005212E+02  0.15123408213E+02  0.38074308906E+03  0.38135784078E+03  0.00000000000E+00 0. -1.
         22    1    3    3    0    0 -0.33217851463E+02 -0.21691333922E+02 -0.84184324707E+02  0.93064172212E+02  0.00000000000E+00 0. -1.
         22    1    3    3    0    0  0.14381691054E+02  0.14275676715E+02 -0.78827226492E+03  0.78853268266E+03  0.00000000000E+00 0. -1.
</event>
<event>
 7    1  0.5575489E-006  0.9882289E+02  0.7818608E-02  0.1321769E+00
          2   -1    0    0  502    0  0.00000000000E+00  0.00000000000E+00  0.35133049253E+04  0.35133049253E+04  0.00000000000E+00 0. -1.
          1   -1    0    0  501    0 -0.00000000000E+00 -0.00000000000E+00 -0.20567950072E+03  0.20567950072E+03  0.00000000000E+00 0. -1.
         25    2    1    2    0    0  0.75713663855E+02  0.32782885519E+02  0.10928288873E+04  0.11030449776E+04  0.12500387718E+03 0.  0.
          2    1    1    2  501    0 -0.93239786466E+02  0.34035135639E+02 -0.18776458174E+03  0.21238546654E+03  0.00000000000E+00 0. -1.
          1    1    1    2  502    0  0.17526122611E+02 -0.66818021158E+02  0.24025611190E+04  0.24035539818E+04  0.00000000000E+00 0. -1.
         22    1    3    3    0    0  0.43101538255E+02 -0.46821248262E+02  0.48594307271E+03  0.49009248291E+03  0.00000000000E+00 0.  1.
         22    1    3    3    0    0  0.32612125600E+02  0.79604133780E+02  0.60688581456E+03  0.61295249471E+03  0.00000000000E+00 0.  1.
</event>
<event>
 7    1  0.5575489E-006  0.1668431E+03  0.7818608E-02  0.1237174E+00
          2   -1    0    0  502    0  0.00000000000E+00  0.00000000000E+00  0.25396670533E+04  0.25396670533E+04  0.00000000000E+00 0. -1.
          1   -1    0    0  501    0 -0.00000000000E+00 -0.00000000000E+00 -0.56761111588E+02  0.56761111588E+02  0.00000000000E+00 0. -1.
         25    2    1    2    0    0 -0.36919809741E+01 -0.23901680242E+03  0.79307179187E+03  0.83769374311E+03  0.12500111047E+03 0.  0.
          2    1    1    2  501    0 -0.29144493848E+02  0.86901244811E+02  0.37410083206E+02  0.98998697955E+02  0.00000000000E+00 0. -1.
          1    1    1    2  502    0  0.32836474822E+02  0.15211555761E+03  0.16524240667E+04  0.16597357239E+04  0.00000000000E+00 0. -1.
         22    1    3    3    0    0  0.53028641511E+01 -0.23545749484E+03  0.79379150523E+03  0.82799354226E+03  0.00000000000E+00 0. -1.
         22    1    3    3    0    0 -0.89948451252E+01 -0.35593075772E+01 -0.71971335689E+00  0.97002008521E+01  0.00000000000E+00 0. -1.
</event>
<event>
 7    1  0.5575489E-006  0.1101789E+03  0.7818608E-02  0.1306717E+00
          2   -1    0    0  502    0  0.00000000000E+00  0.00000000000E+00  0.53872431374E+03  0.53872431374E+03  0.00000000000E+00 0. -1.
          1   -1    0    0  501    0 -0.00000000000E+00 -0.00000000000E+00 -0.13535999774E+03  0.13535999774E+03  0.00000000000E+00 0. -1.
         25    2    1    2    0    0 -0.15556748136E+03  0.56436069101E+02  0.19369480837E+03  0.28377549860E+03  0.12499833465E+03 0.  0.
          2    1    1    2  501    0  0.56543570960E+02 -0.42877254337E+02 -0.66104445779E+02  0.96981607062E+02  0.00000000000E+00 0. -1.
          1    1    1    2  502    0  0.99023910400E+02 -0.13558814764E+02  0.27577395341E+03  0.29332720581E+03  0.00000000000E+00 0. -1.
         22    1    3    3    0    0 -0.10036957636E+03  0.43490590279E+02  0.34363267256E+02  0.11465739156E+03  0.00000000000E+00 0.  1.
         22    1    3    3    0    0 -0.55197904998E+02  0.12945478822E+02  0.15933154111E+03  0.16911810705E+03  0.00000000000E+00 0.  1.
</event>
<event>
 7    1  0.5575489E-006  0.8278117E+02  0.7818608E-02  0.1345624E+00
          2   -1    0    0  502    0  0.00000000000E+00  0.00000000000E+00  0.71362115532E+03  0.71362115532E+03  0.00000000000E+00 0. -1.
          1   -1    0    0  501    0 -0.00000000000E+00 -0.00000000000E+00 -0.14350289152E+04  0.14350289152E+04  0.00000000000E+00 0. -1.
         25    2    1    2    0    0 -0.77499965499E+02  0.29709145828E+02 -0.11421089331E+03  0.18856686346E+03  0.12499782337E+03 0.  0.
          2    1    1    2  501    0  0.46948301820E+02  0.47707258506E+02 -0.12802024622E+04  0.12819510403E+04  0.00000000000E+00 0. -1.
          1    1    1    2  502    0  0.30551663679E+02 -0.77416404334E+02  0.67300559563E+03  0.67813216673E+03  0.00000000000E+00 0. -1.
         22    1    3    3    0    0  0.58460688374E+00 -0.11007192254E+02 -0.98498722577E+02  0.99113563128E+02  0.00000000000E+00 0. -1.
         22    1    3    3    0    0 -0.78084572383E+02  0.40716338082E+02 -0.15712170732E+02  0.89453300331E+02  0.00000000000E+00 0. -1.
</event>
<event>
 7    1  0.5575489E-006  0.1005483E+03  0.7818608E-02  0.1363399E+00
          2   -1    0    0  502    0  0.00000000000E+00  0.00000000000E+00  0.40985453378E+03  0.40985453378E+03  0.00000000000E+00 0. -1.
          1   -1    0    0  501    0 -0.00000000000E+00 -0.00000000000E+00 -0.11604860484E+03  0.11604860484E+03  0.00000000000E+00 0. -1.
         25    2    1    2    0    0 -0.60115712072E+01 -0.63650634043E+02  0.16442811082E+03  0.21621355899E+03  0.12499662901E+03 0.  0.
          2    1    1    2  501    0  0.34686557874E+02  0.10139441431E+03 -0.54200578683E+02  0.12009032967E+03  0.00000000000E+00 0. -1.
          1    1    1    2  502    0 -0.28674986667E+02 -0.37743780270E+02  0.18357839681E+03  0.18959924996E+03  0.00000000000E+00 0. -1.
         22    1    3    3    0    0 -0.26180053356E+02  0.14533656043E+02 -0.32380018770E+01  0.30118217209E+02  0.00000000000E+00 0.  1.
         22    1    3    3    0    0  0.20168482148E+02 -0.78184290086E+02  0.16766611269E+03  0.18609534178E+03  0.00000000000E+00 0.  1.
</event>
<event>
 7    1  0.5575489E-006  0.1342526E+03  0.7818608E-02  0.1248460E+00
          2   -1    0    0  502    0  0.00000000000E+00  0.00000000000E+00  0.23262446581E+04  0.23262446581E+04  0.00000000000E+00 0. -1.
          1   -1    0    0  501    0 -0.00000000000E+00 -0.00000000000E+00 -0.96821838105E+03  0.96821838105E+03  0.00000000000E+00 0. -1.
         25    2    1    2    0    0 -0.11283908053E+03 -0.15313232289E+03  0.20765471160E+03  0.30810368193E+03  0.12500093264E+03 0.  0.
          2    1    1    2  501    0  0.13218524269E+02  0.13303165404E+03 -0.91186876413E+03  0.92161640250E+03  0.00000000000E+00 0. -1.
          1    1    1    2  502    0  0.99620556258E+02  0.20100668855E+02  0.20622403296E+04  0.20647429547E+04  0.00000000000E+00 0. -1.
         22    1    3    3    0    0 -0.13459826532E+03 -0.98972133550E+02  0.17160642290E+03  0.23950144180E+03  0.00000000000E+00 0. -1.
         22    1    3    3    0    0  0.21759184788E+02 -0.54160189341E+02  0.36048288700E+02  0.68602240126E+02  0.00000000000E+00 0. -1.
</event>
<event>
 7    1  0.5575489E-006  0.2857374E+02  0.7818608E-02  0.1626932E+00
          2   -1    0    0  502    0  0.00000000000E+00  0.00000000000E+00  0.26824613657E+03  0.26824613657E+03  0.00000000000E+00 0. -1.
          1   -1    0    0  501    0 -0.00000000000E+00 -0.00000000000E+00 -0.72215307052E+03  0.72215307052E+03  0.00000000000E+00 0. -1.
         25    2    1    2    0    0 -0.20567013851E+02  0.46600382486E+01  0.94008796257E+02  0.15780547060E+03  0.12498077758E+03 0.  0.
          2    1    1    2  501    0  0.87608135444E+00 -0.26538065348E+02 -0.68847438791E+03  0.68898622573E+03  0.00000000000E+00 0. -1.
          1    1    1    2  502    0  0.19690932496E+02  0.21878027100E+02  0.14055865770E+03  0.14360751076E+03  0.00000000000E+00 0. -1.
         22    1    3    3    0    0  0.38916232950E+02  0.16947503426E+02 -0.38591305759E+01  0.42621402466E+02  0.00000000000E+00 0. -1.
         22    1    3    3    0    0 -0.59483246800E+02 -0.12287465178E+02  0.97867926833E+02  0.11518406814E+03  0.00000000000E+00 0. -1.
</event>
<event>
 7    1  0.5575489E-006  0.8772637E+02  0.7818608E-02  0.1438389E+00
          2   -1    0    0  502    0  0.00000000000E+00  0.00000000000E+00  0.91368769129E+03  0.91368769129E+03  0.00000000000E+00 0. -1.
          1   -1    0    0  501    0 -0.00000000000E+00 -0.00000000000E+00 -0.10272562700E+03  0.10272562700E+03  0.00000000000E+00 0. -1.
         25    2    1    2    0    0 -0.30134543765E+02  0.10268683633E+03  0.14844611033E+03  0.22161814652E+03  0.12500271242E+03 0.  0.
          2    1    1    2  501    0  0.25213341155E+02 -0.16281287927E+02 -0.60013966234E+02  0.67100440027E+02  0.00000000000E+00 0. -1.
          1    1    1    2  502    0  0.49212026093E+01 -0.86405548407E+02  0.72252992019E+03  0.72769473174E+03  0.00000000000E+00 0. -1.
         22    1    3    3    0    0 -0.68720457706E+02  0.94019038814E+02  0.75942080829E+02  0.13902978317E+03  0.00000000000E+00 0. -1.
         22    1    3    3    0    0  0.38585913942E+02  0.86677975197E+01  0.72504029498E+02  0.82588363357E+02  0.00000000000E+00 0. -1.
</event>
<event>
 7    1  0.5575489E-006  0.5309067E+02  0.7818608E-02  0.1429501E+00
          2   -1    0    0  502    0  0.00000000000E+00  0.00000000000E+00  0.12203994761E+04  0.12203994761E+04  0.00000000000E+00 0. -1.
          1   -1    0    0  501    0 -0.00000000000E+00 -0.00000000000E+00 -0.41296596700E+03  0.41296596700E+03  0.00000000000E+00 0. -1.
         25    2    1    2    0    0 -0.13939225543E+02 -0.26793611079E+02 -0.17378727879E+03  0.21619759437E+03  0.12500872745E+03 0.  0.
          2    1    1    2  501    0 -0.38374782582E+02  0.36600150528E+02 -0.21414717200E+03  0.22061551675E+03  0.00000000000E+00 0. -1.
          1    1    1    2  502    0  0.52314008125E+02 -0.98065394494E+01  0.11953679599E+04  0.11965523320E+04  0.00000000000E+00 0. -1.
         22    1    3    3    0    0 -0.14436017207E+01  0.44845141456E+02 -0.11242346759E+03  0.12104630008E+03  0.00000000000E+00 0.  1.
         22    1    3    3    0    0 -0.12495623822E+02 -0.71638752535E+02 -0.61363811201E+02  0.95151294288E+02  0.00000000000E+00 0.  1.
</event>
<event>
 7    1  0.5575489E-006  0.7205025E+02  0.7818608E-02  0.1413148E+00
          2   -1    0    0  502    0  0.00000000000E+00  0.00000000000E+00  0.67287672838E+03  0.67287672838E+03  0.00000000000E+00 0. -1.
          1   -1    0    0  501    0 -0.00000000000E+00 -0.00000000000E+00 -0.20207652994E+03  0.20207652994E+03  0.00000000000E+00 0. -1.
         25    2    1    2    0    0  0.50305353208E+02  0.16625620130E+02 -0.59041449662E+02  0.14804015998E+03  0.12499182527E+03 0.  0.
          2    1    1    2  501    0  0.18386486246E+02 -0.40306045942E+02 -0.91329319777E+02  0.10150706806E+03  0.00000000000E+00 0. -1.
          1    1    1    2  502    0 -0.68691839454E+02  0.23680425812E+02  0.62117096787E+03  0.62540603028E+03  0.00000000000E+00 0. -1.
         22    1    3    3    0    0  0.53290192469E+02 -0.42572635434E+02 -0.56739050799E+02  0.88722002833E+02  0.00000000000E+00 0. -1.
         22    1    3    3    0    0 -0.29848392611E+01  0.59198255563E+02 -0.23023988625E+01  0.59318157150E+02  0.00000000000E+00 0. -1.
</event>
<event>
 7    1  0.5575489E-006  0.8567729E+02  0.7818608E-02  0.1493972E+00
          2   -1    0    0  502    0  0.00000000000E+00  0.00000000000E+00  0.19677160627E+03  0.19677160627E+03  0.00000000000E+00 0. -1.
          1   -1    0    0  501    0 -0.00000000000E+00 -0.00000000000E+00 -0.75591872311E+03  0.75591872311E+03  0.00000000000E+00 0. -1.
         25    2    1    2    0    0 -0.96869685593E+02  0.28526261109E+02  0.19356067773E+02  0.16185600068E+03  0.12500089614E+03 0.  0.
          2    1    1    2  501    0  0.20477684829E+02  0.21603446675E+01 -0.66852685181E+03  0.66884389379E+03  0.00000000000E+00 0. -1.
          1    1    1    2  502    0  0.76392000764E+02 -0.30686605776E+02  0.90023667203E+02  0.12199043492E+03  0.00000000000E+00 0. -1.
         22    1    3    3    0    0 -0.76371260832E+01  0.36432765661E+02 -0.39807151446E+02  0.54500288209E+02  0.00000000000E+00 0. -1.
         22    1    3    3    0    0 -0.89232559510E+02 -0.79065045527E+01  0.59163219219E+02  0.10735571247E+03  0.00000000000E+00 0. -1.
</event>
<event>
 7    1  0.5575489E-006  0.1093328E+03  0.7818608E-02  0.1437740E+00
          2   -1    0    0  502    0  0.00000000000E+00  0.00000000000E+00  0.15788369418E+04  0.15788369418E+04  0.00000000000E+00 0. -1.
          1   -1    0    0  501    0 -0.00000000000E+00 -0.00000000000E+00 -0.17678942234E+03  0.17678942234E+03  0.00000000000E+00 0. -1.
         25    2    1    2    0    0  0.92327781002E+02 -0.44560225698E+02  0.14788836228E+03  0.21910166624E+03  0.12499815836E+03 0.  0.
          2    1    1    2  501    0 -0.10737515021E+03  0.25607943353E+02 -0.11948292153E+03  0.16266947527E+03  0.00000000000E+00 0. -1.
          1    1    1    2  502    0  0.15047369210E+02  0.18952282345E+02  0.13736420788E+04  0.13738552227E+04  0.00000000000E+00 0. -1.
         22    1    3    3    0    0 -0.25903896566E+02  0.81037179526E+01  0.75113427258E+01  0.28162073281E+02  0.00000000000E+00 0. -1.
         22    1    3    3    0    0  0.11823167757E+03 -0.52663943650E+02  0.14037701956E+03  0.19093959296E+03  0.00000000000E+00 0. -1.
</event>
<event>
 7    1  0.5575489E-006  0.7573220E+02  0.7818608E-02  0.1461540E+00
          2   -1    0    0  502    0  0.00000000000E+00  0.00000000000E+00  0.40251345620E+03  0.40251345620E+03  0.00000000000E+00 0. -1.
          1   -1    0    0  501    0 -0.00000000000E+00 -0.00000000000E+00 -0.11464551929E+03  0.11464551929E+03  0.00000000000E+00 0. -1.
         25    2    1    2    0    0 -0.41657325374E+02 -0.62676425273E+02 -0.14618071282E+02  0.14661277120E+03  0.12497179533E+03 0.  0.
          2    1    1    2  501    0 -0.21349764684E+02  0.20088044013E+02 -0.22390332277E+02  0.36887246357E+02  0.00000000000E+00 0. -1.
          1    1    1    2  502    0  0.63007090058E+02  0.42588381260E+02  0.32487634047E+03  0.33365895794E+03  0.00000000000E+00 0. -1.
         22    1    3    3    0    0 -0.39907067995E+02  0.18234358272E+02  0.30990156546E+02  0.53716437897E+02  0.00000000000E+00 0.  1.
         22    1    3    3    0    0 -0.17502573789E+01 -0.80910783545E+02 -0.45608227828E+02  0.92896333298E+02  0.00000000000E+00 0.  1.
</event>
<event>
 7    1  0.5575489E-006  0.8831106E+02  0.7818608E-02  0.1398631E+00
          2   -1    0    0  502    0  0.00000000000E+00  0.00000000000E+00  0.40701226281E+03  0.40701226281E+03  0.00000000000E+00 0. -1.
          1   -1    0    0  501    0 -0.00000000000E+00 -0.00000000000E+00 -0.10171692297E+04  0.10171692297E+04  0.00000000000E+00 0. -1.
         25    2    1    2    0    0  0.52382287217E+02 -0.93321212435E+01 -0.56126386995E+02  0.14699418387E+03  0.12500450501E+03 0.  0.
          2    1    1    2  501    0 -0.82324958499E+02  0.36613169140E+02 -0.91224815083E+03  0.91668675765E+03  0.00000000000E+00 0. -1.
          1    1    1    2  502    0  0.29942671282E+02 -0.27281047896E+02  0.35821757094E+03  0.36050055099E+03  0.00000000000E+00 0. -1.
         22    1    3    3    0    0  0.39101555525E+02  0.55942455318E+02 -0.19535160179E+02  0.70993749266E+02  0.00000000000E+00 0. -1.
         22    1    3    3    0    0  0.13280731692E+02 -0.65274576562E+02 -0.36591226816E+02  0.76000434601E+02  0.00000000000E+00 0. -1.
</event>
<event>
 7    1  0.5575489E-006  0.4871306E+02  0.7818608E-02  0.1453331E+00
          2   -1    0    0  502    0  0.00000000000E+00  0.00000000000E+00  0.16156104037E+03  0.16156104037E+03  0.00000000000E+00 0. -1.
          1   -1    0    0  501    0 -0.00000000000E+00 -0.00000000000E+00 -0.33972162931E+03  0.33972162931E+03  0.00000000000E+00 0. -1.
         25    2    1    2    0    0 -0.46839970612E+02  0.38766615719E+02 -0.60767926759E+02  0.15170342360E+03  0.12499741784E+03 0.  0.
          2    1    1    2  501    0 -0.13910151883E+01 -0.48364713648E+02 -0.22559533999E+03  0.23072567667E+03  0.00000000000E+00 0. -1.
          1    1    1    2  502    0  0.48230985800E+02  0.95980979283E+01  0.10820267782E+03  0.11885356941E+03  0.00000000000E+00 0. -1.
         22    1    3    3    0    0 -0.67752538832E+02 -0.21592970037E+02 -0.49984021505E+02  0.86919878503E+02  0.00000000000E+00 0.  1.
         22    1    3    3    0    0  0.20912568221E+02  0.60359585756E+02 -0.10783905254E+02  0.64783545093E+02  0.00000000000E+00 0.  1.
</event>
<event>
 7    1  0.5575489E-006  0.1200881E+03  0.7818608E-02  0.1245897E+00
          2   -1    0    0  502    0  0.00000000000E+00  0.00000000000E+00  0.20732794806E+03  0.20732794806E+03  0.00000000000E+00 0. -1.
          1   -1    0    0  501    0 -0.00000000000E+00 -0.00000000000E+00 -0.28967131014E+04  0.28967131014E+04  0.00000000000E+00 0. -1.
         25    2    1    2    0    0 -0.20232331497E+02  0.55589970403E+01 -0.44318013104E+03  0.46094849094E+03  0.12499853228E+03 0.  0.
          2    1    1    2  501    0  0.10121064659E+03 -0.94236342766E+02 -0.24243282637E+04  0.24282692630E+04  0.00000000000E+00 0. -1.
          1    1    1    2  502    0 -0.80978315089E+02  0.88677345726E+02  0.17812324144E+03  0.21482329552E+03  0.00000000000E+00 0. -1.
         22    1    3    3    0    0 -0.29554645661E+02 -0.24142107938E+02 -0.42099795857E+03  0.42272402295E+03  0.00000000000E+00 0.  1.
         22    1    3    3    0    0  0.93223141640E+01  0.29701104978E+02 -0.22182172466E+02  0.38224467996E+02  0.00000000000E+00 0.  1.
</event>
<event>
 7    1  0.5575489E-006  0.7232153E+02  0.7818608E-02  0.1477071E+00
          2   -1    0    0  502    0  0.00000000000E+00  0.00000000000E+00  0.80646857045E+03  0.80646857045E+03  0.00000000000E+00 0. -1.
          1   -1    0    0  501    0 -0.00000000000E+00 -0.00000000000E+00 -0.35400405437E+03  0.35400405437E+03  0.00000000000E+00 0. -1.
         25    2    1    2    0    0 -0.48908522424E+02  0.63526429953E+02 -0.54435092561E+02  0.15816725228E+03  0.12500419802E+03 0.  0.
          2    1    1    2  501    0  0.26941018270E+02  0.53242510095E+01 -0.24520422521E+03  0.24673726548E+03  0.00000000000E+00 0. -1.
          1    1    1    2  502    0  0.21967504154E+02 -0.68850680963E+02  0.75210383386E+03  0.75556810706E+03  0.00000000000E+00 0. -1.
         22    1    3    3    0    0 -0.17702470463E+02 -0.32457224043E+02  0.10154775859E+02  0.38340165959E+02  0.00000000000E+00 0.  1.
         22    1    3    3    0    0 -0.31206051961E+02  0.95983653996E+02 -0.64589868419E+02  0.11982708632E+03  0.00000000000E+00 0.  1.
</event>
<event>
 7    1  0.5575489E-006  0.6371421E+02  0.7818608E-02  0.1393619E+00
          2   -1    0    0  502    0  0.00000000000E+00  0.00000000000E+00  0.27785820273E+03  0.27785820273E+03  0.00000000000E+00 0. -1.
          1   -1    0    0  501    0 -0.00000000000E+00 -0.00000000000E+00 -0.19749972532E+04  0.19749972532E+04  0.00000000000E+00 0. -1.
         25    2    1    2    0    0  0.45616021410E+02 -0.53266921016E+02 -0.71419044426E+02  0.16013904091E+03  0.12500258490E+03 0.  0.
          2    1    1    2  501    0  0.12029179834E+02  0.62817432272E+02 -0.18550029463E+04  0.18561052400E+04  0.00000000000E+00 0. -1.
          1    1    1    2  502    0 -0.57645201244E+02 -0.95505112561E+01  0.22928294025E+03  0.23661117510E+03  0.00000000000E+00 0. -1.
         22    1    3    3    0    0  0.69796789237E+02 -0.73975824065E+02 -0.77321348969E+02  0.12775995202E+03  0.00000000000E+00 0.  1.
         22    1    3    3    0    0 -0.24180767827E+02  0.20708903048E+02  0.59023045430E+01  0.32379088886E+02  0.00000000000E+00 0.  1.
</event>
<event>
 7    1  0.5575489E-006  0.8591477E+02  0.7818608E-02  0.1405397E+00
          2   -1    0    0  502    0  0.00000000000E+00  0.00000000000E+00  0.98536284355E+02  0.98536284355E+02  0.00000000000E+00 0. -1.
          1   -1    0    0  501    0 -0.00000000000E+00 -0.00000000000E+00 -0.46057550968E+03  0.46057550968E+03  0.00000000000E+00 0. -1.
         25    2    1    2    0    0 -0.23987207067E+01  0.53460165870E+02 -0.10405058569E+03  0.17121492648E+03  0.12499713385E+03 0.  0.
          2    1    1    2  501    0 -0.41610683566E+01 -0.92382581732E+02 -0.30948929002E+03  0.32301002544E+03  0.00000000000E+00 0. -1.
          1    1    1    2  502    0  0.65597890634E+01  0.38922415862E+02  0.51500650387E+02  0.64886842113E+02  0.00000000000E+00 0. -1.
         22    1    3    3    0    0  0.44329057309E+02 -0.13891587989E+02 -0.12049941772E+02  0.47992110138E+02  0.00000000000E+00 0. -1.
         22    1    3    3    0    0 -0.46727778016E+02  0.67351753859E+02 -0.92000643917E+02  0.12322281634E+03  0.00000000000E+00 0. -1.
</event>
<event>
 7    1  0.5575489E-006  0.6286089E+02  0.7818608E-02  0.1495767E+00
          2   -1    0    0  502    0  0.00000000000E+00  0.00000000000E+00  0.62695093341E+02  0.62695093341E+02  0.00000000000E+00 0. -1.
          1   -1    0    0  501    0 -0.00000000000E+00 -0.00000000000E+00 -0.46432324521E+03  0.46432324521E+03  0.00000000000E+00 0. -1.
         25    2    1    2    0    0  0.30172037070E+02  0.21681781754E+02 -0.27346005608E+03  0.30296120268E+03  0.12499854628E+03 0.  0.
          2    1    1    2  501    0  0.22804444168E+02  0.15757270640E+02 -0.15233116160E+03  0.15483254518E+03  0.00000000000E+00 0. -1.
          1    1    1    2  502    0 -0.52976481238E+02 -0.37439052394E+02  0.24163065809E+02  0.69224590702E+02  0.00000000000E+00 0. -1.
         22    1    3    3    0    0  0.51499615090E+02  0.20607476581E+02 -0.27594274949E+03  0.28146274965E+03  0.00000000000E+00 0.  1.
         22    1    3    3    0    0 -0.21327578020E+02  0.10743051731E+01  0.24826934087E+01  0.21498453023E+02  0.00000000000E+00 0.  1.
</event>
<event>
 7    1  0.5575489E-006  0.1329861E+03  0.7818608E-02  0.1312625E+00
          2   -1    0    0  502    0  0.00000000000E+00  0.00000000000E+00  0.64579929005E+03  0.64579929005E+03  0.00000000000E+00 0. -1.
          1   -1    0    0  501    0 -0.00000000000E+00 -0.00000000000E+00 -0.10153513785E+04  0.10153513785E+04  0.00000000000E+00 0. -1.
         25    2    1    2    0    0 -0.10515678848E+03  0.71405351431E+02  0.23518481569E+03  0.29511575816E+03  0.12499895522E+03 0.  0.
          2    1    1    2  501    0  0.31325327013E+02  0.46082890971E+02 -0.97191545499E+03  0.97351145889E+03  0.00000000000E+00 0. -1.
          1    1    1    2  502    0  0.73831461472E+02 -0.11748824240E+03  0.36717855082E+03  0.39252345152E+03  0.00000000000E+00 0. -1.
         22    1    3    3    0    0 -0.89769428375E+02  0.86548961219E+02  0.24219994082E+03  0.27241527911E+03  0.00000000000E+00 0.  1.
         22    1    3    3    0    0 -0.15387360110E+02 -0.15143609788E+02 -0.70151251299E+01  0.22700479051E+02  0.00000000000E+00 0.  1.
</event>
<event>
 7    1  0.5575489E-006  0.5914161E+02  0.7818608E-02  0.1508379E+00
          2   -1    0    0  502    0  0.00000000000E+00  0.00000000000E+00  0.15203576928E+04  0.15203576928E+04  0.00000000000E+00 0. -1.
          1   -1    0    0  501    0 -0.00000000000E+00 -0.00000000000E+00 -0.81056446542E+03  0.81056446542E+03  0.00000000000E+00 0. -1.
         25    2    1    2    0    0 -0.21915142492E+02  0.32932765136E+02 -0.30487709762E+03  0.33187409380E+03  0.12500211595E+03 0.  0.
          2    1    1    2  501    0  0.48147048606E+02 -0.39423323796E+02 -0.49010017799E+03  0.49403493926E+03  0.00000000000E+00 0. -1.
          1    1    1    2  502    0 -0.26231906114E+02  0.64905586595E+01  0.15047705030E+04  0.15050131252E+04  0.00000000000E+00 0. -1.
         22    1    3    3    0    0 -0.28058433484E+02 -0.40918033014E+02 -0.71605235495E+02  0.87114125523E+02  0.00000000000E+00 0.  1.
         22    1    3    3    0    0  0.61432909916E+01  0.73850798150E+02 -0.23327186212E+03  0.24475996827E+03  0.00000000000E+00 0.  1.
</event>
<event>
 7    1  0.5575489E-006  0.8280971E+02  0.7818608E-02  0.1382727E+00
          2   -1    0    0  502    0  0.00000000000E+00  0.00000000000E+00  0.12795015537E+04  0.12795015537E+04  0.00000000000E+00 0. -1.
          1   -1    0    0  501    0 -0.00000000000E+00 -0.00000000000E+00 -0.15104924537E+04  0.15104924537E+04  0.00000000000E+00 0. -1.
         25    2    1    2    0    0 -0.37572840079E+02 -0.62307071396E+02  0.34082461860E+03  0.37024348230E+03  0.12499970434E+03 0.  0.
          2    1    1    2  501    0 -0.71253145562E+01  0.82580190157E+02 -0.14939816500E+04  0.14962791947E+04  0.00000000000E+00 0. -1.
          1    1    1    2  502    0  0.44698154635E+02 -0.20273118760E+02  0.92216613134E+03  0.92347133045E+03  0.00000000000E+00 0. -1.
         22    1    3    3    0    0 -0.56771717421E+02 -0.88094959995E+02  0.30293733282E+03  0.32055386051E+03  0.00000000000E+00 0. -1.
         22    1    3    3    0    0  0.19198877342E+02  0.25787888598E+02  0.37887285781E+02  0.49689621788E+02  0.00000000000E+00 0. -1.
</event>
<event>
 7    1  0.5575489E-006  0.3720742E+02  0.7818608E-02  0.1607029E+00
          2   -1    0    0  502    0  0.00000000000E+00  0.00000000000E+00  0.73032434492E+02  0.73032434492E+02  0.00000000000E+00 0. -1.
          1   -1    0    0  501    0 -0.00000000000E+00 -0.00000000000E+00 -0.47285532812E+03  0.47285532812E+03  0.00000000000E+00 0. -1.
         25    2    1    2    0    0  0.21011292608E+02  0.17758528463E+02 -0.17519884879E+03  0.21697076081E+03  0.12499933871E+03 0.  0.
          2    1    1    2  501    0 -0.38074804236E+02 -0.24469899751E+01 -0.27285757539E+03  0.27551213208E+03  0.00000000000E+00 0. -1.
          1    1    1    2  502    0  0.17063511628E+02 -0.15311538488E+02  0.48233530554E+02  0.53404869719E+02  0.00000000000E+00 0. -1.
         22    1    3    3    0    0  0.22879883707E+02  0.66081363196E+02 -0.14208304203E+03  0.15835980069E+03  0.00000000000E+00 0.  1.
         22    1    3    3    0    0 -0.18685910994E+01 -0.48322834732E+02 -0.33115806761E+02  0.58610960125E+02  0.00000000000E+00 0.  1.
</event>
<event>
 7    1  0.5575489E-006  0.7413654E+02  0.7818608E-02  0.1452394E+00
          2   -1    0    0  502    0  0.00000000000E+00  0.00000000000E+00  0.26085329563E+03  0.26085329563E+03  0.00000000000E+00 0. -1.
          1   -1    0    0  501    0 -0.00000000000E+00 -0.00000000000E+00 -0.47545633062E+03  0.47545633062E+03  0.00000000000E+00 0. -1.
         25    2    1    2    0    0 -0.68426263723E+02 -0.72149122962E+02  0.13427475495E+03  0.20866650037E+03  0.12499739616E+03 0.  0.
          2    1    1    2  501    0  0.61307415720E+02  0.40939114163E+02 -0.43216932815E+03  0.43841183662E+03  0.00000000000E+00 0. -1.
          1    1    1    2  502    0  0.71188480030E+01  0.31210008799E+02  0.83291538215E+02  0.89231289268E+02  0.00000000000E+00 0. -1.
         22    1    3    3    0    0 -0.25036431310E+02  0.31345830063E+02  0.10249429813E+02  0.41405733499E+02  0.00000000000E+00 0. -1.
         22    1    3    3    0    0 -0.43389832413E+02 -0.10349495302E+03  0.12402532514E+03  0.16726076687E+03  0.00000000000E+00 0. -1.
</event>
<event>
 7    1  0.5575489E-006  0.1093997E+03  0.7818608E-02  0.1400817E+00
          2   -1    0    0  502    0  0.00000000000E+00  0.00000000000E+00  0.86476237406E+03  0.86476237406E+03  0.00000000000E+00 0. -1.
          1   -1    0    0  501    0 -0.00000000000E+00 -0.00000000000E+00 -0.20548963494E+04  0.20548963494E+04  0.00000000000E+00 0. -1.
         25    2    1    2    0    0  0.87769826337E+02 -0.57549920213E+02  0.68298778815E+03  0.70221985150E+03  0.12499946140E+03 0.  0.
          2    1    1    2  501    0  0.27094959060E+02  0.17282051182E+02 -0.20236225676E+04  0.20238777390E+04  0.00000000000E+00 0. -1.
          1    1    1    2  502    0 -0.11486478540E+03  0.40267869032E+02  0.15050080408E+03  0.19356113305E+03  0.00000000000E+00 0. -1.
         22    1    3    3    0    0 -0.61567221986E+01 -0.41632202631E+02  0.68529371558E+02  0.80420272881E+02  0.00000000000E+00 0. -1.
         22    1    3    3    0    0  0.93926548536E+02 -0.15917717582E+02  0.61445841659E+03  0.62179957862E+03  0.00000000000E+00 0. -1.
</event>
<event>
 7    1  0.5575489E-006  0.4846359E+02  0.7818608E-02  0.1480137E+00
          2   -1    0    0  502    0  0.00000000000E+00  0.00000000000E+00  0.17054919975E+04  0.17054919975E+04  0.00000000000E+00 0. -1.
          1   -1    0    0  501    0 -0.00000000000E+00 -0.00000000000E+00 -0.96913084479E+03  0.96913084479E+03  0.00000000000E+00 0. -1.
         25    2    1    2    0    0  0.10681139348E+02  0.33836501819E+02  0.34372868732E+03  0.36746859636E+03  0.12499905293E+03 0.  0.
          2    1    1    2  501    0 -0.46115079338E+02 -0.15059183389E+02 -0.95634812089E+03  0.95757772941E+03  0.00000000000E+00 0. -1.
          1    1    1    2  502    0  0.35433939990E+02 -0.18777318430E+02  0.13489805863E+04  0.13495765165E+04  0.00000000000E+00 0. -1.
         22    1    3    3    0    0  0.38431489300E+02  0.38365696812E+02  0.33296032235E+03  0.33735957423E+03  0.00000000000E+00 0. -1.
         22    1    3    3    0    0 -0.27750349952E+02 -0.45291949922E+01  0.10768364962E+02  0.30109022131E+02  0.00000000000E+00 0. -1.
</event>
<event>
 7    1  0.5575489E-006  0.6281750E+02  0.7818608E-02  0.1528916E+00
          2   -1    0    0  502    0  0.00000000000E+00  0.00000000000E+00  0.10384649540E+03  0.10384649540E+03  0.00000000000E+00 0. -1.
          1   -1    0    0  501    0 -0.00000000000E+00 -0.00000000000E+00 -0.11444144573E+04  0.11444144573E+04  0.00000000000E+00 0. -1.
         25    2    1    2    0    0  0.28540672885E+02 -0.29264373143E+02  0.54139341336E+02  0.14222321791E+03  0.12500160755E+03 0.  0.
          2    1    1    2  501    0 -0.44929538208E+02  0.44196996099E+02 -0.10735267457E+04  0.10753751493E+04  0.00000000000E+00 0. -1.
          1    1    1    2  502    0  0.16388865322E+02 -0.14932622955E+02 -0.21180557549E+02  0.30662585556E+02  0.00000000000E+00 0. -1.
         22    1    3    3    0    0  0.68228985181E+02 -0.47625899675E+02  0.17169660599E+02  0.84960096421E+02  0.00000000000E+00 0.  1.
         22    1    3    3    0    0 -0.39688312296E+02  0.18361526532E+02  0.36969680737E+02  0.57263121494E+02  0.00000000000E+00 0.  1.
</event>
<event>
 7    1  0.5575489E-006  0.5640838E+02  0.7818608E-02  0.1530331E+00
          2   -1    0    0  502    0  0.00000000000E+00  0.00000000000E+00  0.95040816972E+02  0.95040816972E+02  0.00000000000E+00 0. -1.
          1   -1    0    0  501    0 -0.00000000000E+00 -0.00000000000E+00 -0.22629842622E+03  0.22629842622E+03  0.00000000000E+00 0. -1.
         25    2    1    2    0    0  0.17383035848E+02 -0.31138523936E+02 -0.16662527274E+03  0.21133206771E+03  0.12500193486E+03 0.  0.
          2    1    1    2  501    0 -0.13029211616E+01 -0.24426409558E+02 -0.18729269177E+02  0.30807995900E+02  0.00000000000E+00 0. -1.
          1    1    1    2  502    0 -0.16080114687E+02  0.55564933494E+02  0.54096932668E+02  0.79199179583E+02  0.00000000000E+00 0. -1.
         22    1    3    3    0    0  0.30873088330E+02 -0.18393317518E+02  0.70888528459E+01  0.36629408226E+02  0.00000000000E+00 0. -1.
         22    1    3    3    0    0 -0.13490052482E+02 -0.12745206418E+02 -0.17371412558E+03  0.17470265948E+03  0.00000000000E+00 0. -1.
</event>
<event>
 7    1  0.5575489E-006  0.3820247E+02  0.7818608E-02  0.1556363E+00
          2   -1    0    0  502    0  0.00000000000E+00  0.00000000000E+00  0.11622731322E+03  0.11622731322E+03  0.00000000000E+00 0. -1.
          1   -1    0    0  501    0 -0.00000000000E+00 -0.00000000000E+00 -0.89641382226E+03  0.89641382226E+03  0.00000000000E+00 0. -1.
         25    2    1    2    0    0  0.18408081428E+02  0.19845183002E+02 -0.26404139195E+02  0.13061457109E+03  0.12502119366E+03 0.  0.
          2    1    1    2  501    0  0.61984248656E+01 -0.37885808600E+02 -0.81379660649E+03  0.81470158444E+03  0.00000000000E+00 0. -1.
          1    1    1    2  502    0 -0.24606506293E+02  0.18040625598E+02  0.60014236648E+02  0.67324979943E+02  0.00000000000E+00 0. -1.
         22    1    3    3    0    0 -0.89908602029E+01  0.70028558623E+02 -0.17610253109E+02  0.72766445595E+02  0.00000000000E+00 0.  1.
         22    1    3    3    0    0  0.27398941631E+02 -0.50183375621E+02 -0.87938860862E+01  0.57848125499E+02  0.00000000000E+00 0.  1.
</event>
<event>
 7    1  0.5575489E-006  0.9495366E+02  0.7818608E-02  0.1381018E+00
          2   -1    0    0  502    0  0.00000000000E+00  0.00000000000E+00  0.16651413694E+04  0.16651413694E+04  0.00000000000E+00 0. -1.
          1   -1    0    0  501    0 -0.00000000000E+00 -0.00000000000E+00 -0.17694078060E+04  0.17694078060E+04  0.00000000000E+00 0. -1.
         25    2    1    2    0    0  0.56978666810E+02 -0.11132325092E+03 -0.88340900526E+01  0.17703741506E+03  0.12499908207E+03 0.  0.
          2    1    1    2  501    0 -0.65001581359E+02  0.68668622069E+02 -0.16748404497E+04  0.16775074120E+04  0.00000000000E+00 0. -1.
          1    1    1    2  502    0  0.80229145491E+01  0.42654628849E+02  0.15794081032E+04  0.15800043484E+04  0.00000000000E+00 0. -1.
         22    1    3    3    0    0 -0.21503921466E+00  0.16170649017E+02 -0.31564207822E+02  0.35465974495E+02  0.00000000000E+00 0.  1.
         22    1    3    3    0    0  0.57193706025E+02 -0.12749389993E+03  0.22730117769E+02  0.14157144056E+03  0.00000000000E+00 0.  1.
</event>
<event>
 7    1  0.5575489E-006  0.1217905E+03  0.7818608E-02  0.1446223E+00
          2   -1    0    0  502    0  0.00000000000E+00  0.00000000000E+00  0.11977842255E+04  0.11977842255E+04  0.00000000000E+00 0. -1.
          1   -1    0    0  501    0 -0.00000000000E+00 -0.00000000000E+00 -0.83084888765E+02  0.83084888765E+02  0.00000000000E+00 0. -1.
         25    2    1    2    0    0 -0.84661264076E+02  0.11232980921E+03  0.12069631412E+03  0.22355739535E+03  0.12499917239E+03 0.  0.
          2    1    1    2  501    0  0.99407989410E+01 -0.17806554118E+02 -0.24403146589E+02  0.31802616506E+02  0.00000000000E+00 0. -1.
          1    1    1    2  502    0  0.74720465135E+02 -0.94523255093E+02  0.10184061692E+04  0.10255091024E+04  0.00000000000E+00 0. -1.
         22    1    3    3    0    0  0.40207565011E+01 -0.31119123967E+01 -0.20281948583E+02  0.20909517448E+02  0.00000000000E+00 0. -1.
         22    1    3    3    0    0 -0.88682020577E+02  0.11544172161E+03  0.14097826271E+03  0.20264787790E+03  0.00000000000E+00 0. -1.
</event>
<event>
 7    1  0.5575489E-006  0.1606976E+03  0.7818608E-02  0.1347009E+00
          2   -1    0    0  502    0  0.00000000000E+00  0.00000000000E+00  0.64072339254E+03  0.64072339254E+03  0.00000000000E+00 0. -1.
          1   -1    0    0  501    0 -0.00000000000E+00 -0.00000000000E+00 -0.26273862101E+03  0.26273862101E+03  0.00000000000E+00 0. -1.
         25    2    1    2    0    0  0.70346210786E+02 -0.11885196784E+03  0.20181452189E+03  0.27464290149E+03  0.12500096985E+03 0.  0.
          2    1    1    2  501    0  0.18581177081E+02 -0.28560265189E+02 -0.20645475483E+03  0.20924749623E+03  0.00000000000E+00 0. -1.
          1    1    1    2  502    0 -0.88927387867E+02  0.14741223303E+03  0.38262500446E+03  0.41957161582E+03  0.00000000000E+00 0. -1.
         22    1    3    3    0    0  0.68173003822E+01 -0.21081793648E+00  0.11343080059E+03  0.11363567464E+03  0.00000000000E+00 0. -1.
         22    1    3    3    0    0  0.63528910404E+02 -0.11864114990E+03  0.88383721305E+02  0.16100722685E+03  0.00000000000E+00 0. -1.
</event>
<event>
 7    1  0.5575489E-006  0.7160549E+02  0.7818608E-02  0.1403457E+00
          2   -1    0    0  502    0  0.00000000000E+00  0.00000000000E+00  0.37330002773E+03  0.37330002773E+03  0.00000000000E+00 0. -1.
          1   -1    0    0  501    0 -0.00000000000E+00 -0.00000000000E+00 -0.28396011633E+03  0.28396011633E+03  0.00000000000E+00 0. -1.
         25    2    1    2    0    0  0.88962696781E+01 -0.29477260929E+02 -0.64985585829E+02  0.14420885810E+03  0.12500006346E+03 0.  0.
          2    1    1    2  501    0 -0.22277700688E+02 -0.42615789616E+02 -0.17199674636E+03  0.17859250329E+03  0.00000000000E+00 0. -1.
          1    1    1    2  502    0  0.13381431010E+02  0.72093050545E+02  0.32632224360E+03  0.33445878266E+03  0.00000000000E+00 0. -1.
         22    1    3    3    0    0  0.52259769443E+02  0.60160591859E+01 -0.70430745993E+02  0.87907715541E+02  0.00000000000E+00 0. -1.
         22    1    3    3    0    0 -0.43363499765E+02 -0.35493320115E+02  0.54451601642E+01  0.56301142563E+02  0.00000000000E+00 0. -1.
</event>
<event>
 7    1  0.5575489E-006  0.7139762E+02  0.7818608E-02  0.1405958E+00
          2   -1    0    0  502    0  0.00000000000E+00  0.00000000000E+00  0.15323457555E+04  0.15323457555E+04  0.00000000000E+00 0. -1.
          1   -1    0    0  501    0 -0.00000000000E+00 -0.00000000000E+00 -0.18740862678E+03  0.18740862678E+03  0.00000000000E+00 0. -1.
         25    2    1    2    0    0  0.33131593371E+02  0.69991669046E+02  0.65559511849E+02  0.16102955202E+03  0.12504371562E+03 0.  0.
          2    1    1    2  501    0  0.30101796563E+02 -0.36469720511E+02 -0.13474006846E+03  0.14279721537E+03  0.00000000000E+00 0. -1.
          1    1    1    2  502    0 -0.63233389934E+02 -0.33521948534E+02  0.14141176854E+04  0.14159276149E+04  0.00000000000E+00 0. -1.
         22    1    3    3    0    0  0.67834393442E+02  0.30472063378E+02  0.77170386302E+02  0.10716958571E+03  0.00000000000E+00 0. -1.
         22    1    3    3    0    0 -0.34702800071E+02  0.39519605668E+02 -0.11610874454E+02  0.53859966306E+02  0.00000000000E+00 0. -1.
</event>
<event>
 7    1  0.5575489E-006  0.1075123E+03  0.7818608E-02  0.1327727E+00
          2   -1    0    0  502    0  0.00000000000E+00  0.00000000000E+00  0.21128861220E+04  0.21128861220E+04  0.00000000000E+00 0. -1.
          1   -1    0    0  501    0 -0.00000000000E+00 -0.00000000000E+00 -0.55548687163E+02  0.55548687163E+02  0.00000000000E+00 0. -1.
         25    2    1    2    0    0  0.44358385738E+02  0.13780943741E+03  0.55559584157E+03  0.58759715715E+03  0.12499828996E+03 0.  0.
          2    1    1    2  501    0  0.53699473681E+01 -0.10383289253E+03  0.30484795049E+02  0.10834864390E+03  0.00000000000E+00 0. -1.
          1    1    1    2  502    0 -0.49728333106E+02 -0.33976544883E+02  0.14712567982E+04  0.14724890081E+04  0.00000000000E+00 0. -1.
         22    1    3    3    0    0  0.48527263238E+02  0.39434164404E+02  0.38967353899E+03  0.39465860638E+03  0.00000000000E+00 0.  1.
         22    1    3    3    0    0 -0.41688775002E+01  0.98375273009E+02  0.16592230258E+03  0.19293855077E+03  0.00000000000E+00 0.  1.
</event>
<event>
 7    1  0.5575489E-006  0.8688877E+02  0.7818608E-02  0.1410403E+00
          2   -1    0    0  502    0  0.00000000000E+00  0.00000000000E+00  0.47854402203E+03  0.47854402203E+03  0.00000000000E+00 0. -1.
          1   -1    0    0  501    0 -0.00000000000E+00 -0.00000000000E+00 -0.63891346804E+02  0.63891346804E+02  0.00000000000E+00 0. -1.
         25    2    1    2    0    0  0.47464425046E+02  0.31107464820E+02  0.12193111846E+03  0.18360311231E+03  0.12498943631E+03 0.  0.
          2    1    1    2  501    0  0.34893642585E+02  0.13815586569E+02 -0.12470590782E+02  0.39546837542E+02  0.00000000000E+00 0. -1.
          1    1    1    2  502    0 -0.82358067632E+02 -0.44923051389E+02  0.30519214756E+03  0.31928541899E+03  0.00000000000E+00 0. -1.
         22    1    3    3    0    0  0.22124254730E+02  0.52427572621E+02  0.13615014123E+03  0.14756352522E+03  0.00000000000E+00 0. -1.
         22    1    3    3    0    0  0.25340170316E+02 -0.21320107801E+02 -0.14219022778E+02  0.36039587083E+02  0.00000000000E+00 0. -1.
</event>
<event>
 7    1  0.5575489E-006  0.7304686E+02  0.7818608E-02  0.1459037E+00
          2   -1    0    0  502    0  0.00000000000E+00  0.00000000000E+00  0.81768490492E+03  0.81768490492E+03  0.00000000000E+00 0. -1.
          1   -1    0    0  501    0 -0.00000000000E+00 -0.00000000000E+00 -0.93303645208E+03  0.93303645208E+03  0.00000000000E+00 0. -1.
         25    2    1    2    0    0 -0.29987545781E+02 -0.66182265799E+02  0.12461858521E+03  0.19088278966E+03  0.12500840933E+03 0.  0.
          2    1    1    2  501    0 -0.17626617548E+00  0.73111424890E+02 -0.89805509896E+03  0.90102623286E+03  0.00000000000E+00 0. -1.
          1    1    1    2  502    0  0.30163811957E+02 -0.69291590913E+01  0.65808496660E+03  0.65881233448E+03  0.00000000000E+00 0. -1.
         22    1    3    3    0    0 -0.67883423630E+02 -0.77182428325E+02  0.73773958170E+02  0.12652226425E+03  0.00000000000E+00 0.  1.
         22    1    3    3    0    0  0.37895877848E+02  0.11000162526E+02  0.50844627038E+02  0.64360525419E+02  0.00000000000E+00 0.  1.
</event>
<event>
 7    1  0.5575489E-006  0.8135165E+02  0.7818608E-02  0.1383187E+00
          2   -1    0    0  502    0  0.00000000000E+00  0.00000000000E+00  0.19783301562E+04  0.19783301562E+04  0.00000000000E+00 0. -1.
          1   -1    0    0  501    0 -0.00000000000E+00 -0.00000000000E+00 -0.12604879946E+03  0.12604879946E+03  0.00000000000E+00 0. -1.
         25    2    1    2    0    0 -0.12713199116E+02  0.78243912569E+02  0.11563042711E+03  0.18782949374E+03  0.12500315100E+03 0.  0.
          2    1    1    2  501    0  0.49501205409E+02 -0.52046063760E+01 -0.82073617337E+02  0.95987165430E+02  0.00000000000E+00 0. -1.
          1    1    1    2  502    0 -0.36788006292E+02 -0.73039306193E+02  0.18187245470E+04  0.18205622965E+04  0.00000000000E+00 0. -1.
         22    1    3    3    0    0 -0.54774039350E+02  0.68961813312E+02  0.11487665278E+03  0.14475003432E+03  0.00000000000E+00 0. -1.
         22    1    3    3    0    0  0.42060840233E+02  0.92820992568E+01  0.75377432453E+00  0.43079459415E+02  0.00000000000E+00 0. -1.
</event>
<event>
 7    1  0.5575489E-006  0.1281561E+03  0.7818608E-02  0.1309765E+00
          2   -1    0    0  502    0  0.00000000000E+00  0.00000000000E+00  0.21486033597E+04  0.21486033597E+04  0.00000000000E+00 0. -1.
          1   -1    0    0  501    0 -0.00000000000E+00 -0.00000000000E+00 -0.80936404698E+03  0.80936404698E+03  0.00000000000E+00 0. -1.
         25    2    1    2    0    0 -0.16924609616E+03 -0.72698777964E+02  0.28149549626E+03  0.35887696893E+03  0.12499444399E+03 0.  0.
          2    1    1    2  501    0  0.52806820529E+02  0.27066891546E+02 -0.76738803646E+03  0.76967887811E+03  0.00000000000E+00 0. -1.
          1    1    1    2  502    0  0.11643927563E+03  0.45631886418E+02  0.18251318530E+04  0.18294115597E+04  0.00000000000E+00 0. -1.
         22    1    3    3    0    0 -0.11479869695E+03 -0.60901952191E+02  0.86573277572E+02  0.15614967496E+03  0.00000000000E+00 0.  1.
         22    1    3    3    0    0 -0.54447399208E+02 -0.11796825773E+02  0.19492221869E+03  0.20272729397E+03  0.00000000000E+00 0.  1.
</event>
<event>
 7    1  0.5575489E-006  0.8180223E+02  0.7818608E-02  0.1354308E+00
          2   -1    0    0  502    0  0.00000000000E+00  0.00000000000E+00  0.53200525861E+03  0.53200525861E+03  0.00000000000E+00 0. -1.
          1   -1    0    0  501    0 -0.00000000000E+00 -0.00000000000E+00 -0.42421215880E+03  0.42421215880E+03  0.00000000000E+00 0. -1.
         25    2    1    2    0    0  0.69788732546E+02  0.99221056510E+01  0.23534179228E+03  0.27564595415E+03  0.12500406982E+03 0.  0.
          2    1    1    2  501    0 -0.46166578594E+02 -0.68215337479E+02 -0.39619172928E+03  0.40466352887E+03  0.00000000000E+00 0. -1.
          1    1    1    2  502    0 -0.23622153952E+02  0.58293231828E+02  0.26864303681E+03  0.27590793439E+03  0.00000000000E+00 0. -1.
         22    1    3    3    0    0  0.62879222271E+02  0.29820844907E+02  0.24335417350E+03  0.25310933042E+03  0.00000000000E+00 0.  1.
         22    1    3    3    0    0  0.69095102747E+01 -0.19898739256E+02 -0.80123812189E+01  0.22536623727E+02  0.00000000000E+00 0.  1.
</event>
<event>
 7    1  0.5575489E-006  0.2051904E+03  0.7818608E-02  0.1275089E+00
          2   -1    0    0  502    0  0.00000000000E+00  0.00000000000E+00  0.20802749123E+04  0.20802749123E+04  0.00000000000E+00 0. -1.
          1   -1    0    0  501    0 -0.00000000000E+00 -0.00000000000E+00 -0.69961462453E+03  0.69961462453E+03  0.00000000000E+00 0. -1.
         25    2    1    2    0    0  0.24630342109E+03  0.26596169991E+02 -0.24881839538E+02  0.27859535347E+03  0.12499413401E+03 0.  0.
          2    1    1    2  501    0 -0.19908115027E+03 -0.67578081383E+01 -0.52942010315E+03  0.56565415051E+03  0.00000000000E+00 0. -1.
          1    1    1    2  502    0 -0.47222270816E+02 -0.19838361852E+02  0.19349622305E+04  0.19356400328E+04  0.00000000000E+00 0. -1.
         22    1    3    3    0    0 -0.71586728103E+01  0.12539337051E+02 -0.20037140702E+02  0.24697541934E+02  0.00000000000E+00 0.  1.
         22    1    3    3    0    0  0.25346209390E+03  0.14056832940E+02 -0.48446988359E+01  0.25389781153E+03  0.00000000000E+00 0.  1.
</event>
<event>
 7    1  0.5575489E-006  0.1179893E+03  0.7818608E-02  0.1299663E+00
          2   -1    0    0  502    0  0.00000000000E+00  0.00000000000E+00  0.71562093069E+03  0.71562093069E+03  0.00000000000E+00 0. -1.
          1   -1    0    0  501    0 -0.00000000000E+00 -0.00000000000E+00 -0.40835658580E+03  0.40835658580E+03  0.00000000000E+00 0. -1.
         25    2    1    2    0    0 -0.33726544024E+02  0.66235257776E+02  0.74557973480E+02  0.16342691478E+03  0.12499950368E+03 0.  0.
          2    1    1    2  501    0  0.38134671211E+02  0.59526481680E+02 -0.35375026911E+03  0.36074493492E+03  0.00000000000E+00 0. -1.
          1    1    1    2  502    0 -0.44081271866E+01 -0.12576173946E+03  0.58645664053E+03  0.59980566679E+03  0.00000000000E+00 0. -1.
         22    1    3    3    0    0 -0.13272942059E+02  0.18103976371E+02  0.10194886293E+03  0.10439107052E+03  0.00000000000E+00 0.  1.
         22    1    3    3    0    0 -0.20453601965E+02  0.48131281404E+02 -0.27390889450E+02  0.59035844263E+02  0.00000000000E+00 0.  1.
</event>
<event>
 7    1  0.5575489E-006  0.2337414E+03  0.7818608E-02  0.1188113E+00
          2   -1    0    0  502    0  0.00000000000E+00  0.00000000000E+00  0.50545251453E+03  0.50545251453E+03  0.00000000000E+00 0. -1.
          1   -1    0    0  501    0 -0.00000000000E+00 -0.00000000000E+00 -0.14178578437E+04  0.14178578437E+04  0.00000000000E+00 0. -1.
         25    2    1    2    0    0  0.21467785979E+03  0.10066498497E+03 -0.18592014091E+03  0.32620693651E+03  0.12499857579E+03 0.  0.
          2    1    1    2  501    0 -0.23685861467E+03  0.73138784571E+01 -0.11424562428E+04  0.11667740839E+04  0.00000000000E+00 0. -1.
          1    1    1    2  502    0  0.22180754879E+02 -0.10797886343E+03  0.41597105450E+03  0.43032933785E+03  0.00000000000E+00 0. -1.
         22    1    3    3    0    0  0.22288959422E+03  0.11372961838E+03 -0.16320981406E+03  0.29875013090E+03  0.00000000000E+00 0.  1.
         22    1    3    3    0    0 -0.82117344335E+01 -0.13064633408E+02 -0.22710326849E+02  0.27456805606E+02  0.00000000000E+00 0.  1.
</event>
<event>
 7    1  0.5575489E-006  0.9220317E+02  0.7818608E-02  0.1337483E+00
          2   -1    0    0  502    0  0.00000000000E+00  0.00000000000E+00  0.34890457796E+03  0.34890457796E+03  0.00000000000E+00 0. -1.
          1   -1    0    0  501    0 -0.00000000000E+00 -0.00000000000E+00 -0.52376664736E+03  0.52376664736E+03  0.00000000000E+00 0. -1.
         25    2    1    2    0    0  0.82279454988E+01 -0.76577474580E+02  0.31519081839E+02  0.15017846026E+03  0.12501323413E+03 0.  0.
          2    1    1    2  501    0  0.63543194838E+02  0.10915144166E+02 -0.45290483407E+03  0.45747094629E+03  0.00000000000E+00 0. -1.
          1    1    1    2  502    0 -0.71771140337E+02  0.65662330415E+02  0.24652368283E+03  0.26502181876E+03  0.00000000000E+00 0. -1.
         22    1    3    3    0    0  0.10486106806E+02 -0.10893983157E+03  0.72858159855E+01  0.10968558908E+03  0.00000000000E+00 0. -1.
         22    1    3    3    0    0 -0.22581613077E+01  0.32362356989E+02  0.24233265853E+02  0.40492871178E+02  0.00000000000E+00 0. -1.
</event>
<event>
 7    1  0.5575489E-006  0.3164973E+03  0.7818608E-02  0.1284927E+00
          2   -1    0    0  502    0  0.00000000000E+00  0.00000000000E+00  0.52204511370E+03  0.52204511370E+03  0.00000000000E+00 0. -1.
          1   -1    0    0  501    0 -0.00000000000E+00 -0.00000000000E+00 -0.13428201921E+04  0.13428201921E+04  0.00000000000E+00 0. -1.
         25    2    1    2    0    0 -0.14917981171E+03 -0.25918081256E+03 -0.66730038529E+03  0.74185233311E+03  0.12500308039E+03 0.  0.
          2    1    1    2  501    0 -0.30057284478E+02 -0.33121768538E+01 -0.58571048900E+03  0.58649056922E+03  0.00000000000E+00 0. -1.
          1    1    1    2  502    0  0.17923709619E+03  0.26249298942E+03  0.43223579590E+03  0.53652240345E+03  0.00000000000E+00 0. -1.
         22    1    3    3    0    0 -0.14397227382E+03 -0.16473360820E+03 -0.54475946891E+03  0.58705030131E+03  0.00000000000E+00 0. -1.
         22    1    3    3    0    0 -0.52075378962E+01 -0.94447204361E+02 -0.12254091638E+03  0.15480203180E+03  0.00000000000E+00 0. -1.
</event>
<event>
 7    1  0.5575489E-006  0.4670739E+02  0.7818608E-02  0.1514824E+00
          2   -1    0    0  502    0  0.00000000000E+00  0.00000000000E+00  0.10356240087E+04  0.10356240087E+04  0.00000000000E+00 0. -1.
          1   -1    0    0  501    0 -0.00000000000E+00 -0.00000000000E+00 -0.14027197115E+03  0.14027197115E+03  0.00000000000E+00 0. -1.
         25    2    1    2    0    0 -0.24770579946E+02  0.99789618258E+01  0.48049183898E+03  0.49720202811E+03  0.12499715244E+03 0.  0.
          2    1    1    2  501    0  0.43901650287E+02  0.16611360969E+02 -0.12723122519E+03  0.13561370460E+03  0.00000000000E+00 0. -1.
          1    1    1    2  502    0 -0.19131070340E+02 -0.26590322795E+02  0.54209142372E+03  0.54308024710E+03  0.00000000000E+00 0. -1.
         22    1    3    3    0    0 -0.54634172987E+02  0.13988553639E+02  0.45273570261E+03  0.45623479582E+03  0.00000000000E+00 0.  1.
         22    1    3    3    0    0  0.29863593041E+02 -0.40095918133E+01  0.27756136366E+02  0.40967232294E+02  0.00000000000E+00 0.  1.
</event>
<event>
 7    1  0.5575489E-006  0.4676632E+02  0.7818608E-02  0.1547849E+00
          2   -1    0    0  502    0  0.00000000000E+00  0.00000000000E+00  0.97530610350E+02  0.97530610350E+02  0.00000000000E+00 0. -1.
          1   -1    0    0  501    0 -0.00000000000E+00 -0.00000000000E+00 -0.81028234727E+03  0.81028234727E+03  0.00000000000E+00 0. -1.
         25    2    1    2    0    0  0.71485649208E+02  0.20019520602E+01 -0.10960380358E+03  0.18096880290E+03  0.12499003164E+03 0.  0.
          2    1    1    2  501    0 -0.26147900410E+02 -0.30147271594E+01 -0.65638382207E+03  0.65691135106E+03  0.00000000000E+00 0. -1.
          1    1    1    2  502    0 -0.45337748799E+02  0.10127750992E+01  0.53235888727E+02  0.69932803662E+02  0.00000000000E+00 0. -1.
         22    1    3    3    0    0  0.24122839558E+02 -0.54625336521E+02 -0.83522967074E+02  0.10267387597E+03  0.00000000000E+00 0.  1.
         22    1    3    3    0    0  0.47362809650E+02  0.56627288581E+02 -0.26080836508E+02  0.78294926930E+02  0.00000000000E+00 0.  1.
</event>
<event>
 7    1  0.5575489E-006  0.4277400E+02  0.7818608E-02  0.1517081E+00
          2   -1    0    0  502    0  0.00000000000E+00  0.00000000000E+00  0.15855989564E+04  0.15855989564E+04  0.00000000000E+00 0. -1.
          1   -1    0    0  501    0 -0.00000000000E+00 -0.00000000000E+00 -0.27594136085E+03  0.27594136085E+03  0.00000000000E+00 0. -1.
         25    2    1    2    0    0 -0.59172715747E+02 -0.22212926859E+01  0.40217295501E+02  0.14403187839E+03  0.12498562600E+03 0.  0.
          2    1    1    2  501    0  0.33523562729E+02  0.26373999156E+02 -0.22179383243E+03  0.22585818824E+03  0.00000000000E+00 0. -1.
          1    1    1    2  502    0  0.25649153018E+02 -0.24152706470E+02  0.14912341325E+04  0.14916502506E+04  0.00000000000E+00 0. -1.
         22    1    3    3    0    0 -0.83488536857E+02  0.23394693354E+02  0.58172190748E+02  0.10441097280E+03  0.00000000000E+00 0. -1.
         22    1    3    3    0    0  0.24315821110E+02 -0.25615986040E+02 -0.17954895247E+02  0.39620905598E+02  0.00000000000E+00 0. -1.
</event>
<event>
 7    1  0.5575489E-006  0.1464735E+03  0.7818608E-02  0.1286017E+00
          2   -1    0    0  502    0  0.00000000000E+00  0.00000000000E+00  0.19533428667E+03  0.19533428667E+03  0.00000000000E+00 0. -1.
          1   -1    0    0  501    0 -0.00000000000E+00 -0.00000000000E+00 -0.41474114162E+03  0.41474114162E+03  0.00000000000E+00 0. -1.
         25    2    1    2    0    0  0.62589084544E+02  0.75878365994E+02 -0.17436044563E+03  0.23601186722E+03  0.12500046615E+03 0.  0.
          2    1    1    2  501    0  0.54291784286E+01  0.64443851737E+02 -0.16506776263E+03  0.17728466450E+03  0.00000000000E+00 0. -1.
          1    1    1    2  502    0 -0.68018262973E+02 -0.14032221773E+03  0.12002135332E+03  0.19677889658E+03  0.00000000000E+00 0. -1.
         22    1    3    3    0    0  0.42332497977E+01  0.61576176213E+02 -0.16375425407E+03  0.17500000459E+03  0.00000000000E+00 0.  1.
         22    1    3    3    0    0  0.58355834746E+02  0.14302189781E+02 -0.10606191557E+02  0.61011862624E+02  0.00000000000E+00 0.  1.
</event>
<event>
 7    1  0.9593654E-006  0.5507142E+02  0.7818608E-02  0.1513944E+00
          2   -1    0    0  502    0  0.00000000000E+00  0.00000000000E+00  0.23299479962E+04  0.23299479962E+04  0.00000000000E+00 0. -1.
          1   -1    0    0  501    0 -0.00000000000E+00 -0.00000000000E+00 -0.11967159015E+04  0.11967159015E+04  0.00000000000E+00 0. -1.
         25    2    1    2    0    0  0.15220276907E+02 -0.30300279882E+02 -0.38097467474E+03  0.40238985880E+03  0.12500452746E+03 0.  0.
          2    1    1    2  501    0 -0.12988500435E+02 -0.24746112073E+02 -0.80446377946E+03  0.80494909383E+03  0.00000000000E+00 0. -1.
          1    1    1    2  502    0 -0.22317764722E+01  0.55046391955E+02  0.23186705490E+04  0.23193249451E+04  0.00000000000E+00 0. -1.
         22    1    3    3    0    0  0.58680207925E+02  0.17374478650E+02 -0.23419966463E+03  0.24206346734E+03  0.00000000000E+00 0.  1.
         22    1    3    3    0    0 -0.43459931018E+02 -0.47674758533E+02 -0.14677501011E+03  0.16032639146E+03  0.00000000000E+00 0.  1.
</event>
<event>
 7    1  0.5575489E-006  0.8825063E+02  0.7818608E-02  0.1413063E+00
          2   -1    0    0  502    0  0.00000000000E+00  0.00000000000E+00  0.64592471229E+02  0.64592471229E+02  0.00000000000E+00 0. -1.
          1   -1    0    0  501    0 -0.00000000000E+00 -0.00000000000E+00 -0.12826235527E+04  0.12826235527E+04  0.00000000000E+00 0. -1.
         25    2    1    2    0    0  0.49132913336E+01 -0.65954942890E+02 -0.49281223932E+03  0.51270120075E+03  0.12499769239E+03 0.  0.
          2    1    1    2  501    0 -0.29634079554E+02 -0.20778804116E+02 -0.74191262304E+03  0.74279490951E+03  0.00000000000E+00 0. -1.
          1    1    1    2  502    0  0.24720788220E+02  0.86733747006E+02  0.16693780903E+02  0.91719913654E+02  0.00000000000E+00 0. -1.
         22    1    3    3    0    0 -0.44508836909E+02 -0.54235373345E+02 -0.14369708215E+03  0.15991048653E+03  0.00000000000E+00 0.  1.
         22    1    3    3    0    0  0.49422128243E+02 -0.11719569545E+02 -0.34911515718E+03  0.35279071422E+03  0.00000000000E+00 0.  1.
</event>
<event>
 7    1  0.5575489E-006  0.5278495E+02  0.7818608E-02  0.1536553E+00
          2   -1    0    0  502    0  0.00000000000E+00  0.00000000000E+00  0.93031512131E+03  0.93031512131E+03  0.00000000000E+00 0. -1.
          1   -1    0    0  501    0 -0.00000000000E+00 -0.00000000000E+00 -0.14887491683E+04  0.14887491683E+04  0.00000000000E+00 0. -1.
         25    2    1    2    0    0 -0.60144490617E+02 -0.44344837318E+01  0.19509140508E+03  0.23942063785E+03  0.12499824437E+03 0.  0.
          2    1    1    2  501    0  0.46290166462E+02  0.25357144063E+02 -0.14658886863E+04  0.14668385750E+04  0.00000000000E+00 0. -1.
          1    1    1    2  502    0  0.13854324154E+02 -0.20922660331E+02  0.71236323425E+03  0.71280507681E+03  0.00000000000E+00 0. -1.
         22    1    3    3    0    0 -0.24446745323E+02  0.59382287080E+02  0.10855177771E+03  0.12612449334E+03  0.00000000000E+00 0. -1.
         22    1    3    3    0    0 -0.35697745294E+02 -0.63816770811E+02  0.86539627370E+02  0.11329614451E+03  0.00000000000E+00 0. -1.
</event>
<event>
 7    1  0.5575489E-006  0.1242117E+03  0.7818608E-02  0.1368125E+00
          2   -1    0    0  502    0  0.00000000000E+00  0.00000000000E+00  0.15730649484E+04  0.15730649484E+04  0.00000000000E+00 0. -1.
          1   -1    0    0  501    0 -0.00000000000E+00 -0.00000000000E+00 -0.45679488246E+03  0.45679488246E+03  0.00000000000E+00 0. -1.
         25    2    1    2    0    0  0.12338276280E+03 -0.12795550191E+02  0.42565909809E+03  0.46064934203E+03  0.12500046506E+03 0.  0.
          2    1    1    2  501    0 -0.12196995010E+03 -0.24066923203E+02 -0.43019447120E+03  0.44779813373E+03  0.00000000000E+00 0. -1.
          1    1    1    2  502    0 -0.14128127005E+01  0.36862473393E+02  0.11208054391E+04  0.11214123551E+04  0.00000000000E+00 0. -1.
         22    1    3    3    0    0  0.69517055715E+02 -0.42381298156E+01  0.63002366677E+02  0.93914221428E+02  0.00000000000E+00 0. -1.
         22    1    3    3    0    0  0.53865707085E+02 -0.85574203749E+01  0.36265673141E+03  0.36673512060E+03  0.00000000000E+00 0. -1.
</event>
<event>
 7    1  0.5575489E-006  0.6826230E+02  0.7818608E-02  0.1419622E+00
          2   -1    0    0  502    0  0.00000000000E+00  0.00000000000E+00  0.21249480440E+03  0.21249480440E+03  0.00000000000E+00 0. -1.
          1   -1    0    0  501    0 -0.00000000000E+00 -0.00000000000E+00 -0.82771235282E+03  0.82771235282E+03  0.00000000000E+00 0. -1.
         25    2    1    2    0    0  0.61202964697E+02  0.78122284571E+02  0.49358859017E+00  0.15960449822E+03  0.12499783193E+03 0.  0.
          2    1    1    2  501    0 -0.49915368210E+01 -0.44196078976E+02 -0.73931054840E+03  0.74064721414E+03  0.00000000000E+00 0. -1.
          1    1    1    2  502    0 -0.56211427876E+02 -0.33926205595E+02  0.12359941139E+03  0.13995544486E+03  0.00000000000E+00 0. -1.
         22    1    3    3    0    0  0.64654862935E+02  0.83058996617E+02  0.45158421943E+02  0.11453528405E+03  0.00000000000E+00 0. -1.
         22    1    3    3    0    0 -0.34518982383E+01 -0.49367120457E+01 -0.44664833353E+02  0.45069214168E+02  0.00000000000E+00 0. -1.
</event>
<event>
 7    1  0.5575489E-006  0.4225108E+02  0.7818608E-02  0.1581244E+00
          2   -1    0    0  502    0  0.00000000000E+00  0.00000000000E+00  0.23602521218E+03  0.23602521218E+03  0.00000000000E+00 0. -1.
          1   -1    0    0  501    0 -0.00000000000E+00 -0.00000000000E+00 -0.96060676869E+03  0.96060676869E+03  0.00000000000E+00 0. -1.
         25    2    1    2    0    0  0.20830969670E+02 -0.44867400209E+02 -0.30642007126E+01  0.13446445023E+03  0.12499714457E+03 0.  0.
          2    1    1    2  501    0  0.13025964211E+02  0.19685971580E+02 -0.88907014817E+03  0.88938346150E+03  0.00000000000E+00 0. -1.
          1    1    1    2  502    0 -0.33856933881E+02  0.25181428629E+02  0.16755279237E+03  0.17278406915E+03  0.00000000000E+00 0. -1.
         22    1    3    3    0    0  0.16691305843E+02 -0.63445355490E+02  0.47132803564E+02  0.80780034636E+02  0.00000000000E+00 0. -1.
         22    1    3    3    0    0  0.41396638270E+01  0.18577955281E+02 -0.50197004277E+02  0.53684415591E+02  0.00000000000E+00 0. -1.
</event>
<event>
 7    1  0.5575489E-006  0.1561888E+03  0.7818608E-02  0.1287838E+00
          2   -1    0    0  502    0  0.00000000000E+00  0.00000000000E+00  0.94598352199E+03  0.94598352199E+03  0.00000000000E+00 0. -1.
          1   -1    0    0  501    0 -0.00000000000E+00 -0.00000000000E+00 -0.95868881151E+03  0.95868881151E+03  0.00000000000E+00 0. -1.
         25    2    1    2    0    0 -0.12920212206E+03 -0.77623723735E+02 -0.30485081804E+03  0.36232350737E+03  0.12500268755E+03 0.  0.
          2    1    1    2  501    0  0.15896850108E+03  0.25967116654E+02 -0.61372905280E+03  0.63451448031E+03  0.00000000000E+00 0. -1.
          1    1    1    2  502    0 -0.29766379020E+02  0.51656607080E+02  0.90587458132E+03  0.90783434582E+03  0.00000000000E+00 0. -1.
         22    1    3    3    0    0 -0.13045725171E+03 -0.53847867248E+02 -0.30752565022E+03  0.33836476305E+03  0.00000000000E+00 0.  1.
         22    1    3    3    0    0  0.12551296438E+01 -0.23775856486E+02  0.26748321760E+01  0.23958744317E+02  0.00000000000E+00 0.  1.
</event>
<event>
 7    1  0.5575489E-006  0.1600696E+03  0.7818608E-02  0.1215746E+00
          2   -1    0    0  502    0  0.00000000000E+00  0.00000000000E+00  0.44907423162E+02  0.44907423162E+02  0.00000000000E+00 0. -1.
          1   -1    0    0  501    0 -0.00000000000E+00 -0.00000000000E+00 -0.15260344608E+04  0.15260344608E+04  0.00000000000E+00 0. -1.
         25    2    1    2    0    0 -0.11642480924E+03  0.32177601436E+02 -0.83919833007E+03  0.85701161683E+03  0.12499975978E+03 0.  0.
          2    1    1    2  501    0  0.11292108478E+02  0.11881534763E+03 -0.34021572026E+03  0.36054311095E+03  0.00000000000E+00 0. -1.
          1    1    1    2  502    0  0.10513270076E+03 -0.15099294907E+03 -0.30171298730E+03  0.35338715617E+03  0.00000000000E+00 0. -1.
         22    1    3    3    0    0 -0.20597728837E+02 -0.45516791094E+02 -0.27229466078E+03  0.27684007476E+03  0.00000000000E+00 0. -1.
         22    1    3    3    0    0 -0.95827080403E+02  0.77694392530E+02 -0.56690366930E+03  0.58017154207E+03  0.00000000000E+00 0. -1.
</event>
<event>
 7    1  0.5575489E-006  0.1706218E+03  0.7818608E-02  0.1271005E+00
          2   -1    0    0  502    0  0.00000000000E+00  0.00000000000E+00  0.14813055101E+04  0.14813055101E+04  0.00000000000E+00 0. -1.
          1   -1    0    0  501    0 -0.00000000000E+00 -0.00000000000E+00 -0.12625783026E+04  0.12625783026E+04  0.00000000000E+00 0. -1.
         25    2    1    2    0    0 -0.13255032173E+03  0.19107884244E+03  0.19225871438E+03  0.32660174155E+03  0.12499829002E+03 0.  0.
          2    1    1    2  501    0  0.89657895496E+02 -0.14348962197E+03 -0.11885715837E+04  0.12005541301E+04  0.00000000000E+00 0. -1.
          1    1    1    2  502    0  0.42892426234E+02 -0.47589220474E+02  0.12150400768E+04  0.12167279410E+04  0.00000000000E+00 0. -1.
         22    1    3    3    0    0 -0.11541536092E+03  0.14080736450E+03  0.20271407735E+03  0.27247094633E+03  0.00000000000E+00 0.  1.
         22    1    3    3    0    0 -0.17134960806E+02  0.50271477942E+02 -0.10455362974E+02  0.54130795220E+02  0.00000000000E+00 0.  1.
</event>
<event>
 7    1  0.5575489E-006  0.2715902E+02  0.7818608E-02  0.1683193E+00
          2   -1    0    0  502    0  0.00000000000E+00  0.00000000000E+00  0.10668487011E+04  0.10668487011E+04  0.00000000000E+00 0. -1.
          1   -1    0    0  501    0 -0.00000000000E+00 -0.00000000000E+00 -0.47108370108E+03  0.47108370108E+03  0.00000000000E+00 0. -1.
         25    2    1    2    0    0 -0.67441707027E+01  0.24268018251E+02 -0.36265610025E+03  0.38441960035E+03  0.12499824615E+03 0.  0.
          2    1    1    2  501    0 -0.17045031478E+02 -0.11155854063E+02 -0.96305510326E+02  0.98436464265E+02  0.00000000000E+00 0. -1.
          1    1    1    2  502    0  0.23789202180E+02 -0.13112164188E+02  0.10547266106E+04  0.10550763376E+04  0.00000000000E+00 0. -1.
         22    1    3    3    0    0  0.31632982433E+02  0.64302289293E+02 -0.21922296580E+03  0.23063854561E+03  0.00000000000E+00 0. -1.
         22    1    3    3    0    0 -0.38377153136E+02 -0.40034271042E+02 -0.14343313444E+03  0.15378105474E+03  0.00000000000E+00 0. -1.
</event>
<event>
 7    1  0.5575489E-006  0.1028565E+03  0.7818608E-02  0.1413675E+00
          2   -1    0    0  502    0  0.00000000000E+00  0.00000000000E+00  0.13153693790E+04  0.13153693790E+04  0.00000000000E+00 0. -1.
          1   -1    0    0  501    0 -0.00000000000E+00 -0.00000000000E+00 -0.47771447655E+03  0.47771447655E+03  0.00000000000E+00 0. -1.
         25    2    1    2    0    0  0.94529530736E+01  0.12200430105E+03  0.23549108847E+03  0.29335238970E+03  0.12500065598E+03 0.  0.
          2    1    1    2  501    0  0.18716505943E+02 -0.24594432666E+02 -0.44580162589E+03  0.44687166319E+03  0.00000000000E+00 0. -1.
          1    1    1    2  502    0 -0.28169459017E+02 -0.97409868383E+02  0.10479654399E+04  0.10528598027E+04  0.00000000000E+00 0. -1.
         22    1    3    3    0    0 -0.97033291099E+01  0.43484293086E+02  0.18659556124E+00  0.44554159839E+02  0.00000000000E+00 0.  1.
         22    1    3    3    0    0  0.19156282184E+02  0.78520007963E+02  0.23530449291E+03  0.24879822986E+03  0.00000000000E+00 0.  1.
</event>
<event>
 7    1  0.5575489E-006  0.9732196E+02  0.7818608E-02  0.1343156E+00
          2   -1    0    0  502    0  0.00000000000E+00  0.00000000000E+00  0.32889744016E+03  0.32889744016E+03  0.00000000000E+00 0. -1.
          1   -1    0    0  501    0 -0.00000000000E+00 -0.00000000000E+00 -0.12955683254E+04  0.12955683254E+04  0.00000000000E+00 0. -1.
         25    2    1    2    0    0 -0.25850926469E+02  0.45705231743E+02 -0.41161025398E+02  0.14169828331E+03  0.12500773925E+03 0.  0.
          2    1    1    2  501    0  0.15260047213E+02  0.56117240562E+02 -0.11940038459E+04  0.11954192561E+04  0.00000000000E+00 0. -1.
          1    1    1    2  502    0  0.10590879255E+02 -0.10182247230E+03  0.26849398602E+03  0.28734822623E+03  0.00000000000E+00 0. -1.
         22    1    3    3    0    0 -0.57052287424E+02 -0.19749619685E+02 -0.32795216040E+02  0.68706165467E+02  0.00000000000E+00 0. -1.
         22    1    3    3    0    0  0.31201360955E+02  0.65454851428E+02 -0.83658093573E+01  0.72992117843E+02  0.00000000000E+00 0. -1.
</event>
<event>
 7    1  0.5575489E-006  0.9503468E+02  0.7818608E-02  0.1318037E+00
          2   -1    0    0  502    0  0.00000000000E+00  0.00000000000E+00  0.26739763905E+03  0.26739763905E+03  0.00000000000E+00 0. -1.
          1   -1    0    0  501    0 -0.00000000000E+00 -0.00000000000E+00 -0.91681819423E+03  0.91681819423E+03  0.00000000000E+00 0. -1.
         25    2    1    2    0    0  0.57862576589E+02 -0.91133061454E+02 -0.24329486858E+03  0.29406226853E+03  0.12500764792E+03 0.  0.
          2    1    1    2  501    0  0.16287745481E+02  0.95299295799E+02 -0.63871715744E+03  0.64599292074E+03  0.00000000000E+00 0. -1.
          1    1    1    2  502    0 -0.74150322070E+02 -0.41662343447E+01  0.23259147085E+03  0.24416064401E+03  0.00000000000E+00 0. -1.
         22    1    3    3    0    0  0.22474435979E+02 -0.11225807439E+03 -0.21649194238E+03  0.24489944192E+03  0.00000000000E+00 0.  1.
         22    1    3    3    0    0  0.35388140610E+02  0.21125012940E+02 -0.26802926198E+02  0.49162826610E+02  0.00000000000E+00 0.  1.
</event>
<event>
 7    1  0.5575489E-006  0.8980127E+02  0.7818608E-02  0.1350226E+00
          2   -1    0    0  502    0  0.00000000000E+00  0.00000000000E+00  0.12037738136E+03  0.12037738136E+03  0.00000000000E+00 0. -1.
          1   -1    0    0  501    0 -0.00000000000E+00 -0.00000000000E+00 -0.57222965083E+03  0.57222965083E+03  0.00000000000E+00 0. -1.
         25    2    1    2    0    0  0.63908791534E+02 -0.82341571586E+02 -0.46022578283E+02  0.16913777227E+03  0.12500016100E+03 0.  0.
          2    1    1    2  501    0 -0.85785811710E+02  0.27205177931E+02 -0.44393574789E+03  0.45296608642E+03  0.00000000000E+00 0. -1.
          1    1    1    2  502    0  0.21877020176E+02  0.55136393655E+02  0.38106056696E+02  0.70503173503E+02  0.00000000000E+00 0. -1.
         22    1    3    3    0    0  0.34327206885E+02  0.26056511919E+02 -0.36315932675E+02  0.56357305755E+02  0.00000000000E+00 0.  1.
         22    1    3    3    0    0  0.29581584648E+02 -0.10839808350E+03 -0.97066456082E+01  0.11278046651E+03  0.00000000000E+00 0.  1.
</event>
<event>
 7    1  0.5575489E-006  0.5520455E+02  0.7818608E-02  0.1456593E+00
          2   -1    0    0  502    0  0.00000000000E+00  0.00000000000E+00  0.82857286436E+02  0.82857286436E+02  0.00000000000E+00 0. -1.
          1   -1    0    0  501    0 -0.00000000000E+00 -0.00000000000E+00 -0.27053929264E+03  0.27053929264E+03  0.00000000000E+00 0. -1.
         25    2    1    2    0    0  0.41456357089E+02 -0.24688505744E+02  0.15731183147E+00  0.13398964421E+03  0.12500019260E+03 0.  0.
          2    1    1    2  501    0 -0.54767199939E+02 -0.14817706649E+02 -0.15871964033E+03  0.16855543553E+03  0.00000000000E+00 0. -1.
          1    1    1    2  502    0  0.13310842850E+02  0.39506212394E+02 -0.29119677706E+02  0.50851499336E+02  0.00000000000E+00 0. -1.
         22    1    3    3    0    0 -0.41251908120E+02 -0.32889288779E+01 -0.20372575878E+02  0.46125685086E+02  0.00000000000E+00 0. -1.
         22    1    3    3    0    0  0.82708265209E+02 -0.21399576866E+02  0.20529887709E+02  0.87863959126E+02  0.00000000000E+00 0. -1.
</event>
<event>
 7    1  0.5575489E-006  0.3051191E+02  0.7818608E-02  0.1648110E+00
          2   -1    0    0  502    0  0.00000000000E+00  0.00000000000E+00  0.13617368155E+04  0.13617368155E+04  0.00000000000E+00 0. -1.
          1   -1    0    0  501    0 -0.00000000000E+00 -0.00000000000E+00 -0.15306928795E+03  0.15306928795E+03  0.00000000000E+00 0. -1.
         25    2    1    2    0    0 -0.49068806254E+02 -0.16410059599E+02  0.47913786834E+03  0.49787041746E+03  0.12499927159E+03 0.  0.
          2    1    1    2  501    0  0.27224087359E+02  0.13625479619E+02 -0.14194999669E+03  0.14517784331E+03  0.00000000000E+00 0. -1.
          1    1    1    2  502    0  0.21844718895E+02  0.27845799800E+01  0.87147965586E+03  0.87175784264E+03  0.00000000000E+00 0. -1.
         22    1    3    3    0    0 -0.74211080233E+01 -0.12238448395E+02 -0.24037673798E+01  0.14513116861E+02  0.00000000000E+00 0.  1.
         22    1    3    3    0    0 -0.41647698231E+02 -0.41716112039E+01  0.48154163572E+03  0.48335730060E+03  0.00000000000E+00 0.  1.
</event>
<event>
 7    1  0.5575489E-006  0.7081365E+02  0.7818608E-02  0.1471922E+00
          2   -1    0    0  502    0  0.00000000000E+00  0.00000000000E+00  0.23327488712E+03  0.23327488712E+03  0.00000000000E+00 0. -1.
          1   -1    0    0  501    0 -0.00000000000E+00 -0.00000000000E+00 -0.18548972431E+04  0.18548972431E+04  0.00000000000E+00 0. -1.
         25    2    1    2    0    0 -0.47388311753E+02  0.41839954668E+02  0.12468628813E+03  0.18753213237E+03  0.12500158529E+03 0.  0.
          2    1    1    2  501    0  0.67689141712E+02 -0.20999409319E+02 -0.18200175935E+04  0.18213969462E+04  0.00000000000E+00 0. -1.
          1    1    1    2  502    0 -0.20300829959E+02 -0.20840545349E+02  0.73708949336E+02  0.79243051681E+02  0.00000000000E+00 0. -1.
         22    1    3    3    0    0  0.33893194290E+02  0.35973074889E+02  0.81468204447E+02  0.95288399462E+02  0.00000000000E+00 0. -1.
         22    1    3    3    0    0 -0.81281506043E+02  0.58668797793E+01  0.43218083681E+02  0.92243732904E+02  0.00000000000E+00 0. -1.
</event>
<event>
 7    1  0.5575489E-006  0.7375375E+02  0.7818608E-02  0.1501905E+00
          2   -1    0    0  502    0  0.00000000000E+00  0.00000000000E+00  0.48437732832E+03  0.48437732832E+03  0.00000000000E+00 0. -1.
          1   -1    0    0  501    0 -0.00000000000E+00 -0.00000000000E+00 -0.13159235244E+04  0.13159235244E+04  0.00000000000E+00 0. -1.
         25    2    1    2    0    0  0.75041792613E+02  0.75816605117E+01 -0.37254640399E+02  0.15066199256E+03  0.12498950179E+03 0.  0.
          2    1    1    2  501    0 -0.71914894036E+01  0.21475593642E+02 -0.12186745487E+04  0.12188849718E+04  0.00000000000E+00 0. -1.
          1    1    1    2  502    0 -0.67850303209E+02 -0.29057254154E+02  0.42438299301E+03  0.43075388845E+03  0.00000000000E+00 0. -1.
         22    1    3    3    0    0  0.63165230638E+02  0.63055958215E+02 -0.22727585333E+02  0.92100181124E+02  0.00000000000E+00 0. -1.
         22    1    3    3    0    0  0.11876561975E+02 -0.55474297703E+02 -0.14527055066E+02  0.58561811438E+02  0.00000000000E+00 0. -1.
</event>
<event>
 7    1  0.5575489E-006  0.4505559E+02  0.7818608E-02  0.1597261E+00
          2   -1    0    0  502    0  0.00000000000E+00  0.00000000000E+00  0.28134374598E+03  0.28134374598E+03  0.00000000000E+00 0. -1.
          1   -1    0    0  501    0 -0.00000000000E+00 -0.00000000000E+00 -0.24232395175E+03  0.24232395175E+03  0.00000000000E+00 0. -1.
         25    2    1    2    0    0 -0.34607009481E+02 -0.16103287063E+02 -0.28875484221E+02  0.13385091062E+03  0.12500124690E+03 0.  0.
          2    1    1    2  501    0  0.60626462036E+01 -0.19138069081E+02 -0.15807290108E+03  0.15934259764E+03  0.00000000000E+00 0. -1.
          1    1    1    2  502    0  0.28544363277E+02  0.35241356143E+02  0.22596817952E+03  0.23047418947E+03  0.00000000000E+00 0. -1.
         22    1    3    3    0    0 -0.12012255287E+02 -0.70422196668E+02 -0.10433267448E+02  0.72197182288E+02  0.00000000000E+00 0.  1.
         22    1    3    3    0    0 -0.22594754193E+02  0.54318909605E+02 -0.18442216773E+02  0.61653728332E+02  0.00000000000E+00 0.  1.
</event>
<event>
 7    1  0.5575489E-006  0.2726446E+03  0.7818608E-02  0.1272032E+00
          2   -1    0    0  502    0  0.00000000000E+00  0.00000000000E+00  0.97253013745E+03  0.97253013745E+03  0.00000000000E+00 0. -1.
          1   -1    0    0  501    0 -0.00000000000E+00 -0.00000000000E+00 -0.11568395951E+03  0.11568395951E+03  0.00000000000E+00 0. -1.
         25    2    1    2    0    0 -0.12335844890E+03  0.24434398181E+03  0.35649424376E+03  0.46651357710E+03  0.12500193367E+03 0.  0.
          2    1    1    2  501    0  0.15706929441E+03 -0.22338034403E+03  0.25653449742E+03  0.37467250994E+03  0.00000000000E+00 0. -1.
          1    1    1    2  502    0 -0.33710845502E+02 -0.20963637783E+02  0.24381743677E+03  0.24702800992E+03  0.00000000000E+00 0. -1.
         22    1    3    3    0    0 -0.67500545282E+02  0.22615075417E+03  0.31902938523E+03  0.39683779541E+03  0.00000000000E+00 0. -1.
         22    1    3    3    0    0 -0.55857903623E+02  0.18193227638E+02  0.37464858524E+02  0.69675781684E+02  0.00000000000E+00 0. -1.
</event>
<event>
 7    1  0.5575489E-006  0.8964015E+02  0.7818608E-02  0.1346684E+00
          2   -1    0    0  502    0  0.00000000000E+00  0.00000000000E+00  0.47762187166E+04  0.47762187166E+04  0.00000000000E+00 0. -1.
          1   -1    0    0  501    0 -0.00000000000E+00 -0.00000000000E+00 -0.26287718073E+02  0.26287718073E+02  0.00000000000E+00 0. -1.
         25    2    1    2    0    0 -0.60764099121E+02  0.17634341598E+02  0.19882182087E+04  0.19931479275E+04  0.12499507860E+03 0.  0.
          2    1    1    2  501    0 -0.64816967774E+01  0.60908518316E+02  0.18201596940E+02  0.63899594113E+02  0.00000000000E+00 0. -1.
          1    1    1    2  502    0  0.67245795899E+02 -0.78542859914E+02  0.27435111928E+04  0.27454589130E+04  0.00000000000E+00 0. -1.
         22    1    3    3    0    0  0.35156169993E+02  0.19926850575E+02  0.40060432754E+03  0.40263738389E+03  0.00000000000E+00 0. -1.
         22    1    3    3    0    0 -0.95920269115E+02 -0.22925089770E+01  0.15876138812E+04  0.15905105436E+04  0.00000000000E+00 0. -1.
</event>
<event>
 7    1  0.5575489E-006  0.7909646E+02  0.7818608E-02  0.1478498E+00
          2   -1    0    0  502    0  0.00000000000E+00  0.00000000000E+00  0.29503939668E+03  0.29503939668E+03  0.00000000000E+00 0. -1.
          1   -1    0    0  501    0 -0.00000000000E+00 -0.00000000000E+00 -0.48675835166E+03  0.48675835166E+03  0.00000000000E+00 0. -1.
         25    2    1    2    0    0  0.71372137735E+01  0.54851870444E+02  0.12283583115E+03  0.18377582202E+03  0.12500097534E+03 0.  0.
          2    1    1    2  501    0 -0.16322339888E+02 -0.77949969852E+02 -0.45168737133E+03  0.45865466093E+03  0.00000000000E+00 0. -1.
          1    1    1    2  502    0  0.91851261144E+01  0.23098099408E+02  0.13713258519E+03  0.13936726538E+03  0.00000000000E+00 0. -1.
         22    1    3    3    0    0 -0.34347250243E+02  0.46430066337E+02  0.12867754393E+03  0.14104394695E+03  0.00000000000E+00 0.  1.
         22    1    3    3    0    0  0.41484464016E+02  0.84218041067E+01 -0.58417127810E+01  0.42731875074E+02  0.00000000000E+00 0.  1.
</event>
<event>
 7    1  0.8405960E-006  0.9500095E+02  0.7818608E-02  0.1318558E+00
          2   -1    0    0  502    0  0.00000000000E+00  0.00000000000E+00  0.87652027739E+03  0.87652027739E+03  0.00000000000E+00 0. -1.
          1   -1    0    0  501    0 -0.00000000000E+00 -0.00000000000E+00 -0.12749917950E+04  0.12749917950E+04  0.00000000000E+00 0. -1.
         25    2    1    2    0    0 -0.63226186480E+01  0.12824641646E+03 -0.19896393877E+03  0.26776700097E+03  0.12500159614E+03 0.  0.
          2    1    1    2  501    0  0.57383718023E+02 -0.74757796983E+02 -0.10378638258E+04  0.10421338399E+04  0.00000000000E+00 0. -1.
          1    1    1    2  502    0 -0.51061099375E+02 -0.53488619475E+02  0.83835624695E+03  0.84161123155E+03  0.00000000000E+00 0. -1.
         22    1    3    3    0    0  0.52285812035E+02  0.87395114573E+02 -0.14942797643E+03  0.18083260860E+03  0.00000000000E+00 0.  1.
         22    1    3    3    0    0 -0.58608430683E+02  0.40851301885E+02 -0.49535962344E+02  0.86934392379E+02  0.00000000000E+00 0.  1.
</event>
<event>
 7    1  0.5717981E-006  0.5213284E+02  0.7818608E-02  0.1453533E+00
          2   -1    0    0  502    0  0.00000000000E+00  0.00000000000E+00  0.11620540921E+04  0.11620540921E+04  0.00000000000E+00 0. -1.
          1   -1    0    0  501    0 -0.00000000000E+00 -0.00000000000E+00 -0.86362922271E+03  0.86362922271E+03  0.00000000000E+00 0. -1.
         25    2    1    2    0    0 -0.55861279359E+02  0.54813812675E+02 -0.14761610206E+03  0.20866297050E+03  0.12499874031E+03 0.  0.
          2    1    1    2  501    0  0.47258749802E+01 -0.44895660953E+02 -0.68414594017E+03  0.68563373730E+03  0.00000000000E+00 0. -1.
          1    1    1    2  502    0  0.51135404379E+02 -0.99181517221E+01  0.11301869116E+04  0.11313866070E+04  0.00000000000E+00 0. -1.
         22    1    3    3    0    0 -0.77376200043E+02  0.26753765700E+02 -0.32239730148E+02  0.87990002342E+02  0.00000000000E+00 0.  1.
         22    1    3    3    0    0  0.21514920684E+02  0.28060046975E+02 -0.11537637191E+03  0.12067296816E+03  0.00000000000E+00 0.  1.
</event>
<event>
 7    1  0.5575489E-006  0.7501737E+02  0.7818608E-02  0.1377606E+00
          2   -1    0    0  502    0  0.00000000000E+00  0.00000000000E+00  0.63451081075E+03  0.63451081075E+03  0.00000000000E+00 0. -1.
          1   -1    0    0  501    0 -0.00000000000E+00 -0.00000000000E+00 -0.57554853560E+03  0.57554853560E+03  0.00000000000E+00 0. -1.
         25    2    1    2    0    0 -0.10217207859E+03 -0.51709706303E+02 -0.29829709296E+03  0.34310106984E+03  0.12499664432E+03 0.  0.
          2    1    1    2  501    0  0.67766435197E+02  0.69073914600E+01 -0.24896107732E+03  0.25811164215E+03  0.00000000000E+00 0. -1.
          1    1    1    2  502    0  0.34405643393E+02  0.44802314843E+02  0.60622044543E+03  0.60884663436E+03  0.00000000000E+00 0. -1.
         22    1    3    3    0    0 -0.13027843494E+03 -0.30963216185E+02 -0.24833293799E+03  0.28213549840E+03  0.00000000000E+00 0. -1.
         22    1    3    3    0    0  0.28106356352E+02 -0.20746490118E+02 -0.49964154973E+02  0.60965571446E+02  0.00000000000E+00 0. -1.
</event>
<event>
 7    1  0.5575489E-006  0.2438449E+03  0.7818608E-02  0.1266852E+00
          2   -1    0    0  502    0  0.00000000000E+00  0.00000000000E+00  0.91777101240E+03  0.91777101240E+03  0.00000000000E+00 0. -1.
          1   -1    0    0  501    0 -0.00000000000E+00 -0.00000000000E+00 -0.37883721049E+03  0.37883721049E+03  0.00000000000E+00 0. -1.
         25    2    1    2    0    0 -0.13373442639E+03  0.25168790506E+03 -0.80398367798E+02  0.32143542709E+03  0.12500055157E+03 0.  0.
          2    1    1    2  501    0  0.31610493968E+02 -0.34332160547E+02 -0.15634964457E+03  0.16316596439E+03  0.00000000000E+00 0. -1.
          1    1    1    2  502    0  0.10212393242E+03 -0.21735574451E+03  0.77568181428E+03  0.81200683140E+03  0.00000000000E+00 0. -1.
         22    1    3    3    0    0 -0.27850478813E+02  0.79135834875E+02  0.32104754690E+02  0.89826748829E+02  0.00000000000E+00 0.  1.
         22    1    3    3    0    0 -0.10588394758E+03  0.17255207018E+03 -0.11250312249E+03  0.23160867827E+03  0.00000000000E+00 0.  1.
</event>
<event>
 7    1  0.5575489E-006  0.7575213E+02  0.7818608E-02  0.1433046E+00
          2   -1    0    0  502    0  0.00000000000E+00  0.00000000000E+00  0.75057354314E+03  0.75057354314E+03  0.00000000000E+00 0. -1.
          1   -1    0    0  501    0 -0.00000000000E+00 -0.00000000000E+00 -0.25789608453E+03  0.25789608453E+03  0.00000000000E+00 0. -1.
         25    2    1    2    0    0 -0.10583876602E+03  0.14180707369E+02  0.20735587281E+03  0.26462119576E+03  0.12499992961E+03 0.  0.
          2    1    1    2  501    0  0.32817245355E+02 -0.15237183309E+02 -0.22522116558E+03  0.22810900196E+03  0.00000000000E+00 0. -1.
          1    1    1    2  502    0  0.73021520664E+02  0.10564759404E+01  0.51054275138E+03  0.51573942995E+03  0.00000000000E+00 0. -1.
         22    1    3    3    0    0 -0.86755925212E+02 -0.40699202013E+02  0.17117761469E+03  0.19617540971E+03  0.00000000000E+00 0.  1.
         22    1    3    3    0    0 -0.19082840807E+02  0.54879909382E+02  0.36178258117E+02  0.68445786046E+02  0.00000000000E+00 0.  1.
</event>
<event>
 7    1  0.5575489E-006  0.2928181E+02  0.7818608E-02  0.1654922E+00
          2   -1    0    0  502    0  0.00000000000E+00  0.00000000000E+00  0.14163804150E+04  0.14163804150E+04  0.00000000000E+00 0. -1.
          1   -1    0    0  501    0 -0.00000000000E+00 -0.00000000000E+00 -0.87312701606E+01  0.87312701606E+01  0.00000000000E+00 0. -1.
         25    2    1    2    0    0  0.39470244224E+02 -0.31242287996E+02  0.65417277201E+03  0.66790722292E+03  0.12499624815E+03 0.  0.
          2    1    1    2  501    0 -0.16199530208E+02  0.15006805147E+02  0.76230992429E+02  0.79364936756E+02  0.00000000000E+00 0. -1.
          1    1    1    2  502    0 -0.23270714016E+02  0.16235482848E+02  0.67724538040E+03  0.67783952548E+03  0.00000000000E+00 0. -1.
         22    1    3    3    0    0  0.17450058351E+02 -0.65009149926E+02  0.57631212866E+03  0.58022957849E+03  0.00000000000E+00 0.  1.
         22    1    3    3    0    0  0.22020185872E+02  0.33766861930E+02  0.77860643349E+02  0.87677644432E+02  0.00000000000E+00 0.  1.
</event>
<event>
 7    1  0.5575489E-006  0.8072912E+02  0.7818608E-02  0.1416128E+00
          2   -1    0    0  502    0  0.00000000000E+00  0.00000000000E+00  0.20641486449E+04  0.20641486449E+04  0.00000000000E+00 0. -1.
          1   -1    0    0  501    0 -0.00000000000E+00 -0.00000000000E+00 -0.25457937897E+04  0.25457937897E+04  0.00000000000E+00 0. -1.
         25    2    1    2    0    0  0.48820095803E+01  0.11842883761E+03  0.17413831356E+03  0.24494665435E+03  0.12500195053E+03 0.  0.
          2    1    1    2  501    0 -0.94241082102E+01 -0.80060658969E+02 -0.25095411128E+04  0.25108355421E+04  0.00000000000E+00 0. -1.
          1    1    1    2  502    0  0.45420986298E+01 -0.38368178639E+02  0.18537576544E+04  0.18541602382E+04  0.00000000000E+00 0. -1.
         22    1    3    3    0    0 -0.32920955944E+02 -0.82984594640E+01  0.65594833570E+02  0.73860246146E+02  0.00000000000E+00 0. -1.
         22    1    3    3    0    0  0.37802965524E+02  0.12672729707E+03  0.10854347999E+03  0.17108640821E+03  0.00000000000E+00 0. -1.
</event>
<event>
 7    1  0.5575489E-006  0.1286076E+03  0.7818608E-02  0.1314549E+00
          2   -1    0    0  502    0  0.00000000000E+00  0.00000000000E+00  0.12024510841E+04  0.12024510841E+04  0.00000000000E+00 0. -1.
          1   -1    0    0  501    0 -0.00000000000E+00 -0.00000000000E+00 -0.70427459787E+02  0.70427459787E+02  0.00000000000E+00 0. -1.
         25    2    1    2    0    0  0.35453124544E+02 -0.90675237123E+02  0.39174048287E+03  0.42256486546E+03  0.12498614698E+03 0.  0.
          2    1    1    2  501    0 -0.22476343039E+02 -0.51975886469E+02 -0.31874783153E+02  0.64982155794E+02  0.00000000000E+00 0. -1.
          1    1    1    2  502    0 -0.12976781505E+02  0.14265112359E+03  0.77215792456E+03  0.78533152259E+03  0.00000000000E+00 0. -1.
         22    1    3    3    0    0  0.67912597578E+02 -0.40599146372E+02  0.31803506259E+03  0.32772963344E+03  0.00000000000E+00 0.  1.
         22    1    3    3    0    0 -0.32459473034E+02 -0.50076090751E+02  0.73705420280E+02  0.94835232024E+02  0.00000000000E+00 0.  1.
</event>
<event>
 7    1  0.5575489E-006  0.8855975E+02  0.7818608E-02  0.1412308E+00
          2   -1    0    0  502    0  0.00000000000E+00  0.00000000000E+00  0.52589085475E+03  0.52589085475E+03  0.00000000000E+00 0. -1.
          1   -1    0    0  501    0 -0.00000000000E+00 -0.00000000000E+00 -0.16650766375E+03  0.16650766375E+03  0.00000000000E+00 0. -1.
         25    2    1    2    0    0  0.80536465048E+02  0.34673956066E+02  0.29481750549E+03  0.33201035389E+03  0.12500043246E+03 0.  0.
          2    1    1    2  501    0 -0.60641643708E+02 -0.65011283740E+02 -0.13274729259E+03  0.15976770530E+03  0.00000000000E+00 0. -1.
          1    1    1    2  502    0 -0.19894821340E+02  0.30337327674E+02  0.19731297811E+03  0.20062045932E+03  0.00000000000E+00 0. -1.
         22    1    3    3    0    0  0.28689624245E+02 -0.89192595460E+01  0.24765534075E+03  0.24947107154E+03  0.00000000000E+00 0.  1.
         22    1    3    3    0    0  0.51846840803E+02  0.43593215612E+02  0.47162164735E+02  0.82539282352E+02  0.00000000000E+00 0.  1.
</event>
<event>
 7    1  0.5575489E-006  0.8159827E+02  0.7818608E-02  0.1327445E+00
          2   -1    0    0  502    0  0.00000000000E+00  0.00000000000E+00  0.51299306705E+02  0.51299306705E+02  0.00000000000E+00 0. -1.
          1   -1    0    0  501    0 -0.00000000000E+00 -0.00000000000E+00 -0.96467394185E+03  0.96467394185E+03  0.00000000000E+00 0. -1.
         25    2    1    2    0    0 -0.45964428644E+01  0.75201268143E+01 -0.74279348887E+03  0.75328943312E+03  0.12500049338E+03 0.  0.
          2    1    1    2  501    0 -0.74201069003E+02  0.28684237234E+02 -0.15549665983E+03  0.17466480849E+03  0.00000000000E+00 0. -1.
          1    1    1    2  502    0  0.78797511867E+02 -0.36204364048E+02 -0.15084486444E+02  0.88019006946E+02  0.00000000000E+00 0. -1.
         22    1    3    3    0    0  0.71842759058E+01  0.16539147433E+02 -0.73721985160E+03  0.73744034797E+03  0.00000000000E+00 0. -1.
         22    1    3    3    0    0 -0.11780718770E+02 -0.90190206183E+01 -0.55736372704E+01  0.15849085150E+02  0.00000000000E+00 0. -1.
</event>
<event>
 7    1  0.5575489E-006  0.4025224E+02  0.7818608E-02  0.1571610E+00
          2   -1    0    0  502    0  0.00000000000E+00  0.00000000000E+00  0.32747827371E+03  0.32747827371E+03  0.00000000000E+00 0. -1.
          1   -1    0    0  501    0 -0.00000000000E+00 -0.00000000000E+00 -0.40211709089E+02  0.40211709089E+02  0.00000000000E+00 0. -1.
         25    2    1    2    0    0 -0.13277344673E+02 -0.18923100580E+02  0.11692999776E+03  0.17272001593E+03  0.12500083164E+03 0.  0.
          2    1    1    2  501    0  0.11192072009E+02  0.45143734294E+02  0.38044452616E+02  0.60088265050E+02  0.00000000000E+00 0. -1.
          1    1    1    2  502    0  0.20852726643E+01 -0.26220633714E+02  0.13229211424E+03  0.13488170181E+03  0.00000000000E+00 0. -1.
         22    1    3    3    0    0  0.22300122469E+02 -0.80655264546E+01  0.13086643368E+03  0.13299763773E+03  0.00000000000E+00 0. -1.
         22    1    3    3    0    0 -0.35577467141E+02 -0.10857574125E+02 -0.13936435912E+02  0.39722378202E+02  0.00000000000E+00 0. -1.
</event>
<event>
 7    1  0.5575489E-006  0.7427671E+02  0.7818608E-02  0.1351147E+00
          2   -1    0    0  502    0  0.00000000000E+00  0.00000000000E+00  0.15483250418E+03  0.15483250418E+03  0.00000000000E+00 0. -1.
          1   -1    0    0  501    0 -0.00000000000E+00 -0.00000000000E+00 -0.23208111239E+03  0.23208111239E+03  0.00000000000E+00 0. -1.
         25    2    1    2    0    0  0.11897347968E+02  0.86533697598E+02 -0.10004976149E+03  0.18238629153E+03  0.12500070742E+03 0.  0.
          2    1    1    2  501    0 -0.66714550449E+02 -0.41166670677E+02 -0.57511968045E+02  0.97227323755E+02  0.00000000000E+00 0. -1.
          1    1    1    2  502    0  0.54817202481E+02 -0.45367026922E+02  0.80313121328E+02  0.10730000129E+03  0.00000000000E+00 0. -1.
         22    1    3    3    0    0 -0.31509000448E+02  0.10036038939E+03 -0.82040290573E+02  0.13340027790E+03  0.00000000000E+00 0. -1.
         22    1    3    3    0    0  0.43406348415E+02 -0.13826691788E+02 -0.18009470917E+02  0.48986013629E+02  0.00000000000E+00 0. -1.
</event>
<event>
 7    1  0.5575489E-006  0.8835105E+02  0.7818608E-02  0.1381418E+00
          2   -1    0    0  502    0  0.00000000000E+00  0.00000000000E+00  0.63747824260E+03  0.63747824260E+03  0.00000000000E+00 0. -1.
          1   -1    0    0  501    0 -0.00000000000E+00 -0.00000000000E+00 -0.10882597857E+03  0.10882597857E+03  0.00000000000E+00 0. -1.
         25    2    1    2    0    0 -0.53044469548E+02  0.30657943679E+02 -0.31157451285E+02  0.14265152296E+03  0.12500017988E+03 0.  0.
          2    1    1    2  501    0  0.63724903323E+01  0.46055975862E+02  0.11309086622E+02  0.47850360353E+02  0.00000000000E+00 0. -1.
          1    1    1    2  502    0  0.46671979216E+02 -0.76713919541E+02  0.54850062869E+03  0.55580233786E+03  0.00000000000E+00 0. -1.
         22    1    3    3    0    0 -0.66697132016E+02  0.69724423296E+02 -0.30737610109E+02  0.10126600268E+03  0.00000000000E+00 0.  1.
         22    1    3    3    0    0  0.13652662468E+02 -0.39066479617E+02 -0.41984117670E+00  0.41385520279E+02  0.00000000000E+00 0.  1.
</event>
<event>
 7    1  0.5575489E-006  0.9063691E+02  0.7818608E-02  0.1361300E+00
          2   -1    0    0  502    0  0.00000000000E+00  0.00000000000E+00  0.60294038544E+03  0.60294038544E+03  0.00000000000E+00 0. -1.
          1   -1    0    0  501    0 -0.00000000000E+00 -0.00000000000E+00 -0.22167924955E+03  0.22167924955E+03  0.00000000000E+00 0. -1.
         25    2    1    2    0    0  0.10739433612E+03  0.64809416076E+02  0.49614614418E+02  0.18393458439E+03  0.12504606162E+03 0.  0.
          2    1    1    2  501    0 -0.53203559344E+02  0.57826043231E+01 -0.14564583957E+03  0.15516690312E+03  0.00000000000E+00 0. -1.
          1    1    1    2  502    0 -0.54190776780E+02 -0.70592020399E+02  0.47729236104E+03  0.48551814749E+03  0.00000000000E+00 0. -1.
         22    1    3    3    0    0  0.82385227970E+02  0.86525146771E+02 -0.55368367369E+01  0.11960176994E+03  0.00000000000E+00 0. -1.
         22    1    3    3    0    0  0.25009108155E+02 -0.21715730695E+02  0.55151451155E+02  0.64332814448E+02  0.00000000000E+00 0. -1.
</event>
<event>
 7    1  0.5575489E-006  0.1718043E+03  0.7818608E-02  0.1314598E+00
          2   -1    0    0  502    0  0.00000000000E+00  0.00000000000E+00  0.86642959544E+03  0.86642959544E+03  0.00000000000E+00 0. -1.
          1   -1    0    0  501    0 -0.00000000000E+00 -0.00000000000E+00 -0.38346962844E+03  0.38346962844E+03  0.00000000000E+00 0. -1.
         25    2    1    2    0    0 -0.13146774790E+03  0.27328107382E+02  0.16933557829E+03  0.24965979467E+03  0.12499952324E+03 0.  0.
          2    1    1    2  501    0  0.17383324781E+03 -0.26659299890E+02 -0.32003089057E+03  0.36516912141E+03  0.00000000000E+00 0. -1.
          1    1    1    2  502    0 -0.42365499906E+02 -0.66880749218E+00  0.63365527928E+03  0.63507030780E+03  0.00000000000E+00 0. -1.
         22    1    3    3    0    0 -0.13091738792E+03  0.63743902278E+02  0.14714078544E+03  0.20700980237E+03  0.00000000000E+00 0.  1.
         22    1    3    3    0    0 -0.55035998547E+00 -0.36415794896E+02  0.22194792850E+02  0.42649992306E+02  0.00000000000E+00 0.  1.
</event>
<event>
 7    1  0.5575489E-006  0.6382944E+02  0.7818608E-02  0.1514056E+00
          2   -1    0    0  502    0  0.00000000000E+00  0.00000000000E+00  0.13611145832E+03  0.13611145832E+03  0.00000000000E+00 0. -1.
          1   -1    0    0  501    0 -0.00000000000E+00 -0.00000000000E+00 -0.53797051607E+03  0.53797051607E+03  0.00000000000E+00 0. -1.
         25    2    1    2    0    0 -0.71812010426E+02 -0.41571988723E+02 -0.25785880578E+03  0.29833169971E+03  0.12500177698E+03 0.  0.
          2    1    1    2  501    0  0.12010945095E+02  0.20887505268E+02 -0.25061552816E+03  0.25177111358E+03  0.00000000000E+00 0. -1.
          1    1    1    2  502    0  0.59801065331E+02  0.20684483455E+02  0.10661527619E+03  0.12397916110E+03  0.00000000000E+00 0. -1.
         22    1    3    3    0    0 -0.41738830921E+01 -0.71880176710E+02 -0.93303371472E+02  0.11785457238E+03  0.00000000000E+00 0. -1.
         22    1    3    3    0    0 -0.67638127334E+02  0.30308187987E+02 -0.16455543430E+03  0.18047712732E+03  0.00000000000E+00 0. -1.
</event>
<event>
 7    1  0.5575489E-006  0.1495761E+03  0.7818608E-02  0.1277610E+00
          2   -1    0    0  502    0  0.00000000000E+00  0.00000000000E+00  0.30707202300E+03  0.30707202300E+03  0.00000000000E+00 0. -1.
          1   -1    0    0  501    0 -0.00000000000E+00 -0.00000000000E+00 -0.19593603197E+04  0.19593603197E+04  0.00000000000E+00 0. -1.
         25    2    1    2    0    0 -0.14927494372E+03  0.75790719044E+02 -0.31044151876E+03  0.37420058622E+03  0.12499960096E+03 0.  0.
          2    1    1    2  501    0  0.11345146720E+00 -0.68589189215E+02 -0.15959888437E+04  0.15974620117E+04  0.00000000000E+00 0. -1.
          1    1    1    2  502    0  0.14916149225E+03 -0.72015298292E+01  0.25414206578E+03  0.29476974472E+03  0.00000000000E+00 0. -1.
         22    1    3    3    0    0 -0.13431936250E+03  0.54565270521E+02 -0.31597873347E+03  0.34765157830E+03  0.00000000000E+00 0.  1.
         22    1    3    3    0    0 -0.14955581221E+02  0.21225448523E+02  0.55372147098E+01  0.26549007917E+02  0.00000000000E+00 0.  1.
</event>
<event>
 7    1  0.5575489E-006  0.1842073E+03  0.7818608E-02  0.1252356E+00
          2   -1    0    0  502    0  0.00000000000E+00  0.00000000000E+00  0.82056929445E+03  0.82056929445E+03  0.00000000000E+00 0. -1.
          1   -1    0    0  501    0 -0.00000000000E+00 -0.00000000000E+00 -0.16783028468E+03  0.16783028468E+03  0.00000000000E+00 0. -1.
         25    2    1    2    0    0 -0.17745799610E+03 -0.97031420437E+02  0.25926734517E+03  0.35178242701E+03  0.12499953099E+03 0.  0.
          2    1    1    2  501    0  0.58990305701E+02 -0.39945313686E+02 -0.93218348043E+02  0.11732495329E+03  0.00000000000E+00 0. -1.
          1    1    1    2  502    0  0.11846769040E+03  0.13697673412E+03  0.48669001265E+03  0.51929219884E+03  0.00000000000E+00 0. -1.
         22    1    3    3    0    0 -0.17310144569E+03 -0.36810375386E+02  0.20212029561E+03  0.26864796320E+03  0.00000000000E+00 0.  1.
         22    1    3    3    0    0 -0.43565504113E+01 -0.60221045051E+02  0.57147049559E+02  0.83134463803E+02  0.00000000000E+00 0.  1.
</event>
<event>
 7    1  0.5575489E-006  0.1445741E+03  0.7818608E-02  0.1301140E+00
          2   -1    0    0  502    0  0.00000000000E+00  0.00000000000E+00  0.69210677810E+03  0.69210677810E+03  0.00000000000E+00 0. -1.
          1   -1    0    0  501    0 -0.00000000000E+00 -0.00000000000E+00 -0.31533893496E+03  0.31533893496E+03  0.00000000000E+00 0. -1.
         25    2    1    2    0    0 -0.17463493425E+03  0.95128562792E+02  0.49703175844E+03  0.54973869293E+03  0.12500103156E+03 0.  0.
          2    1    1    2  501    0  0.12892594073E+03 -0.61217315191E+02 -0.26565884156E+03  0.30156935848E+03  0.00000000000E+00 0. -1.
          1    1    1    2  502    0  0.45708993527E+02 -0.33911247601E+02  0.14539492627E+03  0.15613766165E+03  0.00000000000E+00 0. -1.
         22    1    3    3    0    0 -0.14501918436E+03  0.11903519807E+02  0.28363728907E+03  0.31878263655E+03  0.00000000000E+00 0. -1.
         22    1    3    3    0    0 -0.29615749888E+02  0.83225042985E+02  0.21339446937E+03  0.23095605638E+03  0.00000000000E+00 0. -1.
</event>
<event>
 7    1  0.5575489E-006  0.1637338E+03  0.7818608E-02  0.1255183E+00
          2   -1    0    0  502    0  0.00000000000E+00  0.00000000000E+00  0.42246684763E+04  0.42246684763E+04  0.00000000000E+00 0. -1.
          1   -1    0    0  501    0 -0.00000000000E+00 -0.00000000000E+00 -0.31515766927E+03  0.31515766927E+03  0.00000000000E+00 0. -1.
         25    2    1    2    0    0 -0.18315653257E+03  0.46740290066E+02  0.61299014512E+02  0.23476400373E+03  0.12500239250E+03 0.  0.
          2    1    1    2  501    0  0.22011936298E+02 -0.74759235351E+02 -0.22008659264E+03  0.23347714421E+03  0.00000000000E+00 0. -1.
          1    1    1    2  502    0  0.16114459627E+03  0.28018945284E+02  0.40682983852E+04  0.40715849977E+04  0.00000000000E+00 0. -1.
         22    1    3    3    0    0  0.86670709264E+01  0.33199757866E+02  0.86431507107E+01  0.35384263381E+02  0.00000000000E+00 0. -1.
         22    1    3    3    0    0 -0.19182360349E+03  0.13540532201E+02  0.52655863801E+02  0.19937974035E+03  0.00000000000E+00 0. -1.
</event>
<event>
 7    1  0.5575489E-006  0.7008233E+02  0.7818608E-02  0.1372658E+00
          2   -1    0    0  502    0  0.00000000000E+00  0.00000000000E+00  0.10945761467E+04  0.10945761467E+04  0.00000000000E+00 0. -1.
          1   -1    0    0  501    0 -0.00000000000E+00 -0.00000000000E+00 -0.29349242573E+03  0.29349242573E+03  0.00000000000E+00 0. -1.
         25    2    1    2    0    0  0.32149806001E+02  0.56848041759E+02  0.26654388064E+03  0.30155629904E+03  0.12500100522E+03 0.  0.
          2    1    1    2  501    0 -0.62248328913E+02  0.95390075701E+01 -0.27072608826E+03  0.27795406452E+03  0.00000000000E+00 0. -1.
          1    1    1    2  502    0  0.30098522911E+02 -0.66387049329E+02  0.80526592860E+03  0.80855820889E+03  0.00000000000E+00 0. -1.
         22    1    3    3    0    0  0.71407353296E+02  0.51300163407E+02  0.11413395802E+03  0.14407386038E+03  0.00000000000E+00 0. -1.
         22    1    3    3    0    0 -0.39257547294E+02  0.55478783517E+01  0.15240992262E+03  0.15748243866E+03  0.00000000000E+00 0. -1.
</event>
<event>
 7    1  0.5575489E-006  0.1714269E+03  0.7818608E-02  0.1314807E+00
          2   -1    0    0  502    0  0.00000000000E+00  0.00000000000E+00  0.64164527467E+03  0.64164527467E+03  0.00000000000E+00 0. -1.
          1   -1    0    0  501    0 -0.00000000000E+00 -0.00000000000E+00 -0.41938903509E+03  0.41938903509E+03  0.00000000000E+00 0. -1.
         25    2    1    2    0    0  0.41254668602E+02  0.17968635409E+03 -0.72549542798E+02  0.23425903790E+03  0.12499890860E+03 0.  0.
          2    1    1    2  501    0 -0.73002085883E+02 -0.15160575566E+03 -0.23844741438E+03  0.29184033155E+03  0.00000000000E+00 0. -1.
          1    1    1    2  502    0  0.31747417281E+02 -0.28080598430E+02  0.53325319676E+03  0.53493494031E+03  0.00000000000E+00 0. -1.
         22    1    3    3    0    0 -0.22419617758E+02  0.15033293801E+03 -0.41373660414E+02  0.15752590672E+03  0.00000000000E+00 0. -1.
         22    1    3    3    0    0  0.63674286360E+02  0.29353416076E+02 -0.31175882384E+02  0.76733131184E+02  0.00000000000E+00 0. -1.
</event>
<event>
 7    1  0.5575489E-006  0.7062651E+02  0.7818608E-02  0.1364626E+00
          2   -1    0    0  502    0  0.00000000000E+00  0.00000000000E+00  0.45223916034E+03  0.45223916034E+03  0.00000000000E+00 0. -1.
          1   -1    0    0  501    0 -0.00000000000E+00 -0.00000000000E+00 -0.62796359278E+03  0.62796359278E+03  0.00000000000E+00 0. -1.
         25    2    1    2    0    0 -0.29059494949E+02 -0.47696396874E+02 -0.19927795857E+03  0.24177561640E+03  0.12499737355E+03 0.  0.
          2    1    1    2  501    0 -0.42035950468E+02  0.51909449862E+02 -0.40171796387E+03  0.40723326805E+03  0.00000000000E+00 0. -1.
          1    1    1    2  502    0  0.71095445418E+02 -0.42130529882E+01  0.42527149000E+03  0.43119386867E+03  0.00000000000E+00 0. -1.
         22    1    3    3    0    0 -0.33246154999E+02  0.36417312665E+02 -0.49049724568E+02  0.69551441137E+02  0.00000000000E+00 0. -1.
         22    1    3    3    0    0  0.41866600500E+01 -0.84113709539E+02 -0.15022823400E+03  0.17222417527E+03  0.00000000000E+00 0. -1.
</event>
<event>
 7    1  0.5575489E-006  0.2401151E+03  0.7818608E-02  0.1183645E+00
          2   -1    0    0  502    0  0.00000000000E+00  0.00000000000E+00  0.42702984640E+03  0.42702984640E+03  0.00000000000E+00 0. -1.
          1   -1    0    0  501    0 -0.00000000000E+00 -0.00000000000E+00 -0.15973794846E+04  0.15973794846E+04  0.00000000000E+00 0. -1.
         25    2    1    2    0    0  0.65880617172E+02 -0.29661597877E+03 -0.89265062755E+03  0.95119472879E+03  0.12499989858E+03 0.  0.
          2    1    1    2  501    0  0.32242301064E+01  0.20749278806E+03 -0.65098716686E+03  0.68326271973E+03  0.00000000000E+00 0. -1.
          1    1    1    2  502    0 -0.69104847279E+02  0.89123190707E+02  0.37328815623E+03  0.38995188244E+03  0.00000000000E+00 0. -1.
         22    1    3    3    0    0  0.50057862234E+02 -0.10485443667E+03 -0.50780939777E+03  0.52093245908E+03  0.00000000000E+00 0. -1.
         22    1    3    3    0    0  0.15822754938E+02 -0.19176154210E+03 -0.38484122978E+03  0.43026226971E+03  0.00000000000E+00 0. -1.
</event>
<event>
 7    1  0.5575489E-006  0.6402078E+02  0.7818608E-02  0.1529222E+00
          2   -1    0    0  502    0  0.00000000000E+00  0.00000000000E+00  0.91321796701E+03  0.91321796701E+03  0.00000000000E+00 0. -1.
          1   -1    0    0  501    0 -0.00000000000E+00 -0.00000000000E+00 -0.53303503809E+03  0.53303503809E+03  0.00000000000E+00 0. -1.
         25    2    1    2    0    0 -0.43720778242E+02 -0.10718157799E+02 -0.18909566760E+03  0.23110227575E+03  0.12499881999E+03 0.  0.
          2    1    1    2  501    0 -0.20333443279E+02  0.76101456230E+01 -0.32141702340E+03  0.32214944694E+03  0.00000000000E+00 0. -1.
          1    1    1    2  502    0  0.64054221521E+02  0.31080121761E+01  0.89069561992E+03  0.89300128240E+03  0.00000000000E+00 0. -1.
         22    1    3    3    0    0  0.21982023387E+00 -0.24247764726E+02 -0.18314395128E+03  0.18474227807E+03  0.00000000000E+00 0. -1.
         22    1    3    3    0    0 -0.43940598476E+02  0.13529606927E+02 -0.59517163125E+01  0.46359997682E+02  0.00000000000E+00 0. -1.
</event>
<event>
 7    1  0.5575489E-006  0.3606032E+02  0.7818608E-02  0.1579204E+00
          2   -1    0    0  502    0  0.00000000000E+00  0.00000000000E+00  0.10014262142E+04  0.10014262142E+04  0.00000000000E+00 0. -1.
          1   -1    0    0  501    0 -0.00000000000E+00 -0.00000000000E+00 -0.70783761153E+02  0.70783761153E+02  0.00000000000E+00 0. -1.
         25    2    1    2    0    0  0.26878050228E+02  0.43918159123E+02  0.21354196614E+03  0.25274701774E+03  0.12501859617E+03 0.  0.
          2    1    1    2  501    0 -0.26831911524E+02 -0.80319523285E+01 -0.46896470503E+02  0.54623645795E+02  0.00000000000E+00 0. -1.
          1    1    1    2  502    0 -0.46138704502E-01 -0.35886206795E+02  0.76399695745E+03  0.76483931186E+03  0.00000000000E+00 0. -1.
         22    1    3    3    0    0 -0.18337453278E+02  0.45009689608E+02  0.19957973900E+03  0.20541228438E+03  0.00000000000E+00 0.  1.
         22    1    3    3    0    0  0.45215503506E+02 -0.10915304847E+01  0.13962227134E+02  0.47334733364E+02  0.00000000000E+00 0.  1.
</event>
<event>
 7    1  0.5575489E-006  0.7721500E+02  0.7818608E-02  0.1389420E+00
          2   -1    0    0  502    0  0.00000000000E+00  0.00000000000E+00  0.14764419665E+04  0.14764419665E+04  0.00000000000E+00 0. -1.
          1   -1    0    0  501    0 -0.00000000000E+00 -0.00000000000E+00 -0.11978273112E+03  0.11978273112E+03  0.00000000000E+00 0. -1.
         25    2    1    2    0    0  0.14301374769E+02  0.96331457613E+02  0.23218110611E+02  0.16015050677E+03  0.12499930044E+03 0.  0.
          2    1    1    2  501    0 -0.43227463450E+02 -0.24858078424E+02 -0.37858643563E+02  0.62608422370E+02  0.00000000000E+00 0. -1.
          1    1    1    2  502    0  0.28926088681E+02 -0.71473379190E+02  0.13712997684E+04  0.13734657685E+04  0.00000000000E+00 0. -1.
         22    1    3    3    0    0  0.22726162789E+02  0.49162475417E+01 -0.41678630682E+02  0.47725844367E+02  0.00000000000E+00 0. -1.
         22    1    3    3    0    0 -0.84247880194E+01  0.91415210072E+02  0.64896741293E+02  0.11242466240E+03  0.00000000000E+00 0. -1.
</event>
<event>
 7    1  0.5575489E-006  0.1813356E+03  0.7818608E-02  0.1214547E+00
          2   -1    0    0  502    0  0.00000000000E+00  0.00000000000E+00  0.11126943978E+04  0.11126943978E+04  0.00000000000E+00 0. -1.
          1   -1    0    0  501    0 -0.00000000000E+00 -0.00000000000E+00 -0.22509570357E+03  0.22509570357E+03  0.00000000000E+00 0. -1.
         25    2    1    2    0    0 -0.94916764007E+02  0.73551376246E+02  0.11660701842E+03  0.20890508483E+03  0.12500056275E+03 0.  0.
          2    1    1    2  501    0  0.10257603566E+03 -0.17997558844E+03 -0.11470013182E+03  0.23678930670E+03  0.00000000000E+00 0. -1.
          1    1    1    2  502    0 -0.76592716563E+01  0.10642421220E+03  0.88569180762E+03  0.89209570981E+03  0.00000000000E+00 0. -1.
         22    1    3    3    0    0 -0.43316605447E+02  0.82681095684E+02  0.12482332348E+03  0.15586325409E+03  0.00000000000E+00 0.  1.
         22    1    3    3    0    0 -0.51600158560E+02 -0.91297194381E+01 -0.82163050520E+01  0.53041830748E+02  0.00000000000E+00 0.  1.
</event>
<event>
 7    1  0.5575489E-006  0.8604219E+02  0.7818608E-02  0.1356212E+00
          2   -1    0    0  502    0  0.00000000000E+00  0.00000000000E+00  0.16248931585E+03  0.16248931585E+03  0.00000000000E+00 0. -1.
          1   -1    0    0  501    0 -0.00000000000E+00 -0.00000000000E+00 -0.14701649966E+03  0.14701649966E+03  0.00000000000E+00 0. -1.
         25    2    1    2    0    0  0.26258287193E+02 -0.38017160846E+02  0.92913787576E+01  0.13358969977E+03  0.12500030400E+03 0.  0.
          2    1    1    2  501    0  0.58063527630E+02  0.63497132710E+02  0.15177254158E+02  0.87370522186E+02  0.00000000000E+00 0. -1.
          1    1    1    2  502    0 -0.84321814823E+02 -0.25479971864E+02 -0.89958167260E+01  0.88545593565E+02  0.00000000000E+00 0. -1.
         22    1    3    3    0    0  0.19415244000E+02  0.14369250779E+02 -0.49176531468E+02  0.54788304543E+02  0.00000000000E+00 0.  1.
         22    1    3    3    0    0  0.68430431929E+01 -0.52386411625E+02  0.58467910225E+02  0.78801395224E+02  0.00000000000E+00 0.  1.
</event>
<event>
 7    1  0.5575489E-006  0.1123400E+03  0.7818608E-02  0.1291537E+00
          2   -1    0    0  502    0  0.00000000000E+00  0.00000000000E+00  0.31098295290E+03  0.31098295290E+03  0.00000000000E+00 0. -1.
          1   -1    0    0  501    0 -0.00000000000E+00 -0.00000000000E+00 -0.34818153028E+04  0.34818153028E+04  0.00000000000E+00 0. -1.
         25    2    1    2    0    0  0.14739369346E+03 -0.72247808625E+02 -0.84234064540E+03  0.86724136352E+03  0.12500069199E+03 0.  0.
          2    1    1    2  501    0 -0.78469764409E+02 -0.15908510285E+02 -0.26159038980E+04  0.26171289208E+04  0.00000000000E+00 0. -1.
          1    1    1    2  502    0 -0.68923929053E+02  0.88156318910E+02  0.28741219348E+03  0.30842797136E+03  0.00000000000E+00 0. -1.
         22    1    3    3    0    0  0.10545522200E+02 -0.51646641026E+02 -0.40788439018E+03  0.41127637827E+03  0.00000000000E+00 0.  1.
         22    1    3    3    0    0  0.13684817126E+03 -0.20601167599E+02 -0.43445625522E+03  0.45596498526E+03  0.00000000000E+00 0.  1.
</event>
<event>
 7    1  0.5575489E-006  0.7685900E+02  0.7818608E-02  0.1427426E+00
          2   -1    0    0  502    0  0.00000000000E+00  0.00000000000E+00  0.43750899767E+03  0.43750899767E+03  0.00000000000E+00 0. -1.
          1   -1    0    0  501    0 -0.00000000000E+00 -0.00000000000E+00 -0.14787022358E+04  0.14787022358E+04  0.00000000000E+00 0. -1.
         25    2    1    2    0    0  0.45644137940E+02 -0.98632927793E+02  0.16368252751E+03  0.23287283293E+03  0.12500377887E+03 0.  0.
          2    1    1    2  501    0 -0.11286756553E+02  0.35459674585E+02 -0.14384569428E+04  0.14389382043E+04  0.00000000000E+00 0. -1.
          1    1    1    2  502    0 -0.34357381387E+02  0.63173253207E+02  0.23358117720E+03  0.24440019624E+03  0.00000000000E+00 0. -1.
         22    1    3    3    0    0  0.27092845419E+02 -0.14514333183E+02 -0.15230963533E+02  0.34302629502E+02  0.00000000000E+00 0.  1.
         22    1    3    3    0    0  0.18551292521E+02 -0.84118594610E+02  0.17891349104E+03  0.19857020343E+03  0.00000000000E+00 0.  1.
</event>
<event>
 7    1  0.5575489E-006  0.1124537E+03  0.7818608E-02  0.1310328E+00
          2   -1    0    0  502    0  0.00000000000E+00  0.00000000000E+00  0.19593746289E+03  0.19593746289E+03  0.00000000000E+00 0. -1.
          1   -1    0    0  501    0 -0.00000000000E+00 -0.00000000000E+00 -0.37813649729E+03  0.37813649729E+03  0.00000000000E+00 0. -1.
         25    2    1    2    0    0  0.96457967841E+02  0.12680733359E+03 -0.78275009785E+02  0.21710881824E+03  0.12500008956E+03 0.  0.
          2    1    1    2  501    0 -0.35190041459E+02 -0.99005825761E+02 -0.20800145362E+03  0.23303454091E+03  0.00000000000E+00 0. -1.
          1    1    1    2  502    0 -0.61267926382E+02 -0.27801507830E+02  0.10407742900E+03  0.12393060102E+03  0.00000000000E+00 0. -1.
         22    1    3    3    0    0  0.35637077295E+02  0.13612737474E+03 -0.59499611906E+02  0.15277718171E+03  0.00000000000E+00 0. -1.
         22    1    3    3    0    0  0.60820890546E+02 -0.93200411543E+01 -0.18775397879E+02  0.64331636536E+02  0.00000000000E+00 0. -1.
</event>
<event>
 7    1  0.5575489E-006  0.1226896E+03  0.7818608E-02  0.1353401E+00
          2   -1    0    0  502    0  0.00000000000E+00  0.00000000000E+00  0.25678483856E+03  0.25678483856E+03  0.00000000000E+00 0. -1.
          1   -1    0    0  501    0 -0.00000000000E+00 -0.00000000000E+00 -0.32201792961E+03  0.32201792961E+03  0.00000000000E+00 0. -1.
         25    2    1    2    0    0  0.71081773929E+02 -0.57115448674E+02  0.13847089229E+03  0.20764194136E+03  0.12500477887E+03 0.  0.
          2    1    1    2  501    0 -0.11322385965E+03  0.53958969269E+02 -0.26703555273E+03  0.29502406543E+03  0.00000000000E+00 0. -1.
          1    1    1    2  502    0  0.42142085723E+02  0.31564794048E+01  0.63331569388E+02  0.76136761374E+02  0.00000000000E+00 0. -1.
         22    1    3    3    0    0  0.43522841491E+02 -0.95014487066E+02  0.74499424538E+02  0.12834389249E+03  0.00000000000E+00 0.  1.
         22    1    3    3    0    0  0.27558932438E+02  0.37899038392E+02  0.63971467754E+02  0.79298048871E+02  0.00000000000E+00 0.  1.
</event>
<event>
 7    1  0.5575489E-006  0.1195629E+03  0.7818608E-02  0.1343341E+00
          2   -1    0    0  502    0  0.00000000000E+00  0.00000000000E+00  0.64632058215E+03  0.64632058215E+03  0.00000000000E+00 0. -1.
          1   -1    0    0  501    0 -0.00000000000E+00 -0.00000000000E+00 -0.25950414321E+03  0.25950414321E+03  0.00000000000E+00 0. -1.
         25    2    1    2    0    0 -0.14669165435E+03 -0.61818920679E+02  0.27903707410E+02  0.20431150394E+03  0.12499821338E+03 0.  0.
          2    1    1    2  501    0  0.10039497541E+03  0.52317226628E+02 -0.15138393151E+03  0.18903263741E+03  0.00000000000E+00 0. -1.
          1    1    1    2  502    0  0.46296678940E+02  0.95016940513E+01  0.51029666304E+03  0.51248058400E+03  0.00000000000E+00 0. -1.
         22    1    3    3    0    0 -0.31438216749E+02 -0.76248953974E+02 -0.76728746741E+01  0.82831983317E+02  0.00000000000E+00 0. -1.
         22    1    3    3    0    0 -0.11525343760E+03  0.14430033294E+02  0.35576582084E+02  0.12147952063E+03  0.00000000000E+00 0. -1.
</event>
<event>
 7    1  0.5575489E-006  0.5830206E+02  0.7818608E-02  0.1446336E+00
          2   -1    0    0  502    0  0.00000000000E+00  0.00000000000E+00  0.94127824335E+03  0.94127824335E+03  0.00000000000E+00 0. -1.
          1   -1    0    0  501    0 -0.00000000000E+00 -0.00000000000E+00 -0.42240383705E+03  0.42240383705E+03  0.00000000000E+00 0. -1.
         25    2    1    2    0    0 -0.54263172500E+02 -0.39357945713E+02 -0.10144786387E+03  0.17438195129E+03  0.12499542420E+03 0.  0.
          2    1    1    2  501    0  0.58637489515E+02 -0.29821060446E+01 -0.28095194692E+03  0.28702133128E+03  0.00000000000E+00 0. -1.
          1    1    1    2  502    0 -0.43743170151E+01  0.42340051758E+02  0.90127421709E+03  0.90227879783E+03  0.00000000000E+00 0. -1.
         22    1    3    3    0    0 -0.11592849980E+02 -0.74052980328E+01  0.29745211943E+02  0.32772095495E+02  0.00000000000E+00 0. -1.
         22    1    3    3    0    0 -0.42670322521E+02 -0.31952647680E+02 -0.13119307581E+03  0.14160985580E+03  0.00000000000E+00 0. -1.
</event>
<event>
 7    1  0.5575489E-006  0.6664921E+03  0.7818608E-02  0.1129785E+00
          2   -1    0    0  502    0  0.00000000000E+00  0.00000000000E+00  0.13005434824E+04  0.13005434824E+04  0.00000000000E+00 0. -1.
          1   -1    0    0  501    0 -0.00000000000E+00 -0.00000000000E+00 -0.50196351793E+03  0.50196351793E+03  0.00000000000E+00 0. -1.
         25    2    1    2    0    0 -0.64841187572E+03  0.91416898935E+02  0.52217561481E+03  0.84681019870E+03  0.12500051981E+03 0.  0.
          2    1    1    2  501    0  0.67336054794E+03 -0.19253604204E+02  0.48929625708E+01  0.67365352362E+03  0.00000000000E+00 0. -1.
          1    1    1    2  502    0 -0.24948672229E+02 -0.72163294731E+02  0.27151138713E+03  0.28204327805E+03  0.00000000000E+00 0. -1.
         22    1    3    3    0    0 -0.12235738060E+03  0.48941067823E+02  0.15723351862E+03  0.20515588241E+03  0.00000000000E+00 0. -1.
         22    1    3    3    0    0 -0.52605449511E+03  0.42475831112E+02  0.36494209618E+03  0.64165431630E+03  0.00000000000E+00 0. -1.
</event>
<event>
 7    1  0.5575489E-006  0.7098924E+02  0.7818608E-02  0.1453801E+00
          2   -1    0    0  502    0  0.00000000000E+00  0.00000000000E+00  0.16482946350E+03  0.16482946350E+03  0.00000000000E+00 0. -1.
          1   -1    0    0  501    0 -0.00000000000E+00 -0.00000000000E+00 -0.75586104647E+03  0.75586104647E+03  0.00000000000E+00 0. -1.
         25    2    1    2    0    0  0.55890882821E+02 -0.74212720315E+02 -0.33376035031E+03  0.36830792067E+03  0.12499373723E+03 0.  0.
          2    1    1    2  501    0 -0.53897179223E+02  0.41185284751E+02 -0.40008068840E+03  0.40579020545E+03  0.00000000000E+00 0. -1.
          1    1    1    2  502    0 -0.19937035981E+01  0.33027435564E+02  0.14280945574E+03  0.14659238385E+03  0.00000000000E+00 0. -1.
         22    1    3    3    0    0 -0.28992861272E+02 -0.16465147704E+02 -0.18234998590E+03  0.18537314922E+03  0.00000000000E+00 0. -1.
         22    1    3    3    0    0  0.84883744094E+02 -0.57747572611E+02 -0.15141036441E+03  0.18293477145E+03  0.00000000000E+00 0. -1.
</event>
<event>
 7    1  0.5575489E-006  0.1094762E+03  0.7818608E-02  0.1403950E+00
          2   -1    0    0  502    0  0.00000000000E+00  0.00000000000E+00  0.63927385995E+03  0.63927385995E+03  0.00000000000E+00 0. -1.
          1   -1    0    0  501    0 -0.00000000000E+00 -0.00000000000E+00 -0.53726441108E+03  0.53726441108E+03  0.00000000000E+00 0. -1.
         25    2    1    2    0    0 -0.11691898472E+03 -0.60407707516E+02  0.13586639087E+03  0.22672578157E+03  0.12500305494E+03 0.  0.
          2    1    1    2  501    0  0.10404466381E+03  0.31844319775E+02 -0.48526712654E+03  0.49731633482E+03  0.00000000000E+00 0. -1.
          1    1    1    2  502    0  0.12874320911E+02  0.28563387741E+02  0.45141018454E+03  0.45249615464E+03  0.00000000000E+00 0. -1.
         22    1    3    3    0    0 -0.48770112630E+02 -0.91671095457E+02  0.97780541307E+02  0.14262940751E+03  0.00000000000E+00 0. -1.
         22    1    3    3    0    0 -0.68148872092E+02  0.31263387941E+02  0.38085849563E+02  0.84096374059E+02  0.00000000000E+00 0. -1.
</event>
<event>
 7    1  0.5575489E-006  0.1065655E+03  0.7818608E-02  0.1305718E+00
          2   -1    0    0  502    0  0.00000000000E+00  0.00000000000E+00  0.34923784628E+03  0.34923784628E+03  0.00000000000E+00 0. -1.
          1   -1    0    0  501    0 -0.00000000000E+00 -0.00000000000E+00 -0.71461668238E+03  0.71461668238E+03  0.00000000000E+00 0. -1.
         25    2    1    2    0    0 -0.16918015727E+03 -0.29272414855E+02  0.14920151741E+03  0.25954556440E+03  0.12499602919E+03 0.  0.
          2    1    1    2  501    0  0.10502734876E+03 -0.76926244932E+01 -0.64542959932E+03  0.65396428660E+03  0.00000000000E+00 0. -1.
          1    1    1    2  502    0  0.64152808510E+02  0.36965039348E+02  0.13084924581E+03  0.15034467767E+03  0.00000000000E+00 0. -1.
         22    1    3    3    0    0 -0.12678199761E+03 -0.71562823795E+02  0.73693502043E+02  0.16317366488E+03  0.00000000000E+00 0. -1.
         22    1    3    3    0    0 -0.42398159657E+02  0.42290408940E+02  0.75508015372E+02  0.96371899514E+02  0.00000000000E+00 0. -1.
</event>
<event>
 7    1  0.5575489E-006  0.7682462E+02  0.7818608E-02  0.1471557E+00
          2   -1    0    0  502    0  0.00000000000E+00  0.00000000000E+00  0.27877905778E+02  0.27877905778E+02  0.00000000000E+00 0. -1.
          1   -1    0    0  501    0 -0.00000000000E+00 -0.00000000000E+00 -0.18721024647E+04  0.18721024647E+04  0.00000000000E+00 0. -1.
         25    2    1    2    0    0 -0.48631448313E+02 -0.87884989755E+02 -0.89353357391E+03  0.90780672489E+03  0.12498805088E+03 0.  0.
          2    1    1    2  501    0  0.57736030616E+01  0.26260271257E+02 -0.90265758179E+03  0.90305794183E+03  0.00000000000E+00 0. -1.
          1    1    1    2  502    0  0.42857845251E+02  0.61624718498E+02 -0.48033403204E+02  0.89115703739E+02  0.00000000000E+00 0. -1.
         22    1    3    3    0    0 -0.49170797717E+02  0.67371766686E+01 -0.52420865433E+03  0.52655281802E+03  0.00000000000E+00 0. -1.
         22    1    3    3    0    0  0.53934940432E+00 -0.94622166424E+02 -0.36932491958E+03  0.38125390687E+03  0.00000000000E+00 0. -1.
</event>
<event>
 7    1  0.5575489E-006  0.2762763E+03  0.7818608E-02  0.1266454E+00
          2   -1    0    0  502    0  0.00000000000E+00  0.00000000000E+00  0.20118711554E+04  0.20118711554E+04  0.00000000000E+00 0. -1.
          1   -1    0    0  501    0 -0.00000000000E+00 -0.00000000000E+00 -0.11029818178E+04  0.11029818178E+04  0.00000000000E+00 0. -1.
         25    2    1    2    0    0  0.20644647279E+03  0.20434329216E+03 -0.66314556492E+03  0.73468534470E+03  0.12499675304E+03 0.  0.
          2    1    1    2  501    0 -0.38577611845E+02  0.14884439475E+02 -0.39333197898E+03  0.39549946190E+03  0.00000000000E+00 0. -1.
          1    1    1    2  502    0 -0.16786886095E+03 -0.21922773164E+03  0.19653668814E+04  0.19846681666E+04  0.00000000000E+00 0. -1.
         22    1    3    3    0    0  0.21939905311E+03  0.19443652016E+03 -0.65216819985E+03  0.71502787762E+03  0.00000000000E+00 0. -1.
         22    1    3    3    0    0 -0.12952580316E+02  0.99067719995E+01 -0.10977365071E+02  0.19657467085E+02  0.00000000000E+00 0. -1.
</event>
<event>
 7    1  0.5575489E-006  0.5579300E+02  0.7818608E-02  0.1433009E+00
          2   -1    0    0  502    0  0.00000000000E+00  0.00000000000E+00  0.11810574563E+04  0.11810574563E+04  0.00000000000E+00 0. -1.
          1   -1    0    0  501    0 -0.00000000000E+00 -0.00000000000E+00 -0.35084908785E+03  0.35084908785E+03  0.00000000000E+00 0. -1.
         25    2    1    2    0    0 -0.95128107246E+01  0.27488212027E+01  0.10608318301E+03  0.16424895695E+03  0.12500411416E+03 0.  0.
          2    1    1    2  501    0 -0.44884872184E+02 -0.20001493807E+02 -0.31910563625E+03  0.32286702927E+03  0.00000000000E+00 0. -1.
          1    1    1    2  502    0  0.54397682908E+02  0.17252672604E+02  0.10432308216E+04  0.10447905579E+04  0.00000000000E+00 0. -1.
         22    1    3    3    0    0  0.25444244455E+02 -0.43547131745E+02  0.91425574309E+02  0.10441454830E+03  0.00000000000E+00 0. -1.
         22    1    3    3    0    0 -0.34957055179E+02  0.46295952947E+02  0.14657608703E+02  0.59834408654E+02  0.00000000000E+00 0. -1.
</event>
<event>
 7    1  0.5575489E-006  0.1506159E+03  0.7818608E-02  0.1349269E+00
          2   -1    0    0  502    0  0.00000000000E+00  0.00000000000E+00  0.28833187451E+03  0.28833187451E+03  0.00000000000E+00 0. -1.
          1   -1    0    0  501    0 -0.00000000000E+00 -0.00000000000E+00 -0.16163960738E+04  0.16163960738E+04  0.00000000000E+00 0. -1.
         25    2    1    2    0    0  0.29435042512E+02 -0.11409560611E+03 -0.75649892870E+03  0.77575634108E+03  0.12499216992E+03 0.  0.
          2    1    1    2  501    0 -0.45796823284E+01 -0.35361873432E+02 -0.82926577245E+03  0.83003202164E+03  0.00000000000E+00 0. -1.
          1    1    1    2  502    0 -0.24855360184E+02  0.14945747954E+03  0.25770050191E+03  0.29893958554E+03  0.00000000000E+00 0. -1.
         22    1    3    3    0    0 -0.49595526280E+00 -0.42009853530E+02 -0.51559889063E+02  0.66509367201E+02  0.00000000000E+00 0.  1.
         22    1    3    3    0    0  0.29930997775E+02 -0.72085752580E+02 -0.70493903963E+03  0.70924697388E+03  0.00000000000E+00 0.  1.
</event>
<event>
 7    1  0.5575489E-006  0.1013793E+03  0.7818608E-02  0.1393465E+00
          2   -1    0    0  502    0  0.00000000000E+00  0.00000000000E+00  0.24965202446E+03  0.24965202446E+03  0.00000000000E+00 0. -1.
          1   -1    0    0  501    0 -0.00000000000E+00 -0.00000000000E+00 -0.24589858411E+04  0.24589858411E+04  0.00000000000E+00 0. -1.
         25    2    1    2    0    0 -0.59511796143E+02  0.11696111032E+03 -0.90443271428E+03  0.92241282051E+03  0.12500128626E+03 0.  0.
          2    1    1    2  501    0  0.34343977420E+02 -0.90157525727E+02 -0.15426429600E+04  0.15456568799E+04  0.00000000000E+00 0. -1.
          1    1    1    2  502    0  0.25167818723E+02 -0.26803584590E+02  0.23774185763E+03  0.24056816521E+03  0.00000000000E+00 0. -1.
         22    1    3    3    0    0  0.18485463707E+02  0.74034803776E+02 -0.61169767915E+03  0.61643889820E+03  0.00000000000E+00 0. -1.
         22    1    3    3    0    0 -0.77997259850E+02  0.42926306540E+02 -0.29273503513E+03  0.30597392231E+03  0.00000000000E+00 0. -1.
</event>
<event>
 7    1  0.5575489E-006  0.6132718E+02  0.7818608E-02  0.1521294E+00
          2   -1    0    0  502    0  0.00000000000E+00  0.00000000000E+00  0.32146915864E+03  0.32146915864E+03  0.00000000000E+00 0. -1.
          1   -1    0    0  501    0 -0.00000000000E+00 -0.00000000000E+00 -0.81435173026E+03  0.81435173026E+03  0.00000000000E+00 0. -1.
         25    2    1    2    0    0 -0.39672075073E+02  0.66697978030E+02 -0.28772742860E+03  0.32316353132E+03  0.12500040397E+03 0.  0.
          2    1    1    2  501    0  0.22523262952E+02 -0.79628858726E+01 -0.50553993614E+03  0.50610407226E+03  0.00000000000E+00 0. -1.
          1    1    1    2  502    0  0.17148812121E+02 -0.58735092158E+02  0.30038479312E+03  0.30655328533E+03  0.00000000000E+00 0. -1.
         22    1    3    3    0    0 -0.38440130744E+02  0.99051366719E+02 -0.25874286064E+03  0.27970821374E+03  0.00000000000E+00 0.  1.
         22    1    3    3    0    0 -0.12319443290E+01 -0.32353388688E+02 -0.28984567960E+02  0.43455317583E+02  0.00000000000E+00 0.  1.
</event>
<event>
 7    1  0.5575489E-006  0.3827329E+02  0.7818608E-02  0.1527612E+00
          2   -1    0    0  502    0  0.00000000000E+00  0.00000000000E+00  0.13009569727E+04  0.13009569727E+04  0.00000000000E+00 0. -1.
          1   -1    0    0  501    0 -0.00000000000E+00 -0.00000000000E+00 -0.18929649630E+03  0.18929649630E+03  0.00000000000E+00 0. -1.
         25    2    1    2    0    0 -0.64112438734E+02 -0.37187655233E+02  0.54870367401E+03  0.56762154522E+03  0.12500068090E+03 0.  0.
          2    1    1    2  501    0  0.30063267508E+02  0.23479474488E+02 -0.17735497107E+03  0.18141078121E+03  0.00000000000E+00 0. -1.
          1    1    1    2  502    0  0.34049171226E+02  0.13708180745E+02  0.74031177343E+03  0.74122114255E+03  0.00000000000E+00 0. -1.
         22    1    3    3    0    0 -0.10032406248E+03 -0.28042866351E+02  0.45448719121E+03  0.46627237409E+03  0.00000000000E+00 0. -1.
         22    1    3    3    0    0  0.36211623745E+02 -0.91447888824E+01  0.94216482798E+02  0.10134917113E+03  0.00000000000E+00 0. -1.
</event>
<event>
 7    1  0.5575489E-006  0.4656297E+02  0.7818608E-02  0.1480241E+00
          2   -1    0    0  502    0  0.00000000000E+00  0.00000000000E+00  0.89587612462E+03  0.89587612462E+03  0.00000000000E+00 0. -1.
          1   -1    0    0  501    0 -0.00000000000E+00 -0.00000000000E+00 -0.38160148403E+02  0.38160148403E+02  0.00000000000E+00 0. -1.
         25    2    1    2    0    0 -0.17364949286E+02 -0.27322782024E+02  0.61516376991E+03  0.62856985177E+03  0.12500207542E+03 0.  0.
          2    1    1    2  501    0  0.43579615279E+02 -0.16399001980E+02 -0.10164298386E+02  0.47659449173E+02  0.00000000000E+00 0. -1.
          1    1    1    2  502    0 -0.26214665993E+02  0.43721784004E+02  0.25271650469E+03  0.25780697208E+03  0.00000000000E+00 0. -1.
         22    1    3    3    0    0 -0.39933637872E+02 -0.62686107996E+02  0.50933519276E+03  0.51472962044E+03  0.00000000000E+00 0.  1.
         22    1    3    3    0    0  0.22568688586E+02  0.35363325972E+02  0.10582857715E+03  0.11384023133E+03  0.00000000000E+00 0.  1.
</event>
<event>
 7    1  0.5575489E-006  0.5263421E+02  0.7818608E-02  0.1465014E+00
          2   -1    0    0  502    0  0.00000000000E+00  0.00000000000E+00  0.10421733115E+03  0.10421733115E+03  0.00000000000E+00 0. -1.
          1   -1    0    0  501    0 -0.00000000000E+00 -0.00000000000E+00 -0.27464634097E+04  0.27464634097E+04  0.00000000000E+00 0. -1.
         25    2    1    2    0    0  0.51985767505E+02 -0.47552533707E+02  0.16041823792E+01  0.14349652818E+03  0.12499966685E+03 0.  0.
          2    1    1    2  501    0 -0.52223732678E+02  0.64205431138E+01 -0.26617897077E+04  0.26623097096E+04  0.00000000000E+00 0. -1.
          1    1    1    2  502    0  0.23796517239E+00  0.41131990593E+02  0.17939446787E+02  0.44874503101E+02  0.00000000000E+00 0. -1.
         22    1    3    3    0    0  0.91269745227E+02 -0.46702619279E+02 -0.86455660144E+01  0.10288851662E+03  0.00000000000E+00 0. -1.
         22    1    3    3    0    0 -0.39283977721E+02 -0.84991442847E+00  0.10249748394E+02  0.40608011553E+02  0.00000000000E+00 0. -1.
</event>
<event>
 7    1  0.5575489E-006  0.5086352E+02  0.7818608E-02  0.1503793E+00
          2   -1    0    0  502    0  0.00000000000E+00  0.00000000000E+00  0.70330879291E+03  0.70330879291E+03  0.00000000000E+00 0. -1.
          1   -1    0    0  501    0 -0.00000000000E+00 -0.00000000000E+00 -0.17631524696E+03  0.17631524696E+03  0.00000000000E+00 0. -1.
         25    2    1    2    0    0 -0.31894159112E+00  0.24030219403E+02  0.17677245964E+02  0.12850956636E+03  0.12499868180E+03 0.  0.
          2    1    1    2  501    0 -0.20080170687E+02 -0.49225940923E+02 -0.11461329856E+03  0.12634324169E+03  0.00000000000E+00 0. -1.
          1    1    1    2  502    0  0.20399112278E+02  0.25195721520E+02  0.62392959855E+03  0.62477123182E+03  0.00000000000E+00 0. -1.
         22    1    3    3    0    0 -0.31494961911E+01 -0.48738904609E+02  0.25795825923E+02  0.55234271823E+02  0.00000000000E+00 0. -1.
         22    1    3    3    0    0  0.28305546000E+01  0.72769124012E+02 -0.81185799586E+01  0.73275294536E+02  0.00000000000E+00 0. -1.
</event>
<event>
 7    1  0.5575489E-006  0.8182321E+02  0.7818608E-02  0.1388382E+00
          2   -1    0    0  502    0  0.00000000000E+00  0.00000000000E+00  0.84733644487E+03  0.84733644487E+03  0.00000000000E+00 0. -1.
          1   -1    0    0  501    0 -0.00000000000E+00 -0.00000000000E+00 -0.77885009244E+02  0.77885009244E+02  0.00000000000E+00 0. -1.
         25    2    1    2    0    0 -0.70811426510E+02  0.47712118308E+02  0.82226954271E+02  0.17227625523E+03  0.12500852671E+03 0.  0.
          2    1    1    2  501    0 -0.11498414159E+02 -0.46037320960E+02 -0.11955927090E+02  0.48934575117E+02  0.00000000000E+00 0. -1.
          1    1    1    2  502    0  0.82309840670E+02 -0.16747973487E+01  0.69918040844E+03  0.70401062376E+03  0.00000000000E+00 0. -1.
         22    1    3    3    0    0 -0.95726461316E+02  0.69160082952E+02  0.69463546987E+02  0.13701042599E+03  0.00000000000E+00 0. -1.
         22    1    3    3    0    0  0.24915034805E+02 -0.21447964644E+02  0.12763407284E+02  0.35265829243E+02  0.00000000000E+00 0. -1.
</event>
<event>
 7    1  0.5575489E-006  0.1421125E+03  0.7818608E-02  0.1303315E+00
          2   -1    0    0  502    0  0.00000000000E+00  0.00000000000E+00  0.86864326408E+02  0.86864326408E+02  0.00000000000E+00 0. -1.
          1   -1    0    0  501    0 -0.00000000000E+00 -0.00000000000E+00 -0.84387154048E+03  0.84387154048E+03  0.00000000000E+00 0. -1.
         25    2    1    2    0    0  0.75304781122E+02 -0.12040038199E+03 -0.20280897735E+03  0.27735031223E+03  0.12499860942E+03 0.  0.
          2    1    1    2  501    0 -0.11802482566E+03  0.83034713225E+02 -0.57508071917E+03  0.59291015899E+03  0.00000000000E+00 0. -1.
          1    1    1    2  502    0  0.42720044542E+02  0.37365668761E+02  0.20882482453E+02  0.60475395666E+02  0.00000000000E+00 0. -1.
         22    1    3    3    0    0  0.70386139876E+01  0.68534072444E+00  0.16357085074E+02  0.17820381895E+02  0.00000000000E+00 0.  1.
         22    1    3    3    0    0  0.68266167135E+02 -0.12108572271E+03 -0.21916606243E+03  0.25952993033E+03  0.00000000000E+00 0.  1.
</event>
<event>
 7    1  0.5575489E-006  0.1122614E+03  0.7818608E-02  0.1312515E+00
          2   -1    0    0  502    0  0.00000000000E+00  0.00000000000E+00  0.22367140368E+04  0.22367140368E+04  0.00000000000E+00 0. -1.
          1   -1    0    0  501    0 -0.00000000000E+00 -0.00000000000E+00 -0.24373718757E+03  0.24373718757E+03  0.00000000000E+00 0. -1.
         25    2    1    2    0    0 -0.15170092424E+03 -0.86857986629E+02  0.37380276555E+03  0.43117370622E+03  0.12499910857E+03 0.  0.
          2    1    1    2  501    0  0.57003852077E+02  0.33412762873E+02 -0.20832186221E+03  0.21854942267E+03  0.00000000000E+00 0. -1.
          1    1    1    2  502    0  0.94697072160E+02  0.53445223756E+02  0.18274959459E+04  0.18307280955E+04  0.00000000000E+00 0. -1.
         22    1    3    3    0    0 -0.95556762422E+02 -0.52595235892E+02  0.34031224521E+03  0.35736504855E+03  0.00000000000E+00 0. -1.
         22    1    3    3    0    0 -0.56144161816E+02 -0.34262750737E+02  0.33490520339E+02  0.73808657667E+02  0.00000000000E+00 0. -1.
</event>
<event>
 7    1  0.5575489E-006  0.8923343E+02  0.7818608E-02  0.1398747E+00
          2   -1    0    0  502    0  0.00000000000E+00  0.00000000000E+00  0.60097522709E+03  0.60097522709E+03  0.00000000000E+00 0. -1.
          1   -1    0    0  501    0 -0.00000000000E+00 -0.00000000000E+00 -0.80856990668E+03  0.80856990668E+03  0.00000000000E+00 0. -1.
         25    2    1    2    0    0 -0.12717430227E+02 -0.52551224846E+02 -0.27166507767E+03  0.30389072660E+03  0.12499718007E+03 0.  0.
          2    1    1    2  501    0 -0.30395298924E+02 -0.26081660744E+02 -0.51657478558E+03  0.51812511648E+03  0.00000000000E+00 0. -1.
          1    1    1    2  502    0  0.43112729150E+02  0.78632885590E+02  0.58064518366E+03  0.58752929069E+03  0.00000000000E+00 0. -1.
         22    1    3    3    0    0  0.11595689820E+02 -0.87067307498E+02 -0.22176392270E+03  0.23852549857E+03  0.00000000000E+00 0.  1.
         22    1    3    3    0    0 -0.24313120046E+02  0.34516082653E+02 -0.49901154970E+02  0.65365228030E+02  0.00000000000E+00 0.  1.
</event>
<event>
 7    1  0.5575489E-006  0.1781940E+03  0.7818608E-02  0.1360722E+00
          2   -1    0    0  502    0  0.00000000000E+00  0.00000000000E+00  0.57824388290E+03  0.57824388290E+03  0.00000000000E+00 0. -1.
          1   -1    0    0  501    0 -0.00000000000E+00 -0.00000000000E+00 -0.22852813155E+03  0.22852813155E+03  0.00000000000E+00 0. -1.
         25    2    1    2    0    0  0.10891026423E+03 -0.15544071990E+03  0.46891952747E+03  0.52108893693E+03  0.12499957556E+03 0.  0.
          2    1    1    2  501    0 -0.81633705863E+02  0.15748690217E+03 -0.15844681128E+03  0.23784780489E+03  0.00000000000E+00 0. -1.
          1    1    1    2  502    0 -0.27276558370E+02 -0.20461822644E+01  0.39243035165E+02  0.47835272628E+02  0.00000000000E+00 0. -1.
         22    1    3    3    0    0  0.35764330862E+02 -0.14403722694E+03  0.25912345360E+03  0.29861475904E+03  0.00000000000E+00 0. -1.
         22    1    3    3    0    0  0.73145933371E+02 -0.11403492959E+02  0.20979607386E+03  0.22247417789E+03  0.00000000000E+00 0. -1.
</event>
<event>
 7    1  0.5575489E-006  0.8003000E+02  0.7818608E-02  0.1398972E+00
          2   -1    0    0  502    0  0.00000000000E+00  0.00000000000E+00  0.65881314521E+03  0.65881314521E+03  0.00000000000E+00 0. -1.
          1   -1    0    0  501    0 -0.00000000000E+00 -0.00000000000E+00 -0.88963881701E+02  0.88963881701E+02  0.00000000000E+00 0. -1.
         25    2    1    2    0    0  0.32028109116E+02  0.11144812865E+03  0.41567856024E+03  0.44928897724E+03  0.12500173787E+03 0.  0.
          2    1    1    2  501    0 -0.39752338208E+02 -0.67544490228E+02 -0.47703630773E+02  0.91750438376E+02  0.00000000000E+00 0. -1.
          1    1    1    2  502    0  0.77242290919E+01 -0.43903638417E+02  0.20187433404E+03  0.20673761130E+03  0.00000000000E+00 0. -1.
         22    1    3    3    0    0  0.27955738029E+02 -0.12384432413E+02  0.18435979198E+03  0.18687811631E+03  0.00000000000E+00 0.  1.
         22    1    3    3    0    0  0.40723710870E+01  0.12383256106E+03  0.23131876826E+03  0.26241086093E+03  0.00000000000E+00 0.  1.
</event>
<event>
 7    1  0.5575489E-006  0.7052028E+02  0.7818608E-02  0.1414896E+00
          2   -1    0    0  502    0  0.00000000000E+00  0.00000000000E+00  0.52797909917E+03  0.52797909917E+03  0.00000000000E+00 0. -1.
          1   -1    0    0  501    0 -0.00000000000E+00 -0.00000000000E+00 -0.79871863602E+02  0.79871863602E+02  0.00000000000E+00 0. -1.
         25    2    1    2    0    0  0.36464192182E+02  0.54059298473E-01  0.18465925254E+03  0.22597444620E+03  0.12504307479E+03 0.  0.
          2    1    1    2  501    0  0.39985106751E+02 -0.19876968258E+02 -0.45049563646E+02  0.63430007202E+02  0.00000000000E+00 0. -1.
          1    1    1    2  502    0 -0.76449298933E+02  0.19822908959E+02  0.30849754667E+03  0.31844650937E+03  0.00000000000E+00 0. -1.
         22    1    3    3    0    0  0.34820046905E+02  0.41163852488E+02  0.17580925879E+03  0.18389071182E+03  0.00000000000E+00 0. -1.
         22    1    3    3    0    0  0.16441452769E+01 -0.41109793189E+02  0.88499937500E+01  0.42083734377E+02  0.00000000000E+00 0. -1.
</event>
<event>
 7    1  0.5575489E-006  0.1202552E+03  0.7818608E-02  0.1264943E+00
          2   -1    0    0  502    0  0.00000000000E+00  0.00000000000E+00  0.83819203189E+03  0.83819203189E+03  0.00000000000E+00 0. -1.
          1   -1    0    0  501    0 -0.00000000000E+00 -0.00000000000E+00 -0.30545258387E+04  0.30545258387E+04  0.00000000000E+00 0. -1.
         25    2    1    2    0    0 -0.63518678447E+02  0.12437300853E+03  0.31150243781E+02  0.18999615788E+03  0.12499973825E+03 0.  0.
          2    1    1    2  501    0 -0.50181139708E+02 -0.82314773120E+02 -0.29692656134E+04  0.29708302125E+04  0.00000000000E+00 0. -1.
          1    1    1    2  502    0  0.11369981815E+03 -0.42058235405E+02  0.72178156276E+03  0.73189150026E+03  0.00000000000E+00 0. -1.
         22    1    3    3    0    0 -0.16399936407E+02  0.12556171316E+03  0.53944761422E+02  0.13763988888E+03  0.00000000000E+00 0. -1.
         22    1    3    3    0    0 -0.47118742040E+02 -0.11887046306E+01 -0.22794517640E+02  0.52356269009E+02  0.00000000000E+00 0. -1.
</event>
<event>
 7    1  0.5575489E-006  0.1134265E+03  0.7818608E-02  0.1388692E+00
          2   -1    0    0  502    0  0.00000000000E+00  0.00000000000E+00  0.28058438169E+03  0.28058438169E+03  0.00000000000E+00 0. -1.
          1   -1    0    0  501    0 -0.00000000000E+00 -0.00000000000E+00 -0.14225781072E+04  0.14225781072E+04  0.00000000000E+00 0. -1.
         25    2    1    2    0    0 -0.81189852207E+02 -0.98658278807E+01 -0.82746083429E+02  0.17076604323E+03  0.12500000215E+03 0.  0.
          2    1    1    2  501    0  0.11322466684E+03  0.21683502521E+02 -0.12920100042E+04  0.12971429568E+04  0.00000000000E+00 0. -1.
          1    1    1    2  502    0 -0.32034814635E+02 -0.11817674640E+02  0.23276236213E+03  0.23525348883E+03  0.00000000000E+00 0. -1.
         22    1    3    3    0    0 -0.43524682621E+02 -0.63391403152E+02 -0.70210514076E+02  0.10412677023E+03  0.00000000000E+00 0. -1.
         22    1    3    3    0    0 -0.37665169586E+02  0.53525575272E+02 -0.12535569353E+02  0.66639273009E+02  0.00000000000E+00 0. -1.
</event>
<event>
 7    1  0.5575489E-006  0.1632945E+03  0.7818608E-02  0.1370536E+00
          2   -1    0    0  502    0  0.00000000000E+00  0.00000000000E+00  0.16364207558E+04  0.16364207558E+04  0.00000000000E+00 0. -1.
          1   -1    0    0  501    0 -0.00000000000E+00 -0.00000000000E+00 -0.86611166014E+03  0.86611166014E+03  0.00000000000E+00 0. -1.
         25    2    1    2    0    0 -0.11962521648E+03  0.81341162984E+02  0.12025468424E+03  0.22586022607E+03  0.12500030171E+03 0.  0.
          2    1    1    2  501    0  0.14630106014E+03 -0.74637089028E+02 -0.80488592809E+03  0.82147188174E+03  0.00000000000E+00 0. -1.
          1    1    1    2  502    0 -0.26675843669E+02 -0.67040739562E+01  0.14549403395E+04  0.14552003081E+04  0.00000000000E+00 0. -1.
         22    1    3    3    0    0 -0.18298007371E+02  0.38321520647E+02 -0.20513132962E+02  0.47160838016E+02  0.00000000000E+00 0. -1.
         22    1    3    3    0    0 -0.10132720910E+03  0.43019642337E+02  0.14076781720E+03  0.17869938805E+03  0.00000000000E+00 0. -1.
</event>
<event>
 7    1  0.5575489E-006  0.2294869E+03  0.7818608E-02  0.1202310E+00
          2   -1    0    0  502    0  0.00000000000E+00  0.00000000000E+00  0.13802107290E+04  0.13802107290E+04  0.00000000000E+00 0. -1.
          1   -1    0    0  501    0 -0.00000000000E+00 -0.00000000000E+00 -0.47031920547E+03  0.47031920547E+03  0.00000000000E+00 0. -1.
         25    2    1    2    0    0  0.24908248577E+03 -0.65302769510E+02 -0.25828439320E+03  0.38554337505E+03  0.12500531931E+03 0.  0.
          2    1    1    2  501    0 -0.20434862601E+03 -0.19765587294E+02 -0.74647664383E+02  0.21845208443E+03  0.00000000000E+00 0. -1.
          1    1    1    2  502    0 -0.44733859754E+02  0.85068356804E+02  0.12428235811E+04  0.12465344750E+04  0.00000000000E+00 0. -1.
         22    1    3    3    0    0  0.20906513825E+02 -0.43304830141E+02 -0.86927555330E+02  0.99341786321E+02  0.00000000000E+00 0.  1.
         22    1    3    3    0    0  0.22817597194E+03 -0.21997939369E+02 -0.17135683787E+03  0.28620158873E+03  0.00000000000E+00 0.  1.
</event>
<event>
 7    1  0.5575489E-006  0.7084928E+02  0.7818608E-02  0.1447845E+00
          2   -1    0    0  502    0  0.00000000000E+00  0.00000000000E+00  0.23330833849E+04  0.23330833849E+04  0.00000000000E+00 0. -1.
          1   -1    0    0  501    0 -0.00000000000E+00 -0.00000000000E+00 -0.17861640396E+02  0.17861640396E+02  0.00000000000E+00 0. -1.
         25    2    1    2    0    0  0.59275547436E+02 -0.28655311358E+02  0.80576118958E+03  0.81805324507E+03  0.12500119894E+03 0.  0.
          2    1    1    2  501    0  0.13230948440E+02  0.32011687900E+02  0.16853166859E+02  0.38520584004E+02  0.00000000000E+00 0. -1.
          1    1    1    2  502    0 -0.72506495876E+02 -0.33563765416E+01  0.14926073881E+04  0.14943711962E+04  0.00000000000E+00 0. -1.
         22    1    3    3    0    0  0.46333331437E+02 -0.25426395378E+02  0.80260858959E+03  0.80434683270E+03  0.00000000000E+00 0.  1.
         22    1    3    3    0    0  0.12942215999E+02 -0.32289159796E+01  0.31525999907E+01  0.13706412371E+02  0.00000000000E+00 0.  1.
</event>
<event>
 7    1  0.5575489E-006  0.1105606E+03  0.7818608E-02  0.1404603E+00
          2   -1    0    0  502    0  0.00000000000E+00  0.00000000000E+00  0.26221781008E+03  0.26221781008E+03  0.00000000000E+00 0. -1.
          1   -1    0    0  501    0 -0.00000000000E+00 -0.00000000000E+00 -0.52297235545E+03  0.52297235545E+03  0.00000000000E+00 0. -1.
         25    2    1    2    0    0 -0.37540153013E+02 -0.73088137202E+02 -0.12808281947E+03  0.19693075808E+03  0.12500150379E+03 0.  0.
          2    1    1    2  501    0 -0.14995900767E+02 -0.26976657810E+02 -0.34571747011E+03  0.34709247506E+03  0.00000000000E+00 0. -1.
          1    1    1    2  502    0  0.52536053780E+02  0.10006479501E+03  0.21304574421E+03  0.24116693238E+03  0.00000000000E+00 0. -1.
         22    1    3    3    0    0 -0.41187314040E+01 -0.73669621287E+02 -0.10304261747E+02  0.74500703749E+02  0.00000000000E+00 0.  1.
         22    1    3    3    0    0 -0.33421421609E+02  0.58148408524E+00 -0.11777855772E+03  0.12243005434E+03  0.00000000000E+00 0.  1.
</event>
<event>
 7    1  0.5575489E-006  0.5621014E+02  0.7818608E-02  0.1468354E+00
          2   -1    0    0  502    0  0.00000000000E+00  0.00000000000E+00  0.30298855720E+04  0.30298855720E+04  0.00000000000E+00 0. -1.
          1   -1    0    0  501    0 -0.00000000000E+00 -0.00000000000E+00 -0.27248306177E+02  0.27248306177E+02  0.00000000000E+00 0. -1.
         25    2    1    2    0    0 -0.10001436791E+01 -0.33252086291E+02  0.57066864652E+03  0.58514442733E+03  0.12499838073E+03 0.  0.
          2    1    1    2  501    0  0.36531832363E+02  0.45554153985E+02  0.23050724824E+02  0.62778114308E+02  0.00000000000E+00 0. -1.
          1    1    1    2  502    0 -0.35531688684E+02 -0.12302067695E+02  0.24089178945E+04  0.24092113366E+04  0.00000000000E+00 0. -1.
         22    1    3    3    0    0  0.38515714208E+02  0.29071031005E+02  0.13719046627E+03  0.14542973946E+03  0.00000000000E+00 0.  1.
         22    1    3    3    0    0 -0.39515857888E+02 -0.62323117295E+02  0.43347818025E+03  0.43971468787E+03  0.00000000000E+00 0.  1.
</event>
<event>
 7    1  0.5575489E-006  0.1268678E+03  0.7818608E-02  0.1302574E+00
          2   -1    0    0  502    0  0.00000000000E+00  0.00000000000E+00  0.43697396661E+03  0.43697396661E+03  0.00000000000E+00 0. -1.
          1   -1    0    0  501    0 -0.00000000000E+00 -0.00000000000E+00 -0.32939229634E+03  0.32939229634E+03  0.00000000000E+00 0. -1.
         25    2    1    2    0    0 -0.41352329871E+02 -0.11431688887E+03 -0.33155515788E+02  0.17749028928E+03  0.12500059318E+03 0.  0.
          2    1    1    2  501    0  0.99080607247E+02  0.86665293997E+02 -0.20150971269E+03  0.24069483631E+03  0.00000000000E+00 0. -1.
          1    1    1    2  502    0 -0.57728277376E+02  0.27651594876E+02  0.34224689875E+03  0.34818113736E+03  0.00000000000E+00 0. -1.
         22    1    3    3    0    0 -0.11878898292E+01 -0.23845912970E+02 -0.68376544945E+02  0.72425068493E+02  0.00000000000E+00 0. -1.
         22    1    3    3    0    0 -0.40164440042E+02 -0.90470975903E+02  0.35221029157E+02  0.10506522079E+03  0.00000000000E+00 0. -1.
</event>
<event>
 7    1  0.5575489E-006  0.5305486E+02  0.7818608E-02  0.1472540E+00
          2   -1    0    0  502    0  0.00000000000E+00  0.00000000000E+00  0.99547831018E+03  0.99547831018E+03  0.00000000000E+00 0. -1.
          1   -1    0    0  501    0 -0.00000000000E+00 -0.00000000000E+00 -0.11119034187E+04  0.11119034187E+04  0.00000000000E+00 0. -1.
         25    2    1    2    0    0  0.45838385550E+02  0.12670268017E+01  0.48826098838E+03  0.50608821150E+03  0.12499488827E+03 0.  0.
          2    1    1    2  501    0 -0.38380889494E+02  0.36668232797E+02 -0.11015998763E+04  0.11028780257E+04  0.00000000000E+00 0. -1.
          1    1    1    2  502    0 -0.74574960558E+01 -0.37935259599E+02  0.49691377944E+03  0.49841549170E+03  0.00000000000E+00 0. -1.
         22    1    3    3    0    0  0.68947549948E+02  0.43197820864E+02  0.24487690897E+03  0.25803975840E+03  0.00000000000E+00 0.  1.
         22    1    3    3    0    0 -0.23109164398E+02 -0.41930794062E+02  0.24338407942E+03  0.24804845310E+03  0.00000000000E+00 0.  1.
</event>
<event>
 7    1  0.5575489E-006  0.3742712E+02  0.7818608E-02  0.1604250E+00
          2   -1    0    0  502    0  0.00000000000E+00  0.00000000000E+00  0.27085851688E+03  0.27085851688E+03  0.00000000000E+00 0. -1.
          1   -1    0    0  501    0 -0.00000000000E+00 -0.00000000000E+00 -0.23263246708E+03  0.23263246708E+03  0.00000000000E+00 0. -1.
         25    2    1    2    0    0 -0.20584132827E+00 -0.16290996046E+02 -0.99139257437E+01  0.12644518772E+03  0.12499864260E+03 0.  0.
          2    1    1    2  501    0 -0.10697070213E+02  0.36738746879E+02 -0.16158025308E+03  0.16604921264E+03  0.00000000000E+00 0. -1.
          1    1    1    2  502    0  0.10902911541E+02 -0.20447750833E+02  0.20972022863E+03  0.21099658360E+03  0.00000000000E+00 0. -1.
         22    1    3    3    0    0 -0.56710553583E+02 -0.31238756714E+02 -0.18578428693E+02  0.67358034572E+02  0.00000000000E+00 0.  1.
         22    1    3    3    0    0  0.56504712255E+02  0.14947760669E+02  0.86645029495E+01  0.59087153150E+02  0.00000000000E+00 0.  1.
</event>
<event>
 7    1  0.5575489E-006  0.7492763E+02  0.7818608E-02  0.1497981E+00
          2   -1    0    0  502    0  0.00000000000E+00  0.00000000000E+00  0.12776911951E+04  0.12776911951E+04  0.00000000000E+00 0. -1.
          1   -1    0    0  501    0 -0.00000000000E+00 -0.00000000000E+00 -0.69048606117E+03  0.69048606117E+03  0.00000000000E+00 0. -1.
         25    2    1    2    0    0 -0.70580318293E+02  0.37438060975E+02  0.26315088208E+03  0.30209244490E+03  0.12501307445E+03 0.  0.
          2    1    1    2  501    0  0.73455572229E+02 -0.14717009302E+02 -0.66879183507E+03  0.67297461327E+03  0.00000000000E+00 0. -1.
          1    1    1    2  502    0 -0.28752539359E+01 -0.22721051674E+02  0.99284608692E+03  0.99311019811E+03  0.00000000000E+00 0. -1.
         22    1    3    3    0    0  0.29717282565E+02  0.25145257163E+02  0.12506237934E+03  0.13098091299E+03  0.00000000000E+00 0. -1.
         22    1    3    3    0    0 -0.10029760086E+03  0.12292803813E+02  0.13808850274E+03  0.17111153191E+03  0.00000000000E+00 0. -1.
</event>
<event>
 7    1  0.5575489E-006  0.2541771E+03  0.7818608E-02  0.1184060E+00
          2   -1    0    0  502    0  0.00000000000E+00  0.00000000000E+00  0.28276175219E+04  0.28276175219E+04  0.00000000000E+00 0. -1.
          1   -1    0    0  501    0 -0.00000000000E+00 -0.00000000000E+00 -0.13457798066E+03  0.13457798066E+03  0.00000000000E+00 0. -1.
         25    2    1    2    0    0 -0.24667117525E+02  0.19093982106E+03  0.80413712911E+03  0.83625780660E+03  0.12499645889E+03 0.  0.
          2    1    1    2  501    0 -0.54180532804E+02 -0.26185124434E+03  0.35777058575E+02  0.26978065575E+03  0.00000000000E+00 0. -1.
          1    1    1    2  502    0  0.78847650329E+02  0.70911423281E+02  0.18531253536E+04  0.18561570402E+04  0.00000000000E+00 0. -1.
         22    1    3    3    0    0  0.42719541413E+02  0.13299385086E+03  0.45298973021E+03  0.47403799348E+03  0.00000000000E+00 0.  1.
         22    1    3    3    0    0 -0.67386658938E+02  0.57945970198E+02  0.35114739890E+03  0.36221981312E+03  0.00000000000E+00 0.  1.
</event>
<event>
 7    1  0.5575489E-006  0.6402225E+02  0.7818608E-02  0.1411543E+00
          2   -1    0    0  502    0  0.00000000000E+00  0.00000000000E+00  0.47584546198E+02  0.47584546198E+02  0.00000000000E+00 0. -1.
          1   -1    0    0  501    0 -0.00000000000E+00 -0.00000000000E+00 -0.18359756812E+04  0.18359756812E+04  0.00000000000E+00 0. -1.
         25    2    1    2    0    0  0.22040918668E+02  0.15683950424E+02 -0.87807287293E+03  0.88733822049E+03  0.12500143584E+03 0.  0.
          2    1    1    2  501    0 -0.70108899637E+02 -0.31111332040E+02 -0.93630613184E+03  0.93944257159E+03  0.00000000000E+00 0. -1.
          1    1    1    2  502    0  0.48067980969E+02  0.15427381615E+02  0.25987869785E+02  0.56779435308E+02  0.00000000000E+00 0. -1.
         22    1    3    3    0    0 -0.49834585977E+02 -0.51258376825E+01 -0.26284850082E+03  0.26758007129E+03  0.00000000000E+00 0. -1.
         22    1    3    3    0    0  0.71875504645E+02  0.20809788107E+02 -0.61522437211E+03  0.61975814919E+03  0.00000000000E+00 0. -1.
</event>
<event>
 7    1  0.5575489E-006  0.2725916E+03  0.7818608E-02  0.1224564E+00
          2   -1    0    0  502    0  0.00000000000E+00  0.00000000000E+00  0.11763884907E+04  0.11763884907E+04  0.00000000000E+00 0. -1.
          1   -1    0    0  501    0 -0.00000000000E+00 -0.00000000000E+00 -0.14530726821E+04  0.14530726821E+04  0.00000000000E+00 0. -1.
         25    2    1    2    0    0 -0.17785862897E+03  0.19786782519E+03  0.44342353126E+03  0.53200952145E+03  0.12499733875E+03 0.  0.
          2    1    1    2  501    0  0.12989721434E+03 -0.24007559488E+03 -0.13940323297E+04  0.14205054430E+04  0.00000000000E+00 0. -1.
          1    1    1    2  502    0  0.47961414634E+02  0.42207769691E+02  0.67392460693E+03  0.67694620831E+03  0.00000000000E+00 0. -1.
         22    1    3    3    0    0 -0.95086417943E+02  0.58873576853E+02  0.28248087584E+03  0.30381403875E+03  0.00000000000E+00 0.  1.
         22    1    3    3    0    0 -0.82772211030E+02  0.13899424834E+03  0.16094265542E+03  0.22819548270E+03  0.00000000000E+00 0.  1.
</event>
<event>
 7    1  0.5575489E-006  0.1387493E+03  0.7818608E-02  0.1305104E+00
          2   -1    0    0  502    0  0.00000000000E+00  0.00000000000E+00  0.80181631644E+03  0.80181631644E+03  0.00000000000E+00 0. -1.
          1   -1    0    0  501    0 -0.00000000000E+00 -0.00000000000E+00 -0.59629536298E+03  0.59629536298E+03  0.00000000000E+00 0. -1.
         25    2    1    2    0    0  0.13736379297E+03 -0.10564962063E+03  0.16615103112E+03  0.27066907339E+03  0.12499971275E+03 0.  0.
          2    1    1    2  501    0 -0.57143304414E+02 -0.22274932562E+01 -0.53474697096E+03  0.53779609697E+03  0.00000000000E+00 0. -1.
          1    1    1    2  502    0 -0.80220488561E+02  0.10787711388E+03  0.57411689330E+03  0.58964650907E+03  0.00000000000E+00 0. -1.
         22    1    3    3    0    0  0.13421377425E+03 -0.55827326373E+02  0.16613049177E+03  0.22074729413E+03  0.00000000000E+00 0. -1.
         22    1    3    3    0    0  0.31500187204E+01 -0.49822294252E+02  0.20539351406E-01  0.49921779258E+02  0.00000000000E+00 0. -1.
</event>
<event>
 7    1  0.5575489E-006  0.7231911E+02  0.7818608E-02  0.1387633E+00
          2   -1    0    0  502    0  0.00000000000E+00  0.00000000000E+00  0.23022530778E+04  0.23022530778E+04  0.00000000000E+00 0. -1.
          1   -1    0    0  501    0 -0.00000000000E+00 -0.00000000000E+00 -0.31335370599E+03  0.31335370599E+03  0.00000000000E+00 0. -1.
         25    2    1    2    0    0  0.31776070401E+01 -0.11883306705E+03 -0.92296439783E+02  0.19564068242E+03  0.12500099523E+03 0.  0.
          2    1    1    2  501    0 -0.11770291735E+02  0.65507970502E+02 -0.16250944875E+03  0.17561080519E+03  0.00000000000E+00 0. -1.
          1    1    1    2  502    0  0.85926846949E+01  0.53325096549E+02  0.22437052604E+04  0.22443552962E+04  0.00000000000E+00 0. -1.
         22    1    3    3    0    0  0.38620739977E+02  0.91436325310E+01 -0.22456794958E+02  0.45601263273E+02  0.00000000000E+00 0. -1.
         22    1    3    3    0    0 -0.35443132937E+02 -0.12797669958E+03 -0.69839644824E+02  0.15003941915E+03  0.00000000000E+00 0. -1.
</event>
<event>
 7    1  0.5575489E-006  0.1014184E+03  0.7818608E-02  0.1454494E+00
          2   -1    0    0  502    0  0.00000000000E+00  0.00000000000E+00  0.54072849595E+03  0.54072849595E+03  0.00000000000E+00 0. -1.
          1   -1    0    0  501    0 -0.00000000000E+00 -0.00000000000E+00 -0.11430626716E+03  0.11430626716E+03  0.00000000000E+00 0. -1.
         25    2    1    2    0    0  0.63642685852E+02 -0.60305816952E+02  0.26631582779E+03  0.30697770694E+03  0.12499603754E+03 0.  0.
          2    1    1    2  501    0  0.10079729627E+02 -0.20721181695E+02 -0.80475125203E+02  0.83709104025E+02  0.00000000000E+00 0. -1.
          1    1    1    2  502    0 -0.73722415479E+02  0.81026998647E+02  0.24058152620E+03  0.26434795215E+03  0.00000000000E+00 0. -1.
         22    1    3    3    0    0  0.45819270819E+02 -0.97360606195E+02  0.15838098703E+03  0.19147592609E+03  0.00000000000E+00 0. -1.
         22    1    3    3    0    0  0.17823415033E+02  0.37054789242E+02  0.10793484076E+03  0.11550178085E+03  0.00000000000E+00 0. -1.
</event>
<event>
 7    1  0.5575489E-006  0.8334617E+02  0.7818608E-02  0.1339826E+00
          2   -1    0    0  502    0  0.00000000000E+00  0.00000000000E+00  0.15286367407E+03  0.15286367407E+03  0.00000000000E+00 0. -1.
          1   -1    0    0  501    0 -0.00000000000E+00 -0.00000000000E+00 -0.12227418196E+04  0.12227418196E+04  0.00000000000E+00 0. -1.
         25    2    1    2    0    0  0.10643346330E+03  0.47530260100E+02 -0.10761258462E+03  0.20197058010E+03  0.12499775647E+03 0.  0.
          2    1    1    2  501    0 -0.41006133567E+02 -0.72102976074E+02 -0.10545863184E+04  0.10578433935E+04  0.00000000000E+00 0. -1.
          1    1    1    2  502    0 -0.65427329730E+02  0.24572715974E+02  0.92320757531E+02  0.11579152006E+03  0.00000000000E+00 0. -1.
         22    1    3    3    0    0  0.55819144471E+02  0.38964293980E+02  0.14416910974E+02  0.69583334333E+02  0.00000000000E+00 0.  1.
         22    1    3    3    0    0  0.50614318826E+02  0.85659661202E+01 -0.12202949560E+03  0.13238724577E+03  0.00000000000E+00 0.  1.
</event>
<event>
 7    1  0.5575489E-006  0.9734255E+02  0.7818608E-02  0.1367996E+00
          2   -1    0    0  502    0  0.00000000000E+00  0.00000000000E+00  0.18068624063E+03  0.18068624063E+03  0.00000000000E+00 0. -1.
          1   -1    0    0  501    0 -0.00000000000E+00 -0.00000000000E+00 -0.37906293689E+03  0.37906293689E+03  0.00000000000E+00 0. -1.
         25    2    1    2    0    0  0.56399409309E+02 -0.68525478539E+02 -0.75863678340E+02  0.17104935657E+03  0.12500380039E+03 0.  0.
          2    1    1    2  501    0 -0.20414903544E+02  0.98949487303E+02 -0.24092719563E+03  0.26125405818E+03  0.00000000000E+00 0. -1.
          1    1    1    2  502    0 -0.35984505765E+02 -0.30424008764E+02  0.11841417771E+03  0.12744576276E+03  0.00000000000E+00 0. -1.
         22    1    3    3    0    0  0.18480035848E+02 -0.86580515451E+02 -0.90473320840E+02  0.12658245994E+03  0.00000000000E+00 0.  1.
         22    1    3    3    0    0  0.37919373461E+02  0.18055036912E+02  0.14609642500E+02  0.44466896626E+02  0.00000000000E+00 0.  1.
</event>
<event>
 7    1  0.5575489E-006  0.8993172E+02  0.7818608E-02  0.1398446E+00
          2   -1    0    0  502    0  0.00000000000E+00  0.00000000000E+00  0.66096327698E+03  0.66096327698E+03  0.00000000000E+00 0. -1.
          1   -1    0    0  501    0 -0.00000000000E+00 -0.00000000000E+00 -0.43442274132E+03  0.43442274132E+03  0.00000000000E+00 0. -1.
         25    2    1    2    0    0  0.56755790439E+02  0.10840129279E+03 -0.29020255098E+03  0.33884713890E+03  0.12501121115E+03 0.  0.
          2    1    1    2  501    0 -0.33277319085E+02 -0.21897571281E+02 -0.11332733790E+03  0.12012480639E+03  0.00000000000E+00 0. -1.
          1    1    1    2  502    0 -0.23478471354E+02 -0.86503721514E+02  0.63007042454E+03  0.63641407301E+03  0.00000000000E+00 0. -1.
         22    1    3    3    0    0  0.47353363854E+02  0.67162456303E+02 -0.52736646566E+02  0.97643691532E+02  0.00000000000E+00 0.  1.
         22    1    3    3    0    0  0.94024265856E+01  0.41238836491E+02 -0.23746590441E+03  0.24120344736E+03  0.00000000000E+00 0.  1.
</event>
<event>
 7    1  0.5575489E-006  0.1252826E+03  0.7818608E-02  0.1260451E+00
          2   -1    0    0  502    0  0.00000000000E+00  0.00000000000E+00  0.55973225220E+03  0.55973225220E+03  0.00000000000E+00 0. -1.
          1   -1    0    0  501    0 -0.00000000000E+00 -0.00000000000E+00 -0.14988597107E+03  0.14988597107E+03  0.00000000000E+00 0. -1.
         25    2    1    2    0    0  0.89541517832E+02  0.22586920118E+02 -0.19452070970E+01  0.15542537356E+03  0.12500164215E+03 0.  0.
          2    1    1    2  501    0 -0.18391273590E+03 -0.15191883727E+01  0.66426506727E+02  0.19554713794E+03  0.00000000000E+00 0. -1.
          1    1    1    2  502    0  0.94371218070E+02 -0.21067731746E+02  0.34536498150E+03  0.35864571176E+03  0.00000000000E+00 0. -1.
         22    1    3    3    0    0  0.92532137088E+02 -0.50097386052E+01 -0.45921002449E+02  0.10342162415E+03  0.00000000000E+00 0.  1.
         22    1    3    3    0    0 -0.29906192564E+01  0.27596658723E+02  0.43975795352E+02  0.52003749414E+02  0.00000000000E+00 0.  1.
</event>
<event>
 7    1  0.7141375E-006  0.4868492E+02  0.7818608E-02  0.1469379E+00
          2   -1    0    0  502    0  0.00000000000E+00  0.00000000000E+00  0.10153975523E+04  0.10153975523E+04  0.00000000000E+00 0. -1.
          1   -1    0    0  501    0 -0.00000000000E+00 -0.00000000000E+00 -0.10210715542E+04  0.10210715542E+04  0.00000000000E+00 0. -1.
         25    2    1    2    0    0  0.40864584740E+02 -0.71562923804E+01 -0.69334499209E+02  0.14884014034E+03  0.12499995116E+03 0.  0.
          2    1    1    2  501    0 -0.19985018958E+02  0.44855465022E+02 -0.91084664503E+03  0.91216940559E+03  0.00000000000E+00 0. -1.
          1    1    1    2  502    0 -0.20879565783E+02 -0.37699172642E+02  0.97450714237E+03  0.97545956062E+03  0.00000000000E+00 0. -1.
         22    1    3    3    0    0  0.43536284214E+01 -0.93858975649E+01  0.35935867520E+02  0.37395664561E+02  0.00000000000E+00 0. -1.
         22    1    3    3    0    0  0.36510956319E+02  0.22296051845E+01 -0.10527036673E+03  0.11144447578E+03  0.00000000000E+00 0. -1.
</event>
<event>
 7    1  0.5575489E-006  0.3307330E+02  0.7818608E-02  0.1602000E+00
          2   -1    0    0  502    0  0.00000000000E+00  0.00000000000E+00  0.17861834731E+04  0.17861834731E+04  0.00000000000E+00 0. -1.
          1   -1    0    0  501    0 -0.00000000000E+00 -0.00000000000E+00 -0.14339295809E+02  0.14339295809E+02  0.00000000000E+00 0. -1.
         25    2    1    2    0    0 -0.50952197956E+02 -0.22275222239E+02  0.48155740139E+03  0.50061483391E+03  0.12500147640E+03 0.  0.
          2    1    1    2  501    0  0.26572909474E+02  0.58581177103E+00  0.33806327139E+02  0.43003842247E+02  0.00000000000E+00 0. -1.
          1    1    1    2  502    0  0.24379288481E+02  0.21689410468E+02  0.12564804487E+04  0.12569040927E+04  0.00000000000E+00 0. -1.
         22    1    3    3    0    0  0.11547322134E+02  0.25061651488E+02  0.24559861000E+02  0.36940679421E+02  0.00000000000E+00 0. -1.
         22    1    3    3    0    0 -0.62499520090E+02 -0.47336873727E+02  0.45699754039E+03  0.46367415449E+03  0.00000000000E+00 0. -1.
</event>
<event>
 7    1  0.5575489E-006  0.1003647E+03  0.7818608E-02  0.1432677E+00
          2   -1    0    0  502    0  0.00000000000E+00  0.00000000000E+00  0.97366808802E+03  0.97366808802E+03  0.00000000000E+00 0. -1.
          1   -1    0    0  501    0 -0.00000000000E+00 -0.00000000000E+00 -0.43351848126E+03  0.43351848126E+03  0.00000000000E+00 0. -1.
         25    2    1    2    0    0 -0.67590792816E+02  0.10466073957E+03  0.28624653469E+03  0.33628164738E+03  0.12500352819E+03 0.  0.
          2    1    1    2  501    0  0.44987155022E+02 -0.89200111127E+02 -0.40210296550E+03  0.41432752601E+03  0.00000000000E+00 0. -1.
          1    1    1    2  502    0  0.22603637794E+02 -0.15460628439E+02  0.65600603757E+03  0.65657739589E+03  0.00000000000E+00 0. -1.
         22    1    3    3    0    0 -0.10271996085E+02  0.10799172408E+03  0.23697124360E+03  0.26062059909E+03  0.00000000000E+00 0.  1.
         22    1    3    3    0    0 -0.57318796731E+02 -0.33309845173E+01  0.49275291086E+02  0.75661048289E+02  0.00000000000E+00 0.  1.
</event>
<event>
 7    1  0.5575489E-006  0.6673693E+02  0.7818608E-02  0.1508407E+00
          2   -1    0    0  502    0  0.00000000000E+00  0.00000000000E+00  0.16647136037E+03  0.16647136037E+03  0.00000000000E+00 0. -1.
          1   -1    0    0  501    0 -0.00000000000E+00 -0.00000000000E+00 -0.71357918061E+03  0.71357918061E+03  0.00000000000E+00 0. -1.
         25    2    1    2    0    0 -0.14940032618E+02  0.48818550229E+02 -0.73858518425E+02  0.15390479618E+03  0.12500060049E+03 0.  0.
          2    1    1    2  501    0 -0.22522082315E+02  0.81249540112E+01 -0.59025163172E+03  0.59073703779E+03  0.00000000000E+00 0. -1.
          1    1    1    2  502    0  0.37462114933E+02 -0.56943504240E+02  0.11700232990E+03  0.13540870701E+03  0.00000000000E+00 0. -1.
         22    1    3    3    0    0  0.48317379260E+02  0.52343808322E+02 -0.45230174584E+02  0.84381349249E+02  0.00000000000E+00 0.  1.
         22    1    3    3    0    0 -0.63257411878E+02 -0.35252580938E+01 -0.28628343841E+02  0.69523446931E+02  0.00000000000E+00 0.  1.
</event>
<event>
 7    1  0.5575489E-006  0.1084908E+03  0.7818608E-02  0.1297828E+00
          2   -1    0    0  502    0  0.00000000000E+00  0.00000000000E+00  0.13958962536E+03  0.13958962536E+03  0.00000000000E+00 0. -1.
          1   -1    0    0  501    0 -0.00000000000E+00 -0.00000000000E+00 -0.16726180958E+04  0.16726180958E+04  0.00000000000E+00 0. -1.
         25    2    1    2    0    0 -0.42460949044E+02  0.41684676792E+02 -0.53159087283E+03  0.54932370127E+03  0.12500851261E+03 0.  0.
          2    1    1    2  501    0  0.11982702214E+03 -0.53057692533E+02 -0.11162802643E+04  0.11239462898E+04  0.00000000000E+00 0. -1.
          1    1    1    2  502    0 -0.77366073099E+02  0.11373015740E+02  0.11484266667E+03  0.13893773008E+03  0.00000000000E+00 0. -1.
         22    1    3    3    0    0  0.40364215137E+02  0.30262839002E+02 -0.13753770509E+03  0.14649822392E+03  0.00000000000E+00 0. -1.
         22    1    3    3    0    0 -0.82825164181E+02  0.11421837790E+02 -0.39405316774E+03  0.40282547736E+03  0.00000000000E+00 0. -1.
</event>
<event>
 7    1  0.5575489E-006  0.4410660E+02  0.7818608E-02  0.1547588E+00
          2   -1    0    0  502    0  0.00000000000E+00  0.00000000000E+00  0.13445854042E+03  0.13445854042E+03  0.00000000000E+00 0. -1.
          1   -1    0    0  501    0 -0.00000000000E+00 -0.00000000000E+00 -0.58395379041E+03  0.58395379041E+03  0.00000000000E+00 0. -1.
         25    2    1    2    0    0 -0.18097368667E+02 -0.94303781248E+01 -0.28995722373E+03  0.31641300535E+03  0.12500220627E+03 0.  0.
          2    1    1    2  501    0  0.45614365741E+02  0.14361621770E+02 -0.27708110924E+03  0.28117764428E+03  0.00000000000E+00 0. -1.
          1    1    1    2  502    0 -0.27516997074E+02 -0.49312436455E+01  0.11754308299E+03  0.12082168121E+03  0.00000000000E+00 0. -1.
         22    1    3    3    0    0 -0.42125111204E+02 -0.22984890763E+02 -0.33613783609E+02  0.58589390215E+02  0.00000000000E+00 0. -1.
         22    1    3    3    0    0  0.24027742537E+02  0.13554512638E+02 -0.25634344012E+03  0.25782361513E+03  0.00000000000E+00 0. -1.
</event>
<event>
 7    1  0.5575489E-006  0.8166041E+02  0.7818608E-02  0.1491388E+00
          2   -1    0    0  502    0  0.00000000000E+00  0.00000000000E+00  0.28325561677E+03  0.28325561677E+03  0.00000000000E+00 0. -1.
          1   -1    0    0  501    0 -0.00000000000E+00 -0.00000000000E+00 -0.19766044299E+03  0.19766044299E+03  0.00000000000E+00 0. -1.
         25    2    1    2    0    0 -0.16257260716E+02  0.86518769185E+02 -0.86265259823E+02  0.17554703075E+03  0.12500107602E+03 0.  0.
          2    1    1    2  501    0 -0.44185731480E+01 -0.79015536839E+02 -0.42536931060E+02  0.89846365284E+02  0.00000000000E+00 0. -1.
          1    1    1    2  502    0  0.20675833864E+02 -0.75032323452E+01  0.21439736467E+03  0.21552266373E+03  0.00000000000E+00 0. -1.
         22    1    3    3    0    0 -0.15709349257E+01  0.87525838285E+02  0.50048656082E+00  0.87541365598E+02  0.00000000000E+00 0.  1.
         22    1    3    3    0    0 -0.14686325790E+02 -0.10070691002E+01 -0.86765746383E+02  0.88005665152E+02  0.00000000000E+00 0.  1.
</event>
<event>
 7    1  0.5575489E-006  0.6077185E+02  0.7818608E-02  0.1532486E+00
          2   -1    0    0  502    0  0.00000000000E+00  0.00000000000E+00  0.26091337167E+03  0.26091337167E+03  0.00000000000E+00 0. -1.
          1   -1    0    0  501    0 -0.00000000000E+00 -0.00000000000E+00 -0.10817190877E+04  0.10817190877E+04  0.00000000000E+00 0. -1.
         25    2    1    2    0    0  0.21092950464E+02 -0.75449908639E+02 -0.26992693061E+03  0.30761014199E+03  0.12500340119E+03 0.  0.
          2    1    1    2  501    0 -0.53313662652E+01  0.59554750734E+02 -0.79130271453E+03  0.79355855349E+03  0.00000000000E+00 0. -1.
          1    1    1    2  502    0 -0.15761584199E+02  0.15895157904E+02  0.24042392911E+03  0.24146376389E+03  0.00000000000E+00 0. -1.
         22    1    3    3    0    0  0.65568912586E+02 -0.35177943984E+02 -0.83880294142E+02  0.11212793490E+03  0.00000000000E+00 0. -1.
         22    1    3    3    0    0 -0.44475962121E+02 -0.40271964655E+02 -0.18604663647E+03  0.19548220708E+03  0.00000000000E+00 0. -1.
</event>
<event>
 7    1  0.5575489E-006  0.3034598E+02  0.7818608E-02  0.1596723E+00
          2   -1    0    0  502    0  0.00000000000E+00  0.00000000000E+00  0.16383733408E+04  0.16383733408E+04  0.00000000000E+00 0. -1.
          1   -1    0    0  501    0 -0.00000000000E+00 -0.00000000000E+00 -0.57556449321E+03  0.57556449321E+03  0.00000000000E+00 0. -1.
         25    2    1    2    0    0 -0.33238226168E+02  0.21189685779E+02 -0.17183536183E+02  0.13218527976E+03  0.12499556715E+03 0.  0.
          2    1    1    2  501    0  0.46678142205E+01 -0.30018774016E+02 -0.50027785444E+03  0.50119940835E+03  0.00000000000E+00 0. -1.
          1    1    1    2  502    0  0.28570411948E+02  0.88290882370E+01  0.15802702382E+04  0.15805531459E+04  0.00000000000E+00 0. -1.
         22    1    3    3    0    0 -0.20422859976E+02  0.62797688967E+02 -0.45551268718E+02  0.80221948561E+02  0.00000000000E+00 0.  1.
         22    1    3    3    0    0 -0.12815366193E+02 -0.41608003188E+02  0.28367732535E+02  0.51963331197E+02  0.00000000000E+00 0.  1.
</event>
<event>
 7    1  0.5575489E-006  0.5731611E+02  0.7818608E-02  0.1423736E+00
          2   -1    0    0  502    0  0.00000000000E+00  0.00000000000E+00  0.38928402057E+03  0.38928402057E+03  0.00000000000E+00 0. -1.
          1   -1    0    0  501    0 -0.00000000000E+00 -0.00000000000E+00 -0.10693598335E+04  0.10693598335E+04  0.00000000000E+00 0. -1.
         25    2    1    2    0    0 -0.98604955029E+02  0.27043601480E+02  0.59881592163E+02  0.17222951400E+03  0.12499162722E+03 0.  0.
          2    1    1    2  501    0  0.51303228206E+02  0.15117438958E+01 -0.10097340632E+04  0.10110376773E+04  0.00000000000E+00 0. -1.
          1    1    1    2  502    0  0.47301726824E+02 -0.28555345376E+02  0.26977665812E+03  0.27537666273E+03  0.00000000000E+00 0. -1.
         22    1    3    3    0    0  0.28110706456E+02  0.13036346833E+02 -0.88810083739E+00  0.30999143202E+02  0.00000000000E+00 0. -1.
         22    1    3    3    0    0 -0.12671566148E+03  0.14007254647E+02  0.60769693001E+02  0.14123037080E+03  0.00000000000E+00 0. -1.
</event>
<event>
 7    1  0.5575489E-006  0.1247236E+03  0.7818608E-02  0.1315990E+00
          2   -1    0    0  502    0  0.00000000000E+00  0.00000000000E+00  0.12174792421E+04  0.12174792421E+04  0.00000000000E+00 0. -1.
          1   -1    0    0  501    0 -0.00000000000E+00 -0.00000000000E+00 -0.57721015711E+03  0.57721015711E+03  0.00000000000E+00 0. -1.
         25    2    1    2    0    0  0.11946509950E+03 -0.95728654748E+02  0.22999538956E+03  0.30324878699E+03  0.12500424893E+03 0.  0.
          2    1    1    2  501    0 -0.29670695953E+01  0.57562114536E+02 -0.53507799237E+03  0.53817344643E+03  0.00000000000E+00 0. -1.
          1    1    1    2  502    0 -0.11649802991E+03  0.38166540212E+02  0.94535168783E+03  0.95326716583E+03  0.00000000000E+00 0. -1.
         22    1    3    3    0    0 -0.13487826521E+02 -0.13847053660E+02 -0.60296880982E+01  0.20248938191E+02  0.00000000000E+00 0.  1.
         22    1    3    3    0    0  0.13295292602E+03 -0.81881601089E+02  0.23602507766E+03  0.28299984880E+03  0.00000000000E+00 0.  1.
</event>
<event>
 7    1  0.5575489E-006  0.8017469E+02  0.7818608E-02  0.1380220E+00
          2   -1    0    0  502    0  0.00000000000E+00  0.00000000000E+00  0.32334370653E+03  0.32334370653E+03  0.00000000000E+00 0. -1.
          1   -1    0    0  501    0 -0.00000000000E+00 -0.00000000000E+00 -0.38887594689E+04  0.38887594689E+04  0.00000000000E+00 0. -1.
         25    2    1    2    0    0 -0.11391908573E+03  0.18287155699E+02 -0.22436427737E+03  0.28154356441E+03  0.12496188036E+03 0.  0.
          2    1    1    2  501    0  0.67880510729E+02 -0.41894803839E+02 -0.36330939498E+04  0.36339695357E+04  0.00000000000E+00 0. -1.
          1    1    1    2  502    0  0.46038575004E+02  0.23607648140E+02  0.29204246488E+03  0.29659007524E+03  0.00000000000E+00 0. -1.
         22    1    3    3    0    0 -0.23653875738E+02  0.58404639712E+02 -0.47300521833E+02  0.78790526987E+02  0.00000000000E+00 0.  1.
         22    1    3    3    0    0 -0.90265209995E+02 -0.40117484013E+02 -0.17706375554E+03  0.20275303742E+03  0.00000000000E+00 0.  1.
</event>
<event>
 7    1  0.5575489E-006  0.9035803E+02  0.7818608E-02  0.1420574E+00
          2   -1    0    0  502    0  0.00000000000E+00  0.00000000000E+00  0.10275647761E+03  0.10275647761E+03  0.00000000000E+00 0. -1.
          1   -1    0    0  501    0 -0.00000000000E+00 -0.00000000000E+00 -0.14595448634E+04  0.14595448634E+04  0.00000000000E+00 0. -1.
         25    2    1    2    0    0 -0.31031114238E+01  0.11921291644E+03 -0.69894777495E+03  0.71998190520E+03  0.12499841179E+03 0.  0.
          2    1    1    2  501    0 -0.12237911737E+02 -0.31029841804E+02 -0.72789365240E+03  0.72865752365E+03  0.00000000000E+00 0. -1.
          1    1    1    2  502    0  0.15341023161E+02 -0.88183074632E+02  0.70053041568E+02  0.11366191216E+03  0.00000000000E+00 0. -1.
         22    1    3    3    0    0 -0.31441215805E+02  0.49399765874E+02 -0.96761106875E+02  0.11309995015E+03  0.00000000000E+00 0. -1.
         22    1    3    3    0    0  0.28338104381E+02  0.69813150561E+02 -0.60218666808E+03  0.60688195505E+03  0.00000000000E+00 0. -1.
</event>
<event>
 7    1  0.5575489E-006  0.6543347E+02  0.7818608E-02  0.1428692E+00
          2   -1    0    0  502    0  0.00000000000E+00  0.00000000000E+00  0.33061724155E+04  0.33061724155E+04  0.00000000000E+00 0. -1.
          1   -1    0    0  501    0 -0.00000000000E+00 -0.00000000000E+00 -0.13545994316E+03  0.13545994316E+03  0.00000000000E+00 0. -1.
         25    2    1    2    0    0  0.19248130275E+01  0.70657032145E+02  0.61505222140E+03  0.63159193313E+03  0.12499205511E+03 0.  0.
          2    1    1    2  501    0 -0.39873125046E+02 -0.16862056832E+02 -0.12309007400E+03  0.13048126831E+03  0.00000000000E+00 0. -1.
          1    1    1    2  502    0  0.37948312018E+02 -0.53794975314E+02  0.26787503250E+04  0.26795591573E+04  0.00000000000E+00 0. -1.
         22    1    3    3    0    0 -0.41408538111E+02  0.45783687633E+02  0.12934029466E+03  0.14331686888E+03  0.00000000000E+00 0.  1.
         22    1    3    3    0    0  0.43333351139E+02  0.24873344512E+02  0.48571192674E+03  0.48827506425E+03  0.00000000000E+00 0.  1.
</event>
<event>
 7    1  0.5575489E-006  0.1023262E+03  0.7818608E-02  0.1312929E+00
          2   -1    0    0  502    0  0.00000000000E+00  0.00000000000E+00  0.17971748372E+04  0.17971748372E+04  0.00000000000E+00 0. -1.
          1   -1    0    0  501    0 -0.00000000000E+00 -0.00000000000E+00 -0.56961580589E+03  0.56961580589E+03  0.00000000000E+00 0. -1.
         25    2    1    2    0    0 -0.15982655557E+03 -0.43994999040E+02 -0.11175493377E+03  0.23579369081E+03  0.12501764514E+03 0.  0.
          2    1    1    2  501    0  0.71851602892E+02 -0.72796677881E+01 -0.39103820129E+03  0.39765125584E+03  0.00000000000E+00 0. -1.
          1    1    1    2  502    0  0.87974952679E+02  0.51274666828E+02  0.17303521664E+04  0.17333456965E+04  0.00000000000E+00 0. -1.
         22    1    3    3    0    0 -0.14463951509E+02  0.28101178689E+02 -0.55851817374E+02  0.64174041800E+02  0.00000000000E+00 0. -1.
         22    1    3    3    0    0 -0.14536260406E+03 -0.72096177729E+02 -0.55903116392E+02  0.17161964901E+03  0.00000000000E+00 0. -1.
</event>
<event>
 7    1  0.5575489E-006  0.8000472E+02  0.7818608E-02  0.1339530E+00
          2   -1    0    0  502    0  0.00000000000E+00  0.00000000000E+00  0.92984490681E+03  0.92984490681E+03  0.00000000000E+00 0. -1.
          1   -1    0    0  501    0 -0.00000000000E+00 -0.00000000000E+00 -0.80758594455E+03  0.80758594455E+03  0.00000000000E+00 0. -1.
         25    2    1    2    0    0 -0.12365457580E+03 -0.14114306694E+02  0.21228669729E+03  0.27600755547E+03  0.12499944424E+03 0.  0.
          2    1    1    2  501    0  0.60960913165E+02  0.51501976502E+02 -0.77171933793E+03  0.77583466219E+03  0.00000000000E+00 0. -1.
          1    1    1    2  502    0  0.62693662635E+02 -0.37387669808E+02  0.68169160290E+03  0.68558863370E+03  0.00000000000E+00 0. -1.
         22    1    3    3    0    0 -0.95545013894E+02 -0.51915176505E+02  0.19947787183E+03  0.22719035319E+03  0.00000000000E+00 0. -1.
         22    1    3    3    0    0 -0.28109561906E+02  0.37800869811E+02  0.12808825458E+02  0.48817202282E+02  0.00000000000E+00 0. -1.
</event>
<event>
 7    1  0.5575489E-006  0.8124866E+02  0.7818608E-02  0.1412905E+00
          2   -1    0    0  502    0  0.00000000000E+00  0.00000000000E+00  0.37972171210E+04  0.37972171210E+04  0.00000000000E+00 0. -1.
          1   -1    0    0  501    0 -0.00000000000E+00 -0.00000000000E+00 -0.69444063493E+02  0.69444063493E+02  0.00000000000E+00 0. -1.
         25    2    1    2    0    0  0.16058046304E+02 -0.39814855535E+02  0.27870577730E+04  0.27901896400E+04  0.12499645536E+03 0.  0.
          2    1    1    2  501    0 -0.39716274908E+02  0.71271469014E+02 -0.42823260445E+02  0.92145734699E+02  0.00000000000E+00 0. -1.
          1    1    1    2  502    0  0.23658228604E+02 -0.31456613478E+02  0.98353854503E+03  0.98432580982E+03  0.00000000000E+00 0. -1.
         22    1    3    3    0    0  0.38392252224E+02  0.29941969772E+02  0.62580853214E+03  0.62769961405E+03  0.00000000000E+00 0.  1.
         22    1    3    3    0    0 -0.22334205921E+02 -0.69756825307E+02  0.21612492408E+04  0.21624900260E+04  0.00000000000E+00 0.  1.
</event>
<event>
 7    1  0.5575489E-006  0.6347092E+02  0.7818608E-02  0.1389172E+00
          2   -1    0    0  502    0  0.00000000000E+00  0.00000000000E+00  0.14139094342E+03  0.14139094342E+03  0.00000000000E+00 0. -1.
          1   -1    0    0  501    0 -0.00000000000E+00 -0.00000000000E+00 -0.46106242747E+03  0.46106242747E+03  0.00000000000E+00 0. -1.
         25    2    1    2    0    0  0.20451592923E+02 -0.11833362984E+02 -0.74306677268E+02  0.14732304716E+03  0.12499720719E+03 0.  0.
          2    1    1    2  501    0  0.27362403882E+02  0.57270031922E+02 -0.33660958566E+03  0.34254134183E+03  0.00000000000E+00 0. -1.
          1    1    1    2  502    0 -0.47813996805E+02 -0.45436668938E+02  0.91244778872E+02  0.11258898190E+03  0.00000000000E+00 0. -1.
         22    1    3    3    0    0 -0.26200135626E+02 -0.44641516878E+02  0.23049435796E+01  0.51813366045E+02  0.00000000000E+00 0.  1.
         22    1    3    3    0    0  0.46651728549E+02  0.32808153894E+02 -0.76611620847E+02  0.95509681118E+02  0.00000000000E+00 0.  1.
</event>
<event>
 7    1  0.5575489E-006  0.6844153E+02  0.7818608E-02  0.1512866E+00
          2   -1    0    0  502    0  0.00000000000E+00  0.00000000000E+00  0.20541565242E+03  0.20541565242E+03  0.00000000000E+00 0. -1.
          1   -1    0    0  501    0 -0.00000000000E+00 -0.00000000000E+00 -0.42285068354E+03  0.42285068354E+03  0.00000000000E+00 0. -1.
         25    2    1    2    0    0 -0.42377233539E+02 -0.74661408673E+02 -0.29132257030E+02  0.15443393565E+03  0.12502398255E+03 0.  0.
          2    1    1    2  501    0  0.22572535829E+02  0.63666419052E+02 -0.32669153766E+03  0.33360199800E+03  0.00000000000E+00 0. -1.
          1    1    1    2  502    0  0.19804697710E+02  0.10994989622E+02  0.13838876357E+03  0.14023040231E+03  0.00000000000E+00 0. -1.
         22    1    3    3    0    0 -0.37080970765E+02  0.25361380506E+01  0.37147792696E+02  0.52548919031E+02  0.00000000000E+00 0.  1.
         22    1    3    3    0    0 -0.52962627737E+01 -0.77197546724E+02 -0.66280049725E+02  0.10188501662E+03  0.00000000000E+00 0.  1.
</event>
<event>
 7    1  0.5575489E-006  0.1120080E+03  0.7818608E-02  0.1265614E+00
          2   -1    0    0  502    0  0.00000000000E+00  0.00000000000E+00  0.21621067330E+04  0.21621067330E+04  0.00000000000E+00 0. -1.
          1   -1    0    0  501    0 -0.00000000000E+00 -0.00000000000E+00 -0.30214863968E+03  0.30214863968E+03  0.00000000000E+00 0. -1.
         25    2    1    2    0    0 -0.15409093305E+02  0.16482288832E+03  0.81717051945E+03  0.84308767269E+03  0.12500056523E+03 0.  0.
          2    1    1    2  501    0 -0.57175453655E+02 -0.85468337607E+02 -0.27779362578E+03  0.29621473251E+03  0.00000000000E+00 0. -1.
          1    1    1    2  502    0  0.72584546960E+02 -0.79354550710E+02  0.13205811997E+04  0.13249529675E+04  0.00000000000E+00 0. -1.
         22    1    3    3    0    0 -0.57644828882E+02  0.40539416385E+02  0.38595080094E+03  0.39233199120E+03  0.00000000000E+00 0.  1.
         22    1    3    3    0    0  0.42235735578E+02  0.12428347193E+03  0.43121971852E+03  0.45075568149E+03  0.00000000000E+00 0.  1.
</event>
<event>
 7    1  0.5575489E-006  0.4748686E+02  0.7818608E-02  0.1530243E+00
          2   -1    0    0  502    0  0.00000000000E+00  0.00000000000E+00  0.19548747288E+04  0.19548747288E+04  0.00000000000E+00 0. -1.
          1   -1    0    0  501    0 -0.00000000000E+00 -0.00000000000E+00 -0.86736767862E+02  0.86736767862E+02  0.00000000000E+00 0. -1.
         25    2    1    2    0    0  0.24267143631E+02 -0.70166310924E+02  0.43317746831E+03  0.45692417192E+03  0.12499909754E+03 0.  0.
          2    1    1    2  501    0 -0.22875086959E+02  0.41125992137E+02 -0.67313317709E+02  0.82132207895E+02  0.00000000000E+00 0. -1.
          1    1    1    2  502    0 -0.13920566721E+01  0.29040318787E+02  0.15022738104E+04  0.15025551169E+04  0.00000000000E+00 0. -1.
         22    1    3    3    0    0  0.66653740255E+01 -0.72141800395E+02  0.10112202580E+03  0.12439666666E+03  0.00000000000E+00 0.  1.
         22    1    3    3    0    0  0.17601769606E+02  0.19754894702E+01  0.33205544251E+03  0.33252750526E+03  0.00000000000E+00 0.  1.
</event>
<event>
 7    1  0.5575489E-006  0.1077728E+03  0.7818608E-02  0.1314244E+00
          2   -1    0    0  502    0  0.00000000000E+00  0.00000000000E+00  0.81754665250E+03  0.81754665250E+03  0.00000000000E+00 0. -1.
          1   -1    0    0  501    0 -0.00000000000E+00 -0.00000000000E+00 -0.60348457174E+03  0.60348457174E+03  0.00000000000E+00 0. -1.
         25    2    1    2    0    0  0.16969737077E+03 -0.73055244455E+01  0.36622706541E+03  0.42260932546E+03  0.12500324072E+03 0.  0.
          2    1    1    2  501    0 -0.10416863202E+03  0.24552280568E+02 -0.56754689453E+03  0.57754947482E+03  0.00000000000E+00 0. -1.
          1    1    1    2  502    0 -0.65528738745E+02 -0.17246756122E+02  0.41538190988E+03  0.42087242396E+03  0.00000000000E+00 0. -1.
         22    1    3    3    0    0  0.13337612459E+03  0.46613734997E+02  0.20699689701E+03  0.25061872690E+03  0.00000000000E+00 0.  1.
         22    1    3    3    0    0  0.36321246177E+02 -0.53919259442E+02  0.15923016840E+03  0.17199059856E+03  0.00000000000E+00 0.  1.
</event>
<event>
 7    1  0.5575489E-006  0.1104266E+03  0.7818608E-02  0.1261295E+00
          2   -1    0    0  502    0  0.00000000000E+00  0.00000000000E+00  0.73027256948E+02  0.73027256948E+02  0.00000000000E+00 0. -1.
          1   -1    0    0  501    0 -0.00000000000E+00 -0.00000000000E+00 -0.97703087693E+03  0.97703087693E+03  0.00000000000E+00 0. -1.
         25    2    1    2    0    0 -0.30775910547E+02  0.88354930601E+02 -0.32586067831E+03  0.36133606288E+03  0.12499927296E+03 0.  0.
          2    1    1    2  501    0 -0.89219729192E+02 -0.62263924003E+02 -0.55271035000E+03  0.56331668474E+03  0.00000000000E+00 0. -1.
          1    1    1    2  502    0  0.11999563974E+03 -0.26091006598E+02 -0.25432591671E+02  0.12540538625E+03  0.00000000000E+00 0. -1.
         22    1    3    3    0    0 -0.28155842138E+02 -0.27982182966E+02 -0.87806107909E+02  0.96362163717E+02  0.00000000000E+00 0.  1.
         22    1    3    3    0    0 -0.26200684091E+01  0.11633711357E+03 -0.23805457040E+03  0.26497389917E+03  0.00000000000E+00 0.  1.
</event>
<event>
 7    1  0.5575489E-006  0.6009038E+02  0.7818608E-02  0.1517216E+00
          2   -1    0    0  502    0  0.00000000000E+00  0.00000000000E+00  0.53951377053E+03  0.53951377053E+03  0.00000000000E+00 0. -1.
          1   -1    0    0  501    0 -0.00000000000E+00 -0.00000000000E+00 -0.66062107806E+03  0.66062107806E+03  0.00000000000E+00 0. -1.
         25    2    1    2    0    0  0.27731289408E+02 -0.26131990732E+02  0.89237714273E+02  0.15823673996E+03  0.12499436336E+03 0.  0.
          2    1    1    2  501    0  0.23951414629E+02 -0.73566869884E+01 -0.62358817331E+03  0.62409134027E+03  0.00000000000E+00 0. -1.
          1    1    1    2  502    0 -0.51682704037E+02  0.33488677721E+02  0.41324315150E+03  0.41780676837E+03  0.00000000000E+00 0. -1.
         22    1    3    3    0    0 -0.21898360985E+02 -0.19962811781E+02  0.10233486272E+03  0.10653861364E+03  0.00000000000E+00 0.  1.
         22    1    3    3    0    0  0.49629650393E+02 -0.61691789510E+01 -0.13097148450E+02  0.51698126316E+02  0.00000000000E+00 0.  1.
</event>
<event>
 7    1  0.5575489E-006  0.2206600E+03  0.7818608E-02  0.1241801E+00
          2   -1    0    0  502    0  0.00000000000E+00  0.00000000000E+00  0.83133537479E+03  0.83133537479E+03  0.00000000000E+00 0. -1.
          1   -1    0    0  501    0 -0.00000000000E+00 -0.00000000000E+00 -0.19553898482E+04  0.19553898482E+04  0.00000000000E+00 0. -1.
         25    2    1    2    0    0  0.16157340963E+03  0.21767737185E+03  0.24711733931E+03  0.38753205200E+03  0.12499882812E+03 0.  0.
          2    1    1    2  501    0 -0.46705261739E+02 -0.46802411446E+02 -0.18639540606E+04  0.18651264266E+04  0.00000000000E+00 0. -1.
          1    1    1    2  502    0 -0.11486814789E+03 -0.17087496040E+03  0.49278224794E+03  0.53406674431E+03  0.00000000000E+00 0. -1.
         22    1    3    3    0    0  0.21640431758E+02  0.13341823897E+03  0.11384672870E+03  0.17671958696E+03  0.00000000000E+00 0. -1.
         22    1    3    3    0    0  0.13993297787E+03  0.84259132873E+02  0.13327061060E+03  0.21081246505E+03  0.00000000000E+00 0. -1.
</event>
<event>
 7    1  0.5575489E-006  0.1201470E+03  0.7818608E-02  0.1294186E+00
          2   -1    0    0  502    0  0.00000000000E+00  0.00000000000E+00  0.12549705710E+04  0.12549705710E+04  0.00000000000E+00 0. -1.
          1   -1    0    0  501    0 -0.00000000000E+00 -0.00000000000E+00 -0.56604061293E+03  0.56604061293E+03  0.00000000000E+00 0. -1.
         25    2    1    2    0    0 -0.14021261454E+03 -0.74913540442E+02 -0.29987663261E+03  0.36169300108E+03  0.12499686567E+03 0.  0.
          2    1    1    2  501    0  0.69626925996E+02 -0.22057818330E+02 -0.22656301016E+03  0.23804464654E+03  0.00000000000E+00 0. -1.
          1    1    1    2  502    0  0.70585688546E+02  0.96971358772E+02  0.12153696009E+04  0.12212735363E+04  0.00000000000E+00 0. -1.
         22    1    3    3    0    0 -0.12978137344E+03 -0.19238410206E+02 -0.26355133740E+03  0.29440215483E+03  0.00000000000E+00 0.  1.
         22    1    3    3    0    0 -0.10431241102E+02 -0.55675130236E+02 -0.36325295208E+02  0.67290846254E+02  0.00000000000E+00 0.  1.
</event>
<event>
 7    1  0.5575489E-006  0.6017694E+02  0.7818608E-02  0.1422605E+00
          2   -1    0    0  502    0  0.00000000000E+00  0.00000000000E+00  0.28076844365E+04  0.28076844365E+04  0.00000000000E+00 0. -1.
          1   -1    0    0  501    0 -0.00000000000E+00 -0.00000000000E+00 -0.15377249541E+02  0.15377249541E+02  0.00000000000E+00 0. -1.
         25    2    1    2    0    0 -0.74596457377E+02 -0.31414715029E+02  0.18354072210E+04  0.18414411355E+04  0.12503708585E+03 0.  0.
          2    1    1    2  501    0  0.58052973751E+02 -0.15037988321E+02  0.65302804528E+02  0.88660843292E+02  0.00000000000E+00 0. -1.
          1    1    1    2  502    0  0.16543483626E+02  0.46452703350E+02  0.89159716138E+03  0.89295970719E+03  0.00000000000E+00 0. -1.
         22    1    3    3    0    0 -0.12137598017E+02  0.30444355014E+02  0.14116001559E+03  0.14491490620E+03  0.00000000000E+00 0.  1.
         22    1    3    3    0    0 -0.62458859361E+02 -0.61859070043E+02  0.16942472054E+04  0.16965262293E+04  0.00000000000E+00 0.  1.
</event>
<event>
 7    1  0.5575489E-006  0.5298207E+02  0.7818608E-02  0.1512464E+00
          2   -1    0    0  502    0  0.00000000000E+00  0.00000000000E+00  0.55200106083E+02  0.55200106083E+02  0.00000000000E+00 0. -1.
          1   -1    0    0  501    0 -0.00000000000E+00 -0.00000000000E+00 -0.44620945168E+03  0.44620945168E+03  0.00000000000E+00 0. -1.
         25    2    1    2    0    0 -0.70874199356E+01 -0.31231731113E+02 -0.63084557072E+02  0.14363189900E+03  0.12499923408E+03 0.  0.
          2    1    1    2  501    0 -0.12786495426E+02  0.52817436121E+02 -0.32358572747E+03  0.32811720321E+03  0.00000000000E+00 0. -1.
          1    1    1    2  502    0  0.19873915362E+02 -0.21585705008E+02 -0.43390610551E+01  0.29660455548E+02  0.00000000000E+00 0. -1.
         22    1    3    3    0    0  0.29214213189E+02  0.60782250005E+01 -0.82764898327E+02  0.87979790103E+02  0.00000000000E+00 0.  1.
         22    1    3    3    0    0 -0.36301633125E+02 -0.37309956114E+02  0.19680341255E+02  0.55652108897E+02  0.00000000000E+00 0.  1.
</event>
<event>
 7    1  0.5575489E-006  0.8622552E+02  0.7818608E-02  0.1429701E+00
          2   -1    0    0  502    0  0.00000000000E+00  0.00000000000E+00  0.96105137737E+03  0.96105137737E+03  0.00000000000E+00 0. -1.
          1   -1    0    0  501    0 -0.00000000000E+00 -0.00000000000E+00 -0.20187270430E+03  0.20187270430E+03  0.00000000000E+00 0. -1.
         25    2    1    2    0    0  0.15171085720E+02  0.68422125952E+02  0.82912583215E+03  0.84141907734E+03  0.12499867606E+03 0.  0.
          2    1    1    2  501    0 -0.47551643839E+02 -0.72215110985E+02 -0.18377541713E+03  0.20309993852E+03  0.00000000000E+00 0. -1.
          1    1    1    2  502    0  0.32380558119E+02  0.37929850331E+01  0.11382825805E+03  0.11840506581E+03  0.00000000000E+00 0. -1.
         22    1    3    3    0    0 -0.50295516371E+02  0.11545855121E+02  0.42308216577E+03  0.42621762602E+03  0.00000000000E+00 0. -1.
         22    1    3    3    0    0  0.65466602091E+02  0.56876270831E+02  0.40604366638E+03  0.41520145132E+03  0.00000000000E+00 0. -1.
</event>
<event>
 7    1  0.5575489E-006  0.1030351E+03  0.7818608E-02  0.1420247E+00
          2   -1    0    0  502    0  0.00000000000E+00  0.00000000000E+00  0.10584313835E+04  0.10584313835E+04  0.00000000000E+00 0. -1.
          1   -1    0    0  501    0 -0.00000000000E+00 -0.00000000000E+00 -0.58628114050E+03  0.58628114050E+03  0.00000000000E+00 0. -1.
         25    2    1    2    0    0  0.11676013733E+02  0.75529960126E+02  0.11978011010E+03  0.18924348089E+03  0.12499886444E+03 0.  0.
          2    1    1    2  501    0  0.96801912529E+01  0.27681732730E+02 -0.54808375294E+03  0.54886772966E+03  0.00000000000E+00 0. -1.
          1    1    1    2  502    0 -0.21356204986E+02 -0.10321169286E+03  0.90045388584E+03  0.90660131346E+03  0.00000000000E+00 0. -1.
         22    1    3    3    0    0  0.13756131107E+02  0.22686648910E+02  0.13226975184E+03  0.13490441963E+03  0.00000000000E+00 0. -1.
         22    1    3    3    0    0 -0.20801173742E+01  0.52843311216E+02 -0.12489641743E+02  0.54339061267E+02  0.00000000000E+00 0. -1.
</event>
<event>
 7    1  0.5575489E-006  0.1171611E+03  0.7818608E-02  0.1251242E+00
          2   -1    0    0  502    0  0.00000000000E+00  0.00000000000E+00  0.21450955133E+04  0.21450955133E+04  0.00000000000E+00 0. -1.
          1   -1    0    0  501    0 -0.00000000000E+00 -0.00000000000E+00 -0.21561695315E+03  0.21561695315E+03  0.00000000000E+00 0. -1.
         25    2    1    2    0    0 -0.38854933701E+02  0.70329180775E+02  0.46792415567E+03  0.49095276213E+03  0.12500279853E+03 0.  0.
          2    1    1    2  501    0  0.11125084985E+03  0.36741931792E+02 -0.18454462484E+03  0.21859423529E+03  0.00000000000E+00 0. -1.
          1    1    1    2  502    0 -0.72395916148E+02 -0.10707111257E+03  0.16460990293E+04  0.16511654690E+04  0.00000000000E+00 0. -1.
         22    1    3    3    0    0 -0.70442200878E+02  0.35621516457E+02  0.40406948282E+03  0.41170759411E+03  0.00000000000E+00 0.  1.
         22    1    3    3    0    0  0.31587267177E+02  0.34707664318E+02  0.63854672853E+02  0.79245168025E+02  0.00000000000E+00 0.  1.
</event>
<event>
 7    1  0.5575489E-006  0.5653234E+02  0.7818608E-02  0.1430809E+00
          2   -1    0    0  502    0  0.00000000000E+00  0.00000000000E+00  0.12052322262E+03  0.12052322262E+03  0.00000000000E+00 0. -1.
          1   -1    0    0  501    0 -0.00000000000E+00 -0.00000000000E+00 -0.10139578382E+04  0.10139578382E+04  0.00000000000E+00 0. -1.
         25    2    1    2    0    0 -0.53854941524E+02  0.66668979385E+01 -0.73567326697E+02  0.15485874611E+03  0.12499710971E+03 0.  0.
          2    1    1    2  501    0  0.28894937980E+02 -0.49193450108E+02 -0.89113456782E+03  0.89295897495E+03  0.00000000000E+00 0. -1.
          1    1    1    2  502    0  0.24960003544E+02  0.42526552169E+02  0.71267278925E+02  0.86663339780E+02  0.00000000000E+00 0. -1.
         22    1    3    3    0    0 -0.68505753561E+02  0.24481034453E+01 -0.10182575942E+03  0.12274981370E+03  0.00000000000E+00 0. -1.
         22    1    3    3    0    0  0.14650812037E+02  0.42187944932E+01  0.28258432727E+02  0.32108932410E+02  0.00000000000E+00 0. -1.
</event>
<event>
 7    1  0.5575489E-006  0.6298223E+02  0.7818608E-02  0.1495365E+00
          2   -1    0    0  502    0  0.00000000000E+00  0.00000000000E+00  0.24072980114E+04  0.24072980114E+04  0.00000000000E+00 0. -1.
          1   -1    0    0  501    0 -0.00000000000E+00 -0.00000000000E+00 -0.18751168427E+04  0.18751168427E+04  0.00000000000E+00 0. -1.
         25    2    1    2    0    0  0.20537614123E+02  0.38107871378E+02  0.29879609861E+03  0.32676825868E+03  0.12499753150E+03 0.  0.
          2    1    1    2  501    0  0.27474876853E+02  0.38442042171E+01 -0.18605421108E+04  0.18607489333E+04  0.00000000000E+00 0. -1.
          1    1    1    2  502    0 -0.48012490976E+02 -0.41952075595E+02  0.20939271809E+04  0.20948976621E+04  0.00000000000E+00 0. -1.
         22    1    3    3    0    0 -0.17333990035E+02  0.82902623969E+00  0.26095371483E+03  0.26153010492E+03  0.00000000000E+00 0.  1.
         22    1    3    3    0    0  0.37871604158E+02  0.37278845138E+02  0.37842383782E+02  0.65238153765E+02  0.00000000000E+00 0.  1.
</event>
<event>
 7    1  0.5575489E-006  0.2338600E+03  0.7818608E-02  0.1235794E+00
          2   -1    0    0  502    0  0.00000000000E+00  0.00000000000E+00  0.65047504026E+03  0.65047504026E+03  0.00000000000E+00 0. -1.
          1   -1    0    0  501    0 -0.00000000000E+00 -0.00000000000E+00 -0.27324162118E+04  0.27324162118E+04  0.00000000000E+00 0. -1.
         25    2    1    2    0    0  0.92938651374E+02  0.26528903494E+03 -0.74750434717E+03  0.80833353273E+03  0.12499794447E+03 0.  0.
          2    1    1    2  501    0 -0.55959362054E+02 -0.35593344192E+02 -0.19320847697E+04  0.19332226705E+04  0.00000000000E+00 0. -1.
          1    1    1    2  502    0 -0.36979289321E+02 -0.22969569075E+03  0.59764794539E+03  0.64133504879E+03  0.00000000000E+00 0. -1.
         22    1    3    3    0    0 -0.27564084346E+02  0.34508754091E+02 -0.72902704952E+02  0.85237534244E+02  0.00000000000E+00 0. -1.
         22    1    3    3    0    0  0.12050273572E+03  0.23078028085E+03 -0.67460164221E+03  0.72309599848E+03  0.00000000000E+00 0. -1.
</event>
<event>
 7    1  0.5575489E-006  0.3049321E+02  0.7818608E-02  0.1657354E+00
          2   -1    0    0  502    0  0.00000000000E+00  0.00000000000E+00  0.39753252811E+03  0.39753252811E+03  0.00000000000E+00 0. -1.
          1   -1    0    0  501    0 -0.00000000000E+00 -0.00000000000E+00 -0.40745037136E+03  0.40745037136E+03  0.00000000000E+00 0. -1.
         25    2    1    2    0    0  0.10662705098E+02 -0.12874020379E+02  0.62647771824E+02  0.14081383928E+03  0.12499744132E+03 0.  0.
          2    1    1    2  501    0 -0.30147947198E+02  0.52654627648E+01 -0.36736042881E+03  0.36863302683E+03  0.00000000000E+00 0. -1.
          1    1    1    2  502    0  0.19485242100E+02  0.76085576147E+01  0.29479481374E+03  0.29553603336E+03  0.00000000000E+00 0. -1.
         22    1    3    3    0    0  0.30357043888E+02  0.47009101457E+02  0.63902836996E+01  0.56322654937E+02  0.00000000000E+00 0.  1.
         22    1    3    3    0    0 -0.19694338790E+02 -0.59883121836E+02  0.56257488124E+02  0.84491184341E+02  0.00000000000E+00 0.  1.
</event>
<event>
 7    1  0.5575489E-006  0.1257057E+03  0.7818608E-02  0.1307959E+00
          2   -1    0    0  502    0  0.00000000000E+00  0.00000000000E+00  0.32166981518E+03  0.32166981518E+03  0.00000000000E+00 0. -1.
          1   -1    0    0  501    0 -0.00000000000E+00 -0.00000000000E+00 -0.15158995256E+04  0.15158995256E+04  0.00000000000E+00 0. -1.
         25    2    1    2    0    0 -0.63025158476E+02  0.58718926997E+02 -0.32891290145E+03  0.36225480798E+03  0.12499906470E+03 0.  0.
          2    1    1    2  501    0 -0.58330787915E+02 -0.19478875544E+02 -0.11561289356E+04  0.11577633710E+04  0.00000000000E+00 0. -1.
          1    1    1    2  502    0  0.12135594639E+03 -0.39240051453E+02  0.29081212665E+03  0.31755116181E+03  0.00000000000E+00 0. -1.
         22    1    3    3    0    0  0.19404113172E+02  0.57086543140E+02 -0.20288794789E+03  0.21165753569E+03  0.00000000000E+00 0. -1.
         22    1    3    3    0    0 -0.82429271648E+02  0.16323838570E+01 -0.12602495357E+03  0.15059727230E+03  0.00000000000E+00 0. -1.
</event>
<event>
 7    1  0.5575489E-006  0.3207532E+02  0.7818608E-02  0.1607297E+00
          2   -1    0    0  502    0  0.00000000000E+00  0.00000000000E+00  0.53775300848E+03  0.53775300848E+03  0.00000000000E+00 0. -1.
          1   -1    0    0  501    0 -0.00000000000E+00 -0.00000000000E+00 -0.58902142904E+03  0.58902142904E+03  0.00000000000E+00 0. -1.
         25    2    1    2    0    0  0.38147779567E+02  0.33875398780E+02 -0.38676861987E+03  0.40965528435E+03  0.12499876380E+03 0.  0.
          2    1    1    2  501    0 -0.26231146959E+02 -0.41138165174E+01 -0.18939436047E+03  0.19124649104E+03  0.00000000000E+00 0. -1.
          1    1    1    2  502    0 -0.11916632608E+02 -0.29761582263E+02  0.52489455976E+03  0.52587266214E+03  0.00000000000E+00 0. -1.
         22    1    3    3    0    0  0.58356287883E+01 -0.54069689169E+01 -0.34141426064E+03  0.34150693587E+03  0.00000000000E+00 0.  1.
         22    1    3    3    0    0  0.32312150779E+02  0.39282367697E+02 -0.45354359226E+02  0.68148348480E+02  0.00000000000E+00 0.  1.
</event>
<event>
 7    1  0.5575489E-006  0.1174529E+03  0.7818608E-02  0.1376936E+00
          2   -1    0    0  502    0  0.00000000000E+00  0.00000000000E+00  0.91960187098E+02  0.91960187098E+02  0.00000000000E+00 0. -1.
          1   -1    0    0  501    0 -0.00000000000E+00 -0.00000000000E+00 -0.11246642075E+04  0.11246642075E+04  0.00000000000E+00 0. -1.
         25    2    1    2    0    0  0.13068317520E+02 -0.10030114417E+03 -0.35018882686E+03  0.38534134826E+03  0.12499855909E+03 0.  0.
          2    1    1    2  501    0 -0.31263207412E+02 -0.18404122334E+02 -0.70765831850E+03  0.70858760616E+03  0.00000000000E+00 0. -1.
          1    1    1    2  502    0  0.18194889892E+02  0.11870526650E+03  0.25143124945E+02  0.12269544020E+03  0.00000000000E+00 0. -1.
         22    1    3    3    0    0  0.40730212034E+02 -0.10980861323E+03 -0.32899511104E+03  0.34922008075E+03  0.00000000000E+00 0.  1.
         22    1    3    3    0    0 -0.27661894514E+02  0.95074690611E+01 -0.21193715824E+02  0.36121267509E+02  0.00000000000E+00 0.  1.
</event>
<event>
 7    1  0.5575489E-006  0.3022923E+02  0.7818608E-02  0.1631476E+00
          2   -1    0    0  502    0  0.00000000000E+00  0.00000000000E+00  0.19354459606E+03  0.19354459606E+03  0.00000000000E+00 0. -1.
          1   -1    0    0  501    0 -0.00000000000E+00 -0.00000000000E+00 -0.97417946608E+03  0.97417946608E+03  0.00000000000E+00 0. -1.
         25    2    1    2    0    0  0.21958445938E+02  0.11903755250E+02 -0.58192083918E+01  0.12760146853E+03  0.12499759537E+03 0.  0.
          2    1    1    2  501    0 -0.16337531262E+02  0.18184848569E+02 -0.90553624699E+03  0.90586615913E+03  0.00000000000E+00 0. -1.
          1    1    1    2  502    0 -0.56209146756E+01 -0.30088603819E+02  0.13072058536E+03  0.13425643447E+03  0.00000000000E+00 0. -1.
         22    1    3    3    0    0  0.63156617673E+01  0.68253505765E+02 -0.84360577678E+01  0.69062259617E+02  0.00000000000E+00 0. -1.
         22    1    3    3    0    0  0.15642784171E+02 -0.56349750515E+02  0.26168493760E+01  0.58539208915E+02  0.00000000000E+00 0. -1.
</event>
<event>
 7    1  0.9554037E-006  0.7251020E+02  0.7818608E-02  0.1356521E+00
          2   -1    0    0  502    0  0.00000000000E+00  0.00000000000E+00  0.15214923228E+04  0.15214923228E+04  0.00000000000E+00 0. -1.
          1   -1    0    0  501    0 -0.00000000000E+00 -0.00000000000E+00 -0.13397679160E+04  0.13397679160E+04  0.00000000000E+00 0. -1.
         25    2    1    2    0    0  0.11301844667E+03 -0.69542251869E+02 -0.15340699031E+03  0.23826047389E+03  0.12500021864E+03 0.  0.
          2    1    1    2  501    0 -0.42129250824E+02  0.55453039893E+02 -0.11419898578E+04  0.11441113358E+04  0.00000000000E+00 0. -1.
          1    1    1    2  502    0 -0.70889195846E+02  0.14089211976E+02  0.14771212549E+04  0.14788884291E+04  0.00000000000E+00 0. -1.
         22    1    3    3    0    0  0.10301716602E+03 -0.10398634264E+03 -0.12563500655E+03  0.19289855059E+03  0.00000000000E+00 0. -1.
         22    1    3    3    0    0  0.10001280653E+02  0.34444090769E+02 -0.27771983765E+02  0.45361923304E+02  0.00000000000E+00 0. -1.
</event>
<event>
 7    1  0.5575489E-006  0.1152782E+03  0.7818608E-02  0.1273895E+00
          2   -1    0    0  502    0  0.00000000000E+00  0.00000000000E+00  0.12090030079E+04  0.12090030079E+04  0.00000000000E+00 0. -1.
          1   -1    0    0  501    0 -0.00000000000E+00 -0.00000000000E+00 -0.31982042282E+04  0.31982042282E+04  0.00000000000E+00 0. -1.
         25    2    1    2    0    0  0.32143493804E+02 -0.15854620278E+03 -0.51533641124E+03  0.55440383857E+03  0.12498758682E+03 0.  0.
          2    1    1    2  501    0  0.43241665236E+02  0.10542653093E+03 -0.26603251378E+04  0.26627644346E+04  0.00000000000E+00 0. -1.
          1    1    1    2  502    0 -0.75385159041E+02  0.53119671849E+02  0.11864603287E+04  0.11900389630E+04  0.00000000000E+00 0. -1.
         22    1    3    3    0    0 -0.28126776289E+02 -0.11670843913E+03 -0.22595362757E+03  0.25586523234E+03  0.00000000000E+00 0.  1.
         22    1    3    3    0    0  0.60270270094E+02 -0.41837763652E+02 -0.28938278368E+03  0.29853860624E+03  0.00000000000E+00 0.  1.
</event>
<event>
 7    1  0.5575489E-006  0.1895906E+03  0.7818608E-02  0.1269348E+00
          2   -1    0    0  502    0  0.00000000000E+00  0.00000000000E+00  0.29228354869E+04  0.29228354869E+04  0.00000000000E+00 0. -1.
          1   -1    0    0  501    0 -0.00000000000E+00 -0.00000000000E+00 -0.96515341142E+02  0.96515341142E+02  0.00000000000E+00 0. -1.
         25    2    1    2    0    0 -0.82512687740E+02 -0.13026339503E+03  0.17769014758E+04  0.17879543765E+04  0.12500040728E+03 0.  0.
          2    1    1    2  501    0  0.14109977400E+03  0.13007120058E+03  0.11952366534E+02  0.19227720226E+03  0.00000000000E+00 0. -1.
          1    1    1    2  502    0 -0.58587086256E+02  0.19219445281E+00  0.10374663034E+04  0.10391192493E+04  0.00000000000E+00 0. -1.
         22    1    3    3    0    0 -0.73963782624E+02 -0.14010352509E+03  0.17572221735E+04  0.17643495702E+04  0.00000000000E+00 0.  1.
         22    1    3    3    0    0 -0.85489051162E+01  0.98401300576E+01  0.19679302331E+02  0.23604806257E+02  0.00000000000E+00 0.  1.
</event>
<event>
 7    1  0.5575489E-006  0.6062832E+02  0.7818608E-02  0.1455674E+00
          2   -1    0    0  502    0  0.00000000000E+00  0.00000000000E+00  0.20707934653E+04  0.20707934653E+04  0.00000000000E+00 0. -1.
          1   -1    0    0  501    0 -0.00000000000E+00 -0.00000000000E+00 -0.86332579623E+03  0.86332579623E+03  0.00000000000E+00 0. -1.
         25    2    1    2    0    0  0.71187664624E+02  0.65700266205E+02  0.56791446000E+03  0.58952080790E+03  0.12499496188E+03 0.  0.
          2    1    1    2  501    0 -0.28927590073E+02 -0.24970762415E+02 -0.85151674059E+03  0.85237380529E+03  0.00000000000E+00 0. -1.
          1    1    1    2  502    0 -0.42260074551E+02 -0.40729503790E+02  0.14910699497E+04  0.14922246484E+04  0.00000000000E+00 0. -1.
         22    1    3    3    0    0 -0.24548412530E+02  0.52760545510E+02  0.15797636001E+03  0.16835328937E+03  0.00000000000E+00 0. -1.
         22    1    3    3    0    0  0.95736077153E+02  0.12939720695E+02  0.40993809999E+03  0.42116751853E+03  0.00000000000E+00 0. -1.
</event>
<event>
 7    1  0.9669157E-006  0.7786380E+02  0.7818608E-02  0.1376146E+00
          2   -1    0    0  502    0  0.00000000000E+00  0.00000000000E+00  0.14278456175E+04  0.14278456175E+04  0.00000000000E+00 0. -1.
          1   -1    0    0  501    0 -0.00000000000E+00 -0.00000000000E+00 -0.99919203072E+03  0.99919203072E+03  0.00000000000E+00 0. -1.
         25    2    1    2    0    0  0.91424073976E+02  0.77012060978E+02 -0.35447514337E+03  0.39441971902E+03  0.12500027458E+03 0.  0.
          2    1    1    2  501    0 -0.68887146314E+02 -0.26755245368E+02 -0.62201777087E+03  0.62639236055E+03  0.00000000000E+00 0. -1.
          1    1    1    2  502    0 -0.22536927662E+02 -0.50256815610E+02  0.14051465010E+04  0.14062255686E+04  0.00000000000E+00 0. -1.
         22    1    3    3    0    0  0.54402551551E+02  0.10756552073E+03 -0.28987047816E+03  0.31393450427E+03  0.00000000000E+00 0.  1.
         22    1    3    3    0    0  0.37021522425E+02 -0.30553459753E+02 -0.64604665212E+02  0.80485214746E+02  0.00000000000E+00 0.  1.
</event>
<event>
 7    1  0.5575489E-006  0.2685656E+03  0.7818608E-02  0.1197170E+00
          2   -1    0    0  502    0  0.00000000000E+00  0.00000000000E+00  0.49577805000E+03  0.49577805000E+03  0.00000000000E+00 0. -1.
          1   -1    0    0  501    0 -0.00000000000E+00 -0.00000000000E+00 -0.94549440214E+03  0.94549440214E+03  0.00000000000E+00 0. -1.
         25    2    1    2    0    0 -0.34526745664E+02  0.26828253674E+03 -0.10953153444E+03  0.31747451735E+03  0.12500118576E+03 0.  0.
          2    1    1    2  501    0  0.11786001230E+03 -0.24383768498E+03 -0.70161983443E+03  0.75207592115E+03  0.00000000000E+00 0. -1.
          1    1    1    2  502    0 -0.83333266634E+02 -0.24444851757E+02  0.36143501673E+03  0.37172201364E+03  0.00000000000E+00 0. -1.
         22    1    3    3    0    0  0.25573157867E+02  0.10740281581E+03 -0.94059853955E+02  0.14504001990E+03  0.00000000000E+00 0.  1.
         22    1    3    3    0    0 -0.60099903531E+02  0.16087972094E+03 -0.15471680489E+02  0.17243449745E+03  0.00000000000E+00 0.  1.
</event>
<event>
 7    1  0.5575489E-006  0.9299670E+02  0.7818608E-02  0.1349050E+00
          2   -1    0    0  502    0  0.00000000000E+00  0.00000000000E+00  0.10119500605E+04  0.10119500605E+04  0.00000000000E+00 0. -1.
          1   -1    0    0  501    0 -0.00000000000E+00 -0.00000000000E+00 -0.44625216992E+02  0.44625216992E+02  0.00000000000E+00 0. -1.
         25    2    1    2    0    0 -0.64922409680E+02 -0.39651261110E+02  0.20659337345E+03  0.25316351842E+03  0.12499521319E+03 0.  0.
          2    1    1    2  501    0  0.51043526573E+02  0.95819637088E+02  0.12715153404E+03  0.16719556533E+03  0.00000000000E+00 0. -1.
          1    1    1    2  502    0  0.13878883107E+02 -0.56168375978E+02  0.63357993598E+03  0.63621619371E+03  0.00000000000E+00 0. -1.
         22    1    3    3    0    0 -0.50486208887E+02 -0.56698634092E+02  0.41412215799E+02  0.86478691093E+02  0.00000000000E+00 0.  1.
         22    1    3    3    0    0 -0.14436200793E+02  0.17047372983E+02  0.16518115765E+03  0.16668482733E+03  0.00000000000E+00 0.  1.
</event>
<event>
 7    1  0.5575489E-006  0.1559370E+03  0.7818608E-02  0.1194740E+00
          2   -1    0    0  502    0  0.00000000000E+00  0.00000000000E+00  0.19287135644E+04  0.19287135644E+04  0.00000000000E+00 0. -1.
          1   -1    0    0  501    0 -0.00000000000E+00 -0.00000000000E+00 -0.97699206244E+02  0.97699206244E+02  0.00000000000E+00 0. -1.
         25    2    1    2    0    0  0.95073790160E+02  0.47141430275E+02  0.37093660930E+03  0.40555813343E+03  0.12498836525E+03 0.  0.
          2    1    1    2  501    0 -0.14945652306E+03  0.99005298759E+02  0.29358326861E+02  0.18166235940E+03  0.00000000000E+00 0. -1.
          1    1    1    2  502    0  0.54382732899E+02 -0.14614672903E+03  0.14307194220E+04  0.14391922778E+04  0.00000000000E+00 0. -1.
         22    1    3    3    0    0  0.12365700962E+03  0.21495640817E+02  0.28814591232E+03  0.31429474286E+03  0.00000000000E+00 0.  1.
         22    1    3    3    0    0 -0.28583219462E+02  0.25645789458E+02  0.82790696987E+02  0.91263390575E+02  0.00000000000E+00 0.  1.
</event>
<event>
 7    1  0.1106679E-005  0.8364618E+02  0.7818608E-02  0.1357440E+00
          2   -1    0    0  502    0  0.00000000000E+00  0.00000000000E+00  0.11318818135E+04  0.11318818135E+04  0.00000000000E+00 0. -1.
          1   -1    0    0  501    0 -0.00000000000E+00 -0.00000000000E+00 -0.75422088634E+03  0.75422088634E+03  0.00000000000E+00 0. -1.
         25    2    1    2    0    0  0.36634343588E+02  0.30444067702E+02 -0.33450922445E+03  0.36026543506E+03  0.12500338424E+03 0.  0.
          2    1    1    2  501    0  0.46965131174E+02 -0.37184533200E+02 -0.40304523118E+03  0.40747254071E+03  0.00000000000E+00 0. -1.
          1    1    1    2  502    0 -0.83599474762E+02  0.67404654982E+01  0.11152153827E+04  0.11183647240E+04  0.00000000000E+00 0. -1.
         22    1    3    3    0    0 -0.25553953671E+02  0.46142551123E+02 -0.24209581733E+03  0.24777514876E+03  0.00000000000E+00 0. -1.
         22    1    3    3    0    0  0.62188297259E+02 -0.15698483421E+02 -0.92413407117E+02  0.11249028630E+03  0.00000000000E+00 0. -1.
</event>
<event>
 7    1  0.5575489E-006  0.6621015E+02  0.7818608E-02  0.1415814E+00
          2   -1    0    0  502    0  0.00000000000E+00  0.00000000000E+00  0.13994162717E+04  0.13994162717E+04  0.00000000000E+00 0. -1.
          1   -1    0    0  501    0 -0.00000000000E+00 -0.00000000000E+00 -0.15871980782E+04  0.15871980782E+04  0.00000000000E+00 0. -1.
         25    2    1    2    0    0 -0.85744805759E+00  0.29458740742E+02 -0.90656482955E+03  0.91561625485E+03  0.12499913335E+03 0.  0.
          2    1    1    2  501    0  0.41189209760E+02  0.23096884994E+02 -0.67449495483E+03  0.67614603540E+03  0.00000000000E+00 0. -1.
          1    1    1    2  502    0 -0.40331761702E+02 -0.52555625736E+02  0.13932779778E+04  0.13948520596E+04  0.00000000000E+00 0. -1.
         22    1    3    3    0    0  0.33223660180E+02  0.48775744085E+02 -0.21529097677E+03  0.22323326249E+03  0.00000000000E+00 0.  1.
         22    1    3    3    0    0 -0.34081108237E+02 -0.19317003343E+02 -0.69127385278E+03  0.69238299235E+03  0.00000000000E+00 0.  1.
</event>
<event>
 7    1  0.5575489E-006  0.8839040E+02  0.7818608E-02  0.1343907E+00
          2   -1    0    0  502    0  0.00000000000E+00  0.00000000000E+00  0.33681613049E+03  0.33681613049E+03  0.00000000000E+00 0. -1.
          1   -1    0    0  501    0 -0.00000000000E+00 -0.00000000000E+00 -0.92903493841E+03  0.92903493841E+03  0.00000000000E+00 0. -1.
         25    2    1    2    0    0  0.36945573544E+02 -0.71988902969E+01 -0.63229438323E+01  0.13070249886E+03  0.12500545653E+03 0.  0.
          2    1    1    2  501    0 -0.82708702561E+02 -0.36994500895E+02 -0.85441008213E+03  0.85920073965E+03  0.00000000000E+00 0. -1.
          1    1    1    2  502    0  0.45763129017E+02  0.44193391192E+02  0.26851421805E+03  0.27594783039E+03  0.00000000000E+00 0. -1.
         22    1    3    3    0    0  0.44484407606E+01 -0.44174159043E+02  0.42435543808E+02  0.61415961530E+02  0.00000000000E+00 0.  1.
         22    1    3    3    0    0  0.32497132783E+02  0.36975268746E+02 -0.48758487641E+02  0.69286537329E+02  0.00000000000E+00 0.  1.
</event>
<event>
 7    1  0.5575489E-006  0.2719382E+02  0.7818608E-02  0.1637390E+00
          2   -1    0    0  502    0  0.00000000000E+00  0.00000000000E+00  0.16782146708E+04  0.16782146708E+04  0.00000000000E+00 0. -1.
          1   -1    0    0  501    0 -0.00000000000E+00 -0.00000000000E+00 -0.16472539587E+04  0.16472539587E+04  0.00000000000E+00 0. -1.
         25    2    1    2    0    0 -0.37095721453E+02 -0.35469807952E+02  0.54270864678E+02  0.14561758275E+03  0.12499981531E+03 0.  0.
          2    1    1    2  501    0  0.24022663092E+02  0.12689578059E+02 -0.16013560953E+04  0.16015865439E+04  0.00000000000E+00 0. -1.
          1    1    1    2  502    0  0.13073058361E+02  0.22780229893E+02  0.15780459427E+04  0.15782645029E+04  0.00000000000E+00 0. -1.
         22    1    3    3    0    0 -0.28121282381E+02  0.45551724577E+02  0.19121896366E+02  0.56845519219E+02  0.00000000000E+00 0.  1.
         22    1    3    3    0    0 -0.89744390724E+01 -0.81021532528E+02  0.35148968312E+02  0.88772063530E+02  0.00000000000E+00 0.  1.
</event>
<event>
 7    1  0.5575489E-006  0.5231236E+02  0.7818608E-02  0.1479340E+00
          2   -1    0    0  502    0  0.00000000000E+00  0.00000000000E+00  0.24551103591E+04  0.24551103591E+04  0.00000000000E+00 0. -1.
          1   -1    0    0  501    0 -0.00000000000E+00 -0.00000000000E+00 -0.13722405170E+04  0.13722405170E+04  0.00000000000E+00 0. -1.
         25    2    1    2    0    0 -0.70185988641E+02 -0.25774201244E+02  0.16330367523E+02  0.14656610482E+03  0.12499823890E+03 0.  0.
          2    1    1    2  501    0  0.35115037181E+02  0.38653884534E+02 -0.13064539406E+04  0.13074972610E+04  0.00000000000E+00 0. -1.
          1    1    1    2  502    0  0.35070951460E+02 -0.12879683290E+02  0.23729934152E+04  0.23732875103E+04  0.00000000000E+00 0. -1.
         22    1    3    3    0    0  0.12836282638E+02  0.22491229189E+02 -0.30260188888E+02  0.39828439260E+02  0.00000000000E+00 0. -1.
         22    1    3    3    0    0 -0.83022271279E+02 -0.48265430432E+02  0.46590556410E+02  0.10673766556E+03  0.00000000000E+00 0. -1.
</event>
<event>
 7    1  0.5575489E-006  0.2556882E+03  0.7818608E-02  0.1307193E+00
          2   -1    0    0  502    0  0.00000000000E+00  0.00000000000E+00  0.66256635807E+03  0.66256635807E+03  0.00000000000E+00 0. -1.
          1   -1    0    0  501    0 -0.00000000000E+00 -0.00000000000E+00 -0.73785084994E+03  0.73785084994E+03  0.00000000000E+00 0. -1.
         25    2    1    2    0    0  0.73747675110E+02 -0.24226468358E+03 -0.14229390142E+03  0.31623528984E+03  0.12500523054E+03 0.  0.
          2    1    1    2  501    0 -0.28774746897E+02 -0.99484689297E+01 -0.47957258418E+03  0.48053805426E+03  0.00000000000E+00 0. -1.
          1    1    1    2  502    0 -0.44972928212E+02  0.25221315251E+03  0.54658199373E+03  0.60364386391E+03  0.00000000000E+00 0. -1.
         22    1    3    3    0    0 -0.62473853080E+01 -0.48795227337E+02 -0.86602616333E+02  0.99599283079E+02  0.00000000000E+00 0.  1.
         22    1    3    3    0    0  0.79995060418E+02 -0.19346945624E+03 -0.55691285089E+02  0.21663600676E+03  0.00000000000E+00 0.  1.
</event>
<event>
 7    1  0.5575489E-006  0.5137497E+02  0.7818608E-02  0.1479618E+00
          2   -1    0    0  502    0  0.00000000000E+00  0.00000000000E+00  0.51235324636E+03  0.51235324636E+03  0.00000000000E+00 0. -1.
          1   -1    0    0  501    0 -0.00000000000E+00 -0.00000000000E+00 -0.28224830205E+04  0.28224830205E+04  0.00000000000E+00 0. -1.
         25    2    1    2    0    0  0.63801957077E+02 -0.33853702699E+02  0.18775828938E+03  0.23684551603E+03  0.12500344122E+03 0.  0.
          2    1    1    2  501    0 -0.51323508774E+02 -0.20053599759E+01 -0.27965015263E+04  0.27969731695E+04  0.00000000000E+00 0. -1.
          1    1    1    2  502    0 -0.12478448303E+02  0.35859062675E+02  0.29861346286E+03  0.30101758130E+03  0.00000000000E+00 0. -1.
         22    1    3    3    0    0  0.29923708902E+02 -0.44669040727E+02  0.19349241929E+03  0.20082347442E+03  0.00000000000E+00 0.  1.
         22    1    3    3    0    0  0.33878248175E+02  0.10815338028E+02 -0.57341299070E+01  0.36022041611E+02  0.00000000000E+00 0.  1.
</event>
<event>
 7    1  0.5771337E-006  0.8465890E+02  0.7818608E-02  0.1357924E+00
          2   -1    0    0  502    0  0.00000000000E+00  0.00000000000E+00  0.11249149673E+04  0.11249149673E+04  0.00000000000E+00 0. -1.
          1   -1    0    0  501    0 -0.00000000000E+00 -0.00000000000E+00 -0.73820031862E+03  0.73820031862E+03  0.00000000000E+00 0. -1.
         25    2    1    2    0    0 -0.13352879648E+03 -0.26054531034E+02 -0.25039231546E+03  0.31117545453E+03  0.12500029515E+03 0.  0.
          2    1    1    2  501    0  0.74583433419E+02  0.26080056027E+02 -0.45320235461E+03  0.46003829415E+03  0.00000000000E+00 0. -1.
          1    1    1    2  502    0  0.58945363056E+02 -0.25524992804E-01  0.10903093188E+04  0.10919015373E+04  0.00000000000E+00 0. -1.
         22    1    3    3    0    0 -0.79127197871E+02  0.45474167670E+02 -0.15678951050E+03  0.18141654823E+03  0.00000000000E+00 0. -1.
         22    1    3    3    0    0 -0.54401598605E+02 -0.71528698704E+02 -0.93602804957E+02  0.12975890630E+03  0.00000000000E+00 0. -1.
</event>
<event>
 7    1  0.5575489E-006  0.2591127E+03  0.7818608E-02  0.1276407E+00
          2   -1    0    0  502    0  0.00000000000E+00  0.00000000000E+00  0.48339488417E+03  0.48339488417E+03  0.00000000000E+00 0. -1.
          1   -1    0    0  501    0 -0.00000000000E+00 -0.00000000000E+00 -0.11678741532E+04  0.11678741532E+04  0.00000000000E+00 0. -1.
         25    2    1    2    0    0 -0.22939510572E+03 -0.73937069285E+02 -0.86663595314E+02  0.28500074509E+03  0.12500416476E+03 0.  0.
          2    1    1    2  501    0  0.25851339600E+03  0.46436564559E+02 -0.96336683872E+03  0.99852951704E+03  0.00000000000E+00 0. -1.
          1    1    1    2  502    0 -0.29118290283E+02  0.27500504727E+02  0.36555116500E+03  0.36773877525E+03  0.00000000000E+00 0. -1.
         22    1    3    3    0    0 -0.19031851399E+03 -0.28076693068E+01 -0.59688761723E+02  0.19947874085E+03  0.00000000000E+00 0. -1.
         22    1    3    3    0    0 -0.39076591730E+02 -0.71129399979E+02 -0.26974833591E+02  0.85522004243E+02  0.00000000000E+00 0. -1.
</event>
<event>
 7    1  0.5575489E-006  0.2029338E+03  0.7818608E-02  0.1315975E+00
          2   -1    0    0  502    0  0.00000000000E+00  0.00000000000E+00  0.66320250184E+03  0.66320250184E+03  0.00000000000E+00 0. -1.
          1   -1    0    0  501    0 -0.00000000000E+00 -0.00000000000E+00 -0.85625976249E+03  0.85625976249E+03  0.00000000000E+00 0. -1.
         25    2    1    2    0    0 -0.19998669193E+03 -0.12238634409E+03  0.20541678982E+03  0.33585277222E+03  0.12501173104E+03 0.  0.
          2    1    1    2  501    0  0.16530453363E+03  0.11514811444E+03 -0.77737560921E+03  0.80305511324E+03  0.00000000000E+00 0. -1.
          1    1    1    2  502    0  0.34682158300E+02  0.72382296408E+01  0.37890155874E+03  0.38055437888E+03  0.00000000000E+00 0. -1.
         22    1    3    3    0    0 -0.14475584899E+03 -0.11608690306E+03  0.20981007750E+03  0.28009050948E+03  0.00000000000E+00 0. -1.
         22    1    3    3    0    0 -0.55230842933E+02 -0.62994410242E+01 -0.43932876842E+01  0.55762262732E+02  0.00000000000E+00 0. -1.
</event>
<event>
 7    1  0.5575489E-006  0.9433921E+02  0.7818608E-02  0.1396699E+00
          2   -1    0    0  502    0  0.00000000000E+00  0.00000000000E+00  0.86726681205E+03  0.86726681205E+03  0.00000000000E+00 0. -1.
          1   -1    0    0  501    0 -0.00000000000E+00 -0.00000000000E+00 -0.23547786030E+03  0.23547786030E+03  0.00000000000E+00 0. -1.
         25    2    1    2    0    0  0.82458248526E+02  0.43839438671E+02  0.76905873848E+01  0.15622213478E+03  0.12499980451E+03 0.  0.
          2    1    1    2  501    0  0.11931952164E+02 -0.36609859278E+02 -0.15600984067E+03  0.16069139262E+03  0.00000000000E+00 0. -1.
          1    1    1    2  502    0 -0.94390200690E+02 -0.72295793931E+01  0.78010820504E+03  0.78583114495E+03  0.00000000000E+00 0. -1.
         22    1    3    3    0    0  0.71704337775E+02  0.36423209711E+02 -0.51570136805E+02  0.95538689919E+02  0.00000000000E+00 0. -1.
         22    1    3    3    0    0  0.10753910751E+02  0.74162289604E+01  0.59260724190E+02  0.60683444859E+02  0.00000000000E+00 0. -1.
</event>
<event>
 7    1  0.5575489E-006  0.2758560E+02  0.7818608E-02  0.1636272E+00
          2   -1    0    0  502    0  0.00000000000E+00  0.00000000000E+00  0.97553932031E+02  0.97553932031E+02  0.00000000000E+00 0. -1.
          1   -1    0    0  501    0 -0.00000000000E+00 -0.00000000000E+00 -0.17863694452E+04  0.17863694452E+04  0.00000000000E+00 0. -1.
         25    2    1    2    0    0 -0.12390836771E+02 -0.42337202108E+02 -0.54700502528E+03  0.56283472328E+03  0.12498982572E+03 0.  0.
          2    1    1    2  501    0  0.20550312936E+02  0.16022850813E+02 -0.12291913278E+04  0.12294675138E+04  0.00000000000E+00 0. -1.
          1    1    1    2  502    0 -0.81594761648E+01  0.26314351295E+02  0.87380839928E+02  0.91621140148E+02  0.00000000000E+00 0. -1.
         22    1    3    3    0    0 -0.61770785138E+02  0.74141778325E+01 -0.27398182906E+03  0.28095665606E+03  0.00000000000E+00 0.  1.
         22    1    3    3    0    0  0.49379948366E+02 -0.49751379940E+02 -0.27302319622E+03  0.28187806722E+03  0.00000000000E+00 0.  1.
</event>
<event>
 7    1  0.5575489E-006  0.4341650E+02  0.7818608E-02  0.1510126E+00
          2   -1    0    0  502    0  0.00000000000E+00  0.00000000000E+00  0.84319729726E+02  0.84319729726E+02  0.00000000000E+00 0. -1.
          1   -1    0    0  501    0 -0.00000000000E+00 -0.00000000000E+00 -0.22387617650E+04  0.22387617650E+04  0.00000000000E+00 0. -1.
         25    2    1    2    0    0  0.20701872935E+02 -0.28157060473E+02 -0.22557698008E+03  0.26025246382E+03  0.12499993354E+03 0.  0.
          2    1    1    2  501    0  0.23380217364E+02  0.27867947469E+02 -0.19884095043E+04  0.19887422191E+04  0.00000000000E+00 0. -1.
          1    1    1    2  502    0 -0.44082090299E+02  0.28911300429E+00  0.59544449104E+02  0.74086811853E+02  0.00000000000E+00 0. -1.
         22    1    3    3    0    0  0.57155481749E+01 -0.41961324868E+02 -0.97380989009E+01  0.43454008397E+02  0.00000000000E+00 0.  1.
         22    1    3    3    0    0  0.14986324760E+02  0.13804264395E+02 -0.21583888118E+03  0.21679845542E+03  0.00000000000E+00 0.  1.
</event>
<event>
 7    1  0.5575489E-006  0.4673133E+02  0.7818608E-02  0.1551142E+00
          2   -1    0    0  502    0  0.00000000000E+00  0.00000000000E+00  0.98454744654E+02  0.98454744654E+02  0.00000000000E+00 0. -1.
          1   -1    0    0  501    0 -0.00000000000E+00 -0.00000000000E+00 -0.96401537734E+03  0.96401537734E+03  0.00000000000E+00 0. -1.
         25    2    1    2    0    0  0.16218322098E+02 -0.15772048648E+02 -0.12376502389E+03  0.17735525184E+03  0.12500125090E+03 0.  0.
          2    1    1    2  501    0  0.13455191269E+02 -0.22000921393E+02 -0.80517597020E+03  0.80558886891E+03  0.00000000000E+00 0. -1.
          1    1    1    2  502    0 -0.29673513366E+02  0.37772970042E+02  0.63380361409E+02  0.79526001242E+02  0.00000000000E+00 0. -1.
         22    1    3    3    0    0 -0.52016636575E+02 -0.20076084146E+02 -0.74640619833E+02  0.93166527059E+02  0.00000000000E+00 0. -1.
         22    1    3    3    0    0  0.68234958673E+02  0.43040354977E+01 -0.49124404059E+02  0.84188724784E+02  0.00000000000E+00 0. -1.
</event>
<event>
 7    1  0.5575489E-006  0.4097756E+02  0.7818608E-02  0.1556040E+00
          2   -1    0    0  502    0  0.00000000000E+00  0.00000000000E+00  0.98355524374E+03  0.98355524374E+03  0.00000000000E+00 0. -1.
          1   -1    0    0  501    0 -0.00000000000E+00 -0.00000000000E+00 -0.13183082903E+03  0.13183082903E+03  0.00000000000E+00 0. -1.
         25    2    1    2    0    0 -0.58566644561E+00  0.57745694403E+02  0.20670271465E+03  0.24836436437E+03  0.12499574800E+03 0.  0.
          2    1    1    2  501    0 -0.18416392366E+02 -0.21755350350E+02 -0.10861198009E+03  0.11228989712E+03  0.00000000000E+00 0. -1.
          1    1    1    2  502    0  0.19002058812E+02 -0.35990344053E+02  0.75363368015E+03  0.75473181128E+03  0.00000000000E+00 0. -1.
         22    1    3    3    0    0  0.39926137373E+02  0.54267569750E+02  0.43553229791E+02  0.80224369099E+02  0.00000000000E+00 0. -1.
         22    1    3    3    0    0 -0.40511803818E+02  0.34781246532E+01  0.16314948486E+03  0.16813999527E+03  0.00000000000E+00 0. -1.
</event>
<event>
 7    1  0.5575489E-006  0.8935387E+02  0.7818608E-02  0.1468587E+00
          2   -1    0    0  502    0  0.00000000000E+00  0.00000000000E+00  0.65683400111E+03  0.65683400111E+03  0.00000000000E+00 0. -1.
          1   -1    0    0  501    0 -0.00000000000E+00 -0.00000000000E+00 -0.11773172022E+04  0.11773172022E+04  0.00000000000E+00 0. -1.
         25    2    1    2    0    0 -0.78250029704E+02  0.60860302345E+02  0.31862522784E+03  0.35633450428E+03  0.12500079829E+03 0.  0.
          2    1    1    2  501    0  0.81101045244E+02 -0.37418714367E+02 -0.11563014310E+04  0.11597458942E+04  0.00000000000E+00 0. -1.
          1    1    1    2  502    0 -0.28510155399E+01 -0.23441587978E+02  0.31719300206E+03  0.31807080485E+03  0.00000000000E+00 0. -1.
         22    1    3    3    0    0 -0.70766402203E+02 -0.63610894709E+01  0.74236637485E+02  0.10275906522E+03  0.00000000000E+00 0. -1.
         22    1    3    3    0    0 -0.74836275011E+01  0.67221391816E+02  0.24438859036E+03  0.25357543906E+03  0.00000000000E+00 0. -1.
</event>
<event>
 7    1  0.5575489E-006  0.1586647E+03  0.7818608E-02  0.1283990E+00
          2   -1    0    0  502    0  0.00000000000E+00  0.00000000000E+00  0.15015006457E+04  0.15015006457E+04  0.00000000000E+00 0. -1.
          1   -1    0    0  501    0 -0.00000000000E+00 -0.00000000000E+00 -0.11326153364E+03  0.11326153364E+03  0.00000000000E+00 0. -1.
         25    2    1    2    0    0  0.44644671673E+01 -0.14967340833E+03  0.81042645953E+03  0.83357142723E+03  0.12501286877E+03 0.  0.
          2    1    1    2  501    0  0.56391539272E+02  0.14992156562E+03 -0.36161790694E+02  0.16420766317E+03  0.00000000000E+00 0. -1.
          1    1    1    2  502    0 -0.60856006439E+02 -0.24815729136E+00  0.61397444320E+03  0.61698308891E+03  0.00000000000E+00 0. -1.
         22    1    3    3    0    0 -0.97938711707E+01 -0.16997373266E+03  0.70855362610E+03  0.72872164149E+03  0.00000000000E+00 0.  1.
         22    1    3    3    0    0  0.14258338338E+02  0.20300324329E+02  0.10187283342E+03  0.10484978574E+03  0.00000000000E+00 0.  1.
</event>
<event>
 7    1  0.5575489E-006  0.1649154E+03  0.7818608E-02  0.1278334E+00
          2   -1    0    0  502    0  0.00000000000E+00  0.00000000000E+00  0.52477066665E+04  0.52477066665E+04  0.00000000000E+00 0. -1.
          1   -1    0    0  501    0 -0.00000000000E+00 -0.00000000000E+00 -0.15203241475E+02  0.15203241475E+02  0.00000000000E+00 0. -1.
         25    2    1    2    0    0 -0.12911015601E+03  0.13761103779E+02  0.15525761489E+04  0.15630022520E+04  0.12499816488E+03 0.  0.
          2    1    1    2  501    0  0.18545069517E+03  0.11588959177E+02  0.88492248193E+03  0.90422014097E+03  0.00000000000E+00 0. -1.
          1    1    1    2  502    0 -0.56340539164E+02 -0.25350062956E+02  0.27950047942E+04  0.27956875150E+04  0.00000000000E+00 0. -1.
         22    1    3    3    0    0 -0.14203014056E+03  0.20539214600E+02  0.10011462901E+04  0.10113794117E+04  0.00000000000E+00 0.  1.
         22    1    3    3    0    0  0.12919984549E+02 -0.67781108214E+01  0.55142985882E+03  0.55162284034E+03  0.00000000000E+00 0.  1.
</event>
<event>
 7    1  0.5575489E-006  0.1229803E+03  0.7818608E-02  0.1303709E+00
          2   -1    0    0  502    0  0.00000000000E+00  0.00000000000E+00  0.21327678086E+04  0.21327678086E+04  0.00000000000E+00 0. -1.
          1   -1    0    0  501    0 -0.00000000000E+00 -0.00000000000E+00 -0.23311782168E+03  0.23311782168E+03  0.00000000000E+00 0. -1.
         25    2    1    2    0    0  0.12738301030E+03  0.22314921014E+02  0.30067079550E+03  0.35036161257E+03  0.12500378106E+03 0.  0.
          2    1    1    2  501    0 -0.32219153997E+02  0.56853647464E+02 -0.20096769913E+03  0.21132540597E+03  0.00000000000E+00 0. -1.
          1    1    1    2  502    0 -0.95163856308E+02 -0.79168568478E+02  0.17999468905E+04  0.18041986117E+04  0.00000000000E+00 0. -1.
         22    1    3    3    0    0  0.54208877569E+02 -0.46443401130E+02  0.75961744467E+02  0.10423904517E+03  0.00000000000E+00 0.  1.
         22    1    3    3    0    0  0.73174132736E+02  0.68758322143E+02  0.22470905104E+03  0.24612256740E+03  0.00000000000E+00 0.  1.
</event>
<event>
 7    1  0.5575489E-006  0.3483055E+02  0.7818608E-02  0.1631664E+00
          2   -1    0    0  502    0  0.00000000000E+00  0.00000000000E+00  0.64785413452E+03  0.64785413452E+03  0.00000000000E+00 0. -1.
          1   -1    0    0  501    0 -0.00000000000E+00 -0.00000000000E+00 -0.13594303923E+04  0.13594303923E+04  0.00000000000E+00 0. -1.
         25    2    1    2    0    0 -0.41950660568E+02 -0.23952568154E+02 -0.44489565193E+03  0.46464373479E+03  0.12501230230E+03 0.  0.
          2    1    1    2  501    0  0.20858590471E+02 -0.37528418197E+01 -0.90406129729E+03  0.90430967808E+03  0.00000000000E+00 0. -1.
          1    1    1    2  502    0  0.21092070097E+02  0.27705409973E+02  0.63738069146E+03  0.63833111393E+03  0.00000000000E+00 0. -1.
         22    1    3    3    0    0 -0.37057668766E+01 -0.48108626886E+02 -0.59514439984E+02  0.76616847074E+02  0.00000000000E+00 0. -1.
         22    1    3    3    0    0 -0.38244893692E+02  0.24156058732E+02 -0.38538121195E+03  0.38802688771E+03  0.00000000000E+00 0. -1.
</event>
<event>
 7    1  0.5575489E-006  0.4782624E+02  0.7818608E-02  0.1470710E+00
          2   -1    0    0  502    0  0.00000000000E+00  0.00000000000E+00  0.85274706637E+02  0.85274706637E+02  0.00000000000E+00 0. -1.
          1   -1    0    0  501    0 -0.00000000000E+00 -0.00000000000E+00 -0.11783540180E+04  0.11783540180E+04  0.00000000000E+00 0. -1.
         25    2    1    2    0    0  0.10553377752E+02  0.19795614200E+02 -0.10389308029E+03  0.16407742518E+03  0.12499755677E+03 0.  0.
          2    1    1    2  501    0  0.28154169790E+02 -0.39540237578E+02 -0.10351569918E+04  0.10362944009E+04  0.00000000000E+00 0. -1.
          1    1    1    2  502    0 -0.38707547542E+02  0.19744623378E+02  0.45970760655E+02  0.63256898630E+02  0.00000000000E+00 0. -1.
         22    1    3    3    0    0 -0.42834723909E+02 -0.48037978069E+01 -0.95398357310E+02  0.10468398456E+03  0.00000000000E+00 0.  1.
         22    1    3    3    0    0  0.53388101661E+02  0.24599412007E+02 -0.84947229786E+01  0.59393440618E+02  0.00000000000E+00 0.  1.
</event>
<event>
 7    1  0.5575489E-006  0.1272756E+03  0.7818608E-02  0.1349122E+00
          2   -1    0    0  502    0  0.00000000000E+00  0.00000000000E+00  0.26781683616E+03  0.26781683616E+03  0.00000000000E+00 0. -1.
          1   -1    0    0  501    0 -0.00000000000E+00 -0.00000000000E+00 -0.16465016336E+04  0.16465016336E+04  0.00000000000E+00 0. -1.
         25    2    1    2    0    0 -0.84982874132E+02  0.10819000148E+03  0.26911213948E+02  0.18782175549E+03  0.12500253231E+03 0.  0.
          2    1    1    2  501    0  0.10538797471E+03 -0.71194999210E+02 -0.15606326908E+04  0.15658064212E+04  0.00000000000E+00 0. -1.
          1    1    1    2  502    0 -0.20405100582E+02 -0.36995002266E+02  0.15503667940E+03  0.16069029306E+03  0.00000000000E+00 0. -1.
         22    1    3    3    0    0 -0.79006075066E+02  0.27762321525E+02  0.57482632024E+02  0.10157243414E+03  0.00000000000E+00 0.  1.
         22    1    3    3    0    0 -0.59767990666E+01  0.80427679952E+02 -0.30571418076E+02  0.86249321346E+02  0.00000000000E+00 0.  1.
</event>
<event>
 7    1  0.5575489E-006  0.1263724E+03  0.7818608E-02  0.1243781E+00
          2   -1    0    0  502    0  0.00000000000E+00  0.00000000000E+00  0.74392005377E+03  0.74392005377E+03  0.00000000000E+00 0. -1.
          1   -1    0    0  501    0 -0.00000000000E+00 -0.00000000000E+00 -0.17829807062E+04  0.17829807062E+04  0.00000000000E+00 0. -1.
         25    2    1    2    0    0  0.19463106819E+02  0.35857416070E+02  0.86645003814E+01  0.13178204732E+03  0.12500747024E+03 0.  0.
          2    1    1    2  501    0  0.11316253282E+03  0.62464890776E+00 -0.17125138081E+04  0.17162487268E+04  0.00000000000E+00 0. -1.
          1    1    1    2  502    0 -0.13262563964E+03 -0.36482064978E+02  0.66478865538E+03  0.67886998584E+03  0.00000000000E+00 0. -1.
         22    1    3    3    0    0 -0.19873992207E+01  0.35291578393E+01  0.64039915259E+02  0.64167869351E+02  0.00000000000E+00 0.  1.
         22    1    3    3    0    0  0.21450506039E+02  0.32328258231E+02 -0.55375414877E+02  0.67614177969E+02  0.00000000000E+00 0.  1.
</event>
<event>
 7    1  0.5575489E-006  0.7508268E+02  0.7818608E-02  0.1482318E+00
          2   -1    0    0  502    0  0.00000000000E+00  0.00000000000E+00  0.22960412549E+03  0.22960412549E+03  0.00000000000E+00 0. -1.
          1   -1    0    0  501    0 -0.00000000000E+00 -0.00000000000E+00 -0.45837099017E+03  0.45837099017E+03  0.00000000000E+00 0. -1.
         25    2    1    2    0    0  0.73902465387E+02  0.33301935178E+02  0.19095463217E+02  0.15020159687E+03  0.12500115884E+03 0.  0.
          2    1    1    2  501    0 -0.55267430003E+02 -0.50692969034E+02 -0.38807899413E+03  0.39525886659E+03  0.00000000000E+00 0. -1.
          1    1    1    2  502    0 -0.18635035384E+02  0.17391033856E+02  0.14021666624E+03  0.14251465220E+03  0.00000000000E+00 0. -1.
         22    1    3    3    0    0 -0.31856362980E+02  0.17891845726E+02  0.23142228974E+02  0.43249378812E+02  0.00000000000E+00 0.  1.
         22    1    3    3    0    0  0.10575882837E+03  0.15410089453E+02 -0.40467657577E+01  0.10695221806E+03  0.00000000000E+00 0.  1.
</event>
<event>
 7    1  0.5575489E-006  0.1844788E+03  0.7818608E-02  0.1229279E+00
          2   -1    0    0  502    0  0.00000000000E+00  0.00000000000E+00  0.12902739973E+04  0.12902739973E+04  0.00000000000E+00 0. -1.
          1   -1    0    0  501    0 -0.00000000000E+00 -0.00000000000E+00 -0.14117335469E+04  0.14117335469E+04  0.00000000000E+00 0. -1.
         25    2    1    2    0    0 -0.77676891279E+02 -0.65039783068E+02  0.36627788479E+02  0.16501582548E+03  0.12499901980E+03 0.  0.
          2    1    1    2  501    0  0.13229625230E+03  0.13644070897E+03 -0.13391220412E+04  0.13525406488E+04  0.00000000000E+00 0. -1.
          1    1    1    2  502    0 -0.54619361019E+02 -0.71400925904E+02  0.11810347032E+04  0.11844510699E+04  0.00000000000E+00 0. -1.
         22    1    3    3    0    0 -0.19923157873E+02 -0.92895150306E+01 -0.45278547866E+02  0.50332635596E+02  0.00000000000E+00 0.  1.
         22    1    3    3    0    0 -0.57753733406E+02 -0.55750268037E+02  0.81906336346E+02  0.11468318989E+03  0.00000000000E+00 0.  1.
</event>
<event>
 7    1  0.5575489E-006  0.9755553E+02  0.7818608E-02  0.1345389E+00
          2   -1    0    0  502    0  0.00000000000E+00  0.00000000000E+00  0.59988971542E+03  0.59988971542E+03  0.00000000000E+00 0. -1.
          1   -1    0    0  501    0 -0.00000000000E+00 -0.00000000000E+00 -0.39670918830E+03  0.39670918830E+03  0.00000000000E+00 0. -1.
         25    2    1    2    0    0  0.74461703832E+02 -0.95313156423E+02 -0.10790818468E+03  0.20469192232E+03  0.12500185446E+03 0.  0.
          2    1    1    2  501    0 -0.56910441457E+02 -0.36808983594E+00 -0.23266290542E+03  0.23952236095E+03  0.00000000000E+00 0. -1.
          1    1    1    2  502    0 -0.17551262375E+02  0.95681246259E+02  0.54375161722E+03  0.55238462046E+03  0.00000000000E+00 0. -1.
         22    1    3    3    0    0  0.54836499731E+02  0.17415489383E+02 -0.21961348601E+02  0.61584428272E+02  0.00000000000E+00 0. -1.
         22    1    3    3    0    0  0.19625204101E+02 -0.11272864581E+03 -0.85946836077E+02  0.14310749405E+03  0.00000000000E+00 0. -1.
</event>
<event>
 7    1  0.5575489E-006  0.1054479E+03  0.7818608E-02  0.1351536E+00
          2   -1    0    0  502    0  0.00000000000E+00  0.00000000000E+00  0.52984250625E+03  0.52984250625E+03  0.00000000000E+00 0. -1.
          1   -1    0    0  501    0 -0.00000000000E+00 -0.00000000000E+00 -0.13964223979E+04  0.13964223979E+04  0.00000000000E+00 0. -1.
         25    2    1    2    0    0 -0.49834574038E+02 -0.14041144720E+03 -0.47398308884E+03  0.51233316955E+03  0.12500579521E+03 0.  0.
          2    1    1    2  501    0  0.36800873367E+02  0.92185939327E+02 -0.89930533497E+03  0.90476662030E+03  0.00000000000E+00 0. -1.
          1    1    1    2  502    0  0.13033700671E+02  0.48225507869E+02  0.50670853221E+03  0.50916511426E+03  0.00000000000E+00 0. -1.
         22    1    3    3    0    0 -0.80533507885E+02 -0.45376096854E+02 -0.26624969225E+03  0.28183955485E+03  0.00000000000E+00 0.  1.
         22    1    3    3    0    0  0.30698933847E+02 -0.95035350342E+02 -0.20773339660E+03  0.23049361470E+03  0.00000000000E+00 0.  1.
</event>
<event>
 7    1  0.5575489E-006  0.9000100E+02  0.7818608E-02  0.1408654E+00
          2   -1    0    0  502    0  0.00000000000E+00  0.00000000000E+00  0.75490558766E+02  0.75490558766E+02  0.00000000000E+00 0. -1.
          1   -1    0    0  501    0 -0.00000000000E+00 -0.00000000000E+00 -0.93232575754E+03  0.93232575754E+03  0.00000000000E+00 0. -1.
         25    2    1    2    0    0 -0.68840928631E+02 -0.72693089803E+02 -0.21161760762E+03  0.26538781589E+03  0.12500128882E+03 0.  0.
          2    1    1    2  501    0  0.35333617074E+02 -0.10029935753E+02 -0.65189370301E+03  0.65292761018E+03  0.00000000000E+00 0. -1.
          1    1    1    2  502    0  0.33507311556E+02  0.82723025556E+02  0.66761118547E+01  0.89500890243E+02  0.00000000000E+00 0. -1.
         22    1    3    3    0    0 -0.75927827873E+01 -0.46479534190E+02 -0.18938675321E+03  0.19515465595E+03  0.00000000000E+00 0.  1.
         22    1    3    3    0    0 -0.61248145843E+02 -0.26213555613E+02 -0.22230854417E+02  0.70233159941E+02  0.00000000000E+00 0.  1.
</event>
<event>
 7    1  0.5575489E-006  0.7665265E+02  0.7818608E-02  0.1406628E+00
          2   -1    0    0  502    0  0.00000000000E+00  0.00000000000E+00  0.35816724965E+04  0.35816724965E+04  0.00000000000E+00 0. -1.
          1   -1    0    0  501    0 -0.00000000000E+00 -0.00000000000E+00 -0.12530756010E+04  0.12530756010E+04  0.00000000000E+00 0. -1.
         25    2    1    2    0    0 -0.21234332393E+02 -0.60367769215E+02  0.13847846426E+03  0.19721991363E+03  0.12499697931E+03 0.  0.
          2    1    1    2  501    0 -0.41107833806E+02  0.15163948761E+02 -0.12228782179E+04  0.12236629173E+04  0.00000000000E+00 0. -1.
          1    1    1    2  502    0  0.62342166198E+02  0.45203820454E+02  0.34129966492E+04  0.34138652666E+04  0.00000000000E+00 0. -1.
         22    1    3    3    0    0  0.43094929809E+02 -0.58960797013E+02  0.93830628755E+02  0.11890220962E+03  0.00000000000E+00 0.  1.
         22    1    3    3    0    0 -0.64329262202E+02 -0.14069722021E+01  0.44647835507E+02  0.78317704012E+02  0.00000000000E+00 0.  1.
</event>
<event>
 7    1  0.5575489E-006  0.1368079E+03  0.7818608E-02  0.1352039E+00
          2   -1    0    0  502    0  0.00000000000E+00  0.00000000000E+00  0.30265293733E+04  0.30265293733E+04  0.00000000000E+00 0. -1.
          1   -1    0    0  501    0 -0.00000000000E+00 -0.00000000000E+00 -0.11570961313E+03  0.11570961313E+03  0.00000000000E+00 0. -1.
         25    2    1    2    0    0 -0.55253879048E+02  0.99777263088E+02  0.19541552623E+03  0.25849501253E+03  0.12499580085E+03 0.  0.
          2    1    1    2  501    0  0.18654964142E+02  0.33495570631E+02 -0.78004922611E+02  0.86917943433E+02  0.00000000000E+00 0. -1.
          1    1    1    2  502    0  0.36598914906E+02 -0.13327283372E+03  0.27934091566E+04  0.27968260305E+04  0.00000000000E+00 0. -1.
         22    1    3    3    0    0 -0.37894681630E+01  0.11491436080E+03  0.12294861044E+03  0.16833309596E+03  0.00000000000E+00 0.  1.
         22    1    3    3    0    0 -0.51464410885E+02 -0.15137097711E+02  0.72466915791E+02  0.90161916568E+02  0.00000000000E+00 0.  1.
</event>
<event>
 7    1  0.5575489E-006  0.1077842E+03  0.7818608E-02  0.1269273E+00
          2   -1    0    0  502    0  0.00000000000E+00  0.00000000000E+00  0.14334527305E+04  0.14334527305E+04  0.00000000000E+00 0. -1.
          1   -1    0    0  501    0 -0.00000000000E+00 -0.00000000000E+00 -0.10509433871E+04  0.10509433871E+04  0.00000000000E+00 0. -1.
         25    2    1    2    0    0 -0.11177261705E+01  0.11671947736E+02  0.73305295577E+02  0.14539842277E+03  0.12501820390E+03 0.  0.
          2    1    1    2  501    0  0.89268368372E+02 -0.65197258179E+02 -0.10098681573E+04  0.10159002014E+04  0.00000000000E+00 0. -1.
          1    1    1    2  502    0 -0.88150642202E+02  0.53525310443E+02  0.13190722052E+04  0.13230974934E+04  0.00000000000E+00 0. -1.
         22    1    3    3    0    0 -0.61112693343E+02  0.11959473257E+02  0.20746704787E+02  0.65637002124E+02  0.00000000000E+00 0.  1.
         22    1    3    3    0    0  0.59994967173E+02 -0.28752552115E+00  0.52558590790E+02  0.79761420642E+02  0.00000000000E+00 0.  1.
</event>
<event>
 7    1  0.5575489E-006  0.7987654E+02  0.7818608E-02  0.1354457E+00
          2   -1    0    0  502    0  0.00000000000E+00  0.00000000000E+00  0.23308519562E+04  0.23308519562E+04  0.00000000000E+00 0. -1.
          1   -1    0    0  501    0 -0.00000000000E+00 -0.00000000000E+00 -0.70499641567E+02  0.70499641567E+02  0.00000000000E+00 0. -1.
         25    2    1    2    0    0  0.86205998451E+02  0.67668866907E+02  0.47777784731E+03  0.50587178694E+03  0.12499617485E+03 0.  0.
          2    1    1    2  501    0 -0.79173157834E+02 -0.37216866618E+01 -0.27776041259E+02  0.83986596199E+02  0.00000000000E+00 0. -1.
          1    1    1    2  502    0 -0.70328406172E+01 -0.63947180245E+02  0.18103505086E+04  0.18114932147E+04  0.00000000000E+00 0. -1.
         22    1    3    3    0    0  0.35473474738E+02 -0.31065230025E+02  0.22350280846E+03  0.22842268126E+03  0.00000000000E+00 0.  1.
         22    1    3    3    0    0  0.50732523713E+02  0.98734096932E+02  0.25427503885E+03  0.27744910568E+03  0.00000000000E+00 0.  1.
</event>
<event>
 7    1  0.5575489E-006  0.1537235E+03  0.7818608E-02  0.1351085E+00
          2   -1    0    0  502    0  0.00000000000E+00  0.00000000000E+00  0.23678897977E+04  0.23678897977E+04  0.00000000000E+00 0. -1.
          1   -1    0    0  501    0 -0.00000000000E+00 -0.00000000000E+00 -0.19084612416E+04  0.19084612416E+04  0.00000000000E+00 0. -1.
         25    2    1    2    0    0 -0.75745552725E+02  0.10412145107E+03  0.19891048246E+04  0.19971830997E+04  0.12499466043E+03 0.  0.
          2    1    1    2  501    0  0.68381439561E+02 -0.13772339665E+03 -0.19005209983E+04  0.19067311872E+04  0.00000000000E+00 0. -1.
          1    1    1    2  502    0  0.73641131646E+01  0.33601945574E+02  0.37084472981E+03  0.37243675239E+03  0.00000000000E+00 0. -1.
         22    1    3    3    0    0 -0.10792950051E+03  0.91359721139E+02  0.17310903179E+04  0.17368560863E+04  0.00000000000E+00 0. -1.
         22    1    3    3    0    0  0.32183947783E+02  0.12761729932E+02  0.25801450665E+03  0.26032701337E+03  0.00000000000E+00 0. -1.
</event>
<event>
 7    1  0.5575489E-006  0.1596947E+03  0.7818608E-02  0.1281407E+00
          2   -1    0    0  502    0  0.00000000000E+00  0.00000000000E+00  0.96603998080E+02  0.96603998080E+02  0.00000000000E+00 0. -1.
          1   -1    0    0  501    0 -0.00000000000E+00 -0.00000000000E+00 -0.17658547172E+04  0.17658547172E+04  0.00000000000E+00 0. -1.
         25    2    1    2    0    0  0.15473504113E+03  0.98976702494E+02 -0.20872910587E+03  0.30485097952E+03  0.12500783769E+03 0.  0.
          2    1    1    2  501    0 -0.59191830934E+02  0.18318764334E+02 -0.13888042526E+04  0.13901857797E+04  0.00000000000E+00 0. -1.
          1    1    1    2  502    0 -0.95543210198E+02 -0.11729546683E+03 -0.71717360611E+02  0.16742195605E+03  0.00000000000E+00 0. -1.
         22    1    3    3    0    0 -0.99545919973E+01  0.95709034750E+01 -0.70891781486E+02  0.72224239542E+02  0.00000000000E+00 0.  1.
         22    1    3    3    0    0  0.16468963313E+03  0.89405799019E+02 -0.13783732438E+03  0.23262673997E+03  0.00000000000E+00 0.  1.
</event>
<event>
 7    1  0.5575489E-006  0.3760311E+02  0.7818608E-02  0.1601785E+00
          2   -1    0    0  502    0  0.00000000000E+00  0.00000000000E+00  0.87534339474E+02  0.87534339474E+02  0.00000000000E+00 0. -1.
          1   -1    0    0  501    0 -0.00000000000E+00 -0.00000000000E+00 -0.61818310743E+03  0.61818310743E+03  0.00000000000E+00 0. -1.
         25    2    1    2    0    0 -0.14867789533E+02 -0.29031320781E+01 -0.16198972317E+03  0.20517039723E+03  0.12499896858E+03 0.  0.
          2    1    1    2  501    0  0.38204951406E+02  0.47201515726E+01 -0.43164188325E+03  0.43335506633E+03  0.00000000000E+00 0. -1.
          1    1    1    2  502    0 -0.23337161873E+02 -0.18170194945E+01  0.62982838462E+02  0.67191983338E+02  0.00000000000E+00 0. -1.
         22    1    3    3    0    0  0.53776909341E+02 -0.10250887877E+02 -0.53282893053E+02  0.76394393595E+02  0.00000000000E+00 0.  1.
         22    1    3    3    0    0 -0.68644698874E+02  0.73477557986E+01 -0.10870683012E+03  0.12877600364E+03  0.00000000000E+00 0.  1.
</event>
<event>
 7    1  0.5575489E-006  0.8409291E+02  0.7818608E-02  0.1407768E+00
          2   -1    0    0  502    0  0.00000000000E+00  0.00000000000E+00  0.11533510498E+04  0.11533510498E+04  0.00000000000E+00 0. -1.
          1   -1    0    0  501    0 -0.00000000000E+00 -0.00000000000E+00 -0.43170318071E+03  0.43170318071E+03  0.00000000000E+00 0. -1.
         25    2    1    2    0    0  0.43556747962E+02 -0.11313005870E+03  0.17522582274E+03  0.24703136881E+03  0.12499923099E+03 0.  0.
          2    1    1    2  501    0 -0.87730294048E+01  0.38599267072E+02 -0.39300942351E+03  0.39499781826E+03  0.00000000000E+00 0. -1.
          1    1    1    2  502    0 -0.34783718557E+02  0.74530791626E+02  0.93943146987E+03  0.94302504344E+03  0.00000000000E+00 0. -1.
         22    1    3    3    0    0  0.14655839199E+02 -0.12502844903E+03  0.85911311248E+02  0.15240623377E+03  0.00000000000E+00 0.  1.
         22    1    3    3    0    0  0.28900908764E+02  0.11898390335E+02  0.89314511488E+02  0.94625135045E+02  0.00000000000E+00 0.  1.
</event>
<event>
 7    1  0.5575489E-006  0.5032481E+02  0.7818608E-02  0.1472354E+00
          2   -1    0    0  502    0  0.00000000000E+00  0.00000000000E+00  0.99188591047E+03  0.99188591047E+03  0.00000000000E+00 0. -1.
          1   -1    0    0  501    0 -0.00000000000E+00 -0.00000000000E+00 -0.39840783429E+03  0.39840783429E+03  0.00000000000E+00 0. -1.
         25    2    1    2    0    0 -0.63892557440E+02 -0.10584790719E+02  0.50802296719E+03  0.52716788100E+03  0.12499737146E+03 0.  0.
          2    1    1    2  501    0  0.43732254109E+02 -0.24901251140E+02 -0.38632234119E+03  0.38958636226E+03  0.00000000000E+00 0. -1.
          1    1    1    2  502    0  0.20160303331E+02  0.35486041859E+02  0.47177745017E+03  0.47353950151E+03  0.00000000000E+00 0. -1.
         22    1    3    3    0    0 -0.73943374888E+02 -0.53923946344E+02  0.27185162436E+03  0.28684267525E+03  0.00000000000E+00 0. -1.
         22    1    3    3    0    0  0.10050817448E+02  0.43339155625E+02  0.23617134283E+03  0.24032520575E+03  0.00000000000E+00 0. -1.
</event>
<event>
 7    1  0.5575489E-006  0.7869656E+02  0.7818608E-02  0.1431998E+00
          2   -1    0    0  502    0  0.00000000000E+00  0.00000000000E+00  0.70991691032E+02  0.70991691032E+02  0.00000000000E+00 0. -1.
          1   -1    0    0  501    0 -0.00000000000E+00 -0.00000000000E+00 -0.28236489710E+04  0.28236489710E+04  0.00000000000E+00 0. -1.
         25    2    1    2    0    0 -0.34107855075E+02 -0.98102077008E+02 -0.55748921339E+03  0.58069567562E+03  0.12500352534E+03 0.  0.
          2    1    1    2  501    0  0.58960140736E+01  0.77210408412E+02 -0.22486434501E+04  0.22499763501E+04  0.00000000000E+00 0. -1.
          1    1    1    2  502    0  0.28211841001E+02  0.20891668596E+02  0.53475383542E+02  0.63968636333E+02  0.00000000000E+00 0. -1.
         22    1    3    3    0    0 -0.25004088667E+02 -0.30618338235E+02 -0.46047384693E+03  0.46216755705E+03  0.00000000000E+00 0.  1.
         22    1    3    3    0    0 -0.91037664080E+01 -0.67483738773E+02 -0.97015366463E+02  0.11852811857E+03  0.00000000000E+00 0.  1.
</event>
<event>
 7    1  0.5575489E-006  0.7067194E+02  0.7818608E-02  0.1484115E+00
          2   -1    0    0  502    0  0.00000000000E+00  0.00000000000E+00  0.65681542270E+03  0.65681542270E+03  0.00000000000E+00 0. -1.
          1   -1    0    0  501    0 -0.00000000000E+00 -0.00000000000E+00 -0.15087579682E+03  0.15087579682E+03  0.00000000000E+00 0. -1.
         25    2    1    2    0    0  0.37536839048E+02  0.45375618541E+02  0.98164361966E+02  0.16949758564E+03  0.12500091413E+03 0.  0.
          2    1    1    2  501    0 -0.62472435186E+02 -0.35718810709E+02 -0.10358820268E+03  0.12613149619E+03  0.00000000000E+00 0. -1.
          1    1    1    2  502    0  0.24935596138E+02 -0.96568078322E+01  0.51136346659E+03  0.51206213769E+03  0.00000000000E+00 0. -1.
         22    1    3    3    0    0  0.45103990677E+02 -0.15150656521E+02 -0.68323071415E+01  0.48068625826E+02  0.00000000000E+00 0.  1.
         22    1    3    3    0    0 -0.75671516282E+01  0.60526275062E+02  0.10499666911E+03  0.12142895981E+03  0.00000000000E+00 0.  1.
</event>
<event>
 7    1  0.5575489E-006  0.1354173E+03  0.7818608E-02  0.1229214E+00
          2   -1    0    0  502    0  0.00000000000E+00  0.00000000000E+00  0.22051811011E+04  0.22051811011E+04  0.00000000000E+00 0. -1.
          1   -1    0    0  501    0 -0.00000000000E+00 -0.00000000000E+00 -0.23140968831E+03  0.23140968831E+03  0.00000000000E+00 0. -1.
         25    2    1    2    0    0 -0.33666433889E+02  0.27286888414E+02  0.69251088043E+03  0.70503461261E+03  0.12499792964E+03 0.  0.
          2    1    1    2  501    0  0.13037693810E+03  0.47979670723E+02 -0.20094507965E+03  0.24429310229E+03  0.00000000000E+00 0. -1.
          1    1    1    2  502    0 -0.96710504207E+02 -0.75266559138E+02  0.14822056120E+04  0.14872630745E+04  0.00000000000E+00 0. -1.
         22    1    3    3    0    0  0.17047500029E+02  0.54351189872E+02  0.16823298952E+03  0.17761477376E+03  0.00000000000E+00 0. -1.
         22    1    3    3    0    0 -0.50713933918E+02 -0.27064301458E+02  0.52427789092E+03  0.52741983885E+03  0.00000000000E+00 0. -1.
</event>
<event>
 7    1  0.5575489E-006  0.3342218E+03  0.7818608E-02  0.1149491E+00
          2   -1    0    0  502    0  0.00000000000E+00  0.00000000000E+00  0.23750143763E+04  0.23750143763E+04  0.00000000000E+00 0. -1.
          1   -1    0    0  501    0 -0.00000000000E+00 -0.00000000000E+00 -0.19078416557E+04  0.19078416557E+04  0.00000000000E+00 0. -1.
         25    2    1    2    0    0 -0.22002010395E+03 -0.16243815831E+03  0.27125089312E+03  0.40496524499E+03  0.12499920485E+03 0.  0.
          2    1    1    2  501    0 -0.11056404995E+03  0.46727771031E+02 -0.18239406800E+04  0.18278860735E+04  0.00000000000E+00 0. -1.
          1    1    1    2  502    0  0.33058415390E+03  0.11571038728E+03  0.20198625074E+04  0.20500047135E+04  0.00000000000E+00 0. -1.
         22    1    3    3    0    0 -0.51292149241E+02 -0.50450729702E+01  0.37191729500E+01  0.51673683654E+02  0.00000000000E+00 0.  1.
         22    1    3    3    0    0 -0.16872795471E+03 -0.15739308534E+03  0.26753172017E+03  0.35329156133E+03  0.00000000000E+00 0.  1.
</event>
<event>
 7    1  0.5575489E-006  0.5855683E+02  0.7818608E-02  0.1453729E+00
          2   -1    0    0  502    0  0.00000000000E+00  0.00000000000E+00  0.13041450183E+04  0.13041450183E+04  0.00000000000E+00 0. -1.
          1   -1    0    0  501    0 -0.00000000000E+00 -0.00000000000E+00 -0.18626453226E+03  0.18626453226E+03  0.00000000000E+00 0. -1.
         25    2    1    2    0    0  0.38450167265E+01 -0.94390608079E+02  0.23799913370E+03  0.28494574814E+03  0.12500448271E+03 0.  0.
          2    1    1    2  501    0 -0.15138926558E+02  0.55878844419E+02 -0.15724367362E+03  0.16756254130E+03  0.00000000000E+00 0. -1.
          1    1    1    2  502    0  0.11293909832E+02  0.38511763659E+02  0.10371250260E+04  0.10379012611E+04  0.00000000000E+00 0. -1.
         22    1    3    3    0    0 -0.45071405923E+01  0.88767110317E-01 -0.14518771855E+02  0.15202530450E+02  0.00000000000E+00 0.  1.
         22    1    3    3    0    0  0.83521573188E+01 -0.94479375189E+02  0.25251790555E+03  0.26974321769E+03  0.00000000000E+00 0.  1.
</event>
<event>
 7    1  0.5575489E-006  0.5057604E+02  0.7818608E-02  0.1506629E+00
          2   -1    0    0  502    0  0.00000000000E+00  0.00000000000E+00  0.21980348889E+03  0.21980348889E+03  0.00000000000E+00 0. -1.
          1   -1    0    0  501    0 -0.00000000000E+00 -0.00000000000E+00 -0.33173701207E+03  0.33173701207E+03  0.00000000000E+00 0. -1.
         25    2    1    2    0    0  0.36264717012E+02  0.49176371383E+01  0.34518754114E+02  0.13473328442E+03  0.12498880226E+03 0.  0.
          2    1    1    2  501    0  0.14265855054E+01  0.31945945286E+02 -0.27552903858E+03  0.27737849532E+03  0.00000000000E+00 0. -1.
          1    1    1    2  502    0 -0.37691302518E+02 -0.36863582424E+02  0.12907676128E+03  0.13942872121E+03  0.00000000000E+00 0. -1.
         22    1    3    3    0    0  0.61609282228E+02 -0.30937637139E+02  0.53135244049E+02  0.87041341950E+02  0.00000000000E+00 0.  1.
         22    1    3    3    0    0 -0.25344565216E+02  0.35855274277E+02 -0.18616489934E+02  0.47691942474E+02  0.00000000000E+00 0.  1.
</event>
<event>
 7    1  0.5575489E-006  0.6063678E+02  0.7818608E-02  0.1429072E+00
          2   -1    0    0  502    0  0.00000000000E+00  0.00000000000E+00  0.46443137072E+03  0.46443137072E+03  0.00000000000E+00 0. -1.
          1   -1    0    0  501    0 -0.00000000000E+00 -0.00000000000E+00 -0.13437236363E+04  0.13437236363E+04  0.00000000000E+00 0. -1.
         25    2    1    2    0    0  0.49281534950E+02 -0.41054801221E+02 -0.28106059459E+03  0.31421997852E+03  0.12499988271E+03 0.  0.
          2    1    1    2  501    0 -0.42400410671E+02 -0.19288927817E+02 -0.10435022503E+04  0.10445414323E+04  0.00000000000E+00 0. -1.
          1    1    1    2  502    0 -0.68811242795E+01  0.60343729038E+02  0.44527057927E+03  0.44939359616E+03  0.00000000000E+00 0. -1.
         22    1    3    3    0    0  0.88569883092E+02 -0.45108554795E+02 -0.22117203915E+03  0.24247984825E+03  0.00000000000E+00 0. -1.
         22    1    3    3    0    0 -0.39288348141E+02  0.40537535743E+01 -0.59888555439E+02  0.71740130264E+02  0.00000000000E+00 0. -1.
</event>
<event>
 7    1  0.5575489E-006  0.1607804E+03  0.7818608E-02  0.1254818E+00
          2   -1    0    0  502    0  0.00000000000E+00  0.00000000000E+00  0.12639644854E+04  0.12639644854E+04  0.00000000000E+00 0. -1.
          1   -1    0    0  501    0 -0.00000000000E+00 -0.00000000000E+00 -0.46533025325E+03  0.46533025325E+03  0.00000000000E+00 0. -1.
         25    2    1    2    0    0 -0.71480255663E+02 -0.17846179745E+03  0.10649106637E+04  0.10893211825E+04  0.12501150655E+03 0.  0.
          2    1    1    2  501    0  0.42931078889E+02  0.67091418651E+02 -0.43144162833E+03  0.43873250922E+03  0.00000000000E+00 0. -1.
          1    1    1    2  502    0  0.28549176774E+02  0.11137037879E+03  0.16516519677E+03  0.20124104699E+03  0.00000000000E+00 0. -1.
         22    1    3    3    0    0 -0.93611462190E+02 -0.96518594643E+02  0.79772970846E+03  0.80898184944E+03  0.00000000000E+00 0. -1.
         22    1    3    3    0    0  0.22131206526E+02 -0.81943202802E+02  0.26718095526E+03  0.28033933302E+03  0.00000000000E+00 0. -1.
</event>
<event>
 7    1  0.5575489E-006  0.7123710E+02  0.7818608E-02  0.1433282E+00
          2   -1    0    0  502    0  0.00000000000E+00  0.00000000000E+00  0.63048107825E+03  0.63048107825E+03  0.00000000000E+00 0. -1.
          1   -1    0    0  501    0 -0.00000000000E+00 -0.00000000000E+00 -0.31276755601E+04  0.31276755601E+04  0.00000000000E+00 0. -1.
         25    2    1    2    0    0  0.61245883914E+01  0.55546847755E+02  0.56651999999E+02  0.14817665136E+03  0.12499563203E+03 0.  0.
          2    1    1    2  501    0 -0.44531044391E+02 -0.55727030440E+02 -0.30808014782E+04  0.30816272104E+04  0.00000000000E+00 0. -1.
          1    1    1    2  502    0  0.38406456000E+02  0.18018268465E+00  0.52695499636E+03  0.52835277658E+03  0.00000000000E+00 0. -1.
         22    1    3    3    0    0 -0.20806882692E+02 -0.35108295186E+02  0.27511638260E+02  0.49217974339E+02  0.00000000000E+00 0. -1.
         22    1    3    3    0    0  0.26931471084E+02  0.90655142941E+02  0.29140361739E+02  0.98958677026E+02  0.00000000000E+00 0. -1.
</event>
<event>
 7    1  0.5575489E-006  0.1108583E+03  0.7818608E-02  0.1312725E+00
          2   -1    0    0  502    0  0.00000000000E+00  0.00000000000E+00  0.86957588394E+03  0.86957588394E+03  0.00000000000E+00 0. -1.
          1   -1    0    0  501    0 -0.00000000000E+00 -0.00000000000E+00 -0.65704282184E+03  0.65704282184E+03  0.00000000000E+00 0. -1.
         25    2    1    2    0    0  0.10456227244E+03 -0.77803243798E+02  0.17197727621E+03  0.24937102504E+03  0.12499244390E+03 0.  0.
          2    1    1    2  501    0 -0.62231602885E+02 -0.24235516175E+02 -0.61188589533E+03  0.61551968413E+03  0.00000000000E+00 0. -1.
          1    1    1    2  502    0 -0.42330669555E+02  0.10203875997E+03  0.65244168121E+03  0.66172799662E+03  0.00000000000E+00 0. -1.
         22    1    3    3    0    0  0.93447421763E+01 -0.35990191966E+02 -0.11112434845E+02  0.38808560039E+02  0.00000000000E+00 0. -1.
         22    1    3    3    0    0  0.95217530264E+02 -0.41813051832E+02  0.18308971105E+03  0.21056246500E+03  0.00000000000E+00 0. -1.
</event>
<event>
 7    1  0.5575489E-006  0.1023410E+03  0.7818608E-02  0.1408594E+00
          2   -1    0    0  502    0  0.00000000000E+00  0.00000000000E+00  0.53443214804E+03  0.53443214804E+03  0.00000000000E+00 0. -1.
          1   -1    0    0  501    0 -0.00000000000E+00 -0.00000000000E+00 -0.14318676386E+04  0.14318676386E+04  0.00000000000E+00 0. -1.
         25    2    1    2    0    0  0.97763876467E+01  0.12946683098E+03  0.75112826893E+02  0.19525963267E+03  0.12500859693E+03 0.  0.
          2    1    1    2  501    0  0.68309489591E+01 -0.10174443819E+03 -0.13692411938E+04  0.13730331530E+04  0.00000000000E+00 0. -1.
          1    1    1    2  502    0 -0.16607336606E+02 -0.27722392790E+02  0.39669287632E+03  0.39800700096E+03  0.00000000000E+00 0. -1.
         22    1    3    3    0    0  0.64675203237E+02  0.55541885450E+02  0.18717752891E+02  0.87281941010E+02  0.00000000000E+00 0.  1.
         22    1    3    3    0    0 -0.54898815591E+02  0.73924945532E+02  0.56395074002E+02  0.10797769166E+03  0.00000000000E+00 0.  1.
</event>
<event>
 7    1  0.7665913E-006  0.4936188E+02  0.7818608E-02  0.1473327E+00
          2   -1    0    0  502    0  0.00000000000E+00  0.00000000000E+00  0.13798397310E+04  0.13798397310E+04  0.00000000000E+00 0. -1.
          1   -1    0    0  501    0 -0.00000000000E+00 -0.00000000000E+00 -0.66170350766E+03  0.66170350766E+03  0.00000000000E+00 0. -1.
         25    2    1    2    0    0 -0.34984312663E+02 -0.40885000633E+01 -0.25629458244E+03  0.28732177148E+03  0.12500507756E+03 0.  0.
          2    1    1    2  501    0  0.27360059016E+02  0.44700129963E+02 -0.38781947710E+03  0.39134463235E+03  0.00000000000E+00 0. -1.
          1    1    1    2  502    0  0.76242536466E+01 -0.40611629899E+02  0.13622502828E+04  0.13628768348E+04  0.00000000000E+00 0. -1.
         22    1    3    3    0    0 -0.32648870386E+01 -0.58552229142E+02 -0.17431126486E+03  0.18391150068E+03  0.00000000000E+00 0.  1.
         22    1    3    3    0    0 -0.31719425624E+02  0.54463729079E+02 -0.81983317579E+02  0.10341027081E+03  0.00000000000E+00 0.  1.
</event>
<event>
 7    1  0.5575489E-006  0.4431002E+02  0.7818608E-02  0.1535180E+00
          2   -1    0    0  502    0  0.00000000000E+00  0.00000000000E+00  0.20412166929E+04  0.20412166929E+04  0.00000000000E+00 0. -1.
          1   -1    0    0  501    0 -0.00000000000E+00 -0.00000000000E+00 -0.16796286606E+03  0.16796286606E+03  0.00000000000E+00 0. -1.
         25    2    1    2    0    0  0.21755593903E+02 -0.31377679908E+02 -0.29219585491E+02  0.13393845132E+03  0.12501143909E+03 0.  0.
          2    1    1    2  501    0 -0.44535352037E+02  0.11606381518E+02 -0.80131053316E+02  0.92407204149E+02  0.00000000000E+00 0. -1.
          1    1    1    2  502    0  0.22779758135E+02  0.19771298390E+02  0.19826044657E+04  0.19828339035E+04  0.00000000000E+00 0. -1.
         22    1    3    3    0    0 -0.21976251684E+02 -0.34012516096E+02 -0.65532584442E+02  0.77034579981E+02  0.00000000000E+00 0.  1.
         22    1    3    3    0    0  0.43731845587E+02  0.26348361880E+01  0.36312998951E+02  0.56903871336E+02  0.00000000000E+00 0.  1.
</event>
<event>
 7    1  0.5575489E-006  0.2655725E+02  0.7818608E-02  0.1641599E+00
          2   -1    0    0  502    0  0.00000000000E+00  0.00000000000E+00  0.17705291022E+04  0.17705291022E+04  0.00000000000E+00 0. -1.
          1   -1    0    0  501    0 -0.00000000000E+00 -0.00000000000E+00 -0.19333127953E+02  0.19333127953E+02  0.00000000000E+00 0. -1.
         25    2    1    2    0    0 -0.26100880085E+02 -0.14094948780E+01  0.11589259471E+04  0.11659451413E+04  0.12504190878E+03 0.  0.
          2    1    1    2  501    0  0.12247482117E+02  0.23711480237E+02 -0.40727022721E+01  0.26996703818E+02  0.00000000000E+00 0. -1.
          1    1    1    2  502    0  0.13853397968E+02 -0.22301985359E+02  0.59634272939E+03  0.59692038505E+03  0.00000000000E+00 0. -1.
         22    1    3    3    0    0 -0.49866231450E+02  0.45313068657E+02  0.84411065044E+03  0.84679555113E+03  0.00000000000E+00 0.  1.
         22    1    3    3    0    0  0.23765351365E+02 -0.46722563535E+02  0.31481529666E+03  0.31914959013E+03  0.00000000000E+00 0.  1.
</event>
<event>
 7    1  0.5575489E-006  0.1105898E+03  0.7818608E-02  0.1425100E+00
          2   -1    0    0  502    0  0.00000000000E+00  0.00000000000E+00  0.79604269990E+02  0.79604269990E+02  0.00000000000E+00 0. -1.
          1   -1    0    0  501    0 -0.00000000000E+00 -0.00000000000E+00 -0.10732724374E+04  0.10732724374E+04  0.00000000000E+00 0. -1.
         25    2    1    2    0    0 -0.14222110895E+02  0.13133864929E+03 -0.47532298616E+03  0.50892875276E+03  0.12499769991E+03 0.  0.
          2    1    1    2  501    0  0.13226747612E+02 -0.22760917735E+02 -0.53364423275E+03  0.53429315303E+03  0.00000000000E+00 0. -1.
          1    1    1    2  502    0  0.99536328356E+00 -0.10857773155E+03  0.15299051497E+02  0.10965480160E+03  0.00000000000E+00 0. -1.
         22    1    3    3    0    0  0.45693569382E+02  0.10602719363E+02 -0.13275768143E+03  0.14080100113E+03  0.00000000000E+00 0. -1.
         22    1    3    3    0    0 -0.59915680278E+02  0.12073592992E+03 -0.34256530473E+03  0.36812775163E+03  0.00000000000E+00 0. -1.
</event>
<event>
 7    1  0.5575489E-006  0.7163571E+02  0.7818608E-02  0.1356812E+00
          2   -1    0    0  502    0  0.00000000000E+00  0.00000000000E+00  0.25868253619E+03  0.25868253619E+03  0.00000000000E+00 0. -1.
          1   -1    0    0  501    0 -0.00000000000E+00 -0.00000000000E+00 -0.30825678904E+03  0.30825678904E+03  0.00000000000E+00 0. -1.
         25    2    1    2    0    0 -0.26872473462E+02  0.52919162952E+02  0.34873364188E+02  0.14270016086E+03  0.12499846696E+03 0.  0.
          2    1    1    2  501    0 -0.43022368046E+02 -0.60625471049E+02 -0.24122186957E+03  0.25241704033E+03  0.00000000000E+00 0. -1.
          1    1    1    2  502    0  0.69894841508E+02  0.77063080969E+01  0.15677425253E+03  0.17182212404E+03  0.00000000000E+00 0. -1.
         22    1    3    3    0    0 -0.41075880072E+02  0.56025616122E+02 -0.30397605110E+02  0.75829492824E+02  0.00000000000E+00 0.  1.
         22    1    3    3    0    0  0.14203406610E+02 -0.31064531699E+01  0.65270969298E+02  0.66870668037E+02  0.00000000000E+00 0.  1.
</event>
<event>
 7    1  0.5575489E-006  0.7058809E+02  0.7818608E-02  0.1499253E+00
          2   -1    0    0  502    0  0.00000000000E+00  0.00000000000E+00  0.80217636529E+02  0.80217636529E+02  0.00000000000E+00 0. -1.
          1   -1    0    0  501    0 -0.00000000000E+00 -0.00000000000E+00 -0.10786645386E+04  0.10786645386E+04  0.00000000000E+00 0. -1.
         25    2    1    2    0    0 -0.76025169999E+02  0.48500671319E+02 -0.19617475274E+03  0.24948305118E+03  0.12500047048E+03 0.  0.
          2    1    1    2  501    0  0.13515178383E+02 -0.19951550138E+02 -0.83354776780E+03  0.83389604004E+03  0.00000000000E+00 0. -1.
          1    1    1    2  502    0  0.62509991615E+02 -0.28549121182E+02  0.31275618452E+02  0.75503083921E+02  0.00000000000E+00 0. -1.
         22    1    3    3    0    0 -0.31561087175E+01  0.67366897119E+02 -0.14053589814E+03  0.15588007735E+03  0.00000000000E+00 0. -1.
         22    1    3    3    0    0 -0.72869061281E+02 -0.18866225800E+02 -0.55638854603E+02  0.93602973828E+02  0.00000000000E+00 0. -1.
</event>
<event>
 7    1  0.5575489E-006  0.4771265E+02  0.7818608E-02  0.1499069E+00
          2   -1    0    0  502    0  0.00000000000E+00  0.00000000000E+00  0.27482984420E+03  0.27482984420E+03  0.00000000000E+00 0. -1.
          1   -1    0    0  501    0 -0.00000000000E+00 -0.00000000000E+00 -0.65618782112E+03  0.65618782112E+03  0.00000000000E+00 0. -1.
         25    2    1    2    0    0  0.11252830940E+02 -0.23253097141E+02  0.12776565664E+03  0.18060123256E+03  0.12500163781E+03 0.  0.
          2    1    1    2  501    0 -0.19815681447E+02 -0.29692085078E+02 -0.62327335692E+03  0.62429476899E+03  0.00000000000E+00 0. -1.
          1    1    1    2  502    0  0.85628505069E+01  0.52945182219E+02  0.11414972336E+03  0.12612166377E+03  0.00000000000E+00 0. -1.
         22    1    3    3    0    0 -0.16163640540E+02 -0.45173551832E+02 -0.12742274570E+00  0.47978425330E+02  0.00000000000E+00 0.  1.
         22    1    3    3    0    0  0.27416471480E+02  0.21920454691E+02  0.12789307939E+03  0.13262280723E+03  0.00000000000E+00 0.  1.
</event>
<event>
 7    1  0.5575489E-006  0.5875324E+02  0.7818608E-02  0.1430940E+00
          2   -1    0    0  502    0  0.00000000000E+00  0.00000000000E+00  0.65185542296E+03  0.65185542296E+03  0.00000000000E+00 0. -1.
          1   -1    0    0  501    0 -0.00000000000E+00 -0.00000000000E+00 -0.34394968432E+03  0.34394968432E+03  0.00000000000E+00 0. -1.
         25    2    1    2    0    0 -0.41738925789E+02 -0.26438002136E+02  0.24729879614E+03  0.28146518429E+03  0.12499939805E+03 0.  0.
          2    1    1    2  501    0 -0.18172727944E+02  0.43777052492E+02 -0.32261363927E+03  0.32607704398E+03  0.00000000000E+00 0. -1.
          1    1    1    2  502    0  0.59911653733E+02 -0.17339050357E+02  0.38322058177E+03  0.38826287901E+03  0.00000000000E+00 0. -1.
         22    1    3    3    0    0 -0.17816516144E+02 -0.76701163495E+02  0.14534248388E+03  0.16530255397E+03  0.00000000000E+00 0.  1.
         22    1    3    3    0    0 -0.23922409645E+02  0.50263161359E+02  0.10195631226E+03  0.11616263032E+03  0.00000000000E+00 0.  1.
</event>
<event>
 7    1  0.5575489E-006  0.1102241E+03  0.7818608E-02  0.1306250E+00
          2   -1    0    0  502    0  0.00000000000E+00  0.00000000000E+00  0.11517000851E+04  0.11517000851E+04  0.00000000000E+00 0. -1.
          1   -1    0    0  501    0 -0.00000000000E+00 -0.00000000000E+00 -0.67740383304E+02  0.67740383304E+02  0.00000000000E+00 0. -1.
         25    2    1    2    0    0 -0.99915426057E+02 -0.19165697366E+02  0.15632553954E+03  0.22455000966E+03  0.12503845891E+03 0.  0.
          2    1    1    2  501    0  0.25853758485E+02 -0.66379034713E+02  0.11937576764E+02  0.72229487165E+02  0.00000000000E+00 0. -1.
          1    1    1    2  502    0  0.74061667572E+02  0.85544732078E+02  0.91569658546E+03  0.92266097155E+03  0.00000000000E+00 0. -1.
         22    1    3    3    0    0 -0.92513984466E+02  0.39998433167E+02  0.87339835612E+02  0.13336775796E+03  0.00000000000E+00 0.  1.
         22    1    3    3    0    0 -0.74014415906E+01 -0.59164130533E+02  0.68985703925E+02  0.91182251702E+02  0.00000000000E+00 0.  1.
</event>
<event>
 7    1  0.5575489E-006  0.9429624E+02  0.7818608E-02  0.1369584E+00
          2   -1    0    0  502    0  0.00000000000E+00  0.00000000000E+00  0.27007510167E+03  0.27007510167E+03  0.00000000000E+00 0. -1.
          1   -1    0    0  501    0 -0.00000000000E+00 -0.00000000000E+00 -0.13422786388E+04  0.13422786388E+04  0.00000000000E+00 0. -1.
         25    2    1    2    0    0 -0.58672823321E+02  0.84552294388E+01 -0.49914534696E+03  0.51796136691E+03  0.12499563642E+03 0.  0.
          2    1    1    2  501    0  0.10662784356E+03 -0.10717445879E+02 -0.82803215704E+03  0.83493808978E+03  0.00000000000E+00 0. -1.
          1    1    1    2  502    0 -0.47955020241E+02  0.22622164398E+01  0.25497396687E+03  0.25945428378E+03  0.00000000000E+00 0. -1.
         22    1    3    3    0    0 -0.34073359698E+02  0.65191136853E+02 -0.21733163925E+03  0.22944262809E+03  0.00000000000E+00 0. -1.
         22    1    3    3    0    0 -0.24599463623E+02 -0.56735907414E+02 -0.28181370771E+03  0.28851873882E+03  0.00000000000E+00 0. -1.
</event>
<event>
 7    1  0.5575489E-006  0.5347309E+02  0.7818608E-02  0.1521607E+00
          2   -1    0    0  502    0  0.00000000000E+00  0.00000000000E+00  0.14378367397E+04  0.14378367397E+04  0.00000000000E+00 0. -1.
          1   -1    0    0  501    0 -0.00000000000E+00 -0.00000000000E+00 -0.30324246016E+03  0.30324246016E+03  0.00000000000E+00 0. -1.
         25    2    1    2    0    0 -0.63564526140E+02 -0.46084944928E+02 -0.18738568883E+03  0.23854246673E+03  0.12499936369E+03 0.  0.
          2    1    1    2  501    0  0.26159035991E+02  0.79519975685E+01 -0.87690811041E+02  0.91854274644E+02  0.00000000000E+00 0. -1.
          1    1    1    2  502    0  0.37405490149E+02  0.38132947359E+02  0.14096707794E+04  0.14106824585E+04  0.00000000000E+00 0. -1.
         22    1    3    3    0    0 -0.57268067533E+02 -0.67171388968E+02 -0.54267436475E+02  0.10361747785E+03  0.00000000000E+00 0.  1.
         22    1    3    3    0    0 -0.62964586069E+01  0.21086444040E+02 -0.13311825235E+03  0.13492498887E+03  0.00000000000E+00 0.  1.
</event>
<event>
 7    1  0.5575489E-006  0.1009714E+03  0.7818608E-02  0.1427126E+00
          2   -1    0    0  502    0  0.00000000000E+00  0.00000000000E+00  0.74829724202E+03  0.74829724202E+03  0.00000000000E+00 0. -1.
          1   -1    0    0  501    0 -0.00000000000E+00 -0.00000000000E+00 -0.10538708609E+04  0.10538708609E+04  0.00000000000E+00 0. -1.
         25    2    1    2    0    0 -0.83119561479E+02 -0.39418786622E+02  0.22515206424E+03  0.27345976210E+03  0.12499634881E+03 0.  0.
          2    1    1    2  501    0  0.75831376927E+02  0.66858232363E+02 -0.10268288131E+04  0.10317935027E+04  0.00000000000E+00 0. -1.
          1    1    1    2  502    0  0.72881845520E+01 -0.27439445740E+02  0.49610312992E+03  0.49691483810E+03  0.00000000000E+00 0. -1.
         22    1    3    3    0    0 -0.15945901213E+02  0.37633536776E+02  0.12017285703E+03  0.12693333062E+03  0.00000000000E+00 0.  1.
         22    1    3    3    0    0 -0.67173660266E+02 -0.77052323398E+02  0.10497920721E+03  0.14652643147E+03  0.00000000000E+00 0.  1.
</event>
<event>
 7    1  0.5575489E-006  0.4599086E+02  0.7818608E-02  0.1516215E+00
          2   -1    0    0  502    0  0.00000000000E+00  0.00000000000E+00  0.67052484399E+02  0.67052484399E+02  0.00000000000E+00 0. -1.
          1   -1    0    0  501    0 -0.00000000000E+00 -0.00000000000E+00 -0.35100951471E+03  0.35100951471E+03  0.00000000000E+00 0. -1.
         25    2    1    2    0    0  0.14341883932E+02  0.74709832388E+02 -0.13910075335E+03  0.20189519690E+03  0.12500160902E+03 0.  0.
          2    1    1    2  501    0 -0.10145995231E+02 -0.31357307604E+02 -0.16494266968E+03  0.16820316953E+03  0.00000000000E+00 0. -1.
          1    1    1    2  502    0 -0.41958887005E+01 -0.43352524785E+02  0.20086392720E+02  0.47963632678E+02  0.00000000000E+00 0. -1.
         22    1    3    3    0    0 -0.31529058193E+01  0.71964292239E+02 -0.11348993473E+02  0.72921874807E+02  0.00000000000E+00 0.  1.
         22    1    3    3    0    0  0.17494789751E+02  0.27455401496E+01 -0.12775175988E+03  0.12897332209E+03  0.00000000000E+00 0.  1.
</event>
<event>
 7    1  0.5575489E-006  0.6241454E+02  0.7818608E-02  0.1454093E+00
          2   -1    0    0  502    0  0.00000000000E+00  0.00000000000E+00  0.15244837895E+04  0.15244837895E+04  0.00000000000E+00 0. -1.
          1   -1    0    0  501    0 -0.00000000000E+00 -0.00000000000E+00 -0.45478601957E+02  0.45478601957E+02  0.00000000000E+00 0. -1.
         25    2    1    2    0    0  0.12967302784E+02 -0.40801803196E+02  0.35968746897E+03  0.38318799697E+03  0.12500011040E+03 0.  0.
          2    1    1    2  501    0  0.17963953775E+02  0.62096444661E+02 -0.21497356822E+01  0.64678384630E+02  0.00000000000E+00 0. -1.
          1    1    1    2  502    0 -0.30931256560E+02 -0.21294641466E+02  0.11214674542E+04  0.11220960098E+04  0.00000000000E+00 0. -1.
         22    1    3    3    0    0  0.16516927093E+02  0.20516898180E+02  0.10041825464E+02  0.28188477259E+02  0.00000000000E+00 0.  1.
         22    1    3    3    0    0 -0.35496243083E+01 -0.61318701376E+02  0.34964564351E+03  0.35499951971E+03  0.00000000000E+00 0.  1.
</event>
<event>
 7    1  0.5575489E-006  0.8557178E+02  0.7818608E-02  0.1341849E+00
          2   -1    0    0  502    0  0.00000000000E+00  0.00000000000E+00  0.19715950039E+03  0.19715950039E+03  0.00000000000E+00 0. -1.
          1   -1    0    0  501    0 -0.00000000000E+00 -0.00000000000E+00 -0.16958173415E+04  0.16958173415E+04  0.00000000000E+00 0. -1.
         25    2    1    2    0    0 -0.88092091891E+01  0.68411284843E+02 -0.23327797508E+03  0.27350050866E+03  0.12500483399E+03 0.  0.
          2    1    1    2  501    0  0.66813057598E+02 -0.32168672618E+01 -0.14308467227E+04  0.14324093956E+04  0.00000000000E+00 0. -1.
          1    1    1    2  502    0 -0.58003848408E+02 -0.65194417581E+02  0.16546685662E+03  0.18706693763E+03  0.00000000000E+00 0. -1.
         22    1    3    3    0    0  0.34634637583E+02 -0.22925097368E+02 -0.63425541262E+02  0.75815021560E+02  0.00000000000E+00 0. -1.
         22    1    3    3    0    0 -0.43443846772E+02  0.91336382211E+02 -0.16985243382E+03  0.19768548710E+03  0.00000000000E+00 0. -1.
</event>
<event>
 7    1  0.5575489E-006  0.9152064E+02  0.7818608E-02  0.1417431E+00
          2   -1    0    0  502    0  0.00000000000E+00  0.00000000000E+00  0.28403754513E+03  0.28403754513E+03  0.00000000000E+00 0. -1.
          1   -1    0    0  501    0 -0.00000000000E+00 -0.00000000000E+00 -0.17930694613E+03  0.17930694613E+03  0.00000000000E+00 0. -1.
         25    2    1    2    0    0 -0.89536472176E+02  0.91325689562E+01  0.40314786862E+02  0.15923896771E+03  0.12502632976E+03 0.  0.
          2    1    1    2  501    0  0.82613864419E+02 -0.42153855448E+02 -0.99926739130E+02  0.13633543676E+03  0.00000000000E+00 0. -1.
          1    1    1    2  502    0  0.69226077565E+01  0.33021286491E+02  0.16434255127E+03  0.16777008678E+03  0.00000000000E+00 0. -1.
         22    1    3    3    0    0 -0.10922795923E+03 -0.18989632509E+02  0.65085068890E+01  0.11105725497E+03  0.00000000000E+00 0. -1.
         22    1    3    3    0    0  0.19691487050E+02  0.28122201465E+02  0.33806279973E+02  0.48181712745E+02  0.00000000000E+00 0. -1.
</event>
<event>
 7    1  0.5575489E-006  0.9375836E+02  0.7818608E-02  0.1297850E+00
          2   -1    0    0  502    0  0.00000000000E+00  0.00000000000E+00  0.26534508877E+04  0.26534508877E+04  0.00000000000E+00 0. -1.
          1   -1    0    0  501    0 -0.00000000000E+00 -0.00000000000E+00 -0.11742436321E+03  0.11742436321E+03  0.00000000000E+00 0. -1.
         25    2    1    2    0    0 -0.68272806601E+02  0.10538323535E+02  0.25059659954E+02  0.14500072997E+03  0.12499997100E+03 0.  0.
          2    1    1    2  501    0  0.74891316237E+02 -0.10076194731E+03  0.12940613419E+02  0.12621069189E+03  0.00000000000E+00 0. -1.
          1    1    1    2  502    0 -0.66185096363E+01  0.90223623771E+02  0.24980262511E+04  0.24996638290E+04  0.00000000000E+00 0. -1.
         22    1    3    3    0    0  0.14404131895E+02 -0.19206107587E+02  0.48453627433E+02  0.54075018222E+02  0.00000000000E+00 0.  1.
         22    1    3    3    0    0 -0.82676938495E+02  0.29744431122E+02 -0.23393967479E+02  0.90925711744E+02  0.00000000000E+00 0.  1.
</event>
<event>
 7    1  0.5575489E-006  0.2769932E+02  0.7818608E-02  0.1653903E+00
          2   -1    0    0  502    0  0.00000000000E+00  0.00000000000E+00  0.24378054536E+04  0.24378054536E+04  0.00000000000E+00 0. -1.
          1   -1    0    0  501    0 -0.00000000000E+00 -0.00000000000E+00 -0.17690857637E+02  0.17690857637E+02  0.00000000000E+00 0. -1.
         25    2    1    2    0    0 -0.30609615981E+02 -0.29520727973E+02  0.16997435778E+04  0.17048663619E+04  0.12503063486E+03 0.  0.
          2    1    1    2  501    0  0.23163491582E+02  0.38293918752E+01 -0.56241900608E+01  0.24142143614E+02  0.00000000000E+00 0. -1.
          1    1    1    2  502    0  0.74461243983E+01  0.25691336098E+02  0.72599520823E+03  0.72648780574E+03  0.00000000000E+00 0. -1.
         22    1    3    3    0    0 -0.50275658474E+02 -0.68270315123E+02  0.13015911688E+04  0.13043496649E+04  0.00000000000E+00 0.  1.
         22    1    3    3    0    0  0.19666042494E+02  0.38749587150E+02  0.39815240901E+03  0.40051669694E+03  0.00000000000E+00 0.  1.
</event>
<event>
 7    1  0.5575489E-006  0.7508886E+02  0.7818608E-02  0.1481316E+00
          2   -1    0    0  502    0  0.00000000000E+00  0.00000000000E+00  0.11124462700E+03  0.11124462700E+03  0.00000000000E+00 0. -1.
          1   -1    0    0  501    0 -0.00000000000E+00 -0.00000000000E+00 -0.91951708591E+03  0.91951708591E+03  0.00000000000E+00 0. -1.
         25    2    1    2    0    0  0.14798397386E+02  0.61859273773E+02 -0.13452225072E+03  0.19433754489E+03  0.12500113240E+03 0.  0.
          2    1    1    2  501    0  0.25440313731E+02  0.34102352670E+01 -0.73674320590E+03  0.73719019982E+03  0.00000000000E+00 0. -1.
          1    1    1    2  502    0 -0.40238711117E+02 -0.65269509040E+02  0.62992997706E+02  0.99233968189E+02  0.00000000000E+00 0. -1.
         22    1    3    3    0    0 -0.42582159245E+02 -0.14275344472E+02 -0.43859733899E+02  0.62775010979E+02  0.00000000000E+00 0.  1.
         22    1    3    3    0    0  0.57380556631E+02  0.76134618245E+02 -0.90662516817E+02  0.13156253392E+03  0.00000000000E+00 0.  1.
</event>
<event>
 7    1  0.5575489E-006  0.6892550E+02  0.7818608E-02  0.1403336E+00
          2   -1    0    0  502    0  0.00000000000E+00  0.00000000000E+00  0.60290953360E+02  0.60290953360E+02  0.00000000000E+00 0. -1.
          1   -1    0    0  501    0 -0.00000000000E+00 -0.00000000000E+00 -0.93745790372E+03  0.93745790372E+03  0.00000000000E+00 0. -1.
         25    2    1    2    0    0  0.91024534959E+02 -0.10398465053E+02 -0.28360925708E+03  0.32319255590E+03  0.12500249377E+03 0.  0.
          2    1    1    2  501    0 -0.61155321076E+02 -0.29705149152E+02 -0.61600414599E+03  0.61974468699E+03  0.00000000000E+00 0. -1.
          1    1    1    2  502    0 -0.29869213883E+02  0.40103614206E+02  0.22446452709E+02  0.54811614185E+02  0.00000000000E+00 0. -1.
         22    1    3    3    0    0  0.16134572021E+02  0.34108511979E+02 -0.19615752045E+03  0.19975356776E+03  0.00000000000E+00 0. -1.
         22    1    3    3    0    0  0.74889962938E+02 -0.44506977032E+02 -0.87451736630E+02  0.12343898814E+03  0.00000000000E+00 0. -1.
</event>
<event>
 7    1  0.5575489E-006  0.5758395E+02  0.7818608E-02  0.1480962E+00
          2   -1    0    0  502    0  0.00000000000E+00  0.00000000000E+00  0.55208524752E+02  0.55208524752E+02  0.00000000000E+00 0. -1.
          1   -1    0    0  501    0 -0.00000000000E+00 -0.00000000000E+00 -0.13035982766E+04  0.13035982766E+04  0.00000000000E+00 0. -1.
         25    2    1    2    0    0  0.21952444563E+02  0.20818418616E+02 -0.56843796557E+03  0.58280529633E+03  0.12499990540E+03 0.  0.
          2    1    1    2  501    0  0.33489733340E+02 -0.20794366552E+01 -0.70960257576E+03  0.71039545453E+03  0.00000000000E+00 0. -1.
          1    1    1    2  502    0 -0.55442177903E+02 -0.18738981961E+02  0.29650789527E+02  0.65606050446E+02  0.00000000000E+00 0. -1.
         22    1    3    3    0    0  0.57277458824E+02  0.54130980877E+02 -0.31111750873E+03  0.32094388079E+03  0.00000000000E+00 0.  1.
         22    1    3    3    0    0 -0.35325014262E+02 -0.33312562261E+02 -0.25732045685E+03  0.26186141554E+03  0.00000000000E+00 0.  1.
</event>
<event>
 7    1  0.5575489E-006  0.6102601E+02  0.7818608E-02  0.1452251E+00
          2   -1    0    0  502    0  0.00000000000E+00  0.00000000000E+00  0.13072258803E+04  0.13072258803E+04  0.00000000000E+00 0. -1.
          1   -1    0    0  501    0 -0.00000000000E+00 -0.00000000000E+00 -0.35655442429E+04  0.35655442429E+04  0.00000000000E+00 0. -1.
         25    2    1    2    0    0 -0.42464577575E+02 -0.54327816611E+02  0.33749284433E+03  0.36644321573E+03  0.12499783349E+03 0.  0.
          2    1    1    2  501    0  0.40922942910E+01  0.60891607328E+02 -0.35504100820E+04  0.35509345651E+04  0.00000000000E+00 0. -1.
          1    1    1    2  502    0  0.38372283284E+02 -0.65637907170E+01  0.95459887517E+03  0.95539234242E+03  0.00000000000E+00 0. -1.
         22    1    3    3    0    0 -0.82569326595E+02 -0.19060787900E+02  0.24964738936E+03  0.26363768005E+03  0.00000000000E+00 0.  1.
         22    1    3    3    0    0  0.40104749020E+02 -0.35267028711E+02  0.87845454971E+02  0.10280553568E+03  0.00000000000E+00 0.  1.
</event>
<event>
 7    1  0.7498126E-006  0.8554170E+02  0.7818608E-02  0.1368124E+00
          2   -1    0    0  502    0  0.00000000000E+00  0.00000000000E+00  0.12871576286E+04  0.12871576286E+04  0.00000000000E+00 0. -1.
          1   -1    0    0  501    0 -0.00000000000E+00 -0.00000000000E+00 -0.15725462717E+04  0.15725462717E+04  0.00000000000E+00 0. -1.
         25    2    1    2    0    0  0.73024221441E+02 -0.21327739995E+02 -0.76964913180E+03  0.78343928559E+03  0.12501967334E+03 0.  0.
          2    1    1    2  501    0 -0.88597742315E+02 -0.29924444139E+02 -0.79269207123E+03  0.79818904533E+03  0.00000000000E+00 0. -1.
          1    1    1    2  502    0  0.15573520874E+02  0.51252184135E+02  0.12769525599E+04  0.12780755694E+04  0.00000000000E+00 0. -1.
         22    1    3    3    0    0  0.46838876297E+02 -0.57916028002E+02 -0.66970524367E+03  0.67383474238E+03  0.00000000000E+00 0.  1.
         22    1    3    3    0    0  0.26185345144E+02  0.36588288007E+02 -0.99943888124E+02  0.10960454321E+03  0.00000000000E+00 0.  1.
</event>
<event>
 7    1  0.9011967E-006  0.6383525E+02  0.7818608E-02  0.1390307E+00
          2   -1    0    0  502    0  0.00000000000E+00  0.00000000000E+00  0.25764297880E+04  0.25764297880E+04  0.00000000000E+00 0. -1.
          1   -1    0    0  501    0 -0.00000000000E+00 -0.00000000000E+00 -0.54079425162E+03  0.54079425162E+03  0.00000000000E+00 0. -1.
         25    2    1    2    0    0 -0.23638121784E+02  0.30005455368E+00 -0.27470162115E+03  0.30272842514E+03  0.12499867158E+03 0.  0.
          2    1    1    2  501    0  0.54793820922E+02 -0.56015950150E+02 -0.24558156610E+03  0.25777985781E+03  0.00000000000E+00 0. -1.
          1    1    1    2  502    0 -0.31155699138E+02  0.55715895596E+02  0.25559187236E+04  0.25567157566E+04  0.00000000000E+00 0. -1.
         22    1    3    3    0    0 -0.71038363687E+02 -0.22288692980E+02 -0.15157900294E+03  0.16887696433E+03  0.00000000000E+00 0. -1.
         22    1    3    3    0    0  0.47400241903E+02  0.22588747533E+02 -0.12312261821E+03  0.13385146081E+03  0.00000000000E+00 0. -1.
</event>
<event>
 7    1  0.5575489E-006  0.9237388E+02  0.7818608E-02  0.1449536E+00
          2   -1    0    0  502    0  0.00000000000E+00  0.00000000000E+00  0.98778444444E+03  0.98778444444E+03  0.00000000000E+00 0. -1.
          1   -1    0    0  501    0 -0.00000000000E+00 -0.00000000000E+00 -0.59645829567E+03  0.59645829567E+03  0.00000000000E+00 0. -1.
         25    2    1    2    0    0  0.58891434896E+02  0.61686442382E+02  0.96243814002E+01  0.15162557924E+03  0.12499707710E+03 0.  0.
          2    1    1    2  501    0 -0.42833854010E+02 -0.82436254825E+02 -0.52115946049E+03  0.52937478068E+03  0.00000000000E+00 0. -1.
          1    1    1    2  502    0 -0.16057580886E+02  0.20749812443E+02  0.90286122785E+03  0.90324238020E+03  0.00000000000E+00 0. -1.
         22    1    3    3    0    0 -0.29159531824E+01 -0.10500697951E+02  0.47937595439E+02  0.49160761760E+02  0.00000000000E+00 0.  1.
         22    1    3    3    0    0  0.61807388078E+02  0.72187140332E+02 -0.38313214038E+02  0.10246481748E+03  0.00000000000E+00 0.  1.
</event>
<event>
 7    1  0.5575489E-006  0.3916445E+02  0.7818608E-02  0.1533926E+00
          2   -1    0    0  502    0  0.00000000000E+00  0.00000000000E+00  0.30552164130E+03  0.30552164130E+03  0.00000000000E+00 0. -1.
          1   -1    0    0  501    0 -0.00000000000E+00 -0.00000000000E+00 -0.10477402303E+03  0.10477402303E+03  0.00000000000E+00 0. -1.
         25    2    1    2    0    0 -0.45969320510E+02 -0.43247713443E+02  0.25647884355E+02  0.14236200835E+03  0.12500233719E+03 0.  0.
          2    1    1    2  501    0  0.36066720082E+02  0.10295684695E+02 -0.37221951125E+02  0.52842057741E+02  0.00000000000E+00 0. -1.
          1    1    1    2  502    0  0.99026004287E+01  0.32952028748E+02  0.21232168504E+03  0.21509159823E+03  0.00000000000E+00 0. -1.
         22    1    3    3    0    0 -0.55019470643E+02 -0.67402130903E+02  0.55274587599E+02  0.10307991771E+03  0.00000000000E+00 0.  1.
         22    1    3    3    0    0  0.90501501325E+01  0.24154417460E+02 -0.29626703244E+02  0.39282090644E+02  0.00000000000E+00 0.  1.
</event>
<event>
 7    1  0.5575489E-006  0.8259100E+02  0.7818608E-02  0.1397437E+00
          2   -1    0    0  502    0  0.00000000000E+00  0.00000000000E+00  0.24523299746E+03  0.24523299746E+03  0.00000000000E+00 0. -1.
          1   -1    0    0  501    0 -0.00000000000E+00 -0.00000000000E+00 -0.10261064877E+03  0.10261064877E+03  0.00000000000E+00 0. -1.
         25    2    1    2    0    0 -0.29455269847E+02 -0.52560706867E+02  0.39966765522E+02  0.14440017859E+03  0.12499531352E+03 0.  0.
          2    1    1    2  501    0 -0.43725195367E+02 -0.78797146112E-01 -0.22522070199E+02  0.49184779810E+02  0.00000000000E+00 0. -1.
          1    1    1    2  502    0  0.73180465214E+02  0.52639504013E+02  0.12517765337E+03  0.15425868784E+03  0.00000000000E+00 0. -1.
         22    1    3    3    0    0 -0.66885047025E+02 -0.63407348572E+02  0.49025316882E+02  0.10439148942E+03  0.00000000000E+00 0. -1.
         22    1    3    3    0    0  0.37429777178E+02  0.10846641706E+02 -0.90585513597E+01  0.40008689164E+02  0.00000000000E+00 0. -1.
</event>
<event>
 7    1  0.5575489E-006  0.2447313E+03  0.7818608E-02  0.1303146E+00
          2   -1    0    0  502    0  0.00000000000E+00  0.00000000000E+00  0.17025527294E+03  0.17025527294E+03  0.00000000000E+00 0. -1.
          1   -1    0    0  501    0 -0.00000000000E+00 -0.00000000000E+00 -0.68362728608E+03  0.68362728608E+03  0.00000000000E+00 0. -1.
         25    2    1    2    0    0  0.39241552580E+02 -0.23411918546E+03 -0.20927478592E+03  0.34024624729E+03  0.12497951964E+03 0.  0.
          2    1    1    2  501    0  0.32670555260E+02 -0.47105426818E+01 -0.25786175000E+03  0.25996583719E+03  0.00000000000E+00 0. -1.
          1    1    1    2  502    0 -0.71912107840E+02  0.23882972814E+03 -0.46235477224E+02  0.25367047453E+03  0.00000000000E+00 0. -1.
         22    1    3    3    0    0 -0.21925968509E+02 -0.88884991392E+02 -0.14187519950E+03  0.16884863643E+03  0.00000000000E+00 0.  1.
         22    1    3    3    0    0  0.61167521089E+02 -0.14523419406E+03 -0.67399586419E+02  0.17139761087E+03  0.00000000000E+00 0.  1.
</event>
<event>
 7    1  0.5575489E-006  0.6489146E+02  0.7818608E-02  0.1396193E+00
          2   -1    0    0  502    0  0.00000000000E+00  0.00000000000E+00  0.21468164286E+03  0.21468164286E+03  0.00000000000E+00 0. -1.
          1   -1    0    0  501    0 -0.00000000000E+00 -0.00000000000E+00 -0.41945359326E+03  0.41945359326E+03  0.00000000000E+00 0. -1.
         25    2    1    2    0    0  0.47101000670E+02  0.12157678414E+02 -0.20475136734E+03  0.24477526970E+03  0.12500198727E+03 0.  0.
          2    1    1    2  501    0 -0.39783503058E+02  0.52319884574E+02 -0.18340827016E+03  0.19482990273E+03  0.00000000000E+00 0. -1.
          1    1    1    2  502    0 -0.73174976125E+01 -0.64477562988E+02  0.18338768709E+03  0.19453006369E+03  0.00000000000E+00 0. -1.
         22    1    3    3    0    0  0.51728525307E+02 -0.45375892003E+02 -0.69877135079E+02  0.98069495320E+02  0.00000000000E+00 0.  1.
         22    1    3    3    0    0 -0.46275246365E+01  0.57533570417E+02 -0.13487423226E+03  0.14670577438E+03  0.00000000000E+00 0.  1.
</event>
<event>
 7    1  0.5575489E-006  0.1348662E+03  0.7818608E-02  0.1246742E+00
          2   -1    0    0  502    0  0.00000000000E+00  0.00000000000E+00  0.25977954433E+04  0.25977954433E+04  0.00000000000E+00 0. -1.
          1   -1    0    0  501    0 -0.00000000000E+00 -0.00000000000E+00 -0.74240395089E+02  0.74240395089E+02  0.00000000000E+00 0. -1.
         25    2    1    2    0    0 -0.14713405313E+03  0.46994980831E+02  0.12316923451E+04  0.12476175639E+04  0.12500637953E+03 0.  0.
          2    1    1    2  501    0  0.12482126496E+03  0.53480501143E+02  0.75685544137E+01  0.13600659985E+03  0.00000000000E+00 0. -1.
          1    1    1    2  502    0  0.22312788174E+02 -0.10047548197E+03  0.12842941487E+04  0.12884116747E+04  0.00000000000E+00 0. -1.
         22    1    3    3    0    0 -0.68546348003E+02 -0.38225916771E+02  0.37562618717E+03  0.38373800311E+03  0.00000000000E+00 0.  1.
         22    1    3    3    0    0 -0.78587705127E+02  0.85220897602E+02  0.85606615790E+03  0.86387956075E+03  0.00000000000E+00 0.  1.
</event>
<event>
 7    1  0.5575489E-006  0.1163074E+03  0.7818608E-02  0.1342366E+00
          2   -1    0    0  502    0  0.00000000000E+00  0.00000000000E+00  0.16489811117E+03  0.16489811117E+03  0.00000000000E+00 0. -1.
          1   -1    0    0  501    0 -0.00000000000E+00 -0.00000000000E+00 -0.20369376456E+03  0.20369376456E+03  0.00000000000E+00 0. -1.
         25    2    1    2    0    0  0.30341747667E+02 -0.90875138785E+02 -0.97295412026E+02  0.18511307148E+03  0.12498615735E+03 0.  0.
          2    1    1    2  501    0  0.48788890853E+02 -0.44884385785E+01  0.79016443291E+01  0.49627995472E+02  0.00000000000E+00 0. -1.
          1    1    1    2  502    0 -0.79130638520E+02  0.95363577364E+02  0.50598114308E+02  0.13385080878E+03  0.00000000000E+00 0. -1.
         22    1    3    3    0    0  0.55637653902E+02  0.57150729560E+01 -0.22189532520E+02  0.60171304989E+02  0.00000000000E+00 0.  1.
         22    1    3    3    0    0 -0.25295906235E+02 -0.96590211741E+02 -0.75105879506E+02  0.12494176649E+03  0.00000000000E+00 0.  1.
</event>
<event>
 7    1  0.5575489E-006  0.7879605E+02  0.7818608E-02  0.1398034E+00
          2   -1    0    0  502    0  0.00000000000E+00  0.00000000000E+00  0.20054573682E+04  0.20054573682E+04  0.00000000000E+00 0. -1.
          1   -1    0    0  501    0 -0.00000000000E+00 -0.00000000000E+00 -0.17107151321E+03  0.17107151321E+03  0.00000000000E+00 0. -1.
         25    2    1    2    0    0  0.64671418186E+02  0.20917300811E+02  0.38408103044E+03  0.40958994250E+03  0.12500302898E+03 0.  0.
          2    1    1    2  501    0 -0.15521338184E+02  0.42892268111E+02 -0.15400006869E+03  0.16061344825E+03  0.00000000000E+00 0. -1.
          1    1    1    2  502    0 -0.49150080002E+02 -0.63809568922E+02  0.16043048933E+04  0.16063254907E+04  0.00000000000E+00 0. -1.
         22    1    3    3    0    0  0.15770046814E+02 -0.54833794343E+01 -0.43098013196E+01  0.17243439736E+02  0.00000000000E+00 0. -1.
         22    1    3    3    0    0  0.48901371372E+02  0.26400680245E+02  0.38839083176E+03  0.39234650277E+03  0.00000000000E+00 0. -1.
</event>
<event>
 7    1  0.5575489E-006  0.8176385E+02  0.7818608E-02  0.1348555E+00
          2   -1    0    0  502    0  0.00000000000E+00  0.00000000000E+00  0.11924443897E+03  0.11924443897E+03  0.00000000000E+00 0. -1.
          1   -1    0    0  501    0 -0.00000000000E+00 -0.00000000000E+00 -0.11469387749E+04  0.11469387749E+04  0.00000000000E+00 0. -1.
         25    2    1    2    0    0  0.23970485012E+02  0.59451059751E+02 -0.17407717681E+02  0.14155254088E+03  0.12500032215E+03 0.  0.
          2    1    1    2  501    0 -0.79445629560E+02 -0.23537201511E+02 -0.10461600507E+04  0.10494362580E+04  0.00000000000E+00 0. -1.
          1    1    1    2  502    0  0.55475144549E+02 -0.35913858240E+02  0.35873432519E+02  0.75194414932E+02  0.00000000000E+00 0. -1.
         22    1    3    3    0    0 -0.16152334294E+02  0.89069948737E+02 -0.88730916222E+01  0.90956502934E+02  0.00000000000E+00 0.  1.
         22    1    3    3    0    0  0.40122819306E+02 -0.29618888986E+02 -0.85346260591E+01  0.50596037946E+02  0.00000000000E+00 0.  1.
</event>
<event>
 7    1  0.5575489E-006  0.1387164E+03  0.7818608E-02  0.1265063E+00
          2   -1    0    0  502    0  0.00000000000E+00  0.00000000000E+00  0.17121491307E+03  0.17121491307E+03  0.00000000000E+00 0. -1.
          1   -1    0    0  501    0 -0.00000000000E+00 -0.00000000000E+00 -0.92025358572E+03  0.92025358572E+03  0.00000000000E+00 0. -1.
         25    2    1    2    0    0 -0.78475389587E+02 -0.11103400720E+03 -0.19434323931E+03  0.26810203422E+03  0.12498987382E+03 0.  0.
          2    1    1    2  501    0  0.13474034260E+03  0.49367509667E+02 -0.66765872696E+03  0.68290576701E+03  0.00000000000E+00 0. -1.
          1    1    1    2  502    0 -0.56264953008E+02  0.61666497537E+02  0.11296329362E+03  0.14046069756E+03  0.00000000000E+00 0. -1.
         22    1    3    3    0    0 -0.67833487120E+02 -0.75270095705E+02 -0.39379642700E+02  0.10870936271E+03  0.00000000000E+00 0.  1.
         22    1    3    3    0    0 -0.10641902468E+02 -0.35763911499E+02 -0.15496359661E+03  0.15939267150E+03  0.00000000000E+00 0.  1.
</event>
<event>
 7    1  0.5575489E-006  0.5889755E+02  0.7818608E-02  0.1422298E+00
          2   -1    0    0  502    0  0.00000000000E+00  0.00000000000E+00  0.31071718930E+03  0.31071718930E+03  0.00000000000E+00 0. -1.
          1   -1    0    0  501    0 -0.00000000000E+00 -0.00000000000E+00 -0.47273637520E+03  0.47273637520E+03  0.00000000000E+00 0. -1.
         25    2    1    2    0    0  0.56173722140E+02  0.71578465612E+02  0.76083832014E+02  0.17231683897E+03  0.12500151879E+03 0.  0.
          2    1    1    2  501    0 -0.33079239210E+01 -0.50391896565E+02 -0.41871936264E+03  0.42175370804E+03  0.00000000000E+00 0. -1.
          1    1    1    2  502    0 -0.52865798219E+02 -0.21186569046E+02  0.18061634473E+03  0.18938301749E+03  0.00000000000E+00 0. -1.
         22    1    3    3    0    0 -0.22952172290E+01 -0.30694984163E+02 -0.22193986567E+01  0.30860586600E+02  0.00000000000E+00 0. -1.
         22    1    3    3    0    0  0.58468939369E+02  0.10227344977E+03  0.78303230670E+02  0.14145625237E+03  0.00000000000E+00 0. -1.
</event>
<event>
 7    1  0.5575489E-006  0.1115118E+03  0.7818608E-02  0.1371608E+00
          2   -1    0    0  502    0  0.00000000000E+00  0.00000000000E+00  0.38869237427E+03  0.38869237427E+03  0.00000000000E+00 0. -1.
          1   -1    0    0  501    0 -0.00000000000E+00 -0.00000000000E+00 -0.45306342048E+03  0.45306342048E+03  0.00000000000E+00 0. -1.
         25    2    1    2    0    0  0.99245919069E+02 -0.15824733936E+02 -0.80837205139E+02  0.17961292530E+03  0.12500389812E+03 0.  0.
          2    1    1    2  501    0  0.11230907076E+02  0.38310399244E+02 -0.31216660918E+03  0.31470909083E+03  0.00000000000E+00 0. -1.
          1    1    1    2  502    0 -0.11047682614E+03 -0.22485665308E+02  0.32863276810E+03  0.34743377862E+03  0.00000000000E+00 0. -1.
         22    1    3    3    0    0  0.77331287110E+02 -0.68132188343E+02 -0.44517455457E+02  0.11226721202E+03  0.00000000000E+00 0.  1.
         22    1    3    3    0    0  0.21914631959E+02  0.52307454407E+02 -0.36319749682E+02  0.67345713281E+02  0.00000000000E+00 0.  1.
</event>
<event>
 7    1  0.5575489E-006  0.4819239E+02  0.7818608E-02  0.1519374E+00
          2   -1    0    0  502    0  0.00000000000E+00  0.00000000000E+00  0.89265640485E+03  0.89265640485E+03  0.00000000000E+00 0. -1.
          1   -1    0    0  501    0 -0.00000000000E+00 -0.00000000000E+00 -0.45147021348E+02  0.45147021348E+02  0.00000000000E+00 0. -1.
         25    2    1    2    0    0  0.61648746117E+02 -0.33423365353E+02  0.98645703007E+02  0.17399427302E+03  0.12500137228E+03 0.  0.
          2    1    1    2  501    0 -0.35555584511E+02  0.17072159083E+02  0.47373252912E+02  0.61643193437E+02  0.00000000000E+00 0. -1.
          1    1    1    2  502    0 -0.26093161606E+02  0.16351206270E+02  0.70149042758E+03  0.70216595974E+03  0.00000000000E+00 0. -1.
         22    1    3    3    0    0  0.12282258127E+02 -0.46267077011E+02 -0.14386804587E+02  0.49984761939E+02  0.00000000000E+00 0. -1.
         22    1    3    3    0    0  0.49366487990E+02  0.12843711659E+02  0.11303250759E+03  0.12400951108E+03  0.00000000000E+00 0. -1.
</event>
<event>
 7    1  0.5575489E-006  0.8702547E+02  0.7818608E-02  0.1426277E+00
          2   -1    0    0  502    0  0.00000000000E+00  0.00000000000E+00  0.88098572258E+03  0.88098572258E+03  0.00000000000E+00 0. -1.
          1   -1    0    0  501    0 -0.00000000000E+00 -0.00000000000E+00 -0.49920466686E+03  0.49920466686E+03  0.00000000000E+00 0. -1.
         25    2    1    2    0    0 -0.30692686042E+02 -0.62981742814E+02 -0.19246722738E+03  0.23995125450E+03  0.12499692004E+03 0.  0.
          2    1    1    2  501    0  0.22955732509E+02 -0.23921341715E+02 -0.27979425784E+03  0.28175170446E+03  0.00000000000E+00 0. -1.
          1    1    1    2  502    0  0.77369535330E+01  0.86903084529E+02  0.85404254094E+03  0.85848743048E+03  0.00000000000E+00 0. -1.
         22    1    3    3    0    0 -0.46560105111E+02 -0.94803389185E+02 -0.12467500638E+03  0.16339945901E+03  0.00000000000E+00 0.  1.
         22    1    3    3    0    0  0.15867419069E+02  0.31821646371E+02 -0.67792220995E+02  0.76551795493E+02  0.00000000000E+00 0.  1.
</event>
<event>
 7    1  0.5575489E-006  0.8752522E+02  0.7818608E-02  0.1355694E+00
          2   -1    0    0  502    0  0.00000000000E+00  0.00000000000E+00  0.27438980864E+04  0.27438980864E+04  0.00000000000E+00 0. -1.
          1   -1    0    0  501    0 -0.00000000000E+00 -0.00000000000E+00 -0.12314744680E+04  0.12314744680E+04  0.00000000000E+00 0. -1.
         25    2    1    2    0    0 -0.13259483822E+03 -0.28534720229E+01  0.68614302097E+03  0.70993470303E+03  0.12500201563E+03 0.  0.
          2    1    1    2  501    0  0.81764510640E+02  0.30991820261E+02 -0.12175979719E+04  0.12207336930E+04  0.00000000000E+00 0. -1.
          1    1    1    2  502    0  0.50830327579E+02 -0.28138348238E+02  0.20438785693E+04  0.20447041583E+04  0.00000000000E+00 0. -1.
         22    1    3    3    0    0 -0.42956267463E+02  0.56931056621E+02  0.34043427449E+03  0.34782449794E+03  0.00000000000E+00 0. -1.
         22    1    3    3    0    0 -0.89638570756E+02 -0.59784528644E+02  0.34570874648E+03  0.36211020509E+03  0.00000000000E+00 0. -1.
</event>
<event>
 7    1  0.5575489E-006  0.1669836E+03  0.7818608E-02  0.1310181E+00
          2   -1    0    0  502    0  0.00000000000E+00  0.00000000000E+00  0.76950101230E+02  0.76950101230E+02  0.00000000000E+00 0. -1.
          1   -1    0    0  501    0 -0.00000000000E+00 -0.00000000000E+00 -0.68501692457E+03  0.68501692457E+03  0.00000000000E+00 0. -1.
         25    2    1    2    0    0  0.16535461625E+03 -0.10144451978E+03 -0.25041184350E+03  0.34053343570E+03  0.12499515895E+03 0.  0.
          2    1    1    2  501    0 -0.42371541152E+02  0.16220444067E+02 -0.19590715127E+03  0.20109217346E+03  0.00000000000E+00 0. -1.
          1    1    1    2  502    0 -0.12298307510E+03  0.85224075709E+02 -0.16174782857E+03  0.22034141664E+03  0.00000000000E+00 0. -1.
         22    1    3    3    0    0  0.16195381884E+03 -0.85935941213E+02 -0.14450524053E+03  0.23344333353E+03  0.00000000000E+00 0. -1.
         22    1    3    3    0    0  0.34007974091E+01 -0.15508578564E+02 -0.10590660296E+03  0.10709010217E+03  0.00000000000E+00 0. -1.
</event>
<event>
 7    1  0.5575489E-006  0.1354484E+03  0.7818608E-02  0.1333108E+00
          2   -1    0    0  502    0  0.00000000000E+00  0.00000000000E+00  0.11794063505E+03  0.11794063505E+03  0.00000000000E+00 0. -1.
          1   -1    0    0  501    0 -0.00000000000E+00 -0.00000000000E+00 -0.69929060733E+03  0.69929060733E+03  0.00000000000E+00 0. -1.
         25    2    1    2    0    0  0.12101016587E+03 -0.49996652120E+02 -0.21351178577E+03  0.27992305335E+03  0.12500603053E+03 0.  0.
          2    1    1    2  501    0 -0.13851195311E+03  0.78925140619E+01 -0.43474288415E+03  0.45634332279E+03  0.00000000000E+00 0. -1.
          1    1    1    2  502    0  0.17501787239E+02  0.42104138058E+02  0.66904697648E+02  0.80964866241E+02  0.00000000000E+00 0. -1.
         22    1    3    3    0    0  0.10196215400E+03 -0.41956513376E+02 -0.22895279389E+03  0.25411810579E+03  0.00000000000E+00 0. -1.
         22    1    3    3    0    0  0.19048011867E+02 -0.80401387442E+01  0.15441008113E+02  0.25804947561E+02  0.00000000000E+00 0. -1.
</event>
<event>
 7    1  0.5575489E-006  0.1024660E+03  0.7818608E-02  0.1422507E+00
          2   -1    0    0  502    0  0.00000000000E+00  0.00000000000E+00  0.84907611185E+03  0.84907611185E+03  0.00000000000E+00 0. -1.
          1   -1    0    0  501    0 -0.00000000000E+00 -0.00000000000E+00 -0.37803575540E+03  0.37803575540E+03  0.00000000000E+00 0. -1.
         25    2    1    2    0    0 -0.56653187381E+02 -0.11663766407E+03  0.36406121041E+03  0.40617956865E+03  0.12500939464E+03 0.  0.
          2    1    1    2  501    0  0.37659952157E+02  0.94747534465E+02 -0.34922722908E+03  0.36380630123E+03  0.00000000000E+00 0. -1.
          1    1    1    2  502    0  0.18993235224E+02  0.21890129605E+02  0.45620637513E+03  0.45712599736E+03  0.00000000000E+00 0. -1.
         22    1    3    3    0    0  0.29134933476E+02  0.21211981618E+01  0.32531254040E+02  0.43722149075E+02  0.00000000000E+00 0. -1.
         22    1    3    3    0    0 -0.85788120857E+02 -0.11875886223E+03  0.33152995637E+03  0.36245741958E+03  0.00000000000E+00 0. -1.
</event>
<event>
 7    1  0.5575489E-006  0.1260398E+03  0.7818608E-02  0.1238395E+00
          2   -1    0    0  502    0  0.00000000000E+00  0.00000000000E+00  0.20904604942E+04  0.20904604942E+04  0.00000000000E+00 0. -1.
          1   -1    0    0  501    0 -0.00000000000E+00 -0.00000000000E+00 -0.83069954015E+03  0.83069954015E+03  0.00000000000E+00 0. -1.
         25    2    1    2    0    0  0.13448050281E+03 -0.52432564144E+02  0.19929318350E+03  0.27600458947E+03  0.12500632384E+03 0.  0.
          2    1    1    2  501    0 -0.97236170021E+02 -0.70031041067E+02 -0.78558432173E+03  0.79467096715E+03  0.00000000000E+00 0. -1.
          1    1    1    2  502    0 -0.37244332784E+02  0.12246360521E+03  0.18460520923E+04  0.18504844778E+04  0.00000000000E+00 0. -1.
         22    1    3    3    0    0  0.11764327051E+03 -0.46987649365E+02  0.68488805193E+02  0.14400866198E+03  0.00000000000E+00 0. -1.
         22    1    3    3    0    0  0.16837232295E+02 -0.54449147785E+01  0.13080437831E+03  0.13199592749E+03  0.00000000000E+00 0. -1.
</event>
<event>
 7    1  0.5575489E-006  0.5872188E+02  0.7818608E-02  0.1437627E+00
          2   -1    0    0  502    0  0.00000000000E+00  0.00000000000E+00  0.28590128551E+04  0.28590128551E+04  0.00000000000E+00 0. -1.
          1   -1    0    0  501    0 -0.00000000000E+00 -0.00000000000E+00 -0.81310457836E+03  0.81310457836E+03  0.00000000000E+00 0. -1.
         25    2    1    2    0    0  0.37513837636E+02  0.84104648266E+02  0.43442621542E+03  0.46133607798E+03  0.12499584125E+03 0.  0.
          2    1    1    2  501    0 -0.36798142317E+02 -0.26065643458E+02 -0.79866420197E+03  0.79993626531E+03  0.00000000000E+00 0. -1.
          1    1    1    2  502    0 -0.71569531818E+00 -0.58039004807E+02  0.24101462633E+04  0.24108450902E+04  0.00000000000E+00 0. -1.
         22    1    3    3    0    0  0.73569451505E+02  0.12137781251E+02  0.22061282482E+03  0.23287294477E+03  0.00000000000E+00 0. -1.
         22    1    3    3    0    0 -0.36055613869E+02  0.71966867015E+02  0.21381339060E+03  0.22846313321E+03  0.00000000000E+00 0. -1.
</event>
<event>
 7    1  0.5575489E-006  0.9372781E+02  0.7818608E-02  0.1358268E+00
          2   -1    0    0  502    0  0.00000000000E+00  0.00000000000E+00  0.69771633399E+03  0.69771633399E+03  0.00000000000E+00 0. -1.
          1   -1    0    0  501    0 -0.00000000000E+00 -0.00000000000E+00 -0.37615399562E+03  0.37615399562E+03  0.00000000000E+00 0. -1.
         25    2    1    2    0    0 -0.91519223978E+02 -0.10954407549E+03 -0.56497411740E+01  0.18982326398E+03  0.12500111656E+03 0.  0.
          2    1    1    2  501    0  0.54726571158E+02  0.71273533443E+02 -0.26995842405E+03  0.28452146646E+03  0.00000000000E+00 0. -1.
          1    1    1    2  502    0  0.36792652819E+02  0.38270542044E+02  0.59717050360E+03  0.59952559917E+03  0.00000000000E+00 0. -1.
         22    1    3    3    0    0 -0.88359287154E+02 -0.33395138881E+02 -0.44342218729E+02  0.10434956296E+03  0.00000000000E+00 0. -1.
         22    1    3    3    0    0 -0.31599368233E+01 -0.76148936606E+02  0.38692477555E+02  0.85473701022E+02  0.00000000000E+00 0. -1.
</event>
<event>
 7    1  0.5575489E-006  0.3339455E+03  0.7818608E-02  0.1131921E+00
          2   -1    0    0  502    0  0.00000000000E+00  0.00000000000E+00  0.11108989385E+04  0.11108989385E+04  0.00000000000E+00 0. -1.
          1   -1    0    0  501    0 -0.00000000000E+00 -0.00000000000E+00 -0.32282997304E+03  0.32282997304E+03  0.00000000000E+00 0. -1.
         25    2    1    2    0    0 -0.19448818799E+03  0.16503931232E+03  0.62266532602E+03  0.68439827715E+03  0.12500105467E+03 0.  0.
          2    1    1    2  501    0  0.33240018755E+03 -0.11010660719E+03 -0.16501514835E+03  0.38709604598E+03  0.00000000000E+00 0. -1.
          1    1    1    2  502    0 -0.13791199956E+03 -0.54932705131E+02  0.33041878782E+03  0.36223458844E+03  0.00000000000E+00 0. -1.
         22    1    3    3    0    0 -0.17508613398E+03  0.17010977466E+03  0.61703433876E+03  0.66356903556E+03  0.00000000000E+00 0.  1.
         22    1    3    3    0    0 -0.19402054001E+02 -0.50704623391E+01  0.56309872600E+01  0.20829241592E+02  0.00000000000E+00 0.  1.
</event>
<event>
 7    1  0.5575489E-006  0.1161018E+03  0.7818608E-02  0.1257522E+00
          2   -1    0    0  502    0  0.00000000000E+00  0.00000000000E+00  0.20895220586E+04  0.20895220586E+04  0.00000000000E+00 0. -1.
          1   -1    0    0  501    0 -0.00000000000E+00 -0.00000000000E+00 -0.43445290610E+03  0.43445290610E+03  0.00000000000E+00 0. -1.
         25    2    1    2    0    0  0.60486475367E+02 -0.20991495412E+03  0.16630501009E+03  0.30165929454E+03  0.12497228469E+03 0.  0.
          2    1    1    2  501    0 -0.19465800187E+02  0.11066482908E+03 -0.35657198889E+03  0.37385719872E+03  0.00000000000E+00 0. -1.
          1    1    1    2  502    0 -0.41020675180E+02  0.99250125037E+02  0.18453361313E+04  0.18484584714E+04  0.00000000000E+00 0. -1.
         22    1    3    3    0    0  0.78120552436E+02 -0.11228712097E+03  0.42977508068E+02  0.14338160429E+03  0.00000000000E+00 0. -1.
         22    1    3    3    0    0 -0.17634077069E+02 -0.97627833146E+02  0.12332750202E+03  0.15827769026E+03  0.00000000000E+00 0. -1.
</event>
<event>
 7    1  0.5575489E-006  0.1582549E+03  0.7818608E-02  0.1297389E+00
          2   -1    0    0  502    0  0.00000000000E+00  0.00000000000E+00  0.97703576972E+02  0.97703576972E+02  0.00000000000E+00 0. -1.
          1   -1    0    0  501    0 -0.00000000000E+00 -0.00000000000E+00 -0.92966446158E+03  0.92966446158E+03  0.00000000000E+00 0. -1.
         25    2    1    2    0    0  0.10718325061E+03 -0.84652332966E+02 -0.36439644740E+03  0.40873544586E+03  0.12500250852E+03 0.  0.
          2    1    1    2  501    0 -0.10544159087E+03  0.13844998143E+03 -0.51702779232E+03  0.54553099314E+03  0.00000000000E+00 0. -1.
          1    1    1    2  502    0 -0.17416597415E+01 -0.53797648465E+02  0.49463355109E+02  0.73101599556E+02  0.00000000000E+00 0. -1.
         22    1    3    3    0    0  0.11471515336E+03 -0.88686481802E+02 -0.37074466157E+03  0.39809102295E+03  0.00000000000E+00 0. -1.
         22    1    3    3    0    0 -0.75319027458E+01  0.40341488364E+01  0.63482141795E+01  0.10644422909E+02  0.00000000000E+00 0. -1.
</event>
<event>
 7    1  0.5575489E-006  0.7995628E+02  0.7818608E-02  0.1341724E+00
          2   -1    0    0  502    0  0.00000000000E+00  0.00000000000E+00  0.14693177823E+04  0.14693177823E+04  0.00000000000E+00 0. -1.
          1   -1    0    0  501    0 -0.00000000000E+00 -0.00000000000E+00 -0.10298091872E+04  0.10298091872E+04  0.00000000000E+00 0. -1.
         25    2    1    2    0    0  0.13511318969E+03  0.59409304371E+02  0.20726801551E+03  0.28349609726E+03  0.12499986972E+03 0.  0.
          2    1    1    2  501    0 -0.69459979428E+02 -0.17644757869E+02 -0.98916074589E+03  0.99175350134E+03  0.00000000000E+00 0. -1.
          1    1    1    2  502    0 -0.65653210266E+02 -0.41764546502E+02  0.12214013255E+04  0.12238773710E+04  0.00000000000E+00 0. -1.
         22    1    3    3    0    0  0.13321585009E+03  0.35607573594E+02  0.21749272776E+03  0.25752174402E+03  0.00000000000E+00 0.  1.
         22    1    3    3    0    0  0.18973396012E+01  0.23801730777E+02 -0.10224712248E+02  0.25974353238E+02  0.00000000000E+00 0.  1.
</event>
<event>
 7    1  0.5575489E-006  0.5594195E+02  0.7818608E-02  0.1489321E+00
          2   -1    0    0  502    0  0.00000000000E+00  0.00000000000E+00  0.85899540158E+02  0.85899540158E+02  0.00000000000E+00 0. -1.
          1   -1    0    0  501    0 -0.00000000000E+00 -0.00000000000E+00 -0.11279352587E+04  0.11279352587E+04  0.00000000000E+00 0. -1.
         25    2    1    2    0    0  0.59658616409E+02  0.50500089767E+02 -0.22238534673E+03  0.26681254453E+03  0.12499712756E+03 0.  0.
          2    1    1    2  501    0 -0.27173859580E+02 -0.48109505309E+02 -0.87824569521E+03  0.87998207044E+03  0.00000000000E+00 0. -1.
          1    1    1    2  502    0 -0.32484756829E+02 -0.23905844588E+01  0.58595323444E+02  0.67040183844E+02  0.00000000000E+00 0. -1.
         22    1    3    3    0    0 -0.20636559590E+02 -0.14880769479E+02 -0.11443423646E+03  0.11722840682E+03  0.00000000000E+00 0.  1.
         22    1    3    3    0    0  0.80295175999E+02  0.65380859246E+02 -0.10795111028E+03  0.14958413771E+03  0.00000000000E+00 0.  1.
</event>
<event>
 7    1  0.5575489E-006  0.7838909E+02  0.7818608E-02  0.1392690E+00
          2   -1    0    0  502    0  0.00000000000E+00  0.00000000000E+00  0.19621683141E+04  0.19621683141E+04  0.00000000000E+00 0. -1.
          1   -1    0    0  501    0 -0.00000000000E+00 -0.00000000000E+00 -0.38957179824E+03  0.38957179824E+03  0.00000000000E+00 0. -1.
         25    2    1    2    0    0 -0.20359451307E+02  0.28980684725E+02  0.73427395187E+02  0.14923388226E+03  0.12499912762E+03 0.  0.
          2    1    1    2  501    0  0.23435504431E+02 -0.76728442647E+02 -0.34677885459E+03  0.35593826820E+03  0.00000000000E+00 0. -1.
          1    1    1    2  502    0 -0.30760531245E+01  0.47747757922E+02  0.18459479752E+04  0.18465679619E+04  0.00000000000E+00 0. -1.
         22    1    3    3    0    0 -0.51949414524E+02 -0.10576896293E+01  0.88905445385E+02  0.10297591270E+03  0.00000000000E+00 0.  1.
         22    1    3    3    0    0  0.31589963218E+02  0.30038374354E+02 -0.15478050198E+02  0.46257969560E+02  0.00000000000E+00 0.  1.
</event>
<event>
 7    1  0.5575489E-006  0.8022388E+02  0.7818608E-02  0.1425376E+00
          2   -1    0    0  502    0  0.00000000000E+00  0.00000000000E+00  0.46216341909E+03  0.46216341909E+03  0.00000000000E+00 0. -1.
          1   -1    0    0  501    0 -0.00000000000E+00 -0.00000000000E+00 -0.14802552078E+04  0.14802552078E+04  0.00000000000E+00 0. -1.
         25    2    1    2    0    0  0.32141700223E+02 -0.40977180470E+02 -0.18602711064E+03  0.23009377880E+03  0.12499937174E+03 0.  0.
          2    1    1    2  501    0 -0.28385939065E+02  0.76994931108E+02 -0.12701235535E+04  0.12727717086E+04  0.00000000000E+00 0. -1.
          1    1    1    2  502    0 -0.37557611579E+01 -0.36017750638E+02  0.43805887545E+03  0.43955313952E+03  0.00000000000E+00 0. -1.
         22    1    3    3    0    0 -0.87875605289E+01 -0.75950489192E+02 -0.77064789043E+02  0.10855726479E+03  0.00000000000E+00 0. -1.
         22    1    3    3    0    0  0.40929260752E+02  0.34973308722E+02 -0.10896232160E+03  0.12153651401E+03  0.00000000000E+00 0. -1.
</event>
<event>
 7    1  0.7400445E-006  0.9479444E+02  0.7818608E-02  0.1339942E+00
          2   -1    0    0  502    0  0.00000000000E+00  0.00000000000E+00  0.22934939859E+04  0.22934939859E+04  0.00000000000E+00 0. -1.
          1   -1    0    0  501    0 -0.00000000000E+00 -0.00000000000E+00 -0.31434030896E+04  0.31434030896E+04  0.00000000000E+00 0. -1.
         25    2    1    2    0    0 -0.31731728830E+02 -0.94835736488E+02 -0.13076017618E+04  0.13173679748E+04  0.12504116937E+03 0.  0.
          2    1    1    2  501    0 -0.46034803818E+02  0.40610179388E+02 -0.18294213519E+04  0.18304510026E+04  0.00000000000E+00 0. -1.
          1    1    1    2  502    0  0.77766532648E+02  0.54225557100E+02  0.22871140100E+04  0.22890780981E+04  0.00000000000E+00 0. -1.
         22    1    3    3    0    0 -0.64743436322E+02 -0.28585946341E+02 -0.92292612954E+03  0.92563573260E+03  0.00000000000E+00 0. -1.
         22    1    3    3    0    0  0.33011707492E+02 -0.66249790147E+02 -0.38467563222E+03  0.39173224217E+03  0.00000000000E+00 0. -1.
</event>
<event>
 7    1  0.5575489E-006  0.9810715E+02  0.7818608E-02  0.1407458E+00
          2   -1    0    0  502    0  0.00000000000E+00  0.00000000000E+00  0.46309966437E+03  0.46309966437E+03  0.00000000000E+00 0. -1.
          1   -1    0    0  501    0 -0.00000000000E+00 -0.00000000000E+00 -0.19183902972E+03  0.19183902972E+03  0.00000000000E+00 0. -1.
         25    2    1    2    0    0  0.53232111306E+01 -0.69151730432E+02 -0.29415193145E+02  0.14594428406E+03  0.12499672821E+03 0.  0.
          2    1    1    2  501    0  0.19308316852E+02 -0.27999672896E+02 -0.94956790775E+02  0.10086419036E+03  0.00000000000E+00 0. -1.
          1    1    1    2  502    0 -0.24631527983E+02  0.97151403328E+02  0.39563261857E+03  0.40813021968E+03  0.00000000000E+00 0. -1.
         22    1    3    3    0    0  0.22020112367E+02 -0.99664055658E+02 -0.39941348464E+02  0.10960438247E+03  0.00000000000E+00 0.  1.
         22    1    3    3    0    0 -0.16696901236E+02  0.30512325227E+02  0.10526155320E+02  0.36339901588E+02  0.00000000000E+00 0.  1.
</event>
<event>
 7    1  0.5575489E-006  0.4649485E+02  0.7818608E-02  0.1550076E+00
          2   -1    0    0  502    0  0.00000000000E+00  0.00000000000E+00  0.24097073352E+02  0.24097073352E+02  0.00000000000E+00 0. -1.
          1   -1    0    0  501    0 -0.00000000000E+00 -0.00000000000E+00 -0.10901167794E+04  0.10901167794E+04  0.00000000000E+00 0. -1.
         25    2    1    2    0    0 -0.60019417619E+02 -0.36932078126E+02 -0.47769026885E+03  0.49877921662E+03  0.12500562021E+03 0.  0.
          2    1    1    2  501    0  0.39280512715E+02  0.21088472260E+02 -0.58763835371E+03  0.58932717322E+03  0.00000000000E+00 0. -1.
          1    1    1    2  502    0  0.20738904904E+02  0.15843605865E+02 -0.69108348056E+00  0.26107462914E+02  0.00000000000E+00 0. -1.
         22    1    3    3    0    0  0.24661686289E+02 -0.45261416493E+02 -0.11156791281E+03  0.12289912027E+03  0.00000000000E+00 0.  1.
         22    1    3    3    0    0 -0.84681103908E+02  0.83293383671E+01 -0.36612235604E+03  0.37588009635E+03  0.00000000000E+00 0.  1.
</event>
<event>
 7    1  0.5575489E-006  0.8246517E+02  0.7818608E-02  0.1397964E+00
          2   -1    0    0  502    0  0.00000000000E+00  0.00000000000E+00  0.34425735073E+04  0.34425735073E+04  0.00000000000E+00 0. -1.
          1   -1    0    0  501    0 -0.00000000000E+00 -0.00000000000E+00 -0.30189301285E+03  0.30189301285E+03  0.00000000000E+00 0. -1.
         25    2    1    2    0    0 -0.24004709919E+01  0.76055341648E+02  0.21343267713E+03  0.25878337959E+03  0.12500061053E+03 0.  0.
          2    1    1    2  501    0 -0.41024631218E+02 -0.72056827903E+02 -0.27291004928E+03  0.28522815746E+03  0.00000000000E+00 0. -1.
          1    1    1    2  502    0  0.43425102210E+02 -0.39985137451E+01  0.32001578666E+04  0.32004549831E+04  0.00000000000E+00 0. -1.
         22    1    3    3    0    0  0.12281399500E+02 -0.31687924767E+02  0.78125181649E+02  0.85196838893E+02  0.00000000000E+00 0.  1.
         22    1    3    3    0    0 -0.14681870492E+02  0.10774326641E+03  0.13530749548E+03  0.17358654070E+03  0.00000000000E+00 0.  1.
</event>
<event>
 7    1  0.5575489E-006  0.1504930E+03  0.7818608E-02  0.1363061E+00
          2   -1    0    0  502    0  0.00000000000E+00  0.00000000000E+00  0.16087075976E+04  0.16087075976E+04  0.00000000000E+00 0. -1.
          1   -1    0    0  501    0 -0.00000000000E+00 -0.00000000000E+00 -0.11818705181E+03  0.11818705181E+03  0.00000000000E+00 0. -1.
         25    2    1    2    0    0 -0.14222827721E+03 -0.23678725515E+01  0.12717771801E+03  0.22810962811E+03  0.12500136327E+03 0.  0.
          2    1    1    2  501    0 -0.63933534143E+01  0.31109338821E+02 -0.59748721744E+02  0.67665173315E+02  0.00000000000E+00 0. -1.
          1    1    1    2  502    0  0.14862163062E+03 -0.28741466269E+02  0.14230915495E+04  0.14311198479E+04  0.00000000000E+00 0. -1.
         22    1    3    3    0    0 -0.12193538128E+03 -0.42472463908E+02  0.12980207917E+03  0.18308666570E+03  0.00000000000E+00 0. -1.
         22    1    3    3    0    0 -0.20292895927E+02  0.40104591357E+02 -0.26243611589E+01  0.45022962414E+02  0.00000000000E+00 0. -1.
</event>
<event>
 7    1  0.5575489E-006  0.9998161E+02  0.7818608E-02  0.1351792E+00
          2   -1    0    0  502    0  0.00000000000E+00  0.00000000000E+00  0.98541571220E+03  0.98541571220E+03  0.00000000000E+00 0. -1.
          1   -1    0    0  501    0 -0.00000000000E+00 -0.00000000000E+00 -0.14213518898E+03  0.14213518898E+03  0.00000000000E+00 0. -1.
         25    2    1    2    0    0  0.55981126166E+02  0.67105974897E+02  0.39771531268E+03  0.42595670607E+03  0.12499818861E+03 0.  0.
          2    1    1    2  501    0 -0.95759285462E+02 -0.32732091897E+02 -0.10656873161E+03  0.14696300606E+03  0.00000000000E+00 0. -1.
          1    1    1    2  502    0  0.39778159296E+02 -0.34373883001E+02  0.55213394215E+03  0.55463118905E+03  0.00000000000E+00 0. -1.
         22    1    3    3    0    0  0.85382271546E+02  0.10178809857E+02  0.18927218602E+03  0.20788867421E+03  0.00000000000E+00 0. -1.
         22    1    3    3    0    0 -0.29401145379E+02  0.56927165040E+02  0.20844312666E+03  0.21806803186E+03  0.00000000000E+00 0. -1.
</event>
<event>
 7    1  0.5924278E-006  0.1547230E+03  0.7818608E-02  0.1215458E+00
          2   -1    0    0  502    0  0.00000000000E+00  0.00000000000E+00  0.30432493549E+04  0.30432493549E+04  0.00000000000E+00 0. -1.
          1   -1    0    0  501    0 -0.00000000000E+00 -0.00000000000E+00 -0.13035289984E+04  0.13035289984E+04  0.00000000000E+00 0. -1.
         25    2    1    2    0    0  0.32665924594E+02  0.78211175177E+02 -0.34391725299E+03  0.37561980416E+03  0.12500843901E+03 0.  0.
          2    1    1    2  501    0 -0.35449507419E+02 -0.20203158499E+03 -0.93132889117E+03  0.95364927119E+03  0.00000000000E+00 0. -1.
          1    1    1    2  502    0  0.27835828257E+01  0.12382040981E+03  0.30149665007E+04  0.30175092780E+04  0.00000000000E+00 0. -1.
         22    1    3    3    0    0  0.30564089804E+02  0.10654134303E+03 -0.31943367024E+03  0.33811697835E+03  0.00000000000E+00 0.  1.
         22    1    3    3    0    0  0.21018347892E+01 -0.28330167853E+02 -0.24483582743E+02  0.37502825814E+02  0.00000000000E+00 0.  1.
</event>
<event>
 7    1  0.5575489E-006  0.2022438E+03  0.7818608E-02  0.1246051E+00
          2   -1    0    0  502    0  0.00000000000E+00  0.00000000000E+00  0.48376502821E+03  0.48376502821E+03  0.00000000000E+00 0. -1.
          1   -1    0    0  501    0 -0.00000000000E+00 -0.00000000000E+00 -0.72004018559E+03  0.72004018559E+03  0.00000000000E+00 0. -1.
         25    2    1    2    0    0  0.21343531582E+03  0.11022202221E+02  0.33697720369E+03  0.41815617663E+03  0.12499931708E+03 0.  0.
          2    1    1    2  501    0 -0.18773224940E+03 -0.75177811724E+02 -0.65096323307E+03  0.68165110698E+03  0.00000000000E+00 0. -1.
          1    1    1    2  502    0 -0.25703066418E+02  0.64155609503E+02  0.77710872006E+02  0.10399793018E+03  0.00000000000E+00 0. -1.
         22    1    3    3    0    0  0.30049521913E+02  0.37750386739E+02  0.13824146692E+03  0.14641983692E+03  0.00000000000E+00 0.  1.
         22    1    3    3    0    0  0.18338579391E+03 -0.26728184518E+02  0.19873573676E+03  0.27173633971E+03  0.00000000000E+00 0.  1.
</event>
<event>
 7    1  0.5575489E-006  0.6527610E+02  0.7818608E-02  0.1388013E+00
          2   -1    0    0  502    0  0.00000000000E+00  0.00000000000E+00  0.81640334268E+03  0.81640334268E+03  0.00000000000E+00 0. -1.
          1   -1    0    0  501    0 -0.00000000000E+00 -0.00000000000E+00 -0.18627872152E+03  0.18627872152E+03  0.00000000000E+00 0. -1.
         25    2    1    2    0    0 -0.74568161313E+02  0.45161316268E+02  0.28933057225E+03  0.32701322847E+03  0.12500206551E+03 0.  0.
          2    1    1    2  501    0  0.17603343761E+02 -0.62882163013E+02 -0.15922948759E+03  0.17209902340E+03  0.00000000000E+00 0. -1.
          1    1    1    2  502    0  0.56964817552E+02  0.17720846745E+02  0.50002353649E+03  0.50356981234E+03  0.00000000000E+00 0. -1.
         22    1    3    3    0    0 -0.57708488971E+02 -0.36225618265E+02  0.15048674659E+03  0.16519329895E+03  0.00000000000E+00 0.  1.
         22    1    3    3    0    0 -0.16859672342E+02  0.81386934534E+02  0.13884382566E+03  0.16181992952E+03  0.00000000000E+00 0.  1.
</event>
<event>
 7    1  0.5575489E-006  0.7251982E+02  0.7818608E-02  0.1518700E+00
          2   -1    0    0  502    0  0.00000000000E+00  0.00000000000E+00  0.63400229140E+03  0.63400229140E+03  0.00000000000E+00 0. -1.
          1   -1    0    0  501    0 -0.00000000000E+00 -0.00000000000E+00 -0.13261199874E+03  0.13261199874E+03  0.00000000000E+00 0. -1.
         25    2    1    2    0    0  0.65477243305E+02  0.17903543945E+02  0.14053333683E+02  0.14292458705E+03  0.12498853996E+03 0.  0.
          2    1    1    2  501    0  0.73011585999E+01 -0.19215376474E+02 -0.64179238514E+02  0.67390743179E+02  0.00000000000E+00 0. -1.
          1    1    1    2  502    0 -0.72778401905E+02  0.13118325291E+01  0.55151619750E+03  0.55629895990E+03  0.00000000000E+00 0. -1.
         22    1    3    3    0    0  0.17738466837E+02  0.28160650506E+02 -0.51418542431E+02  0.61249832231E+02  0.00000000000E+00 0. -1.
         22    1    3    3    0    0  0.47738776468E+02 -0.10257106561E+02  0.65471876114E+02  0.81674754824E+02  0.00000000000E+00 0. -1.
</event>
<event>
 7    1  0.5575489E-006  0.8323298E+02  0.7818608E-02  0.1399477E+00
          2   -1    0    0  502    0  0.00000000000E+00  0.00000000000E+00  0.88184366701E+02  0.88184366701E+02  0.00000000000E+00 0. -1.
          1   -1    0    0  501    0 -0.00000000000E+00 -0.00000000000E+00 -0.13836810999E+04  0.13836810999E+04  0.00000000000E+00 0. -1.
         25    2    1    2    0    0  0.60921854568E+02 -0.38671862654E+01 -0.42246084017E+03  0.44477311192E+03  0.12499412830E+03 0.  0.
          2    1    1    2  501    0 -0.81808139700E+02 -0.33366058037E+02 -0.94191852681E+03  0.94605305174E+03  0.00000000000E+00 0. -1.
          1    1    1    2  502    0  0.20886285132E+02  0.37233244303E+02  0.68882633776E+02  0.81039302957E+02  0.00000000000E+00 0. -1.
         22    1    3    3    0    0 -0.26865300324E+02  0.16318506404E+02 -0.23160275426E+03  0.23372606571E+03  0.00000000000E+00 0. -1.
         22    1    3    3    0    0  0.87787154892E+02 -0.20185692670E+02 -0.19085808591E+03  0.21104704620E+03  0.00000000000E+00 0. -1.
</event>
<event>
 7    1  0.5575489E-006  0.1701914E+03  0.7818608E-02  0.1188522E+00
          2   -1    0    0  502    0  0.00000000000E+00  0.00000000000E+00  0.46650429427E+03  0.46650429427E+03  0.00000000000E+00 0. -1.
          1   -1    0    0  501    0 -0.00000000000E+00 -0.00000000000E+00 -0.25147183900E+04  0.25147183900E+04  0.00000000000E+00 0. -1.
         25    2    1    2    0    0 -0.37622105909E+02 -0.40425009408E+02 -0.25414469220E+03  0.28855475450E+03  0.12499887012E+03 0.  0.
          2    1    1    2  501    0  0.17943161898E+03  0.91453111153E+02 -0.22260552386E+04  0.22351468190E+04  0.00000000000E+00 0. -1.
          1    1    1    2  502    0 -0.14180951308E+03 -0.51028101745E+02  0.43198583501E+03  0.45752111079E+03  0.00000000000E+00 0. -1.
         22    1    3    3    0    0 -0.22217948283E+01 -0.81053013098E+02 -0.17417560984E+03  0.19212410147E+03  0.00000000000E+00 0.  1.
         22    1    3    3    0    0 -0.35400311081E+02  0.40628003691E+02 -0.79969082365E+02  0.96430653025E+02  0.00000000000E+00 0.  1.
</event>
<event>
 7    1  0.5575489E-006  0.9228698E+02  0.7818608E-02  0.1347504E+00
          2   -1    0    0  502    0  0.00000000000E+00  0.00000000000E+00  0.30089409507E+04  0.30089409507E+04  0.00000000000E+00 0. -1.
          1   -1    0    0  501    0 -0.00000000000E+00 -0.00000000000E+00 -0.32876396199E+03  0.32876396199E+03  0.00000000000E+00 0. -1.
         25    2    1    2    0    0 -0.24146022521E+02  0.64281603886E+02  0.16446748216E+04  0.16508486337E+04  0.12502314792E+03 0.  0.
          2    1    1    2  501    0  0.32476403632E+02  0.49351663214E+02 -0.32058893812E+03  0.32598707137E+03  0.00000000000E+00 0. -1.
          1    1    1    2  502    0 -0.83303811106E+01 -0.11363326710E+03  0.13560911052E+04  0.13608692076E+04  0.00000000000E+00 0. -1.
         22    1    3    3    0    0  0.27552331694E+02  0.72739005109E+02  0.62380823741E+03  0.62863885571E+03  0.00000000000E+00 0.  1.
         22    1    3    3    0    0 -0.51698354215E+02 -0.84574012225E+01  0.10208665842E+04  0.10222097779E+04  0.00000000000E+00 0.  1.
</event>
<event>
 7    1  0.5575489E-006  0.5801373E+02  0.7818608E-02  0.1510104E+00
          2   -1    0    0  502    0  0.00000000000E+00  0.00000000000E+00  0.13299640329E+04  0.13299640329E+04  0.00000000000E+00 0. -1.
          1   -1    0    0  501    0 -0.00000000000E+00 -0.00000000000E+00 -0.11022526040E+04  0.11022526040E+04  0.00000000000E+00 0. -1.
         25    2    1    2    0    0  0.71863844708E+02  0.42884823842E+02 -0.29456036878E+02  0.15328433068E+03  0.12499963052E+03 0.  0.
          2    1    1    2  501    0 -0.18944875476E+02 -0.19556084294E+02 -0.10100394555E+04  0.10104063788E+04  0.00000000000E+00 0. -1.
          1    1    1    2  502    0 -0.52918969232E+02 -0.23328739549E+02  0.12672069212E+04  0.12685259275E+04  0.00000000000E+00 0. -1.
         22    1    3    3    0    0  0.82224359241E+02  0.25793284386E+02  0.29459162088E+02  0.91071296262E+02  0.00000000000E+00 0. -1.
         22    1    3    3    0    0 -0.10360514533E+02  0.17091539457E+02 -0.58915198965E+02  0.62213034418E+02  0.00000000000E+00 0. -1.
</event>
<event>
 7    1  0.5575489E-006  0.8340745E+02  0.7818608E-02  0.1329913E+00
          2   -1    0    0  502    0  0.00000000000E+00  0.00000000000E+00  0.14120178180E+03  0.14120178180E+03  0.00000000000E+00 0. -1.
          1   -1    0    0  501    0 -0.00000000000E+00 -0.00000000000E+00 -0.17846059004E+04  0.17846059004E+04  0.00000000000E+00 0. -1.
         25    2    1    2    0    0 -0.57510719714E+02  0.89307416227E+02 -0.17357766557E+03  0.23882404188E+03  0.12499767806E+03 0.  0.
          2    1    1    2  501    0  0.75789719786E+02 -0.74193071666E+01 -0.15611282150E+04  0.15629844630E+04  0.00000000000E+00 0. -1.
          1    1    1    2  502    0 -0.18279000072E+02 -0.81888109061E+02  0.91301761971E+02  0.12399917737E+03  0.00000000000E+00 0. -1.
         22    1    3    3    0    0 -0.94289618975E+02  0.49041718656E+02 -0.91286596289E+02  0.14010305163E+03  0.00000000000E+00 0.  1.
         22    1    3    3    0    0  0.36778899262E+02  0.40265697571E+02 -0.82291069280E+02  0.98720990245E+02  0.00000000000E+00 0.  1.
</event>
<event>
 7    1  0.5575489E-006  0.4996874E+02  0.7818608E-02  0.1449589E+00
          2   -1    0    0  502    0  0.00000000000E+00  0.00000000000E+00  0.95028005233E+03  0.95028005233E+03  0.00000000000E+00 0. -1.
          1   -1    0    0  501    0 -0.00000000000E+00 -0.00000000000E+00 -0.10861972464E+04  0.10861972464E+04  0.00000000000E+00 0. -1.
         25    2    1    2    0    0  0.15991929440E+02 -0.24369503178E+02  0.12486167713E+03  0.17906813378E+03  0.12500137450E+03 0.  0.
          2    1    1    2  501    0  0.34156672214E+02  0.34410424943E+02 -0.10577189881E+04  0.10588296433E+04  0.00000000000E+00 0. -1.
          1    1    1    2  502    0 -0.50148601654E+02 -0.10040921765E+02  0.79694011697E+03  0.79857952165E+03  0.00000000000E+00 0. -1.
         22    1    3    3    0    0  0.33760309279E+02  0.33846687261E+02  0.10444868309E+03  0.11486898677E+03  0.00000000000E+00 0.  1.
         22    1    3    3    0    0 -0.17768379840E+02 -0.58216190439E+02  0.20412994039E+02  0.64199147011E+02  0.00000000000E+00 0.  1.
</event>
<event>
 7    1  0.5575489E-006  0.4689628E+02  0.7818608E-02  0.1547688E+00
          2   -1    0    0  502    0  0.00000000000E+00  0.00000000000E+00  0.12802908197E+04  0.12802908197E+04  0.00000000000E+00 0. -1.
          1   -1    0    0  501    0 -0.00000000000E+00 -0.00000000000E+00 -0.42907148516E+03  0.42907148516E+03  0.00000000000E+00 0. -1.
         25    2    1    2    0    0 -0.54586692384E+02 -0.36425076980E+01  0.44222696314E+02  0.14342849906E+03  0.12499245028E+03 0.  0.
          2    1    1    2  501    0  0.15041047682E+02 -0.21544362778E+02 -0.37854981781E+03  0.37946061356E+03  0.00000000000E+00 0. -1.
          1    1    1    2  502    0  0.39545644702E+02  0.25186870476E+02  0.11855464561E+04  0.11864731923E+04  0.00000000000E+00 0. -1.
         22    1    3    3    0    0 -0.53812771689E+02  0.58595017268E+01 -0.34460989926E+02  0.64169369516E+02  0.00000000000E+00 0. -1.
         22    1    3    3    0    0 -0.77392069521E+00 -0.95020094248E+01  0.78683686240E+02  0.79259129548E+02  0.00000000000E+00 0. -1.
</event>
<event>
 7    1  0.5575489E-006  0.1549598E+03  0.7818608E-02  0.1312351E+00
          2   -1    0    0  502    0  0.00000000000E+00  0.00000000000E+00  0.11690395906E+03  0.11690395906E+03  0.00000000000E+00 0. -1.
          1   -1    0    0  501    0 -0.00000000000E+00 -0.00000000000E+00 -0.26522779475E+04  0.26522779475E+04  0.00000000000E+00 0. -1.
         25    2    1    2    0    0  0.10964183866E+03  0.39941473510E+02 -0.34584515216E+03  0.38581366069E+03  0.12500662946E+03 0.  0.
          2    1    1    2  501    0 -0.15708193310E+03 -0.33044471442E+02 -0.22775177819E+04  0.22831675186E+04  0.00000000000E+00 0. -1.
          1    1    1    2  502    0  0.47440094439E+02 -0.68970020677E+01  0.87988945650E+02  0.10020072732E+03  0.00000000000E+00 0. -1.
         22    1    3    3    0    0  0.11122889805E+03  0.32473167963E+02 -0.35526751157E+03  0.37368620415E+03  0.00000000000E+00 0. -1.
         22    1    3    3    0    0 -0.15870593879E+01  0.74683055469E+01  0.94223594067E+01  0.12127456536E+02  0.00000000000E+00 0. -1.
</event>
<event>
 7    1  0.5575489E-006  0.1602411E+03  0.7818608E-02  0.1201843E+00
          2   -1    0    0  502    0  0.00000000000E+00  0.00000000000E+00  0.37795482379E+03  0.37795482379E+03  0.00000000000E+00 0. -1.
          1   -1    0    0  501    0 -0.00000000000E+00 -0.00000000000E+00 -0.13746582909E+04  0.13746582909E+04  0.00000000000E+00 0. -1.
         25    2    1    2    0    0  0.39328640373E+02 -0.19463224127E+03 -0.76250938659E+03  0.79779344336E+03  0.12500144933E+03 0.  0.
          2    1    1    2  501    0 -0.12517886092E+03  0.58900284278E+02 -0.56788399143E+03  0.58449227406E+03  0.00000000000E+00 0. -1.
          1    1    1    2  502    0  0.85850220545E+02  0.13573195699E+03  0.33368991092E+03  0.37032739727E+03  0.00000000000E+00 0. -1.
         22    1    3    3    0    0  0.41011735276E+02 -0.73916709972E+02 -0.13885921143E+03  0.16256544233E+03  0.00000000000E+00 0. -1.
         22    1    3    3    0    0 -0.16830949027E+01 -0.12071553129E+03 -0.62365017516E+03  0.63522800102E+03  0.00000000000E+00 0. -1.
</event>
<event>
 7    1  0.5575489E-006  0.8743705E+02  0.7818608E-02  0.1364716E+00
          2   -1    0    0  502    0  0.00000000000E+00  0.00000000000E+00  0.12935533328E+04  0.12935533328E+04  0.00000000000E+00 0. -1.
          1   -1    0    0  501    0 -0.00000000000E+00 -0.00000000000E+00 -0.13643445848E+03  0.13643445848E+03  0.00000000000E+00 0. -1.
         25    2    1    2    0    0 -0.57935197917E+01  0.75485836624E+02  0.59808622535E+03  0.61568121791E+03  0.12499821095E+03 0.  0.
          2    1    1    2  501    0 -0.48093784640E+02 -0.73839342112E+02 -0.11121482936E+03  0.14189432277E+03  0.00000000000E+00 0. -1.
          1    1    1    2  502    0  0.53887304432E+02 -0.16464945120E+01  0.67024747837E+03  0.67241225062E+03  0.00000000000E+00 0. -1.
         22    1    3    3    0    0  0.55050561088E+02  0.27235870753E+02  0.36140117122E+03  0.36658309221E+03  0.00000000000E+00 0.  1.
         22    1    3    3    0    0 -0.60844080880E+02  0.48249965870E+02  0.23668505413E+03  0.24909812571E+03  0.00000000000E+00 0.  1.
</event>
<event>
 7    1  0.5575489E-006  0.6638494E+02  0.7818608E-02  0.1397744E+00
          2   -1    0    0  502    0  0.00000000000E+00  0.00000000000E+00  0.18321421745E+03  0.18321421745E+03  0.00000000000E+00 0. -1.
          1   -1    0    0  501    0 -0.00000000000E+00 -0.00000000000E+00 -0.35303362332E+03  0.35303362332E+03  0.00000000000E+00 0. -1.
         25    2    1    2    0    0 -0.42879203398E+02 -0.97214131941E+02 -0.11796712032E+03  0.20206534645E+03  0.12499979691E+03 0.  0.
          2    1    1    2  501    0  0.45104100575E+02  0.42992835091E+02 -0.18242945272E+03  0.19277777096E+03  0.00000000000E+00 0. -1.
          1    1    1    2  502    0 -0.22248971774E+01  0.54221296850E+02  0.13057716717E+03  0.14140472335E+03  0.00000000000E+00 0. -1.
         22    1    3    3    0    0 -0.53025686236E+02 -0.11894693817E+03 -0.68631708401E+02  0.14720872562E+03  0.00000000000E+00 0. -1.
         22    1    3    3    0    0  0.10146482838E+02  0.21732806224E+02 -0.49335411917E+02  0.54856620834E+02  0.00000000000E+00 0. -1.
</event>
<event>
 7    1  0.5575489E-006  0.7231721E+02  0.7818608E-02  0.1414995E+00
          2   -1    0    0  502    0  0.00000000000E+00  0.00000000000E+00  0.39687717447E+03  0.39687717447E+03  0.00000000000E+00 0. -1.
          1   -1    0    0  501    0 -0.00000000000E+00 -0.00000000000E+00 -0.49727142760E+02  0.49727142760E+02  0.00000000000E+00 0. -1.
         25    2    1    2    0    0  0.23472296350E+02  0.68084644751E+02  0.11670502951E+03  0.18555774709E+03  0.12500058418E+03 0.  0.
          2    1    1    2  501    0  0.19223165739E+02 -0.76464503425E+02  0.13981895445E+03  0.16051694742E+03  0.00000000000E+00 0. -1.
          1    1    1    2  502    0 -0.42695462088E+02  0.83798586735E+01  0.90626047745E+02  0.10052962272E+03  0.00000000000E+00 0. -1.
         22    1    3    3    0    0 -0.51520154013E+02  0.26881093600E+02  0.55484421718E+02  0.80345756054E+02  0.00000000000E+00 0. -1.
         22    1    3    3    0    0  0.74992450362E+02  0.41203551151E+02  0.61220607797E+02  0.10521199104E+03  0.00000000000E+00 0. -1.
</event>
<event>
 7    1  0.5575489E-006  0.7362897E+02  0.7818608E-02  0.1474125E+00
          2   -1    0    0  502    0  0.00000000000E+00  0.00000000000E+00  0.66622245931E+03  0.66622245931E+03  0.00000000000E+00 0. -1.
          1   -1    0    0  501    0 -0.00000000000E+00 -0.00000000000E+00 -0.32406120071E+03  0.32406120071E+03  0.00000000000E+00 0. -1.
         25    2    1    2    0    0 -0.17239322452E+02 -0.52683729385E+02  0.32599913439E+02  0.14057405753E+03  0.12500216683E+03 0.  0.
          2    1    1    2  501    0 -0.26437101315E+02 -0.77339459789E+01 -0.26696539387E+03  0.26838266667E+03  0.00000000000E+00 0. -1.
          1    1    1    2  502    0  0.43676423768E+02  0.60417675364E+02  0.57652673903E+03  0.58132693581E+03  0.00000000000E+00 0. -1.
         22    1    3    3    0    0 -0.65963735173E+02 -0.50042881652E+02  0.16964214823E+01  0.82815350074E+02  0.00000000000E+00 0.  1.
         22    1    3    3    0    0  0.48724412721E+02 -0.26408477331E+01  0.30903491957E+02  0.57758707455E+02  0.00000000000E+00 0.  1.
</event>
<event>
 7    1  0.5575489E-006  0.4675967E+02  0.7818608E-02  0.1471621E+00
          2   -1    0    0  502    0  0.00000000000E+00  0.00000000000E+00  0.55068882699E+02  0.55068882699E+02  0.00000000000E+00 0. -1.
          1   -1    0    0  501    0 -0.00000000000E+00 -0.00000000000E+00 -0.19131505029E+04  0.19131505029E+04  0.00000000000E+00 0. -1.
         25    2    1    2    0    0 -0.37641065396E+02  0.45434396221E+02 -0.22462786683E+03  0.26374978802E+03  0.12500055184E+03 0.  0.
          2    1    1    2  501    0 -0.65030141484E+01 -0.46419157142E+02 -0.16547733130E+04  0.16554370254E+04  0.00000000000E+00 0. -1.
          1    1    1    2  502    0  0.44144079544E+02  0.98476092086E+00  0.21319559686E+02  0.49032572216E+02  0.00000000000E+00 0. -1.
         22    1    3    3    0    0 -0.47136761195E+02  0.22394556465E+02 -0.23197245301E+03  0.23777007669E+03  0.00000000000E+00 0.  1.
         22    1    3    3    0    0  0.94956957991E+01  0.23039839756E+02  0.73445861751E+01  0.25979711330E+02  0.00000000000E+00 0.  1.
</event>
<event>
 7    1  0.5575489E-006  0.1331167E+03  0.7818608E-02  0.1364920E+00
          2   -1    0    0  502    0  0.00000000000E+00  0.00000000000E+00  0.67871709397E+03  0.67871709397E+03  0.00000000000E+00 0. -1.
          1   -1    0    0  501    0 -0.00000000000E+00 -0.00000000000E+00 -0.10592308006E+04  0.10592308006E+04  0.00000000000E+00 0. -1.
         25    2    1    2    0    0 -0.10108158937E+03  0.18354280928E+02 -0.14003130215E+03  0.21398485833E+03  0.12500554657E+03 0.  0.
          2    1    1    2  501    0 -0.26701454012E+02  0.23169077308E+02 -0.87482909306E+03  0.87554309766E+03  0.00000000000E+00 0. -1.
          1    1    1    2  502    0  0.12778304339E+03 -0.41523358236E+02  0.63434668857E+03  0.64841993859E+03  0.00000000000E+00 0. -1.
         22    1    3    3    0    0  0.25980291735E+02 -0.64578261848E+01 -0.48621156002E+02  0.55504016869E+02  0.00000000000E+00 0.  1.
         22    1    3    3    0    0 -0.12706188111E+03  0.24812107113E+02 -0.91410146151E+02  0.15848084146E+03  0.00000000000E+00 0.  1.
</event>
<event>
 7    1  0.5575489E-006  0.6456044E+02  0.7818608E-02  0.1466418E+00
          2   -1    0    0  502    0  0.00000000000E+00  0.00000000000E+00  0.14054836113E+04  0.14054836113E+04  0.00000000000E+00 0. -1.
          1   -1    0    0  501    0 -0.00000000000E+00 -0.00000000000E+00 -0.26176587094E+03  0.26176587094E+03  0.00000000000E+00 0. -1.
         25    2    1    2    0    0  0.32829418733E+02  0.16577145256E+02 -0.61387114992E+02  0.14403362227E+03  0.12499893591E+03 0.  0.
          2    1    1    2  501    0 -0.64558985821E+02 -0.26336902882E+02 -0.15120144171E+03  0.16650336657E+03  0.00000000000E+00 0. -1.
          1    1    1    2  502    0  0.31729567089E+02  0.97597576259E+01  0.13563062971E+04  0.13567124934E+04  0.00000000000E+00 0. -1.
         22    1    3    3    0    0 -0.55423645423E+01  0.66170891036E+02 -0.41260662213E+02  0.78177662228E+02  0.00000000000E+00 0. -1.
         22    1    3    3    0    0  0.38371783275E+02 -0.49593745779E+02 -0.20126452778E+02  0.65855960046E+02  0.00000000000E+00 0. -1.
</event>
<event>
 7    1  0.5575489E-006  0.2099149E+03  0.7818608E-02  0.1198739E+00
          2   -1    0    0  502    0  0.00000000000E+00  0.00000000000E+00  0.15963176512E+04  0.15963176512E+04  0.00000000000E+00 0. -1.
          1   -1    0    0  501    0 -0.00000000000E+00 -0.00000000000E+00 -0.90996376130E+03  0.90996376130E+03  0.00000000000E+00 0. -1.
         25    2    1    2    0    0 -0.12271788908E+03  0.89109196753E+02  0.41569805802E+03  0.45981413377E+03  0.12499613168E+03 0.  0.
          2    1    1    2  501    0 -0.30896805736E+02  0.10476464523E+03 -0.87125410416E+03  0.87807400457E+03  0.00000000000E+00 0. -1.
          1    1    1    2  502    0  0.15361469481E+03 -0.19387384198E+03  0.11419099360E+04  0.11683932741E+04  0.00000000000E+00 0. -1.
         22    1    3    3    0    0 -0.14056913194E+03  0.99055313347E+02  0.33487525086E+03  0.37644796399E+03  0.00000000000E+00 0. -1.
         22    1    3    3    0    0  0.17851242864E+02 -0.99461165946E+01  0.80822807155E+02  0.83366169778E+02  0.00000000000E+00 0. -1.
</event>
<event>
 7    1  0.5575489E-006  0.7550956E+02  0.7818608E-02  0.1419708E+00
          2   -1    0    0  502    0  0.00000000000E+00  0.00000000000E+00  0.13146585947E+03  0.13146585947E+03  0.00000000000E+00 0. -1.
          1   -1    0    0  501    0 -0.00000000000E+00 -0.00000000000E+00 -0.45565955035E+03  0.45565955035E+03  0.00000000000E+00 0. -1.
         25    2    1    2    0    0  0.13027758555E+02  0.48195024362E+02 -0.18708443927E+03  0.23047400748E+03  0.12500079136E+03 0.  0.
          2    1    1    2  501    0  0.39104951098E+02  0.92403172912E+01 -0.23122517604E+03  0.23469056798E+03  0.00000000000E+00 0. -1.
          1    1    1    2  502    0 -0.52132709654E+02 -0.57435341654E+02  0.94115924434E+02  0.12196083436E+03  0.00000000000E+00 0. -1.
         22    1    3    3    0    0 -0.41191915804E+02 -0.18409367079E+02 -0.91201416755E+02  0.10175154614E+03  0.00000000000E+00 0. -1.
         22    1    3    3    0    0  0.54219674359E+02  0.66604391441E+02 -0.95883022518E+02  0.12872246134E+03  0.00000000000E+00 0. -1.
</event>
<event>
 7    1  0.5575489E-006  0.1218283E+03  0.7818608E-02  0.1357009E+00
          2   -1    0    0  502    0  0.00000000000E+00  0.00000000000E+00  0.40692914513E+03  0.40692914513E+03  0.00000000000E+00 0. -1.
          1   -1    0    0  501    0 -0.00000000000E+00 -0.00000000000E+00 -0.76430319522E+03  0.76430319522E+03  0.00000000000E+00 0. -1.
         25    2    1    2    0    0 -0.11600444425E+03 -0.10674955071E+03 -0.37535791815E+03  0.42587676983E+03  0.12499983480E+03 0.  0.
          2    1    1    2  501    0  0.16559742446E+02  0.37811634754E+02 -0.35286184689E+03  0.35526810691E+03  0.00000000000E+00 0. -1.
          1    1    1    2  502    0  0.99444701800E+02  0.68937915960E+02  0.37084571495E+03  0.39008746361E+03  0.00000000000E+00 0. -1.
         22    1    3    3    0    0 -0.56454704596E+02  0.75897125838E+01 -0.20175229030E+03  0.20963950975E+03  0.00000000000E+00 0.  1.
         22    1    3    3    0    0 -0.59549739650E+02 -0.11433926330E+03 -0.17360562785E+03  0.21623726007E+03  0.00000000000E+00 0.  1.
</event>
<event>
 7    1  0.5575489E-006  0.1355984E+03  0.7818608E-02  0.1317616E+00
          2   -1    0    0  502    0  0.00000000000E+00  0.00000000000E+00  0.53611754671E+03  0.53611754671E+03  0.00000000000E+00 0. -1.
          1   -1    0    0  501    0 -0.00000000000E+00 -0.00000000000E+00 -0.10679793401E+04  0.10679793401E+04  0.00000000000E+00 0. -1.
         25    2    1    2    0    0 -0.13663745312E+03 -0.12225269479E+03 -0.10069295794E+03  0.24367912666E+03  0.12499972004E+03 0.  0.
          2    1    1    2  501    0  0.10483406952E+03  0.80799601767E+02 -0.88941153300E+03  0.89920611252E+03  0.00000000000E+00 0. -1.
          1    1    1    2  502    0  0.31803383608E+02  0.41453093026E+02  0.45824269750E+03  0.46121164767E+03  0.00000000000E+00 0. -1.
         22    1    3    3    0    0 -0.45167829799E+01 -0.77464416518E+02 -0.12399645058E+02  0.78580457829E+02  0.00000000000E+00 0.  1.
         22    1    3    3    0    0 -0.13212067014E+03 -0.44788278275E+02 -0.88293312886E+02  0.16509866883E+03  0.00000000000E+00 0.  1.
</event>
<event>
 7    1  0.5575489E-006  0.1457304E+03  0.7818608E-02  0.1262892E+00
          2   -1    0    0  502    0  0.00000000000E+00  0.00000000000E+00  0.44302954471E+03  0.44302954471E+03  0.00000000000E+00 0. -1.
          1   -1    0    0  501    0 -0.00000000000E+00 -0.00000000000E+00 -0.12125092681E+04  0.12125092681E+04  0.00000000000E+00 0. -1.
         25    2    1    2    0    0  0.20372530339E+03  0.91243835640E+02 -0.43586305479E+03  0.50540184536E+03  0.12499994390E+03 0.  0.
          2    1    1    2  501    0 -0.78388353285E+02 -0.21036025555E+02 -0.72690996232E+03  0.73142692158E+03  0.00000000000E+00 0. -1.
          1    1    1    2  502    0 -0.12533695011E+03 -0.70207810085E+02  0.39329329370E+03  0.41871004589E+03  0.00000000000E+00 0. -1.
         22    1    3    3    0    0  0.37788610222E+01 -0.11889920311E+02  0.24570941884E+01  0.12715632406E+02  0.00000000000E+00 0.  1.
         22    1    3    3    0    0  0.19994644237E+03  0.10313375595E+03 -0.43832014898E+03  0.49268621295E+03  0.00000000000E+00 0.  1.
</event>
<event>
 7    1  0.5575489E-006  0.9076550E+02  0.7818608E-02  0.1456261E+00
          2   -1    0    0  502    0  0.00000000000E+00  0.00000000000E+00  0.91197330968E+03  0.91197330968E+03  0.00000000000E+00 0. -1.
          1   -1    0    0  501    0 -0.00000000000E+00 -0.00000000000E+00 -0.25437550922E+02  0.25437550922E+02  0.00000000000E+00 0. -1.
         25    2    1    2    0    0 -0.49475319261E+02 -0.79197813055E+02  0.61784431114E+03  0.63724205825E+03  0.12500298869E+03 0.  0.
          2    1    1    2  501    0  0.67255656689E+02  0.61035446461E+02  0.12651983693E+03  0.15574311612E+03  0.00000000000E+00 0. -1.
          1    1    1    2  502    0 -0.17780337428E+02  0.18162366594E+02  0.14217161068E+03  0.14442568623E+03  0.00000000000E+00 0. -1.
         22    1    3    3    0    0  0.18196233929E+02 -0.53142150209E+02  0.46142842021E+03  0.46483478574E+03  0.00000000000E+00 0. -1.
         22    1    3    3    0    0 -0.67671553190E+02 -0.26055662847E+02  0.15641589093E+03  0.17240727251E+03  0.00000000000E+00 0. -1.
</event>
<event>
 7    1  0.5575489E-006  0.4959753E+02  0.7818608E-02  0.1456288E+00
          2   -1    0    0  502    0  0.00000000000E+00  0.00000000000E+00  0.63487377866E+03  0.63487377866E+03  0.00000000000E+00 0. -1.
          1   -1    0    0  501    0 -0.00000000000E+00 -0.00000000000E+00 -0.50971167998E+03  0.50971167998E+03  0.00000000000E+00 0. -1.
         25    2    1    2    0    0 -0.11550028528E+02 -0.10292346397E+02 -0.12008052260E+03  0.17401909587E+03  0.12499591300E+03 0.  0.
          2    1    1    2  501    0  0.50150097020E+02 -0.15644330621E+02 -0.35986253658E+03  0.36367681057E+03  0.00000000000E+00 0. -1.
          1    1    1    2  502    0 -0.38600068493E+02  0.25936677018E+02  0.60510515786E+03  0.60688955220E+03  0.00000000000E+00 0. -1.
         22    1    3    3    0    0  0.49686423961E+00 -0.29386464508E+02 -0.14052226046E+03  0.14356293691E+03  0.00000000000E+00 0.  1.
         22    1    3    3    0    0 -0.12046892767E+02  0.19094118111E+02  0.20441737861E+02  0.30456158959E+02  0.00000000000E+00 0.  1.
</event>
<event>
 7    1  0.5575489E-006  0.1372993E+03  0.7818608E-02  0.1245029E+00
          2   -1    0    0  502    0  0.00000000000E+00  0.00000000000E+00  0.47420258538E+04  0.47420258538E+04  0.00000000000E+00 0. -1.
          1   -1    0    0  501    0 -0.00000000000E+00 -0.00000000000E+00 -0.55041638461E+03  0.55041638461E+03  0.00000000000E+00 0. -1.
         25    2    1    2    0    0 -0.45757813664E+02  0.13619820924E+02  0.48490256686E+03  0.50303097822E+03  0.12502155282E+03 0.  0.
          2    1    1    2  501    0 -0.10061637566E+03  0.21351045810E+02 -0.53512000925E+03  0.54491554071E+03  0.00000000000E+00 0. -1.
          1    1    1    2  502    0  0.14637418933E+03 -0.34970866735E+02  0.42418269115E+04  0.42444957194E+04  0.00000000000E+00 0. -1.
         22    1    3    3    0    0  0.24222945633E+02  0.36817378587E+02  0.78767213616E+02  0.90258209610E+02  0.00000000000E+00 0. -1.
         22    1    3    3    0    0 -0.69980759297E+02 -0.23197557663E+02  0.40613535325E+03  0.41277276861E+03  0.00000000000E+00 0. -1.
</event>
<event>
 7    1  0.5575489E-006  0.1365199E+03  0.7818608E-02  0.1221221E+00
          2   -1    0    0  502    0  0.00000000000E+00  0.00000000000E+00  0.29487723168E+03  0.29487723168E+03  0.00000000000E+00 0. -1.
          1   -1    0    0  501    0 -0.00000000000E+00 -0.00000000000E+00 -0.15887898923E+04  0.15887898923E+04  0.00000000000E+00 0. -1.
         25    2    1    2    0    0  0.22490304243E+03  0.12237841859E+03  0.54546273714E+02  0.29009983091E+03  0.12499904035E+03 0.  0.
          2    1    1    2  501    0 -0.13131311024E+03 -0.29147576426E+02 -0.14313211373E+04  0.14376275291E+04  0.00000000000E+00 0. -1.
          1    1    1    2  502    0 -0.93589932186E+02 -0.93230842163E+02  0.82862202957E+02  0.15593976406E+03  0.00000000000E+00 0. -1.
         22    1    3    3    0    0  0.34919809801E+01  0.56105322582E+00  0.36581552981E+02  0.36752125522E+02  0.00000000000E+00 0. -1.
         22    1    3    3    0    0  0.22141106145E+03  0.12181736536E+03  0.17964720733E+02  0.25334770539E+03  0.00000000000E+00 0. -1.
</event>
<event>
 7    1  0.5575489E-006  0.7865816E+02  0.7818608E-02  0.1467804E+00
          2   -1    0    0  502    0  0.00000000000E+00  0.00000000000E+00  0.15953148336E+04  0.15953148336E+04  0.00000000000E+00 0. -1.
          1   -1    0    0  501    0 -0.00000000000E+00 -0.00000000000E+00 -0.18742377821E+03  0.18742377821E+03  0.00000000000E+00 0. -1.
         25    2    1    2    0    0 -0.62809181265E+02 -0.36190020017E+02  0.51971144139E+03  0.53942557727E+03  0.12500104119E+03 0.  0.
          2    1    1    2  501    0  0.50750994399E+02  0.60321646257E+02 -0.16863675848E+03  0.18615241269E+03  0.00000000000E+00 0. -1.
          1    1    1    2  502    0  0.12058186866E+02 -0.24131626240E+02  0.10568163725E+04  0.10571606219E+04  0.00000000000E+00 0. -1.
         22    1    3    3    0    0 -0.39890519299E+01  0.38659318554E+02  0.25856025347E+03  0.26146483535E+03  0.00000000000E+00 0. -1.
         22    1    3    3    0    0 -0.58820129335E+02 -0.74849338571E+02  0.26115118792E+03  0.27796074193E+03  0.00000000000E+00 0. -1.
</event>
<event>
 7    1  0.5575489E-006  0.1319582E+03  0.7818608E-02  0.1412855E+00
          2   -1    0    0  502    0  0.00000000000E+00  0.00000000000E+00  0.15387218250E+04  0.15387218250E+04  0.00000000000E+00 0. -1.
          1   -1    0    0  501    0 -0.00000000000E+00 -0.00000000000E+00 -0.13007433740E+03  0.13007433740E+03  0.00000000000E+00 0. -1.
         25    2    1    2    0    0  0.62416445399E+02  0.13127693048E+03  0.18466742101E+03  0.26618473282E+03  0.12499124157E+03 0.  0.
          2    1    1    2  501    0 -0.23432134951E+02 -0.62223604938E+01 -0.84337363680E+02  0.87752912378E+02  0.00000000000E+00 0. -1.
          1    1    1    2  502    0 -0.38984310448E+02 -0.12505456999E+03  0.13083174302E+04  0.13148585172E+04  0.00000000000E+00 0. -1.
         22    1    3    3    0    0  0.16026615699E+02  0.45252661803E+02 -0.93793816677E+01  0.48914503079E+02  0.00000000000E+00 0.  1.
         22    1    3    3    0    0  0.46389829700E+02  0.86024268679E+02  0.19404680268E+03  0.21727022974E+03  0.00000000000E+00 0.  1.
</event>
<event>
 7    1  0.5575489E-006  0.6665166E+02  0.7818608E-02  0.1527110E+00
          2   -1    0    0  502    0  0.00000000000E+00  0.00000000000E+00  0.97455766904E+02  0.97455766904E+02  0.00000000000E+00 0. -1.
          1   -1    0    0  501    0 -0.00000000000E+00 -0.00000000000E+00 -0.11789444695E+04  0.11789444695E+04  0.00000000000E+00 0. -1.
         25    2    1    2    0    0  0.12879235631E+02  0.58906259638E+02 -0.24807367793E+03  0.28425457569E+03  0.12499716789E+03 0.  0.
          2    1    1    2  501    0 -0.19616966295E+02  0.78982053790E+01 -0.89843272785E+03  0.89868157514E+03  0.00000000000E+00 0. -1.
          1    1    1    2  502    0  0.67377306639E+01 -0.66804465017E+02  0.65017703203E+02  0.93464085565E+02  0.00000000000E+00 0. -1.
         22    1    3    3    0    0  0.56189542344E+02 -0.83570830960E+01 -0.12714277659E+03  0.13925656590E+03  0.00000000000E+00 0. -1.
         22    1    3    3    0    0 -0.43310306713E+02  0.67263342734E+02 -0.12093090134E+03  0.14499800979E+03  0.00000000000E+00 0. -1.
</event>
<event>
 7    1  0.5575489E-006  0.8657374E+02  0.7818608E-02  0.1438702E+00
          2   -1    0    0  502    0  0.00000000000E+00  0.00000000000E+00  0.49742967766E+03  0.49742967766E+03  0.00000000000E+00 0. -1.
          1   -1    0    0  501    0 -0.00000000000E+00 -0.00000000000E+00 -0.30322590410E+03  0.30322590410E+03  0.00000000000E+00 0. -1.
         25    2    1    2    0    0 -0.43127664371E+02 -0.10252707606E+03  0.15806184314E+03  0.23017742382E+03  0.12500521358E+03 0.  0.
          2    1    1    2  501    0  0.19615190807E+02  0.23148729041E+02 -0.26062241338E+03  0.26238266277E+03  0.00000000000E+00 0. -1.
          1    1    1    2  502    0  0.23512473563E+02  0.79378347017E+02  0.29676434380E+03  0.30809549517E+03  0.00000000000E+00 0. -1.
         22    1    3    3    0    0  0.17233643025E+02 -0.88813458566E+02  0.44455947986E+02  0.10080258025E+03  0.00000000000E+00 0.  1.
         22    1    3    3    0    0 -0.60361307395E+02 -0.13713617492E+02  0.11360589515E+03  0.12937484357E+03  0.00000000000E+00 0.  1.
</event>
<event>
 7    1  0.5575489E-006  0.1762301E+03  0.7818608E-02  0.1370535E+00
          2   -1    0    0  502    0  0.00000000000E+00  0.00000000000E+00  0.99777742202E+03  0.99777742202E+03  0.00000000000E+00 0. -1.
          1   -1    0    0  501    0 -0.00000000000E+00 -0.00000000000E+00 -0.66935259238E+03  0.66935259238E+03  0.00000000000E+00 0. -1.
         25    2    1    2    0    0  0.20026873888E+03 -0.10891819548E+02 -0.10775773810E+03  0.25974393750E+03  0.12501593276E+03 0.  0.
          2    1    1    2  501    0 -0.25486250373E+02 -0.10954505277E+00 -0.47694035023E+03  0.47762083145E+03  0.00000000000E+00 0. -1.
          1    1    1    2  502    0 -0.17478248851E+03  0.11001364601E+02  0.91312291797E+03  0.92976524544E+03  0.00000000000E+00 0. -1.
         22    1    3    3    0    0  0.10254053507E+03 -0.35898221466E+01  0.13881602808E+02  0.10353814298E+03  0.00000000000E+00 0.  1.
         22    1    3    3    0    0  0.97728203816E+02 -0.73019974016E+01 -0.12163934091E+03  0.15620579453E+03  0.00000000000E+00 0.  1.
</event>
<event>
 7    1  0.5575489E-006  0.7556682E+02  0.7818608E-02  0.1385064E+00
          2   -1    0    0  502    0  0.00000000000E+00  0.00000000000E+00  0.24834516657E+04  0.24834516657E+04  0.00000000000E+00 0. -1.
          1   -1    0    0  501    0 -0.00000000000E+00 -0.00000000000E+00 -0.69163901633E+02  0.69163901633E+02  0.00000000000E+00 0. -1.
         25    2    1    2    0    0  0.26492514759E+02  0.48223929036E+01  0.92575002303E+02  0.15786049082E+03  0.12499877879E+03 0.  0.
          2    1    1    2  501    0  0.48219802521E+02 -0.21449932674E+02 -0.16496333474E+02  0.55293561876E+02  0.00000000000E+00 0. -1.
          1    1    1    2  502    0 -0.74712317279E+02  0.16627539770E+02  0.23382090953E+04  0.23394615147E+04  0.00000000000E+00 0. -1.
         22    1    3    3    0    0  0.54636972107E+02  0.47346901433E+02  0.33092710032E+02  0.79511352986E+02  0.00000000000E+00 0. -1.
         22    1    3    3    0    0 -0.28144457349E+02 -0.42524508529E+02  0.59482292271E+02  0.78349137831E+02  0.00000000000E+00 0. -1.
</event>
<event>
 7    1  0.7625036E-006  0.4563976E+02  0.7818608E-02  0.1477211E+00
          2   -1    0    0  502    0  0.00000000000E+00  0.00000000000E+00  0.90960453628E+03  0.90960453628E+03  0.00000000000E+00 0. -1.
          1   -1    0    0  501    0 -0.00000000000E+00 -0.00000000000E+00 -0.12879123970E+04  0.12879123970E+04  0.00000000000E+00 0. -1.
         25    2    1    2    0    0  0.71239606728E+02 -0.16653369855E+02 -0.27222030575E+03  0.30835373872E+03  0.12500286807E+03 0.  0.
          2    1    1    2  501    0 -0.42334110013E+02 -0.15818798173E+02 -0.99658300520E+03  0.99760718597E+03  0.00000000000E+00 0. -1.
          1    1    1    2  502    0 -0.28905496715E+02  0.32472168028E+02  0.89049545027E+03  0.89155600855E+03  0.00000000000E+00 0. -1.
         22    1    3    3    0    0  0.78965892807E+02 -0.61013597615E+02 -0.18524772458E+03  0.21041623223E+03  0.00000000000E+00 0.  1.
         22    1    3    3    0    0 -0.77262860790E+01  0.44360227760E+02 -0.86972581161E+02  0.97937506489E+02  0.00000000000E+00 0.  1.
</event>
<event>
 7    1  0.5575489E-006  0.5994629E+02  0.7818608E-02  0.1485855E+00
          2   -1    0    0  502    0  0.00000000000E+00  0.00000000000E+00  0.17864401428E+04  0.17864401428E+04  0.00000000000E+00 0. -1.
          1   -1    0    0  501    0 -0.00000000000E+00 -0.00000000000E+00 -0.64276012681E+02  0.64276012681E+02  0.00000000000E+00 0. -1.
         25    2    1    2    0    0 -0.24238059030E+02 -0.31524220477E+02  0.56647676624E+03  0.58146539617E+03  0.12499928108E+03 0.  0.
          2    1    1    2  501    0  0.10297603297E+02 -0.29390315382E+02 -0.51642010980E+02  0.60305294709E+02  0.00000000000E+00 0. -1.
          1    1    1    2  502    0  0.13940455733E+02  0.60914535859E+02  0.12073293748E+04  0.12089454646E+04  0.00000000000E+00 0. -1.
         22    1    3    3    0    0  0.84214735892E+01 -0.75287439217E+02  0.29681850089E+03  0.30633371051E+03  0.00000000000E+00 0.  1.
         22    1    3    3    0    0 -0.32659532619E+02  0.43763218740E+02  0.26965826535E+03  0.27513168566E+03  0.00000000000E+00 0.  1.
</event>
<event>
 7    1  0.5575489E-006  0.1305987E+03  0.7818608E-02  0.1343441E+00
          2   -1    0    0  502    0  0.00000000000E+00  0.00000000000E+00  0.81980002115E+03  0.81980002115E+03  0.00000000000E+00 0. -1.
          1   -1    0    0  501    0 -0.00000000000E+00 -0.00000000000E+00 -0.29058035649E+03  0.29058035649E+03  0.00000000000E+00 0. -1.
         25    2    1    2    0    0 -0.37610655633E+02 -0.85091978814E+02  0.67442117317E+01  0.15596671168E+03  0.12499969794E+03 0.  0.
          2    1    1    2  501    0 -0.31978884129E+02 -0.29090320818E+02 -0.20767147474E+03  0.21212340092E+03  0.00000000000E+00 0. -1.
          1    1    1    2  502    0  0.69589539762E+02  0.11418229963E+03  0.73014692767E+03  0.74229026504E+03  0.00000000000E+00 0. -1.
         22    1    3    3    0    0  0.32013152851E+02 -0.48586031780E+02 -0.34032422217E+02  0.67406603546E+02  0.00000000000E+00 0.  1.
         22    1    3    3    0    0 -0.69623808485E+02 -0.36505947035E+02  0.40776633949E+02  0.88560108136E+02  0.00000000000E+00 0.  1.
</event>
<event>
 7    1  0.5575489E-006  0.1167367E+03  0.7818608E-02  0.1266751E+00
          2   -1    0    0  502    0  0.00000000000E+00  0.00000000000E+00  0.32609801305E+03  0.32609801305E+03  0.00000000000E+00 0. -1.
          1   -1    0    0  501    0 -0.00000000000E+00 -0.00000000000E+00 -0.22229295074E+03  0.22229295074E+03  0.00000000000E+00 0. -1.
         25    2    1    2    0    0  0.88158591869E+02  0.87983247640E+01  0.64839526608E+02  0.16636824490E+03  0.12499952344E+03 0.  0.
          2    1    1    2  501    0 -0.54301647108E+02  0.10333826933E+03 -0.13108683990E+03  0.17553126896E+03  0.00000000000E+00 0. -1.
          1    1    1    2  502    0 -0.33856944761E+02 -0.11213659409E+03  0.17005237561E+03  0.20649144993E+03  0.00000000000E+00 0. -1.
         22    1    3    3    0    0  0.11321479495E+03  0.93945083436E+01  0.20504890672E+02  0.11543958213E+03  0.00000000000E+00 0.  1.
         22    1    3    3    0    0 -0.25056203077E+02 -0.59618357959E+00  0.44334635936E+02  0.50928662765E+02  0.00000000000E+00 0.  1.
</event>
<event>
 7    1  0.5575489E-006  0.8080037E+02  0.7818608E-02  0.1337094E+00
          2   -1    0    0  502    0  0.00000000000E+00  0.00000000000E+00  0.65224921119E+03  0.65224921119E+03  0.00000000000E+00 0. -1.
          1   -1    0    0  501    0 -0.00000000000E+00 -0.00000000000E+00 -0.39109748545E+03  0.39109748545E+03  0.00000000000E+00 0. -1.
         25    2    1    2    0    0  0.85675549902E+01 -0.80827044250E+02  0.58188558093E+02  0.16005327483E+03  0.12499891363E+03 0.  0.
          2    1    1    2  501    0  0.62743720797E+02  0.38895943363E+02 -0.33294857422E+03  0.34103434135E+03  0.00000000000E+00 0. -1.
          1    1    1    2  502    0 -0.71311275788E+02  0.41931100887E+02  0.53591174186E+03  0.54225908046E+03  0.00000000000E+00 0. -1.
         22    1    3    3    0    0  0.53106689665E+01 -0.11010884591E+03  0.67370302520E+02  0.12919333889E+03  0.00000000000E+00 0. -1.
         22    1    3    3    0    0  0.32568860237E+01  0.29281801661E+02 -0.91817444272E+01  0.30859935933E+02  0.00000000000E+00 0. -1.
</event>
<event>
 7    1  0.5575489E-006  0.1470729E+03  0.7818608E-02  0.1342878E+00
          2   -1    0    0  502    0  0.00000000000E+00  0.00000000000E+00  0.14598790314E+04  0.14598790314E+04  0.00000000000E+00 0. -1.
          1   -1    0    0  501    0 -0.00000000000E+00 -0.00000000000E+00 -0.74991917739E+03  0.74991917739E+03  0.00000000000E+00 0. -1.
         25    2    1    2    0    0 -0.65905594063E+02 -0.17043363825E+03  0.92172760125E+02  0.23981757082E+03  0.12500190874E+03 0.  0.
          2    1    1    2  501    0  0.20751864167E+02  0.32517650570E+02 -0.67147238427E+03  0.67257951226E+03  0.00000000000E+00 0. -1.
          1    1    1    2  502    0  0.45153729895E+02  0.13791598768E+03  0.12892594781E+04  0.12974011257E+04  0.00000000000E+00 0. -1.
         22    1    3    3    0    0 -0.74880686563E+02 -0.53891349393E+02  0.21505172714E+01  0.92282281528E+02  0.00000000000E+00 0.  1.
         22    1    3    3    0    0  0.89750925004E+01 -0.11654228885E+03  0.90022242854E+02  0.14753528929E+03  0.00000000000E+00 0.  1.
</event>
<event>
 7    1  0.5575489E-006  0.3921742E+02  0.7818608E-02  0.1514453E+00
          2   -1    0    0  502    0  0.00000000000E+00  0.00000000000E+00  0.90199955983E+03  0.90199955983E+03  0.00000000000E+00 0. -1.
          1   -1    0    0  501    0 -0.00000000000E+00 -0.00000000000E+00 -0.38386479143E+02  0.38386479143E+02  0.00000000000E+00 0. -1.
         25    2    1    2    0    0  0.29371179133E+02  0.48962932838E+02  0.52685231811E+03  0.54447924943E+03  0.12499701201E+03 0.  0.
          2    1    1    2  501    0 -0.37642606293E+02 -0.10736457204E+02 -0.15043613587E+02  0.41935040617E+02  0.00000000000E+00 0. -1.
          1    1    1    2  502    0  0.82714271598E+01 -0.38226475635E+02  0.35180437617E+03  0.35397174892E+03  0.00000000000E+00 0. -1.
         22    1    3    3    0    0  0.35781289644E+02  0.64770022011E+02  0.15017199201E+03  0.16741291355E+03  0.00000000000E+00 0.  1.
         22    1    3    3    0    0 -0.64101105112E+01 -0.15807089173E+02  0.37668032610E+03  0.37706633588E+03  0.00000000000E+00 0.  1.
</event>
<event>
 7    1  0.5575489E-006  0.6979024E+02  0.7818608E-02  0.1418838E+00
          2   -1    0    0  502    0  0.00000000000E+00  0.00000000000E+00  0.98459527547E+03  0.98459527547E+03  0.00000000000E+00 0. -1.
          1   -1    0    0  501    0 -0.00000000000E+00 -0.00000000000E+00 -0.10475762921E+03  0.10475762921E+03  0.00000000000E+00 0. -1.
         25    2    1    2    0    0  0.22189027065E+02  0.58677488942E+02  0.11757831077E+03  0.18272229876E+03  0.12500951431E+03 0.  0.
          2    1    1    2  501    0 -0.60965197613E+02 -0.38380782855E+02 -0.53477793783E+02  0.89720199735E+02  0.00000000000E+00 0. -1.
          1    1    1    2  502    0  0.38776170548E+02 -0.20296706087E+02  0.81573712927E+03  0.81691040619E+03  0.00000000000E+00 0. -1.
         22    1    3    3    0    0  0.16240073691E+01 -0.14887431363E+02 -0.20224133623E+02  0.25165225875E+02  0.00000000000E+00 0. -1.
         22    1    3    3    0    0  0.20565019696E+02  0.73564920305E+02  0.13780244439E+03  0.15755707288E+03  0.00000000000E+00 0. -1.
</event>
<event>
 7    1  0.5575489E-006  0.1084206E+03  0.7818608E-02  0.1417597E+00
          2   -1    0    0  502    0  0.00000000000E+00  0.00000000000E+00  0.16369183808E+03  0.16369183808E+03  0.00000000000E+00 0. -1.
          1   -1    0    0  501    0 -0.00000000000E+00 -0.00000000000E+00 -0.57687878734E+03  0.57687878734E+03  0.00000000000E+00 0. -1.
         25    2    1    2    0    0 -0.53289047513E+02 -0.85076804705E+02 -0.61785846545E+02  0.17181602200E+03  0.12500187718E+03 0.  0.
          2    1    1    2  501    0  0.19535784735E+02 -0.20673452489E+02 -0.43114002614E+03  0.43207726238E+03  0.00000000000E+00 0. -1.
          1    1    1    2  502    0  0.33753262778E+02  0.10575025719E+03  0.79738923428E+02  0.13667734104E+03  0.00000000000E+00 0. -1.
         22    1    3    3    0    0  0.18086965735E+02  0.10725142496E+02  0.18393030600E+02  0.27936903653E+02  0.00000000000E+00 0.  1.
         22    1    3    3    0    0 -0.71376013248E+02 -0.95801947201E+02 -0.80178877145E+02  0.14387911834E+03  0.00000000000E+00 0.  1.
</event>
<event>
 7    1  0.5575489E-006  0.5471474E+02  0.7818608E-02  0.1512567E+00
          2   -1    0    0  502    0  0.00000000000E+00  0.00000000000E+00  0.31284321843E+03  0.31284321843E+03  0.00000000000E+00 0. -1.
          1   -1    0    0  501    0 -0.00000000000E+00 -0.00000000000E+00 -0.67151925383E+02  0.67151925383E+02  0.00000000000E+00 0. -1.
         25    2    1    2    0    0  0.10908769734E+02  0.67090544669E+02  0.52739597002E+02  0.15174552702E+03  0.12500038975E+03 0.  0.
          2    1    1    2  501    0 -0.24309383490E+02 -0.14668941886E+02  0.56380706660E+00  0.28397919996E+02  0.00000000000E+00 0. -1.
          1    1    1    2  502    0  0.13400613756E+02 -0.52421602783E+02  0.19238788898E+03  0.19985169680E+03  0.00000000000E+00 0. -1.
         22    1    3    3    0    0 -0.30993351815E+02 -0.18248023154E+02  0.43177626846E+02  0.56195067985E+02  0.00000000000E+00 0. -1.
         22    1    3    3    0    0  0.41902121549E+02  0.85338567823E+02  0.95619701553E+01  0.95550459034E+02  0.00000000000E+00 0. -1.
</event>
<event>
 7    1  0.5575489E-006  0.9069201E+02  0.7818608E-02  0.1387023E+00
          2   -1    0    0  502    0  0.00000000000E+00  0.00000000000E+00  0.10543610928E+03  0.10543610928E+03  0.00000000000E+00 0. -1.
          1   -1    0    0  501    0 -0.00000000000E+00 -0.00000000000E+00 -0.88148322438E+03  0.88148322438E+03  0.00000000000E+00 0. -1.
         25    2    1    2    0    0 -0.82790098473E+02 -0.27281976930E+02 -0.17463637060E+03  0.23177753725E+03  0.12499783266E+03 0.  0.
          2    1    1    2  501    0  0.63960184513E+02  0.66254456343E+02 -0.66876693051E+03  0.67507759964E+03  0.00000000000E+00 0. -1.
          1    1    1    2  502    0  0.18829913960E+02 -0.38972479414E+02  0.67356186011E+02  0.80064196776E+02  0.00000000000E+00 0. -1.
         22    1    3    3    0    0 -0.60209899338E+02  0.44722877283E+02 -0.68691311643E+02  0.10170478861E+03  0.00000000000E+00 0. -1.
         22    1    3    3    0    0 -0.22580199135E+02 -0.72004854212E+02 -0.10594505895E+03  0.13007274864E+03  0.00000000000E+00 0. -1.
</event>
<event>
 7    1  0.5575489E-006  0.3788947E+02  0.7818608E-02  0.1566874E+00
          2   -1    0    0  502    0  0.00000000000E+00  0.00000000000E+00  0.13996074025E+03  0.13996074025E+03  0.00000000000E+00 0. -1.
          1   -1    0    0  501    0 -0.00000000000E+00 -0.00000000000E+00 -0.16424259822E+04  0.16424259822E+04  0.00000000000E+00 0. -1.
         25    2    1    2    0    0  0.56563354482E+02  0.33609506218E+02 -0.88024015367E+02  0.16643842786E+03  0.12499804402E+03 0.  0.
          2    1    1    2  501    0 -0.23634759656E+02 -0.16430701505E+02 -0.15116303616E+04  0.15119044017E+04  0.00000000000E+00 0. -1.
          1    1    1    2  502    0 -0.32928594826E+02 -0.17178804713E+02  0.97189134991E+02  0.10404389290E+03  0.00000000000E+00 0. -1.
         22    1    3    3    0    0  0.32527167719E+02 -0.44957105900E+02 -0.54260661198E+02  0.77610420463E+02  0.00000000000E+00 0. -1.
         22    1    3    3    0    0  0.24036186763E+02  0.78566612119E+02 -0.33763354169E+02  0.88828007400E+02  0.00000000000E+00 0. -1.
</event>
<event>
 7    1  0.5575489E-006  0.1698731E+03  0.7818608E-02  0.1323504E+00
          2   -1    0    0  502    0  0.00000000000E+00  0.00000000000E+00  0.77779603004E+03  0.77779603004E+03  0.00000000000E+00 0. -1.
          1   -1    0    0  501    0 -0.00000000000E+00 -0.00000000000E+00 -0.15137375900E+04  0.15137375900E+04  0.00000000000E+00 0. -1.
         25    2    1    2    0    0  0.12736675329E+03 -0.72516741551E+02 -0.37664972667E+03  0.42305001479E+03  0.12500132307E+03 0.  0.
          2    1    1    2  501    0 -0.13887332923E+03  0.11037722301E+03 -0.11062978732E+04  0.11204302375E+04  0.00000000000E+00 0. -1.
          1    1    1    2  502    0  0.11506575946E+02 -0.37860481461E+02  0.74700603989E+03  0.74805336773E+03  0.00000000000E+00 0. -1.
         22    1    3    3    0    0  0.63860814106E+02 -0.98531801381E+02 -0.18134610708E+03  0.21603964917E+03  0.00000000000E+00 0.  1.
         22    1    3    3    0    0  0.63505939179E+02  0.26015059830E+02 -0.19530361960E+03  0.20701036562E+03  0.00000000000E+00 0.  1.
</event>
<event>
 7    1  0.5575489E-006  0.1061084E+03  0.7818608E-02  0.1449556E+00
          2   -1    0    0  502    0  0.00000000000E+00  0.00000000000E+00  0.62295396645E+03  0.62295396645E+03  0.00000000000E+00 0. -1.
          1   -1    0    0  501    0 -0.00000000000E+00 -0.00000000000E+00 -0.75042453047E+03  0.75042453047E+03  0.00000000000E+00 0. -1.
         25    2    1    2    0    0 -0.11376013692E+03 -0.26648849694E+02 -0.31970774525E+02  0.17406994949E+03  0.12500674761E+03 0.  0.
          2    1    1    2  501    0  0.16832882371E+02 -0.15434519482E+02 -0.64214141536E+03  0.64254740497E+03  0.00000000000E+00 0. -1.
          1    1    1    2  502    0  0.96927254549E+02  0.42083369176E+02  0.54664162586E+03  0.55676114246E+03  0.00000000000E+00 0. -1.
         22    1    3    3    0    0 -0.11737068379E+03  0.22782633575E+02 -0.10389245768E+02  0.12001192538E+03  0.00000000000E+00 0. -1.
         22    1    3    3    0    0  0.36105468679E+01 -0.49431483269E+02 -0.21581528757E+02  0.54058024107E+02  0.00000000000E+00 0. -1.
</event>
<event>
 7    1  0.5575489E-006  0.6339093E+02  0.7818608E-02  0.1534939E+00
          2   -1    0    0  502    0  0.00000000000E+00  0.00000000000E+00  0.32743269215E+03  0.32743269215E+03  0.00000000000E+00 0. -1.
          1   -1    0    0  501    0 -0.00000000000E+00 -0.00000000000E+00 -0.27696692631E+03  0.27696692631E+03  0.00000000000E+00 0. -1.
         25    2    1    2    0    0 -0.72420266951E+02  0.14018938967E+02  0.14619992404E+03  0.20601520993E+03  0.12500649270E+03 0.  0.
          2    1    1    2  501    0  0.10936626335E+02 -0.18064588382E+02 -0.24030472800E+03  0.24123080535E+03  0.00000000000E+00 0. -1.
          1    1    1    2  502    0  0.61483640615E+02  0.40456494155E+01  0.14457056979E+03  0.15715360318E+03  0.00000000000E+00 0. -1.
         22    1    3    3    0    0 -0.40535854356E+02 -0.55463883663E+02  0.68896204742E+02  0.97293807137E+02  0.00000000000E+00 0.  1.
         22    1    3    3    0    0 -0.31884412595E+02  0.69482822629E+02  0.77303719299E+02  0.10872140279E+03  0.00000000000E+00 0.  1.
</event>
<event>
 7    1  0.5575489E-006  0.2606436E+03  0.7818608E-02  0.1246686E+00
          2   -1    0    0  502    0  0.00000000000E+00  0.00000000000E+00  0.15473066685E+04  0.15473066685E+04  0.00000000000E+00 0. -1.
          1   -1    0    0  501    0 -0.00000000000E+00 -0.00000000000E+00 -0.43325342815E+03  0.43325342815E+03  0.00000000000E+00 0. -1.
         25    2    1    2    0    0  0.15647827724E+03  0.15465385485E+03  0.24058388108E+03  0.34915391047E+03  0.12499833317E+03 0.  0.
          2    1    1    2  501    0  0.26644855150E+02  0.46146253603E+02 -0.36225416677E+03  0.36615229942E+03  0.00000000000E+00 0. -1.
          1    1    1    2  502    0 -0.18312313239E+03 -0.20080010845E+03  0.12357235261E+04  0.12652538868E+04  0.00000000000E+00 0. -1.
         22    1    3    3    0    0  0.18904592746E+01  0.78251786591E+02  0.54022488610E+02  0.95107019807E+02  0.00000000000E+00 0.  1.
         22    1    3    3    0    0  0.15458781796E+03  0.76402068258E+02  0.18656139247E+03  0.25404689067E+03  0.00000000000E+00 0.  1.
</event>
<event>
 7    1  0.5575489E-006  0.1053165E+03  0.7818608E-02  0.1390022E+00
          2   -1    0    0  502    0  0.00000000000E+00  0.00000000000E+00  0.10040859476E+03  0.10040859476E+03  0.00000000000E+00 0. -1.
          1   -1    0    0  501    0 -0.00000000000E+00 -0.00000000000E+00 -0.74567024684E+03  0.74567024684E+03  0.00000000000E+00 0. -1.
         25    2    1    2    0    0  0.31746847952E+02  0.77191635092E+02 -0.11473859188E+03  0.18909399970E+03  0.12500074148E+03 0.  0.
          2    1    1    2  501    0 -0.12319680568E+02 -0.10795427337E+03 -0.58304996079E+03  0.59308781512E+03  0.00000000000E+00 0. -1.
          1    1    1    2  502    0 -0.19427167384E+02  0.30762638274E+02  0.52526900596E+02  0.63897026788E+02  0.00000000000E+00 0. -1.
         22    1    3    3    0    0  0.53143365647E+02  0.55732942016E+02 -0.13302006769E+03  0.15370333941E+03  0.00000000000E+00 0. -1.
         22    1    3    3    0    0 -0.21396517695E+02  0.21458693076E+02  0.18281475802E+02  0.35390660287E+02  0.00000000000E+00 0. -1.
</event>
<event>
 7    1  0.5575489E-006  0.1439043E+03  0.7818608E-02  0.1239004E+00
          2   -1    0    0  502    0  0.00000000000E+00  0.00000000000E+00  0.17872660093E+04  0.17872660093E+04  0.00000000000E+00 0. -1.
          1   -1    0    0  501    0 -0.00000000000E+00 -0.00000000000E+00 -0.12442138074E+03  0.12442138074E+03  0.00000000000E+00 0. -1.
         25    2    1    2    0    0  0.12233777490E+03 -0.75538342807E+02  0.45820390107E+03  0.49623279690E+03  0.12499440531E+03 0.  0.
          2    1    1    2  501    0 -0.14528865155E+03 -0.26211573969E+02 -0.50465835674E+02  0.15602127883E+03  0.00000000000E+00 0. -1.
          1    1    1    2  502    0  0.22950876643E+02  0.10174991678E+03  0.12551065632E+04  0.12594333144E+04  0.00000000000E+00 0. -1.
         22    1    3    3    0    0  0.32274770984E+02 -0.80572774927E+02  0.13352378014E+03  0.15925524407E+03  0.00000000000E+00 0.  1.
         22    1    3    3    0    0  0.90063003919E+02  0.50344321193E+01  0.32468012093E+03  0.33697755283E+03  0.00000000000E+00 0.  1.
</event>
<event>
 7    1  0.5575489E-006  0.1097236E+03  0.7818608E-02  0.1400341E+00
          2   -1    0    0  502    0  0.00000000000E+00  0.00000000000E+00  0.15330048287E+04  0.15330048287E+04  0.00000000000E+00 0. -1.
          1   -1    0    0  501    0 -0.00000000000E+00 -0.00000000000E+00 -0.36869098627E+03  0.36869098627E+03  0.00000000000E+00 0. -1.
         25    2    1    2    0    0  0.10269211419E+03 -0.17176800481E+02  0.11730624830E+03  0.20056630642E+03  0.12500149835E+03 0.  0.
          2    1    1    2  501    0 -0.39753381308E+01 -0.31916797288E+02 -0.32405201378E+03  0.32564427356E+03  0.00000000000E+00 0. -1.
          1    1    1    2  502    0 -0.98716776056E+02  0.49093597769E+02  0.13710596079E+04  0.13754852349E+04  0.00000000000E+00 0. -1.
         22    1    3    3    0    0  0.98731283447E+02 -0.20033612991E+02  0.14271608809E+03  0.17469142446E+03  0.00000000000E+00 0.  1.
         22    1    3    3    0    0  0.39608307400E+01  0.28568125095E+01 -0.25409839792E+02  0.25874881954E+02  0.00000000000E+00 0.  1.
</event>
<event>
 7    1  0.5575489E-006  0.7426078E+02  0.7818608E-02  0.1403770E+00
          2   -1    0    0  502    0  0.00000000000E+00  0.00000000000E+00  0.23117238759E+04  0.23117238759E+04  0.00000000000E+00 0. -1.
          1   -1    0    0  501    0 -0.00000000000E+00 -0.00000000000E+00 -0.16218059409E+04  0.16218059409E+04  0.00000000000E+00 0. -1.
         25    2    1    2    0    0  0.53443653316E+02  0.16590452997E+02 -0.70464655201E+02  0.15401992273E+03  0.12500160701E+03 0.  0.
          2    1    1    2  501    0 -0.42691254798E+02 -0.61577215422E+02 -0.15083979973E+04  0.15102578638E+04  0.00000000000E+00 0. -1.
          1    1    1    2  502    0 -0.10752398518E+02  0.44986762425E+02  0.22687805875E+04  0.22692520303E+04  0.00000000000E+00 0. -1.
         22    1    3    3    0    0  0.87916814735E+02  0.97788882535E+01 -0.78165973553E+02  0.11804622989E+03  0.00000000000E+00 0. -1.
         22    1    3    3    0    0 -0.34473161419E+02  0.68115647437E+01  0.77013183522E+01  0.35973692844E+02  0.00000000000E+00 0. -1.
</event>
<event>
 7    1  0.5575489E-006  0.6508193E+02  0.7818608E-02  0.1385938E+00
          2   -1    0    0  502    0  0.00000000000E+00  0.00000000000E+00  0.19669047939E+04  0.19669047939E+04  0.00000000000E+00 0. -1.
          1   -1    0    0  501    0 -0.00000000000E+00 -0.00000000000E+00 -0.73837424199E+02  0.73837424199E+02  0.00000000000E+00 0. -1.
         25    2    1    2    0    0 -0.10382886623E+03 -0.45935520721E+02  0.63202421393E+03  0.65419440414E+03  0.12500082357E+03 0.  0.
          2    1    1    2  501    0  0.64076875479E+02 -0.12980351431E+00 -0.45500235442E+02  0.78588384927E+02  0.00000000000E+00 0. -1.
          1    1    1    2  502    0  0.39751990749E+02  0.46065324235E+02  0.13065433912E+04  0.13079594290E+04  0.00000000000E+00 0. -1.
         22    1    3    3    0    0 -0.85496555478E+02 -0.47476663072E+02  0.20876204098E+03  0.23053261003E+03  0.00000000000E+00 0. -1.
         22    1    3    3    0    0 -0.18332310750E+02  0.15411423509E+01  0.42326217295E+03  0.42366179411E+03  0.00000000000E+00 0. -1.
</event>
<event>
 7    1  0.5575489E-006  0.1216422E+03  0.7818608E-02  0.1283749E+00
          2   -1    0    0  502    0  0.00000000000E+00  0.00000000000E+00  0.92385604179E+03  0.92385604179E+03  0.00000000000E+00 0. -1.
          1   -1    0    0  501    0 -0.00000000000E+00 -0.00000000000E+00 -0.82733684491E+03  0.82733684491E+03  0.00000000000E+00 0. -1.
         25    2    1    2    0    0 -0.11140385442E+02 -0.74343674368E+02 -0.45271858288E+03  0.47563653688E+03  0.12499963929E+03 0.  0.
          2    1    1    2  501    0 -0.79156432996E+02 -0.79964638947E+01 -0.35464034246E+03  0.36345488966E+03  0.00000000000E+00 0. -1.
          1    1    1    2  502    0  0.90296818437E+02  0.82340138262E+02  0.90387812222E+03  0.91210146016E+03  0.00000000000E+00 0. -1.
         22    1    3    3    0    0  0.40489144484E+02 -0.24475753207E+02 -0.59988574838E+02  0.76400670332E+02  0.00000000000E+00 0. -1.
         22    1    3    3    0    0 -0.51629529926E+02 -0.49867921161E+02 -0.39273000805E+03  0.39923586655E+03  0.00000000000E+00 0. -1.
</event>
<event>
 7    1  0.5575489E-006  0.1467255E+03  0.7818608E-02  0.1326114E+00
          2   -1    0    0  502    0  0.00000000000E+00  0.00000000000E+00  0.25001339095E+03  0.25001339095E+03  0.00000000000E+00 0. -1.
          1   -1    0    0  501    0 -0.00000000000E+00 -0.00000000000E+00 -0.12875358663E+04  0.12875358663E+04  0.00000000000E+00 0. -1.
         25    2    1    2    0    0 -0.10423992859E+03  0.79115226081E+02 -0.81976771667E+03  0.83950589720E+03  0.12500344169E+03 0.  0.
          2    1    1    2  501    0  0.12877489441E+03 -0.11655791587E+03 -0.43910619475E+03  0.47221072780E+03  0.00000000000E+00 0. -1.
          1    1    1    2  502    0 -0.24534965821E+02  0.37442689788E+02  0.22135143604E+03  0.22583263228E+03  0.00000000000E+00 0. -1.
         22    1    3    3    0    0 -0.20435095382E+02 -0.93286206473E+01 -0.44209985009E+03  0.44267018618E+03  0.00000000000E+00 0. -1.
         22    1    3    3    0    0 -0.83804833207E+02  0.88443846728E+02 -0.37766786658E+03  0.39683571102E+03  0.00000000000E+00 0. -1.
</event>
<event>
 7    1  0.5575489E-006  0.3658667E+02  0.7818608E-02  0.1538565E+00
          2   -1    0    0  502    0  0.00000000000E+00  0.00000000000E+00  0.30648395004E+02  0.30648395004E+02  0.00000000000E+00 0. -1.
          1   -1    0    0  501    0 -0.00000000000E+00 -0.00000000000E+00 -0.18921305313E+04  0.18921305313E+04  0.00000000000E+00 0. -1.
         25    2    1    2    0    0 -0.27736162362E+02 -0.33939640114E+02 -0.12272050662E+04  0.12343331577E+04  0.12499950301E+03 0.  0.
          2    1    1    2  501    0 -0.78773728810E+01  0.36836351674E+02 -0.64878788373E+03  0.64988051816E+03  0.00000000000E+00 0. -1.
          1    1    1    2  502    0  0.35613535243E+02 -0.28967115600E+01  0.14510813646E+02  0.38565250460E+02  0.00000000000E+00 0. -1.
         22    1    3    3    0    0  0.33995194258E+02  0.18601218241E+02 -0.68569560755E+03  0.68678973839E+03  0.00000000000E+00 0.  1.
         22    1    3    3    0    0 -0.61731356620E+02 -0.52540858354E+02 -0.54150945864E+03  0.54754341926E+03  0.00000000000E+00 0.  1.
</event>
<event>
 7    1  0.5575489E-006  0.1301066E+03  0.7818608E-02  0.1310761E+00
          2   -1    0    0  502    0  0.00000000000E+00  0.00000000000E+00  0.19385262969E+03  0.19385262969E+03  0.00000000000E+00 0. -1.
          1   -1    0    0  501    0 -0.00000000000E+00 -0.00000000000E+00 -0.16837133099E+04  0.16837133099E+04  0.00000000000E+00 0. -1.
         25    2    1    2    0    0  0.14242415462E+03 -0.10774137253E+03 -0.95039910775E+03  0.97507618904E+03  0.12498906852E+03 0.  0.
          2    1    1    2  501    0 -0.56832676782E+02  0.11192986992E+02 -0.69669226101E+03  0.69909608972E+03  0.00000000000E+00 0. -1.
          1    1    1    2  502    0 -0.85591477836E+02  0.96548385537E+02  0.15723068857E+03  0.20339366081E+03  0.00000000000E+00 0. -1.
         22    1    3    3    0    0  0.46366596380E+02 -0.64468454741E+02 -0.68410499795E+03  0.68869854881E+03  0.00000000000E+00 0. -1.
         22    1    3    3    0    0  0.96057558239E+02 -0.43272917787E+02 -0.26629410980E+03  0.28637764022E+03  0.00000000000E+00 0. -1.
</event>
<event>
 7    1  0.5575489E-006  0.7465509E+02  0.7818608E-02  0.1398506E+00
          2   -1    0    0  502    0  0.00000000000E+00  0.00000000000E+00  0.11383851758E+04  0.11383851758E+04  0.00000000000E+00 0. -1.
          1   -1    0    0  501    0 -0.00000000000E+00 -0.00000000000E+00 -0.91026182883E+02  0.91026182883E+02  0.00000000000E+00 0. -1.
         25    2    1    2    0    0 -0.68819272863E+02  0.80913026170E+02  0.12264705785E+03  0.20481905621E+03  0.12500213945E+03 0.  0.
          2    1    1    2  501    0  0.27711582129E+01 -0.47884281190E+02 -0.36671429245E+02  0.60376961051E+02  0.00000000000E+00 0. -1.
          1    1    1    2  502    0  0.66048114650E+02 -0.33028744980E+02  0.96138336429E+03  0.96421534139E+03  0.00000000000E+00 0. -1.
         22    1    3    3    0    0 -0.72212489166E+02  0.95246168527E+02  0.13865751875E+03  0.18306387878E+03  0.00000000000E+00 0.  1.
         22    1    3    3    0    0  0.33932163025E+01 -0.14333142357E+02 -0.16010460900E+02  0.21755177429E+02  0.00000000000E+00 0.  1.
</event>
<event>
 7    1  0.5575489E-006  0.6664461E+02  0.7818608E-02  0.1393655E+00
          2   -1    0    0  502    0  0.00000000000E+00  0.00000000000E+00  0.51086077883E+03  0.51086077883E+03  0.00000000000E+00 0. -1.
          1   -1    0    0  501    0 -0.00000000000E+00 -0.00000000000E+00 -0.50320609301E+03  0.50320609301E+03  0.00000000000E+00 0. -1.
         25    2    1    2    0    0 -0.28045055479E+02 -0.50186732534E+02 -0.58968144887E+02  0.14969017144E+03  0.12499868821E+03 0.  0.
          2    1    1    2  501    0  0.67735477752E+02  0.10900637330E+02 -0.39422864457E+03  0.40015389919E+03  0.00000000000E+00 0. -1.
          1    1    1    2  502    0 -0.39690422272E+02  0.39286095204E+02  0.46085147527E+03  0.46422280121E+03  0.00000000000E+00 0. -1.
         22    1    3    3    0    0  0.29775083977E+02  0.27626284090E+02 -0.18722933795E+02  0.44724886231E+02  0.00000000000E+00 0.  1.
         22    1    3    3    0    0 -0.57820139457E+02 -0.77813016624E+02 -0.40245211092E+02  0.10496528521E+03  0.00000000000E+00 0.  1.
</event>
<event>
 7    1  0.6615195E-006  0.1310884E+03  0.7818608E-02  0.1314126E+00
          2   -1    0    0  502    0  0.00000000000E+00  0.00000000000E+00  0.38167590640E+04  0.38167590640E+04  0.00000000000E+00 0. -1.
          1   -1    0    0  501    0 -0.00000000000E+00 -0.00000000000E+00 -0.81687228985E+03  0.81687228985E+03  0.00000000000E+00 0. -1.
         25    2    1    2    0    0 -0.17329041505E+02 -0.16646453382E+03 -0.38365788993E+03  0.43685668045E+03  0.12505857047E+03 0.  0.
          2    1    1    2  501    0 -0.32513449696E+02  0.45309415620E+02 -0.40356485513E+03  0.40739987708E+03  0.00000000000E+00 0. -1.
          1    1    1    2  502    0  0.49842491201E+02  0.12115511820E+03  0.37871095192E+04  0.37893747964E+04  0.00000000000E+00 0. -1.
         22    1    3    3    0    0 -0.25129578183E+02 -0.12915843682E+03 -0.37549183151E+03  0.39787876675E+03  0.00000000000E+00 0.  1.
         22    1    3    3    0    0  0.78005366785E+01 -0.37306097001E+02 -0.81660584154E+01  0.38977913694E+02  0.00000000000E+00 0.  1.
</event>
<event>
 7    1  0.5575489E-006  0.9171245E+02  0.7818608E-02  0.1300530E+00
          2   -1    0    0  502    0  0.00000000000E+00  0.00000000000E+00  0.40564509501E+03  0.40564509501E+03  0.00000000000E+00 0. -1.
          1   -1    0    0  501    0 -0.00000000000E+00 -0.00000000000E+00 -0.12178425875E+04  0.12178425875E+04  0.00000000000E+00 0. -1.
         25    2    1    2    0    0 -0.78514942129E+02 -0.36037264388E+02  0.31136973540E+02  0.15510614200E+03  0.12500049441E+03 0.  0.
          2    1    1    2  501    0  0.80103631284E+01  0.92337232676E+02 -0.11474382691E+04  0.11511754479E+04  0.00000000000E+00 0. -1.
          1    1    1    2  502    0  0.70504579001E+02 -0.56299968288E+02  0.30410380311E+03  0.31720609256E+03  0.00000000000E+00 0. -1.
         22    1    3    3    0    0 -0.43828547349E+02  0.40027014141E+02  0.39179244455E+02  0.71120437427E+02  0.00000000000E+00 0. -1.
         22    1    3    3    0    0 -0.34686394780E+02 -0.76064278529E+02 -0.80422709152E+01  0.83985704572E+02  0.00000000000E+00 0. -1.
</event>
<event>
 7    1  0.5575489E-006  0.4558707E+02  0.7818608E-02  0.1581661E+00
          2   -1    0    0  502    0  0.00000000000E+00  0.00000000000E+00  0.11306332240E+04  0.11306332240E+04  0.00000000000E+00 0. -1.
          1   -1    0    0  501    0 -0.00000000000E+00 -0.00000000000E+00 -0.13432920181E+04  0.13432920181E+04  0.00000000000E+00 0. -1.
         25    2    1    2    0    0 -0.39656276167E+01  0.46509600087E+02  0.60391081910E+02  0.14646216707E+03  0.12500085802E+03 0.  0.
          2    1    1    2  501    0 -0.20345599757E+02 -0.78896273420E+01 -0.12996579927E+04  0.12998411779E+04  0.00000000000E+00 0. -1.
          1    1    1    2  502    0  0.24311227374E+02 -0.38619972745E+02  0.10266081168E+04  0.10276218971E+04  0.00000000000E+00 0. -1.
         22    1    3    3    0    0 -0.31021273584E+02  0.70918357836E+02  0.74455906385E+02  0.10740304879E+03  0.00000000000E+00 0. -1.
         22    1    3    3    0    0  0.27055645968E+02 -0.24408757749E+02 -0.14064824475E+02  0.39059118283E+02  0.00000000000E+00 0. -1.
</event>
<event>
 7    1  0.5575489E-006  0.4212095E+02  0.7818608E-02  0.1503386E+00
          2   -1    0    0  502    0  0.00000000000E+00  0.00000000000E+00  0.62003463353E+02  0.62003463353E+02  0.00000000000E+00 0. -1.
          1   -1    0    0  501    0 -0.00000000000E+00 -0.00000000000E+00 -0.15495892945E+04  0.15495892945E+04  0.00000000000E+00 0. -1.
         25    2    1    2    0    0  0.60422204991E+01 -0.15753044019E+02 -0.80088457841E+03  0.81075629873E+03  0.12500000470E+03 0.  0.
          2    1    1    2  501    0  0.36417412511E+02  0.14656799000E+02 -0.73526906674E+03  0.73631627050E+03  0.00000000000E+00 0. -1.
          1    1    1    2  502    0 -0.42459633010E+02  0.10962450196E+01  0.48567813980E+02  0.64520188649E+02  0.00000000000E+00 0. -1.
         22    1    3    3    0    0  0.41833598914E+02  0.32271312747E+02 -0.19883936284E+03  0.20573910624E+03  0.00000000000E+00 0.  1.
         22    1    3    3    0    0 -0.35791378415E+02 -0.48024356767E+02 -0.60204521557E+03  0.60501719249E+03  0.00000000000E+00 0.  1.
</event>
<event>
 7    1  0.5575489E-006  0.1015034E+03  0.7818608E-02  0.1314558E+00
          2   -1    0    0  502    0  0.00000000000E+00  0.00000000000E+00  0.19354348109E+03  0.19354348109E+03  0.00000000000E+00 0. -1.
          1   -1    0    0  501    0 -0.00000000000E+00 -0.00000000000E+00 -0.10955279326E+04  0.10955279326E+04  0.00000000000E+00 0. -1.
         25    2    1    2    0    0  0.13704164323E+02  0.12959222909E+03 -0.81244743072E+02  0.19800978911E+03  0.12500087339E+03 0.  0.
          2    1    1    2  501    0  0.46107899769E+02 -0.89975590191E+02 -0.94348578232E+03  0.94888722548E+03  0.00000000000E+00 0. -1.
          1    1    1    2  502    0 -0.59812064092E+02 -0.39616638895E+02  0.12274607391E+03  0.14217439906E+03  0.00000000000E+00 0. -1.
         22    1    3    3    0    0  0.75537385502E+01  0.95927921484E+02  0.13598927615E+02  0.97181047116E+02  0.00000000000E+00 0. -1.
         22    1    3    3    0    0  0.61504257725E+01  0.33664307602E+02 -0.94843670686E+02  0.10082874200E+03  0.00000000000E+00 0. -1.
</event>
<event>
 7    1  0.5575489E-006  0.9826112E+02  0.7818608E-02  0.1375129E+00
          2   -1    0    0  502    0  0.00000000000E+00  0.00000000000E+00  0.44225464186E+03  0.44225464186E+03  0.00000000000E+00 0. -1.
          1   -1    0    0  501    0 -0.00000000000E+00 -0.00000000000E+00 -0.29868417355E+03  0.29868417355E+03  0.00000000000E+00 0. -1.
         25    2    1    2    0    0 -0.36484434406E+02 -0.57908777175E+02 -0.28117570134E+02  0.14525726954E+03  0.12499814469E+03 0.  0.
          2    1    1    2  501    0 -0.43906801202E+02 -0.30294693311E+01 -0.20296672245E+03  0.20768359419E+03  0.00000000000E+00 0. -1.
          1    1    1    2  502    0  0.80391235609E+02  0.60938246506E+02  0.37465476089E+03  0.38799795168E+03  0.00000000000E+00 0. -1.
         22    1    3    3    0    0  0.30517361074E+02 -0.15221440234E+02 -0.52102510107E+02  0.62270965378E+02  0.00000000000E+00 0. -1.
         22    1    3    3    0    0 -0.67001795480E+02 -0.42687336941E+02  0.23984939973E+02  0.82986304160E+02  0.00000000000E+00 0. -1.
</event>
<event>
 7    1  0.5575489E-006  0.1240935E+03  0.7818608E-02  0.1342710E+00
          2   -1    0    0  502    0  0.00000000000E+00  0.00000000000E+00  0.11045014870E+04  0.11045014870E+04  0.00000000000E+00 0. -1.
          1   -1    0    0  501    0 -0.00000000000E+00 -0.00000000000E+00 -0.38449631075E+03  0.38449631075E+03  0.00000000000E+00 0. -1.
         25    2    1    2    0    0 -0.30819108864E+02 -0.15343949759E+03  0.60235684996E+03  0.63478497636E+03  0.12499877849E+03 0.  0.
          2    1    1    2  501    0  0.25782101074E+01  0.45712003104E+02 -0.36043409496E+03  0.36333038849E+03  0.00000000000E+00 0. -1.
          1    1    1    2  502    0  0.28240898756E+02  0.10772749449E+03  0.47808242126E+03  0.49088243292E+03  0.00000000000E+00 0. -1.
         22    1    3    3    0    0  0.22131832116E+02 -0.82734836590E+02  0.14041097323E+03  0.16446918429E+03  0.00000000000E+00 0. -1.
         22    1    3    3    0    0 -0.52950940980E+02 -0.70704661003E+02  0.46194587673E+03  0.47031579206E+03  0.00000000000E+00 0. -1.
</event>
<event>
 7    1  0.5575489E-006  0.5507714E+02  0.7818608E-02  0.1558049E+00
          2   -1    0    0  502    0  0.00000000000E+00  0.00000000000E+00  0.15188574533E+04  0.15188574533E+04  0.00000000000E+00 0. -1.
          1   -1    0    0  501    0 -0.00000000000E+00 -0.00000000000E+00 -0.18812066120E+04  0.18812066120E+04  0.00000000000E+00 0. -1.
         25    2    1    2    0    0  0.35535562332E+02  0.19618754982E+02  0.60794434506E+02  0.14480605548E+03  0.12500063480E+03 0.  0.
          2    1    1    2  501    0 -0.54203648113E+02 -0.10138244611E+02 -0.18387100331E+04  0.18395367366E+04  0.00000000000E+00 0. -1.
          1    1    1    2  502    0  0.18668085781E+02 -0.94805103712E+01  0.14155664399E+04  0.14157212732E+04  0.00000000000E+00 0. -1.
         22    1    3    3    0    0 -0.85079069953E+01 -0.24244453059E+02 -0.26975769423E+02  0.37254128919E+02  0.00000000000E+00 0.  1.
         22    1    3    3    0    0  0.44043469327E+02  0.43863208041E+02  0.87770203928E+02  0.10755192656E+03  0.00000000000E+00 0.  1.
</event>
<event>
 7    1  0.5575489E-006  0.1014621E+03  0.7818608E-02  0.1398429E+00
          2   -1    0    0  502    0  0.00000000000E+00  0.00000000000E+00  0.31294363198E+03  0.31294363198E+03  0.00000000000E+00 0. -1.
          1   -1    0    0  501    0 -0.00000000000E+00 -0.00000000000E+00 -0.23493982335E+03  0.23493982335E+03  0.00000000000E+00 0. -1.
         25    2    1    2    0    0 -0.75941689926E+02  0.47663783364E+02  0.14938646993E+03  0.21442869352E+03  0.12499748276E+03 0.  0.
          2    1    1    2  501    0  0.10027587459E+03 -0.22073316609E+02 -0.18658012572E+03  0.21296625470E+03  0.00000000000E+00 0. -1.
          1    1    1    2  502    0 -0.24334184661E+02 -0.25590466755E+02  0.11519746443E+03  0.12048850710E+03  0.00000000000E+00 0. -1.
         22    1    3    3    0    0 -0.51559058605E+01  0.36496216165E+02  0.13678985186E+03  0.14166870061E+03  0.00000000000E+00 0. -1.
         22    1    3    3    0    0 -0.70785784066E+02  0.11167567199E+02  0.12596618066E+02  0.72759992920E+02  0.00000000000E+00 0. -1.
</event>
<event>
 7    1  0.5575489E-006  0.7928526E+02  0.7818608E-02  0.1350370E+00
          2   -1    0    0  502    0  0.00000000000E+00  0.00000000000E+00  0.17786206175E+04  0.17786206175E+04  0.00000000000E+00 0. -1.
          1   -1    0    0  501    0 -0.00000000000E+00 -0.00000000000E+00 -0.63915277423E+03  0.63915277423E+03  0.00000000000E+00 0. -1.
         25    2    1    2    0    0 -0.93952492051E+02 -0.81745706549E+02  0.15832943631E+03  0.23707096044E+03  0.12499999432E+03 0.  0.
          2    1    1    2  501    0  0.66608846777E+02  0.81337291045E+01 -0.59692577472E+03  0.60068567199E+03  0.00000000000E+00 0. -1.
          1    1    1    2  502    0  0.27343645274E+02  0.73611977445E+02  0.15780641817E+04  0.15800167593E+04  0.00000000000E+00 0. -1.
         22    1    3    3    0    0 -0.63993394761E+02 -0.39427951800E+02  0.51346781220E+01  0.75339782822E+02  0.00000000000E+00 0. -1.
         22    1    3    3    0    0 -0.29959097290E+02 -0.42317754749E+02  0.15319475819E+03  0.16173117762E+03  0.00000000000E+00 0. -1.
</event>
<event>
 7    1  0.5575489E-006  0.1605924E+03  0.7818608E-02  0.1359457E+00
          2   -1    0    0  502    0  0.00000000000E+00  0.00000000000E+00  0.41074345948E+03  0.41074345948E+03  0.00000000000E+00 0. -1.
          1   -1    0    0  501    0 -0.00000000000E+00 -0.00000000000E+00 -0.39612285197E+03  0.39612285197E+03  0.00000000000E+00 0. -1.
         25    2    1    2    0    0 -0.16997099060E+03 -0.30937097398E+02 -0.23292124562E+02  0.21451040355E+03  0.12499979409E+03 0.  0.
          2    1    1    2  501    0  0.14891334064E+03  0.53243448682E+02 -0.25379753198E+03  0.29903718010E+03  0.00000000000E+00 0. -1.
          1    1    1    2  502    0  0.21057649966E+02 -0.22306351284E+02  0.29171026404E+03  0.29331872780E+03  0.00000000000E+00 0. -1.
         22    1    3    3    0    0 -0.17574798153E+03 -0.62058920171E+00 -0.38785132938E+02  0.17997784497E+03  0.00000000000E+00 0.  1.
         22    1    3    3    0    0  0.57769909292E+01 -0.30316508197E+02  0.15493008376E+02  0.34532558578E+02  0.00000000000E+00 0.  1.
</event>
<event>
 7    1  0.5575489E-006  0.4024373E+02  0.7818608E-02  0.1552998E+00
          2   -1    0    0  502    0  0.00000000000E+00  0.00000000000E+00  0.80199217847E+02  0.80199217847E+02  0.00000000000E+00 0. -1.
          1   -1    0    0  501    0 -0.00000000000E+00 -0.00000000000E+00 -0.36755769776E+03  0.36755769776E+03  0.00000000000E+00 0. -1.
         25    2    1    2    0    0  0.28938255504E+02  0.20245346609E+02 -0.23276127418E+03  0.26655217685E+03  0.12499982214E+03 0.  0.
          2    1    1    2  501    0 -0.92916319513E+01 -0.42375464744E+02 -0.11008183701E+03  0.11832170247E+03  0.00000000000E+00 0. -1.
          1    1    1    2  502    0 -0.19646623552E+02  0.22130118135E+02  0.55484631271E+02  0.62883036289E+02  0.00000000000E+00 0. -1.
         22    1    3    3    0    0  0.45536387204E+02 -0.78327225320E+01 -0.18416869371E+02  0.49740277234E+02  0.00000000000E+00 0.  1.
         22    1    3    3    0    0 -0.16598131700E+02  0.28078069141E+02 -0.21434440481E+03  0.21681189962E+03  0.00000000000E+00 0.  1.
</event>
<event>
 7    1  0.5575489E-006  0.1156135E+03  0.7818608E-02  0.1301725E+00
          2   -1    0    0  502    0  0.00000000000E+00  0.00000000000E+00  0.15399129847E+04  0.15399129847E+04  0.00000000000E+00 0. -1.
          1   -1    0    0  501    0 -0.00000000000E+00 -0.00000000000E+00 -0.94088332577E+02  0.94088332577E+02  0.00000000000E+00 0. -1.
         25    2    1    2    0    0 -0.40184907104E+02 -0.17039648920E+03  0.98136081442E+03  0.10046612155E+04  0.12500127855E+03 0.  0.
          2    1    1    2  501    0  0.52269110166E+02  0.10064590036E+03 -0.39755687781E+02  0.12017558757E+03  0.00000000000E+00 0. -1.
          1    1    1    2  502    0 -0.12084203062E+02  0.69750588837E+02  0.50421952544E+03  0.50916451412E+03  0.00000000000E+00 0. -1.
         22    1    3    3    0    0  0.53089181640E+01 -0.20579863045E+01 -0.19421774467E+01  0.60159764740E+01  0.00000000000E+00 0. -1.
         22    1    3    3    0    0 -0.45493825268E+02 -0.16833850289E+03  0.98330299187E+03  0.99864523907E+03  0.00000000000E+00 0. -1.
</event>
<event>
 7    1  0.5575489E-006  0.5938938E+02  0.7818608E-02  0.1534699E+00
          2   -1    0    0  502    0  0.00000000000E+00  0.00000000000E+00  0.47382220399E+02  0.47382220399E+02  0.00000000000E+00 0. -1.
          1   -1    0    0  501    0 -0.00000000000E+00 -0.00000000000E+00 -0.18597236200E+04  0.18597236200E+04  0.00000000000E+00 0. -1.
         25    2    1    2    0    0  0.22856993052E+02 -0.49859402186E+02 -0.19577682314E+03  0.23866737497E+03  0.12500059712E+03 0.  0.
          2    1    1    2  501    0 -0.24689827631E+01  0.59554130926E+02 -0.16369416980E+04  0.16380265300E+04  0.00000000000E+00 0. -1.
          1    1    1    2  502    0 -0.20388010289E+02 -0.96947287400E+01  0.20377121582E+02  0.30411935369E+02  0.00000000000E+00 0. -1.
         22    1    3    3    0    0  0.64999822062E+02  0.72007995409E+01 -0.99897315350E+02  0.11939975710E+03  0.00000000000E+00 0.  1.
         22    1    3    3    0    0 -0.42142829010E+02 -0.57060201727E+02 -0.95879507793E+02  0.11926761787E+03  0.00000000000E+00 0.  1.
</event>
<event>
 7    1  0.5575489E-006  0.5465445E+02  0.7818608E-02  0.1428822E+00
          2   -1    0    0  502    0  0.00000000000E+00  0.00000000000E+00  0.70372181512E+03  0.70372181512E+03  0.00000000000E+00 0. -1.
          1   -1    0    0  501    0 -0.00000000000E+00 -0.00000000000E+00 -0.90718380885E+03  0.90718380885E+03  0.00000000000E+00 0. -1.
         25    2    1    2    0    0  0.99223221646E+02 -0.37789451067E+02 -0.20701246651E+03  0.26410691097E+03  0.12500003524E+03 0.  0.
          2    1    1    2  501    0 -0.48720254531E+02  0.17531750541E+02 -0.66952654189E+03  0.67152573724E+03  0.00000000000E+00 0. -1.
          1    1    1    2  502    0 -0.50502967115E+02  0.20257700526E+02  0.67307701467E+03  0.67527297576E+03  0.00000000000E+00 0. -1.
         22    1    3    3    0    0  0.90133552516E+02 -0.38213265522E+02 -0.55927911727E+02  0.11274857986E+03  0.00000000000E+00 0.  1.
         22    1    3    3    0    0  0.90896691297E+01  0.42381445444E+00 -0.15108455478E+03  0.15135833111E+03  0.00000000000E+00 0.  1.
</event>
<event>
 7    1  0.5575489E-006  0.4016925E+02  0.7818608E-02  0.1605175E+00
          2   -1    0    0  502    0  0.00000000000E+00  0.00000000000E+00  0.46520204862E+03  0.46520204862E+03  0.00000000000E+00 0. -1.
          1   -1    0    0  501    0 -0.00000000000E+00 -0.00000000000E+00 -0.54442249039E+02  0.54442249039E+02  0.00000000000E+00 0. -1.
         25    2    1    2    0    0 -0.25295453546E+02  0.71262412115E+01  0.10415881341E+03  0.16481034620E+03  0.12499099376E+03 0.  0.
          2    1    1    2  501    0  0.32415602133E+02 -0.27383368105E+02 -0.47902963321E+01  0.42703244015E+02  0.00000000000E+00 0. -1.
          1    1    1    2  502    0 -0.71201485879E+01  0.20257126893E+02  0.31139128251E+03  0.31213070744E+03  0.00000000000E+00 0. -1.
         22    1    3    3    0    0 -0.22726547157E+02  0.63525482709E+02  0.36564205271E+02  0.76739325031E+02  0.00000000000E+00 0.  1.
         22    1    3    3    0    0 -0.25689063886E+01 -0.56399241498E+02  0.67594608135E+02  0.88071021173E+02  0.00000000000E+00 0.  1.
</event>
<event>
 7    1  0.5575489E-006  0.6784554E+02  0.7818608E-02  0.1388047E+00
          2   -1    0    0  502    0  0.00000000000E+00  0.00000000000E+00  0.92361070948E+03  0.92361070948E+03  0.00000000000E+00 0. -1.
          1   -1    0    0  501    0 -0.00000000000E+00 -0.00000000000E+00 -0.33464392794E+03  0.33464392794E+03  0.00000000000E+00 0. -1.
         25    2    1    2    0    0  0.86476522357E+02 -0.57990193184E+02 -0.14282509411E+03  0.21648393469E+03  0.12500094019E+03 0.  0.
          2    1    1    2  501    0 -0.57299643481E+02 -0.30855982647E+01 -0.14833375350E+03  0.15904613320E+03  0.00000000000E+00 0. -1.
          1    1    1    2  502    0 -0.29176878876E+02  0.61075791449E+02  0.88012562914E+03  0.88272456952E+03  0.00000000000E+00 0. -1.
         22    1    3    3    0    0  0.15677798849E+02  0.10512584955E+02  0.19158642049E+02  0.26895378494E+02  0.00000000000E+00 0. -1.
         22    1    3    3    0    0  0.70798723508E+02 -0.68502778139E+02 -0.16198373616E+03  0.18958855620E+03  0.00000000000E+00 0. -1.
</event>
<event>
 7    1  0.5575489E-006  0.5393259E+02  0.7818608E-02  0.1542351E+00
          2   -1    0    0  502    0  0.00000000000E+00  0.00000000000E+00  0.57568833597E+03  0.57568833597E+03  0.00000000000E+00 0. -1.
          1   -1    0    0  501    0 -0.00000000000E+00 -0.00000000000E+00 -0.10162291873E+04  0.10162291873E+04  0.00000000000E+00 0. -1.
         25    2    1    2    0    0 -0.58031565169E+02  0.38171306764E+02  0.14688226474E+03  0.20499943115E+03  0.12500262341E+03 0.  0.
          2    1    1    2  501    0  0.23541277817E+02  0.22601370638E+01 -0.98526178978E+03  0.98554558209E+03  0.00000000000E+00 0. -1.
          1    1    1    2  502    0  0.34490287352E+02 -0.40431443828E+02  0.39783867368E+03  0.40137251008E+03  0.00000000000E+00 0. -1.
         22    1    3    3    0    0 -0.18019891205E+02  0.86400346275E+01  0.15353209081E+03  0.15482722495E+03  0.00000000000E+00 0. -1.
         22    1    3    3    0    0 -0.40011673964E+02  0.29531272137E+02 -0.66498260767E+01  0.50172206193E+02  0.00000000000E+00 0. -1.
</event>
<event>
 7    1  0.5575489E-006  0.1694962E+03  0.7818608E-02  0.1199766E+00
          2   -1    0    0  502    0  0.00000000000E+00  0.00000000000E+00  0.25324928284E+03  0.25324928284E+03  0.00000000000E+00 0. -1.
          1   -1    0    0  501    0 -0.00000000000E+00 -0.00000000000E+00 -0.11753824538E+04  0.11753824538E+04  0.00000000000E+00 0. -1.
         25    2    1    2    0    0 -0.71149431514E+02  0.17580072530E+03  0.11765056672E+03  0.25580118239E+03  0.12499780974E+03 0.  0.
          2    1    1    2  501    0  0.15490382815E+03 -0.71497129064E+02 -0.10240216840E+04  0.10381365251E+04  0.00000000000E+00 0. -1.
          1    1    1    2  502    0 -0.83754396640E+02 -0.10430359624E+03 -0.15762053660E+02  0.13469402912E+03  0.00000000000E+00 0. -1.
         22    1    3    3    0    0  0.42868162510E+01  0.10444256857E+03  0.80787072481E+01  0.10484222639E+03  0.00000000000E+00 0. -1.
         22    1    3    3    0    0 -0.75436247765E+02  0.71358156733E+02  0.10957185947E+03  0.15095895600E+03  0.00000000000E+00 0. -1.
</event>
<event>
 7    1  0.5575489E-006  0.1493159E+03  0.7818608E-02  0.1262407E+00
          2   -1    0    0  502    0  0.00000000000E+00  0.00000000000E+00  0.18210595114E+04  0.18210595114E+04  0.00000000000E+00 0. -1.
          1   -1    0    0  501    0 -0.00000000000E+00 -0.00000000000E+00 -0.37011517043E+03  0.37011517043E+03  0.00000000000E+00 0. -1.
         25    2    1    2    0    0 -0.48031075341E+02  0.98320091554E+02 -0.77865330303E+02  0.18346276931E+03  0.12498701316E+03 0.  0.
          2    1    1    2  501    0  0.25018570291E+02 -0.17451015259E+03 -0.20596569438E+03  0.27111176566E+03  0.00000000000E+00 0. -1.
          1    1    1    2  502    0  0.23012505050E+02  0.76190061033E+02  0.17347753656E+04  0.17366001468E+04  0.00000000000E+00 0. -1.
         22    1    3    3    0    0 -0.83283250538E+01 -0.66144554906E+01 -0.70206321281E+02  0.71007320520E+02  0.00000000000E+00 0. -1.
         22    1    3    3    0    0 -0.39702750287E+02  0.10493454704E+03 -0.76590090218E+01  0.11245544879E+03  0.00000000000E+00 0. -1.
</event>
<event>
 7    1  0.5575489E-006  0.4513152E+02  0.7818608E-02  0.1496839E+00
          2   -1    0    0  502    0  0.00000000000E+00  0.00000000000E+00  0.58646993039E+03  0.58646993039E+03  0.00000000000E+00 0. -1.
          1   -1    0    0  501    0 -0.00000000000E+00 -0.00000000000E+00 -0.39368557434E+03  0.39368557434E+03  0.00000000000E+00 0. -1.
         25    2    1    2    0    0 -0.36125951926E+02 -0.71822051505E+02 -0.75634457326E+02  0.16675897584E+03  0.12499797360E+03 0.  0.
          2    1    1    2  501    0  0.11817851714E+02  0.42194962591E+02 -0.27004182178E+03  0.27357386936E+03  0.00000000000E+00 0. -1.
          1    1    1    2  502    0  0.24308100212E+02  0.29627088914E+02  0.53846063515E+03  0.53982265953E+03  0.00000000000E+00 0. -1.
         22    1    3    3    0    0 -0.45940833990E+02 -0.10608842617E+02 -0.91352255636E+02  0.10280244345E+03  0.00000000000E+00 0.  1.
         22    1    3    3    0    0  0.98148820639E+01 -0.61213208888E+02  0.15717798310E+02  0.63956532395E+02  0.00000000000E+00 0.  1.
</event>
<event>
 7    1  0.5575489E-006  0.1077202E+03  0.7818608E-02  0.1267028E+00
          2   -1    0    0  502    0  0.00000000000E+00  0.00000000000E+00  0.73260504498E+02  0.73260504498E+02  0.00000000000E+00 0. -1.
          1   -1    0    0  501    0 -0.00000000000E+00 -0.00000000000E+00 -0.89975387513E+03  0.89975387513E+03  0.00000000000E+00 0. -1.
         25    2    1    2    0    0  0.63835918329E+02 -0.70508829881E+02 -0.34519326815E+03  0.37924954833E+03  0.12500123187E+03 0.  0.
          2    1    1    2  501    0  0.48608847252E+02  0.96129197044E+02 -0.46497363334E+03  0.47728830098E+03  0.00000000000E+00 0. -1.
          1    1    1    2  502    0 -0.11244476558E+03 -0.25620367163E+02 -0.16326469141E+02  0.11647653032E+03  0.00000000000E+00 0. -1.
         22    1    3    3    0    0 -0.10617470289E+02 -0.44054539918E+02 -0.30102840239E+02  0.54403254987E+02  0.00000000000E+00 0.  1.
         22    1    3    3    0    0  0.74453388618E+02 -0.26454289964E+02 -0.31509042792E+03  0.32484629334E+03  0.00000000000E+00 0.  1.
</event>
<event>
 7    1  0.5575489E-006  0.1470828E+03  0.7818608E-02  0.1328952E+00
          2   -1    0    0  502    0  0.00000000000E+00  0.00000000000E+00  0.11372900103E+04  0.11372900103E+04  0.00000000000E+00 0. -1.
          1   -1    0    0  501    0 -0.00000000000E+00 -0.00000000000E+00 -0.17815611535E+04  0.17815611535E+04  0.00000000000E+00 0. -1.
         25    2    1    2    0    0 -0.12139067274E+03 -0.87922742372E+02 -0.14572466123E+03  0.24357175535E+03  0.12500167622E+03 0.  0.
          2    1    1    2  501    0  0.32296624761E+02 -0.29216502850E+02 -0.15816366376E+04  0.15822361169E+04  0.00000000000E+00 0. -1.
          1    1    1    2  502    0  0.89094047975E+02  0.11713924522E+03  0.10830901556E+04  0.10930432916E+04  0.00000000000E+00 0. -1.
         22    1    3    3    0    0 -0.13400539316E+03 -0.92291176666E+02 -0.15699339306E+03  0.22610181811E+03  0.00000000000E+00 0.  1.
         22    1    3    3    0    0  0.12614720429E+02  0.43684342939E+01  0.11268731838E+02  0.17469937233E+02  0.00000000000E+00 0.  1.
</event>
<event>
 7    1  0.5575489E-006  0.1364679E+03  0.7818608E-02  0.1284271E+00
          2   -1    0    0  502    0  0.00000000000E+00  0.00000000000E+00  0.67883194585E+02  0.67883194585E+02  0.00000000000E+00 0. -1.
          1   -1    0    0  501    0 -0.00000000000E+00 -0.00000000000E+00 -0.22606716587E+04  0.22606716587E+04  0.00000000000E+00 0. -1.
         25    2    1    2    0    0 -0.11049562547E+03  0.36207450498E+02 -0.80955614672E+03  0.82736067407E+03  0.12499707032E+03 0.  0.
          2    1    1    2  501    0  0.14783806529E+03  0.23669805565E+02 -0.14156440517E+04  0.14235394039E+04  0.00000000000E+00 0. -1.
          1    1    1    2  502    0 -0.37342439826E+02 -0.59877256063E+02  0.32411734341E+02  0.77654775312E+02  0.00000000000E+00 0. -1.
         22    1    3    3    0    0  0.18045770931E+02 -0.20740304768E+02 -0.86526473743E+02  0.90788990240E+02  0.00000000000E+00 0. -1.
         22    1    3    3    0    0 -0.12854139640E+03  0.56947755267E+02 -0.72302967298E+03  0.73657168383E+03  0.00000000000E+00 0. -1.
</event>
<event>
 7    1  0.5575489E-006  0.1120739E+03  0.7818608E-02  0.1443932E+00
          2   -1    0    0  502    0  0.00000000000E+00  0.00000000000E+00  0.83460591922E+03  0.83460591922E+03  0.00000000000E+00 0. -1.
          1   -1    0    0  501    0 -0.00000000000E+00 -0.00000000000E+00 -0.10585544954E+03  0.10585544954E+03  0.00000000000E+00 0. -1.
         25    2    1    2    0    0  0.10479357882E+03  0.51257149542E+02  0.12731774243E+02  0.17145854748E+03  0.12500778331E+03 0.  0.
          2    1    1    2  501    0 -0.15552357130E+02  0.16316722300E+02 -0.16528933036E+02  0.27952045833E+02  0.00000000000E+00 0. -1.
          1    1    1    2  502    0 -0.89241221688E+02 -0.67573871842E+02  0.73254762848E+03  0.74105077545E+03  0.00000000000E+00 0. -1.
         22    1    3    3    0    0 -0.37678484378E+01  0.23863258852E+02 -0.40752745189E+02  0.47375500476E+02  0.00000000000E+00 0.  1.
         22    1    3    3    0    0  0.10856142726E+03  0.27393890690E+02  0.53484519432E+02  0.12408304700E+03  0.00000000000E+00 0.  1.
</event>
<event>
 7    1  0.5575489E-006  0.4264083E+02  0.7818608E-02  0.1570921E+00
          2   -1    0    0  502    0  0.00000000000E+00  0.00000000000E+00  0.16969575486E+04  0.16969575486E+04  0.00000000000E+00 0. -1.
          1   -1    0    0  501    0 -0.00000000000E+00 -0.00000000000E+00 -0.57936341133E+02  0.57936341133E+02  0.00000000000E+00 0. -1.
         25    2    1    2    0    0  0.49318827789E+02 -0.39878675239E+02  0.14272221295E+03  0.20004364167E+03  0.12500069195E+03 0.  0.
          2    1    1    2  501    0 -0.36638211435E+02  0.18406381091E+02 -0.14765868268E+02  0.43579631340E+02  0.00000000000E+00 0. -1.
          1    1    1    2  502    0 -0.12680616354E+02  0.21472294148E+02  0.15110648628E+04  0.15112706167E+04  0.00000000000E+00 0. -1.
         22    1    3    3    0    0  0.33450332226E+02  0.31856262960E+02  0.11060094302E+03  0.11985956287E+03  0.00000000000E+00 0. -1.
         22    1    3    3    0    0  0.15868495564E+02 -0.71734938199E+02  0.32121269939E+02  0.80184078796E+02  0.00000000000E+00 0. -1.
</event>
<event>
 7    1  0.5575489E-006  0.5413295E+02  0.7818608E-02  0.1483340E+00
          2   -1    0    0  502    0  0.00000000000E+00  0.00000000000E+00  0.34043531149E+03  0.34043531149E+03  0.00000000000E+00 0. -1.
          1   -1    0    0  501    0 -0.00000000000E+00 -0.00000000000E+00 -0.70378285666E+02  0.70378285666E+02  0.00000000000E+00 0. -1.
         25    2    1    2    0    0  0.55473276814E+02 -0.15809017335E+02  0.11916758829E+03  0.18207983207E+03  0.12499976672E+03 0.  0.
          2    1    1    2  501    0 -0.21714516060E+02 -0.27577887533E+02 -0.25882244629E+02  0.43611359478E+02  0.00000000000E+00 0. -1.
          1    1    1    2  502    0 -0.33758760755E+02  0.43386904868E+02  0.17677168216E+03  0.18512240560E+03  0.00000000000E+00 0. -1.
         22    1    3    3    0    0  0.66976098695E+02  0.18069430076E+02  0.13702237489E+02  0.70711055796E+02  0.00000000000E+00 0.  1.
         22    1    3    3    0    0 -0.11502821880E+02 -0.33878447411E+02  0.10546535080E+03  0.11136877628E+03  0.00000000000E+00 0.  1.
</event>
<event>
 7    1  0.5575489E-006  0.1643219E+03  0.7818608E-02  0.1219697E+00
          2   -1    0    0  502    0  0.00000000000E+00  0.00000000000E+00  0.73781640250E+03  0.73781640250E+03  0.00000000000E+00 0. -1.
          1   -1    0    0  501    0 -0.00000000000E+00 -0.00000000000E+00 -0.17491477140E+04  0.17491477140E+04  0.00000000000E+00 0. -1.
         25    2    1    2    0    0 -0.97302419646E+02  0.16515357558E+03 -0.63509665448E+03  0.67506762286E+03  0.12500028203E+03 0.  0.
          2    1    1    2  501    0  0.11151289010E+03 -0.13362742622E+01 -0.10817445658E+04  0.10874779151E+04  0.00000000000E+00 0. -1.
          1    1    1    2  502    0 -0.14210470455E+02 -0.16381730131E+03  0.70550990871E+03  0.72441857856E+03  0.00000000000E+00 0. -1.
         22    1    3    3    0    0 -0.55945865764E+02  0.20668508250E+02 -0.32553275966E+03  0.33095121202E+03  0.00000000000E+00 0.  1.
         22    1    3    3    0    0 -0.41356553882E+02  0.14448506733E+03 -0.30956389482E+03  0.34411641084E+03  0.00000000000E+00 0.  1.
</event>
<event>
 7    1  0.5575489E-006  0.8958904E+02  0.7818608E-02  0.1340261E+00
          2   -1    0    0  502    0  0.00000000000E+00  0.00000000000E+00  0.19916130157E+04  0.19916130157E+04  0.00000000000E+00 0. -1.
          1   -1    0    0  501    0 -0.00000000000E+00 -0.00000000000E+00 -0.30369125751E+02  0.30369125751E+02  0.00000000000E+00 0. -1.
         25    2    1    2    0    0  0.50431594081E+02 -0.12489920480E+03  0.47313866726E+03  0.50757047306E+03  0.12499771849E+03 0.  0.
          2    1    1    2  501    0 -0.51563763530E+02  0.60134521358E+02  0.11422201349E+03  0.13900234075E+03  0.00000000000E+00 0. -1.
          1    1    1    2  502    0  0.11321694492E+01  0.64764683446E+02  0.13738832092E+04  0.13754093276E+04  0.00000000000E+00 0. -1.
         22    1    3    3    0    0  0.58773382244E+02 -0.14524337605E+03  0.36483507597E+03  0.39705740316E+03  0.00000000000E+00 0. -1.
         22    1    3    3    0    0 -0.83417881635E+01  0.20344171243E+02  0.10830359129E+03  0.11051306990E+03  0.00000000000E+00 0. -1.
</event>
<event>
 7    1  0.5575489E-006  0.6996350E+02  0.7818608E-02  0.1511550E+00
          2   -1    0    0  502    0  0.00000000000E+00  0.00000000000E+00  0.12046158874E+04  0.12046158874E+04  0.00000000000E+00 0. -1.
          1   -1    0    0  501    0 -0.00000000000E+00 -0.00000000000E+00 -0.11240734882E+04  0.11240734882E+04  0.00000000000E+00 0. -1.
         25    2    1    2    0    0 -0.44346061500E+02 -0.75654022176E+02 -0.10067113554E+03  0.18289205845E+03  0.12499889309E+03 0.  0.
          2    1    1    2  501    0  0.44555831624E+02  0.53297763384E+02 -0.98095602442E+03  0.98341272900E+03  0.00000000000E+00 0. -1.
          1    1    1    2  502    0 -0.20977012438E+00  0.22356258791E+02  0.11621695592E+04  0.11623845881E+04  0.00000000000E+00 0. -1.
         22    1    3    3    0    0 -0.39818481839E+01  0.31441335941E+02 -0.19575666963E+01  0.31752870549E+02  0.00000000000E+00 0.  1.
         22    1    3    3    0    0 -0.40364213316E+02 -0.10709535812E+03 -0.98713568844E+02  0.15113918791E+03  0.00000000000E+00 0.  1.
</event>
<event>
 7    1  0.5575489E-006  0.1058007E+03  0.7818608E-02  0.1344523E+00
          2   -1    0    0  502    0  0.00000000000E+00  0.00000000000E+00  0.25071161044E+03  0.25071161044E+03  0.00000000000E+00 0. -1.
          1   -1    0    0  501    0 -0.00000000000E+00 -0.00000000000E+00 -0.11428221889E+04  0.11428221889E+04  0.00000000000E+00 0. -1.
         25    2    1    2    0    0 -0.60275785999E+02 -0.41024356312E+01 -0.74137216805E+02  0.15740411794E+03  0.12501891487E+03 0.  0.
          2    1    1    2  501    0 -0.51076974098E+02  0.13646396626E+02 -0.10113763653E+04  0.10127572432E+04  0.00000000000E+00 0. -1.
          1    1    1    2  502    0  0.11135276010E+03 -0.95439609946E+01  0.19340300358E+03  0.22337243824E+03  0.00000000000E+00 0. -1.
         22    1    3    3    0    0  0.37048710298E+02 -0.16058375221E+02 -0.27255656011E+02  0.48717031253E+02  0.00000000000E+00 0. -1.
         22    1    3    3    0    0 -0.97324496297E+02  0.11955939590E+02 -0.46881560794E+02  0.10868708669E+03  0.00000000000E+00 0. -1.
</event>
<event>
 7    1  0.7805963E-006  0.7670618E+02  0.7818608E-02  0.1392527E+00
          2   -1    0    0  502    0  0.00000000000E+00  0.00000000000E+00  0.29025915663E+04  0.29025915663E+04  0.00000000000E+00 0. -1.
          1   -1    0    0  501    0 -0.00000000000E+00 -0.00000000000E+00 -0.42777459454E+03  0.42777459454E+03  0.00000000000E+00 0. -1.
         25    2    1    2    0    0 -0.24539799428E+02 -0.10604920180E+03 -0.19381852709E+03  0.25502697466E+03  0.12499800560E+03 0.  0.
          2    1    1    2  501    0 -0.20865750861E+02  0.44291432415E+02 -0.19988541443E+03  0.20579428915E+03  0.00000000000E+00 0. -1.
          1    1    1    2  502    0  0.45405550289E+02  0.61757769382E+02  0.28685209133E+04  0.28695448971E+04  0.00000000000E+00 0. -1.
         22    1    3    3    0    0  0.45382590416E+01  0.87933717969E+01  0.13206798156E+02  0.16502687666E+02  0.00000000000E+00 0. -1.
         22    1    3    3    0    0 -0.29078058470E+02 -0.11484257359E+03 -0.20702532525E+03  0.23852428700E+03  0.00000000000E+00 0. -1.
</event>
<event>
 7    1  0.5575489E-006  0.9847812E+02  0.7818608E-02  0.1341696E+00
          2   -1    0    0  502    0  0.00000000000E+00  0.00000000000E+00  0.14283981255E+04  0.14283981255E+04  0.00000000000E+00 0. -1.
          1   -1    0    0  501    0 -0.00000000000E+00 -0.00000000000E+00 -0.34880000398E+03  0.34880000398E+03  0.00000000000E+00 0. -1.
         25    2    1    2    0    0  0.13399634742E+03 -0.67829724777E+02 -0.41332311647E+02  0.19972226960E+03  0.12499892922E+03 0.  0.
          2    1    1    2  501    0 -0.79881073290E+02  0.46407528123E+02 -0.21826772553E+03  0.23701359570E+03  0.00000000000E+00 0. -1.
          1    1    1    2  502    0 -0.54115274127E+02  0.21422196654E+02  0.13391981587E+04  0.13404622642E+04  0.00000000000E+00 0. -1.
         22    1    3    3    0    0  0.87882536570E+02  0.69124055824E+01 -0.64101197167E+02  0.10899580296E+03  0.00000000000E+00 0.  1.
         22    1    3    3    0    0  0.46113810847E+02 -0.74742130360E+02  0.22768885520E+02  0.90726466642E+02  0.00000000000E+00 0.  1.
</event>
<event>
 7    1  0.5575489E-006  0.6908232E+02  0.7818608E-02  0.1463140E+00
          2   -1    0    0  502    0  0.00000000000E+00  0.00000000000E+00  0.14757183536E+04  0.14757183536E+04  0.00000000000E+00 0. -1.
          1   -1    0    0  501    0 -0.00000000000E+00 -0.00000000000E+00 -0.10135877439E+04  0.10135877439E+04  0.00000000000E+00 0. -1.
         25    2    1    2    0    0 -0.72619129314E+02  0.55915935629E+02  0.17878918194E+02  0.15602898552E+03  0.12500103522E+03 0.  0.
          2    1    1    2  501    0  0.31762108561E+02 -0.50325994782E+00 -0.94339196162E+03  0.94392662748E+03  0.00000000000E+00 0. -1.
          1    1    1    2  502    0  0.40857020753E+02 -0.55412675681E+02  0.13876436531E+04  0.13893504845E+04  0.00000000000E+00 0. -1.
         22    1    3    3    0    0 -0.33495808843E+02  0.47287433800E+02  0.69625603430E+02  0.90585844692E+02  0.00000000000E+00 0.  1.
         22    1    3    3    0    0 -0.39123320471E+02  0.86285018286E+01 -0.51746685237E+02  0.65443140828E+02  0.00000000000E+00 0.  1.
</event>
<event>
 7    1  0.5575489E-006  0.5500133E+02  0.7818608E-02  0.1533992E+00
          2   -1    0    0  502    0  0.00000000000E+00  0.00000000000E+00  0.61974516698E+02  0.61974516698E+02  0.00000000000E+00 0. -1.
          1   -1    0    0  501    0 -0.00000000000E+00 -0.00000000000E+00 -0.16576393904E+04  0.16576393904E+04  0.00000000000E+00 0. -1.
         25    2    1    2    0    0  0.32662864985E+02 -0.74169399938E+01 -0.37845957794E+03  0.39997405888E+03  0.12500288755E+03 0.  0.
          2    1    1    2  501    0 -0.56284849569E+02  0.95442814803E+00 -0.12648327700E+04  0.12660848436E+04  0.00000000000E+00 0. -1.
          1    1    1    2  502    0  0.23621984584E+02  0.64625118458E+01  0.47627474227E+02  0.53555004587E+02  0.00000000000E+00 0. -1.
         22    1    3    3    0    0 -0.16335475999E+02  0.31568439897E+02 -0.31763576987E+02  0.47669057014E+02  0.00000000000E+00 0. -1.
         22    1    3    3    0    0  0.48998340984E+02 -0.38985379891E+02 -0.34669600095E+03  0.35230500186E+03  0.00000000000E+00 0. -1.
</event>
<event>
 7    1  0.5575489E-006  0.5496759E+02  0.7818608E-02  0.1460087E+00
          2   -1    0    0  502    0  0.00000000000E+00  0.00000000000E+00  0.65215975911E+02  0.65215975911E+02  0.00000000000E+00 0. -1.
          1   -1    0    0  501    0 -0.00000000000E+00 -0.00000000000E+00 -0.30712261342E+03  0.30712261342E+03  0.00000000000E+00 0. -1.
         25    2    1    2    0    0 -0.39782905918E+02 -0.83524294831E+01 -0.13366928387E+03  0.18747033401E+03  0.12500082400E+03 0.  0.
          2    1    1    2  501    0  0.36288492268E+02  0.49018961335E+02 -0.12628390382E+03  0.14024028524E+03  0.00000000000E+00 0. -1.
          1    1    1    2  502    0  0.34944136495E+01 -0.40666531851E+02  0.18046550185E+02  0.44627970077E+02  0.00000000000E+00 0. -1.
         22    1    3    3    0    0  0.42969442399E+02 -0.17592125257E+02 -0.62974110403E+02  0.78240618812E+02  0.00000000000E+00 0. -1.
         22    1    3    3    0    0 -0.82752348317E+02  0.92396957740E+01 -0.70695173471E+02  0.10922971520E+03  0.00000000000E+00 0. -1.
</event>
<event>
 7    1  0.5575489E-006  0.4956130E+02  0.7818608E-02  0.1551468E+00
          2   -1    0    0  502    0  0.00000000000E+00  0.00000000000E+00  0.63850806654E+03  0.63850806654E+03  0.00000000000E+00 0. -1.
          1   -1    0    0  501    0 -0.00000000000E+00 -0.00000000000E+00 -0.16174324387E+03  0.16174324387E+03  0.00000000000E+00 0. -1.
         25    2    1    2    0    0  0.39998022060E+02 -0.31773449611E+02  0.75729563970E+02  0.15481912670E+03  0.12499840505E+03 0.  0.
          2    1    1    2  501    0 -0.20014723030E+02  0.45539226230E+02 -0.11684029185E+03  0.12698844067E+03  0.00000000000E+00 0. -1.
          1    1    1    2  502    0 -0.19983299031E+02 -0.13765776620E+02  0.51787555054E+03  0.51844374304E+03  0.00000000000E+00 0. -1.
         22    1    3    3    0    0 -0.34572848345E+02 -0.50108042743E+01 -0.11691149387E+02  0.36838471415E+02  0.00000000000E+00 0. -1.
         22    1    3    3    0    0  0.74570870406E+02 -0.26762645336E+02  0.87420713358E+02  0.11798065529E+03  0.00000000000E+00 0. -1.
</event>
<event>
 7    1  0.5575489E-006  0.6880799E+02  0.7818608E-02  0.1413800E+00
          2   -1    0    0  502    0  0.00000000000E+00  0.00000000000E+00  0.14019368735E+03  0.14019368735E+03  0.00000000000E+00 0. -1.
          1   -1    0    0  501    0 -0.00000000000E+00 -0.00000000000E+00 -0.28018810899E+04  0.28018810899E+04  0.00000000000E+00 0. -1.
         25    2    1    2    0    0 -0.10928802013E+03 -0.15769674785E+02 -0.10644888561E+04  0.10774756460E+04  0.12499875624E+03 0.  0.
          2    1    1    2  501    0  0.45324968256E+02 -0.87128194284E+01 -0.17217983950E+04  0.17224169004E+04  0.00000000000E+00 0. -1.
          1    1    1    2  502    0  0.63963051876E+02  0.24482494214E+02  0.12459984846E+03  0.14218223083E+03  0.00000000000E+00 0. -1.
         22    1    3    3    0    0 -0.66412995035E+02 -0.64763991222E+02 -0.44440664396E+03  0.45398493990E+03  0.00000000000E+00 0. -1.
         22    1    3    3    0    0 -0.42875025097E+02  0.48994316437E+02 -0.62008221210E+03  0.62349070609E+03  0.00000000000E+00 0. -1.
</event>
<event>
 7    1  0.5575489E-006  0.1377138E+03  0.7818608E-02  0.1364505E+00
          2   -1    0    0  502    0  0.00000000000E+00  0.00000000000E+00  0.59032190687E+03  0.59032190687E+03  0.00000000000E+00 0. -1.
          1   -1    0    0  501    0 -0.00000000000E+00 -0.00000000000E+00 -0.13336538847E+03  0.13336538847E+03  0.00000000000E+00 0. -1.
         25    2    1    2    0    0  0.11783947749E+02 -0.11999359223E+03  0.17132145572E+02  0.17451766118E+03  0.12500232018E+03 0.  0.
          2    1    1    2  501    0 -0.28373727332E+02 -0.19255509482E+02 -0.38004499271E+02  0.51187742800E+02  0.00000000000E+00 0. -1.
          1    1    1    2  502    0  0.16589779582E+02  0.13924910171E+03  0.47782887209E+03  0.49798189136E+03  0.00000000000E+00 0. -1.
         22    1    3    3    0    0 -0.93067472530E+01  0.83800992017E+01 -0.32846551862E+02  0.35153059273E+02  0.00000000000E+00 0. -1.
         22    1    3    3    0    0  0.21090695002E+02 -0.12837369143E+03  0.49978697434E+02  0.13936460191E+03  0.00000000000E+00 0. -1.
</event>
<event>
 7    1  0.5575489E-006  0.7305383E+02  0.7818608E-02  0.1430125E+00
          2   -1    0    0  502    0  0.00000000000E+00  0.00000000000E+00  0.80550826044E+02  0.80550826044E+02  0.00000000000E+00 0. -1.
          1   -1    0    0  501    0 -0.00000000000E+00 -0.00000000000E+00 -0.59771894237E+03  0.59771894237E+03  0.00000000000E+00 0. -1.
         25    2    1    2    0    0 -0.80396814419E+02 -0.18753723114E+02 -0.26960083245E+02  0.15221561343E+03  0.12500958757E+03 0.  0.
          2    1    1    2  501    0  0.55272346218E+02  0.47736594543E+02 -0.48112507564E+03  0.48663657191E+03  0.00000000000E+00 0. -1.
          1    1    1    2  502    0  0.25124468201E+02 -0.28982871429E+02 -0.90829574368E+01  0.39417583062E+02  0.00000000000E+00 0. -1.
         22    1    3    3    0    0 -0.10663661998E+03 -0.39556005435E+02 -0.32468319260E+02  0.11828033666E+03  0.00000000000E+00 0. -1.
         22    1    3    3    0    0  0.26239805557E+02  0.20802282321E+02  0.55082360156E+01  0.33935276770E+02  0.00000000000E+00 0. -1.
</event>
<event>
 7    1  0.5575489E-006  0.1271244E+03  0.7818608E-02  0.1322575E+00
          2   -1    0    0  502    0  0.00000000000E+00  0.00000000000E+00  0.13687958845E+04  0.13687958845E+04  0.00000000000E+00 0. -1.
          1   -1    0    0  501    0 -0.00000000000E+00 -0.00000000000E+00 -0.50320853454E+03  0.50320853454E+03  0.00000000000E+00 0. -1.
         25    2    1    2    0    0  0.13230577923E+03 -0.10616457315E+03  0.12155998889E+03  0.24327445670E+03  0.12501957677E+03 0.  0.
          2    1    1    2  501    0 -0.11143654022E+03  0.57102952393E+02 -0.43287459500E+03  0.45062097673E+03  0.00000000000E+00 0. -1.
          1    1    1    2  502    0 -0.20869239014E+02  0.49061620756E+02  0.11769019560E+04  0.11781089856E+04  0.00000000000E+00 0. -1.
         22    1    3    3    0    0  0.99528231955E+02 -0.60032642651E+01  0.31268822834E+02  0.10449711680E+03  0.00000000000E+00 0.  1.
         22    1    3    3    0    0  0.32777547278E+02 -0.10016130888E+03  0.90291166057E+02  0.13877733990E+03  0.00000000000E+00 0.  1.
</event>
<event>
 7    1  0.5575489E-006  0.7896867E+02  0.7818608E-02  0.1406749E+00
          2   -1    0    0  502    0  0.00000000000E+00  0.00000000000E+00  0.42817163802E+03  0.42817163802E+03  0.00000000000E+00 0. -1.
          1   -1    0    0  501    0 -0.00000000000E+00 -0.00000000000E+00 -0.83301108027E+03  0.83301108027E+03  0.00000000000E+00 0. -1.
         25    2    1    2    0    0  0.12886594692E+02 -0.84217803996E+02  0.18527013536E+02  0.15240607333E+03  0.12500263247E+03 0.  0.
          2    1    1    2  501    0  0.36306049128E+02  0.22073889262E+02 -0.76088839073E+03  0.76207383431E+03  0.00000000000E+00 0. -1.
          1    1    1    2  502    0 -0.49192643819E+02  0.62143914735E+02  0.33752193494E+03  0.34670281065E+03  0.00000000000E+00 0. -1.
         22    1    3    3    0    0 -0.50035388686E+02 -0.59362433850E+02  0.31028465042E+02  0.83607441753E+02  0.00000000000E+00 0. -1.
         22    1    3    3    0    0  0.62921983378E+02 -0.24855370146E+02 -0.12501451506E+02  0.68798631578E+02  0.00000000000E+00 0. -1.
</event>
<event>
 7    1  0.5575489E-006  0.8030668E+02  0.7818608E-02  0.1408472E+00
          2   -1    0    0  502    0  0.00000000000E+00  0.00000000000E+00  0.78874895375E+02  0.78874895375E+02  0.00000000000E+00 0. -1.
          1   -1    0    0  501    0 -0.00000000000E+00 -0.00000000000E+00 -0.51921723675E+03  0.51921723675E+03  0.00000000000E+00 0. -1.
         25    2    1    2    0    0  0.63915151979E+02  0.43404535860E+02 -0.14450165578E+03  0.20609525236E+03  0.12500169654E+03 0.  0.
          2    1    1    2  501    0 -0.36169466488E+02 -0.73891141377E+02 -0.32897699538E+03  0.33910764451E+03  0.00000000000E+00 0. -1.
          1    1    1    2  502    0 -0.27745685492E+02  0.30486605517E+02  0.33136309779E+02  0.52889235248E+02  0.00000000000E+00 0. -1.
         22    1    3    3    0    0 -0.27215225669E+02  0.44538148168E+02 -0.75489533271E+02  0.91776820516E+02  0.00000000000E+00 0. -1.
         22    1    3    3    0    0  0.91130377649E+02 -0.11336123081E+01 -0.69012122506E+02  0.11431843185E+03  0.00000000000E+00 0. -1.
</event>
<event>
 7    1  0.5575489E-006  0.5577819E+02  0.7818608E-02  0.1476526E+00
          2   -1    0    0  502    0  0.00000000000E+00  0.00000000000E+00  0.19201255265E+04  0.19201255265E+04  0.00000000000E+00 0. -1.
          1   -1    0    0  501    0 -0.00000000000E+00 -0.00000000000E+00 -0.52884599569E+02  0.52884599569E+02  0.00000000000E+00 0. -1.
         25    2    1    2    0    0  0.36183968751E+02 -0.39944739413E+02  0.39956799852E+03  0.42212007369E+03  0.12500363744E+03 0.  0.
          2    1    1    2  501    0 -0.55501971389E+02  0.98692819763E+01 -0.22201454526E+02  0.60586930421E+02  0.00000000000E+00 0. -1.
          1    1    1    2  502    0  0.19318002638E+02  0.30075457437E+02  0.14898743830E+04  0.14903031220E+04  0.00000000000E+00 0. -1.
         22    1    3    3    0    0  0.26471906990E+02 -0.85437956029E+02  0.27254964611E+03  0.28685138275E+03  0.00000000000E+00 0.  1.
         22    1    3    3    0    0  0.97120617611E+01  0.45493216615E+02  0.12701835241E+03  0.13526869095E+03  0.00000000000E+00 0.  1.
</event>
<event>
 7    1  0.5575489E-006  0.7313801E+02  0.7818608E-02  0.1355433E+00
          2   -1    0    0  502    0  0.00000000000E+00  0.00000000000E+00  0.47266643581E+02  0.47266643581E+02  0.00000000000E+00 0. -1.
          1   -1    0    0  501    0 -0.00000000000E+00 -0.00000000000E+00 -0.12918032062E+04  0.12918032062E+04  0.00000000000E+00 0. -1.
         25    2    1    2    0    0 -0.61879909509E+02  0.23993352899E+01 -0.30067063006E+03  0.33145490408E+03  0.12499858260E+03 0.  0.
          2    1    1    2  501    0  0.28878690424E+02 -0.67668684020E+02 -0.93033030081E+03  0.93323496407E+03  0.00000000000E+00 0. -1.
          1    1    1    2  502    0  0.33001219085E+02  0.65269348730E+02 -0.13535631789E+02  0.74379981666E+02  0.00000000000E+00 0. -1.
         22    1    3    3    0    0 -0.92975242450E+02 -0.15031762332E+02 -0.15402106798E+03  0.18053486913E+03  0.00000000000E+00 0.  1.
         22    1    3    3    0    0  0.31095332941E+02  0.17431097622E+02 -0.14664956208E+03  0.15092003496E+03  0.00000000000E+00 0.  1.
</event>
<event>
 7    1  0.5575489E-006  0.8159818E+02  0.7818608E-02  0.1412401E+00
          2   -1    0    0  502    0  0.00000000000E+00  0.00000000000E+00  0.16805348876E+04  0.16805348876E+04  0.00000000000E+00 0. -1.
          1   -1    0    0  501    0 -0.00000000000E+00 -0.00000000000E+00 -0.64007407630E+03  0.64007407630E+03  0.00000000000E+00 0. -1.
         25    2    1    2    0    0  0.39914581284E+01 -0.11902284798E+03 -0.33320720380E+02  0.17583328889E+03  0.12499881998E+03 0.  0.
          2    1    1    2  501    0 -0.65543576356E+01  0.79760908533E+02 -0.53226468542E+03  0.53824758009E+03  0.00000000000E+00 0. -1.
          1    1    1    2  502    0  0.25628995071E+01  0.39261939449E+02  0.16060462171E+04  0.16065280950E+04  0.00000000000E+00 0. -1.
         22    1    3    3    0    0  0.56420354658E+02 -0.18822140932E+02 -0.14061463614E+02  0.61116725763E+02  0.00000000000E+00 0.  1.
         22    1    3    3    0    0 -0.52428896529E+02 -0.10020070705E+03 -0.19259256765E+02  0.11471656313E+03  0.00000000000E+00 0.  1.
</event>
<event>
 7    1  0.5575489E-006  0.7949938E+02  0.7818608E-02  0.1394743E+00
          2   -1    0    0  502    0  0.00000000000E+00  0.00000000000E+00  0.11500104687E+04  0.11500104687E+04  0.00000000000E+00 0. -1.
          1   -1    0    0  501    0 -0.00000000000E+00 -0.00000000000E+00 -0.72629739533E+03  0.72629739533E+03  0.00000000000E+00 0. -1.
         25    2    1    2    0    0  0.34704601064E+02  0.90259684670E+02  0.20931812129E+02  0.15941762050E+03  0.12499846781E+03 0.  0.
          2    1    1    2  501    0 -0.60312475377E+02 -0.51553438106E+02 -0.65414810599E+03  0.65894240737E+03  0.00000000000E+00 0. -1.
          1    1    1    2  502    0  0.25607874313E+02 -0.38706246564E+02  0.10569293673E+04  0.10579478362E+04  0.00000000000E+00 0. -1.
         22    1    3    3    0    0 -0.58333771724E+01  0.91696823083E+02 -0.27816067642E+02  0.96000360790E+02  0.00000000000E+00 0. -1.
         22    1    3    3    0    0  0.40537978237E+02 -0.14371384131E+01  0.48747879771E+02  0.63417259706E+02  0.00000000000E+00 0. -1.
</event>
<event>
 7    1  0.5575489E-006  0.7028733E+02  0.7818608E-02  0.1391815E+00
          2   -1    0    0  502    0  0.00000000000E+00  0.00000000000E+00  0.20508960656E+04  0.20508960656E+04  0.00000000000E+00 0. -1.
          1   -1    0    0  501    0 -0.00000000000E+00 -0.00000000000E+00 -0.30360041848E+03  0.30360041848E+03  0.00000000000E+00 0. -1.
         25    2    1    2    0    0  0.85663665535E+02 -0.58879862528E+02  0.72302499201E+02  0.17791176208E+03  0.12497936586E+03 0.  0.
          2    1    1    2  501    0 -0.31996986030E+02  0.61626600857E+02 -0.24560642231E+03  0.25523353958E+03  0.00000000000E+00 0. -1.
          1    1    1    2  502    0 -0.53666679505E+02 -0.27467383295E+01  0.19205995702E+04  0.19213511824E+04  0.00000000000E+00 0. -1.
         22    1    3    3    0    0  0.64988491474E+01 -0.71849151848E+02  0.34988464873E+01  0.72227263469E+02  0.00000000000E+00 0.  1.
         22    1    3    3    0    0  0.79164816388E+02  0.12969289321E+02  0.68803652713E+02  0.10568449861E+03  0.00000000000E+00 0.  1.
</event>
<event>
 7    1  0.5575489E-006  0.8582491E+02  0.7818608E-02  0.1399783E+00
          2   -1    0    0  502    0  0.00000000000E+00  0.00000000000E+00  0.18743366547E+04  0.18743366547E+04  0.00000000000E+00 0. -1.
          1   -1    0    0  501    0 -0.00000000000E+00 -0.00000000000E+00 -0.50591712227E+02  0.50591712227E+02  0.00000000000E+00 0. -1.
         25    2    1    2    0    0 -0.31001460617E+02 -0.99017410547E+02  0.83794057840E+03  0.85354161628E+03  0.12499335840E+03 0.  0.
          2    1    1    2  501    0 -0.78262768217E+01  0.84938084487E+02  0.58281131343E+00  0.85299873823E+02  0.00000000000E+00 0. -1.
          1    1    1    2  502    0  0.38827737438E+02  0.14079326060E+02  0.98522155276E+03  0.98608687682E+03  0.00000000000E+00 0. -1.
         22    1    3    3    0    0 -0.71675847161E+02 -0.73731739988E+02  0.70024138665E+03  0.70775122474E+03  0.00000000000E+00 0.  1.
         22    1    3    3    0    0  0.40674386544E+02 -0.25285670560E+02  0.13769919175E+03  0.14579039154E+03  0.00000000000E+00 0.  1.
</event>
<event>
 7    1  0.5575489E-006  0.5917941E+02  0.7818608E-02  0.1448473E+00
          2   -1    0    0  502    0  0.00000000000E+00  0.00000000000E+00  0.35376508718E+04  0.35376508718E+04  0.00000000000E+00 0. -1.
          1   -1    0    0  501    0 -0.00000000000E+00 -0.00000000000E+00 -0.81562872871E+02  0.81562872871E+02  0.00000000000E+00 0. -1.
         25    2    1    2    0    0 -0.99544069055E+01 -0.22198859880E+02  0.16685144280E+04  0.16733671357E+04  0.12500117930E+03 0.  0.
          2    1    1    2  501    0 -0.93068367480E+01  0.58706208055E+02 -0.67713286154E+02  0.90100639266E+02  0.00000000000E+00 0. -1.
          1    1    1    2  502    0  0.19261243654E+02 -0.36507348175E+02  0.18552868571E+04  0.18557459697E+04  0.00000000000E+00 0. -1.
         22    1    3    3    0    0 -0.46452462190E+02 -0.41452429166E+02  0.14266469708E+04  0.14280048020E+04  0.00000000000E+00 0. -1.
         22    1    3    3    0    0  0.36498055285E+02  0.19253569286E+02  0.24186745715E+03  0.24536233370E+03  0.00000000000E+00 0. -1.
</event>
<event>
 7    1  0.5575489E-006  0.1931781E+03  0.7818608E-02  0.1380790E+00
          2   -1    0    0  502    0  0.00000000000E+00  0.00000000000E+00  0.18423340978E+04  0.18423340978E+04  0.00000000000E+00 0. -1.
          1   -1    0    0  501    0 -0.00000000000E+00 -0.00000000000E+00 -0.38337082053E+03  0.38337082053E+03  0.00000000000E+00 0. -1.
         25    2    1    2    0    0 -0.17641721557E+03 -0.50212271687E+02  0.10878772590E+04  0.11102901412E+04  0.12499184338E+03 0.  0.
          2    1    1    2  501    0  0.19040146451E+03  0.34048498425E+02 -0.34686321696E+03  0.39714746532E+03  0.00000000000E+00 0. -1.
          1    1    1    2  502    0 -0.13984248932E+02  0.16163773262E+02  0.71794923528E+03  0.71826731182E+03  0.00000000000E+00 0. -1.
         22    1    3    3    0    0 -0.48774611141E+02 -0.28558898195E+02  0.68031617863E+03  0.68266000049E+03  0.00000000000E+00 0.  1.
         22    1    3    3    0    0 -0.12764260443E+03 -0.21653373492E+02  0.40756108035E+03  0.42763014074E+03  0.00000000000E+00 0.  1.
</event>
<event>
 7    1  0.5575489E-006  0.7402309E+02  0.7818608E-02  0.1371697E+00
          2   -1    0    0  502    0  0.00000000000E+00  0.00000000000E+00  0.10305435068E+04  0.10305435068E+04  0.00000000000E+00 0. -1.
          1   -1    0    0  501    0 -0.00000000000E+00 -0.00000000000E+00 -0.27906462045E+03  0.27906462045E+03  0.00000000000E+00 0. -1.
         25    2    1    2    0    0  0.85671086578E+02 -0.79979277508E+02  0.32173851264E+03  0.36451949355E+03  0.12499028264E+03 0.  0.
          2    1    1    2  501    0 -0.26675704916E+02  0.68524433042E+02 -0.25107723801E+03  0.26162371950E+03  0.00000000000E+00 0. -1.
          1    1    1    2  502    0 -0.58995381662E+02  0.11454844466E+02  0.68081761177E+03  0.68346491426E+03  0.00000000000E+00 0. -1.
         22    1    3    3    0    0  0.15821002246E+02 -0.48682322466E+01 -0.85784020686E+01  0.18643840252E+02  0.00000000000E+00 0.  1.
         22    1    3    3    0    0  0.69850084332E+02 -0.75111045261E+02  0.33031691471E+03  0.34587565329E+03  0.00000000000E+00 0.  1.
</event>
<event>
 7    1  0.5575489E-006  0.8741858E+02  0.7818608E-02  0.1322807E+00
          2   -1    0    0  502    0  0.00000000000E+00  0.00000000000E+00  0.17241008974E+04  0.17241008974E+04  0.00000000000E+00 0. -1.
          1   -1    0    0  501    0 -0.00000000000E+00 -0.00000000000E+00 -0.81930333742E+02  0.81930333742E+02  0.00000000000E+00 0. -1.
         25    2    1    2    0    0 -0.63534117955E+02 -0.79253201225E+02  0.62031715635E+03  0.64088927101E+03  0.12501211613E+03 0.  0.
          2    1    1    2  501    0 -0.13433468925E+02  0.87153971469E+02 -0.42562619903E+02  0.97917564528E+02  0.00000000000E+00 0. -1.
          1    1    1    2  502    0  0.76967586880E+02 -0.79007702431E+01  0.10644160272E+04  0.10672243956E+04  0.00000000000E+00 0. -1.
         22    1    3    3    0    0 -0.41953294464E+02 -0.96806951255E+02  0.27645597095E+03  0.29590466134E+03  0.00000000000E+00 0.  1.
         22    1    3    3    0    0 -0.21580823491E+02  0.17553750030E+02  0.34386118540E+03  0.34498460967E+03  0.00000000000E+00 0.  1.
</event>
<event>
 7    1  0.5575489E-006  0.8088773E+02  0.7818608E-02  0.1340844E+00
          2   -1    0    0  502    0  0.00000000000E+00  0.00000000000E+00  0.11844549932E+04  0.11844549932E+04  0.00000000000E+00 0. -1.
          1   -1    0    0  501    0 -0.00000000000E+00 -0.00000000000E+00 -0.32219458383E+03  0.32219458383E+03  0.00000000000E+00 0. -1.
         25    2    1    2    0    0 -0.40781821776E+02  0.10861728429E+03 -0.77368001388E+01  0.17072952265E+03  0.12501136106E+03 0.  0.
          2    1    1    2  501    0  0.67500772309E+02 -0.42425100117E+02 -0.22494394995E+03  0.23865461236E+03  0.00000000000E+00 0. -1.
          1    1    1    2  502    0 -0.26718950533E+02 -0.66192184169E+02  0.10949411595E+04  0.10972654421E+04  0.00000000000E+00 0. -1.
         22    1    3    3    0    0 -0.83255549332E+02  0.74929140832E+02  0.12844692636E+02  0.11274240005E+03  0.00000000000E+00 0. -1.
         22    1    3    3    0    0  0.42473727557E+02  0.33688143454E+02 -0.20581492775E+02  0.57987122595E+02  0.00000000000E+00 0. -1.
</event>
<event>
 7    1  0.5575489E-006  0.3561095E+02  0.7818608E-02  0.1617150E+00
          2   -1    0    0  502    0  0.00000000000E+00  0.00000000000E+00  0.17316025046E+04  0.17316025046E+04  0.00000000000E+00 0. -1.
          1   -1    0    0  501    0 -0.00000000000E+00 -0.00000000000E+00 -0.59279129048E+02  0.59279129048E+02  0.00000000000E+00 0. -1.
         25    2    1    2    0    0 -0.77637646339E+01  0.20649688957E+02  0.11115204230E+04  0.11187444839E+04  0.12499953540E+03 0.  0.
          2    1    1    2  501    0 -0.22348518239E+02  0.30814922620E+01 -0.52758223744E+02  0.57379282277E+02  0.00000000000E+00 0. -1.
          1    1    1    2  502    0  0.30112282872E+02 -0.23731181219E+02  0.61356117628E+03  0.61475786744E+03  0.00000000000E+00 0. -1.
         22    1    3    3    0    0  0.10570208726E+02 -0.28347073131E+02  0.74544540420E+02  0.80449825195E+02  0.00000000000E+00 0. -1.
         22    1    3    3    0    0 -0.18333973360E+02  0.48996762087E+02  0.10369758826E+04  0.10382946587E+04  0.00000000000E+00 0. -1.
</event>
<event>
 7    1  0.5575489E-006  0.6793581E+02  0.7818608E-02  0.1424639E+00
          2   -1    0    0  502    0  0.00000000000E+00  0.00000000000E+00  0.13568758436E+04  0.13568758436E+04  0.00000000000E+00 0. -1.
          1   -1    0    0  501    0 -0.00000000000E+00 -0.00000000000E+00 -0.23726122764E+03  0.23726122764E+03  0.00000000000E+00 0. -1.
         25    2    1    2    0    0  0.50550557849E+02  0.48123298652E+02  0.61490186780E+03  0.63134871032E+03  0.12500270488E+03 0.  0.
          2    1    1    2  501    0 -0.67485249940E+02 -0.85934538947E+01 -0.22333759238E+03  0.23346902703E+03  0.00000000000E+00 0. -1.
          1    1    1    2  502    0  0.16934692091E+02 -0.39529844758E+02  0.72805034054E+03  0.72931933389E+03  0.00000000000E+00 0. -1.
         22    1    3    3    0    0  0.83009173287E+02  0.37113961454E+02  0.55444791984E+03  0.56185448721E+03  0.00000000000E+00 0.  1.
         22    1    3    3    0    0 -0.32458615438E+02  0.11009337198E+02  0.60453947961E+02  0.69494223111E+02  0.00000000000E+00 0.  1.
</event>
<event>
 7    1  0.5575489E-006  0.4098579E+02  0.7818608E-02  0.1576855E+00
          2   -1    0    0  502    0  0.00000000000E+00  0.00000000000E+00  0.21335396097E+03  0.21335396097E+03  0.00000000000E+00 0. -1.
          1   -1    0    0  501    0 -0.00000000000E+00 -0.00000000000E+00 -0.12589583622E+03  0.12589583622E+03  0.00000000000E+00 0. -1.
         25    2    1    2    0    0  0.41155871156E+02  0.17937573268E+02  0.12752516799E+03  0.18412732898E+03  0.12499857015E+03 0.  0.
          2    1    1    2  501    0 -0.18493089331E+02  0.16827848966E+02 -0.88138127125E+02  0.91616048305E+02  0.00000000000E+00 0. -1.
          1    1    1    2  502    0 -0.22662781826E+02 -0.34765422235E+02  0.48071083890E+02  0.63506419908E+02  0.00000000000E+00 0. -1.
         22    1    3    3    0    0  0.30166709007E+02  0.68683889093E+02  0.47688186717E+02  0.88891338755E+02  0.00000000000E+00 0. -1.
         22    1    3    3    0    0  0.10989162149E+02 -0.50746315825E+02  0.79836981274E+02  0.95235990221E+02  0.00000000000E+00 0. -1.
</event>
<event>
 7    1  0.5575489E-006  0.1399357E+03  0.7818608E-02  0.1414345E+00
          2   -1    0    0  502    0  0.00000000000E+00  0.00000000000E+00  0.14535464251E+04  0.14535464251E+04  0.00000000000E+00 0. -1.
          1   -1    0    0  501    0 -0.00000000000E+00 -0.00000000000E+00 -0.69129849637E+03  0.69129849637E+03  0.00000000000E+00 0. -1.
         25    2    1    2    0    0  0.76285737434E+02 -0.89897391148E+02  0.53615930155E+03  0.56302096178E+03  0.12499900833E+03 0.  0.
          2    1    1    2  501    0 -0.87775172960E+02  0.10935791473E+03 -0.67047173640E+03  0.68497881997E+03  0.00000000000E+00 0. -1.
          1    1    1    2  502    0  0.11489435527E+02 -0.19460523584E+02  0.89656036354E+03  0.89684513969E+03  0.00000000000E+00 0. -1.
         22    1    3    3    0    0 -0.31986946428E+02 -0.40794920318E+02  0.13481410863E+03  0.14443764797E+03  0.00000000000E+00 0.  1.
         22    1    3    3    0    0  0.10827268386E+03 -0.49102470830E+02  0.40134519293E+03  0.41858331381E+03  0.00000000000E+00 0.  1.
</event>
<event>
 7    1  0.5575489E-006  0.3320050E+02  0.7818608E-02  0.1596637E+00
          2   -1    0    0  502    0  0.00000000000E+00  0.00000000000E+00  0.81574020745E+03  0.81574020745E+03  0.00000000000E+00 0. -1.
          1   -1    0    0  501    0 -0.00000000000E+00 -0.00000000000E+00 -0.24408640322E+04  0.24408640322E+04  0.00000000000E+00 0. -1.
         25    2    1    2    0    0  0.11545744551E+01  0.11232496530E+02 -0.34721666579E+03  0.36920466838E+03  0.12500068852E+03 0.  0.
          2    1    1    2  501    0  0.22637265355E+02 -0.24715306374E+02 -0.20822861511E+04  0.20825558593E+04  0.00000000000E+00 0. -1.
          1    1    1    2  502    0 -0.23791839810E+02  0.13482809843E+02  0.80437899210E+03  0.80484371199E+03  0.00000000000E+00 0. -1.
         22    1    3    3    0    0 -0.34314182180E+02 -0.14859089269E+02 -0.27365890239E+02  0.46337323846E+02  0.00000000000E+00 0.  1.
         22    1    3    3    0    0  0.35468756635E+02  0.26091585800E+02 -0.31985077555E+03  0.32286734453E+03  0.00000000000E+00 0.  1.
</event>
<event>
 7    1  0.5575489E-006  0.6317253E+02  0.7818608E-02  0.1387010E+00
          2   -1    0    0  502    0  0.00000000000E+00  0.00000000000E+00  0.83479491513E+03  0.83479491513E+03  0.00000000000E+00 0. -1.
          1   -1    0    0  501    0 -0.00000000000E+00 -0.00000000000E+00 -0.16428779802E+04  0.16428779802E+04  0.00000000000E+00 0. -1.
         25    2    1    2    0    0  0.66411910385E+02 -0.10587216050E+03  0.39222626603E+03  0.43021488055E+03  0.12499577384E+03 0.  0.
          2    1    1    2  501    0 -0.30120740018E+02  0.55424849676E+02 -0.16209875039E+04  0.16222144312E+04  0.00000000000E+00 0. -1.
          1    1    1    2  502    0 -0.36291170366E+02  0.50447310822E+02  0.42067817286E+03  0.42524358353E+03  0.00000000000E+00 0. -1.
         22    1    3    3    0    0 -0.26942045892E+02 -0.45782577036E+02  0.21186117918E+03  0.21841949877E+03  0.00000000000E+00 0. -1.
         22    1    3    3    0    0  0.93353956277E+02 -0.60089583462E+02  0.18036508685E+03  0.21179538179E+03  0.00000000000E+00 0. -1.
</event>
<event>
 7    1  0.5575489E-006  0.2017115E+03  0.7818608E-02  0.1277814E+00
          2   -1    0    0  502    0  0.00000000000E+00  0.00000000000E+00  0.17638328327E+04  0.17638328327E+04  0.00000000000E+00 0. -1.
          1   -1    0    0  501    0 -0.00000000000E+00 -0.00000000000E+00 -0.54689780484E+02  0.54689780484E+02  0.00000000000E+00 0. -1.
         25    2    1    2    0    0  0.20540858511E+03  0.29157419125E+02  0.51013336943E+03  0.56471516513E+03  0.12499728474E+03 0.  0.
          2    1    1    2  501    0 -0.18535253593E+03 -0.75789458749E+02  0.34965340154E+03  0.40293561004E+03  0.00000000000E+00 0. -1.
          1    1    1    2  502    0 -0.20056049188E+02  0.46632039624E+02  0.84935628128E+03  0.85087183804E+03  0.00000000000E+00 0. -1.
         22    1    3    3    0    0  0.21142441310E+02 -0.22011426055E+02  0.18507221620E+03  0.18757193530E+03  0.00000000000E+00 0. -1.
         22    1    3    3    0    0  0.18426614380E+03  0.51168845180E+02  0.32506115323E+03  0.37714322983E+03  0.00000000000E+00 0. -1.
</event>
<event>
 7    1  0.5575489E-006  0.4975559E+02  0.7818608E-02  0.1529291E+00
          2   -1    0    0  502    0  0.00000000000E+00  0.00000000000E+00  0.39435908571E+03  0.39435908571E+03  0.00000000000E+00 0. -1.
          1   -1    0    0  501    0 -0.00000000000E+00 -0.00000000000E+00 -0.11508223770E+03  0.11508223770E+03  0.00000000000E+00 0. -1.
         25    2    1    2    0    0 -0.16521484276E+02 -0.74194030551E+02  0.10539193276E+03  0.18030428309E+03  0.12499784557E+03 0.  0.
          2    1    1    2  501    0  0.71907873698E+01  0.26980954666E+02 -0.72711319102E+02  0.77888479656E+02  0.00000000000E+00 0. -1.
          1    1    1    2  502    0  0.93306969058E+01  0.47213075884E+02  0.24659623435E+03  0.25124856066E+03  0.00000000000E+00 0. -1.
         22    1    3    3    0    0 -0.66451745155E+02 -0.69027964013E+02  0.74413128176E+02  0.12131779711E+03  0.00000000000E+00 0.  1.
         22    1    3    3    0    0  0.49930260879E+02 -0.51660665379E+01  0.30978804584E+02  0.58986485981E+02  0.00000000000E+00 0.  1.
</event>
<event>
 7    1  0.5575489E-006  0.8384659E+02  0.7818608E-02  0.1327186E+00
          2   -1    0    0  502    0  0.00000000000E+00  0.00000000000E+00  0.12010567652E+04  0.12010567652E+04  0.00000000000E+00 0. -1.
          1   -1    0    0  501    0 -0.00000000000E+00 -0.00000000000E+00 -0.53341586687E+03  0.53341586687E+03  0.00000000000E+00 0. -1.
         25    2    1    2    0    0  0.33101581661E+02 -0.19510205495E+01  0.10211725597E+03  0.16478020206E+03  0.12500023933E+03 0.  0.
          2    1    1    2  501    0 -0.32062128836E+02  0.79540842894E+02 -0.49699709300E+03  0.50434198342E+03  0.00000000000E+00 0. -1.
          1    1    1    2  502    0 -0.10394528252E+01 -0.77589822344E+02  0.10625207354E+04  0.10653504466E+04  0.00000000000E+00 0. -1.
         22    1    3    3    0    0  0.72215167477E+01  0.59007555000E+02  0.67870456680E+02  0.90224391054E+02  0.00000000000E+00 0. -1.
         22    1    3    3    0    0  0.25880064913E+02 -0.60958575549E+02  0.34246799295E+02  0.74555811007E+02  0.00000000000E+00 0. -1.
</event>
<event>
 7    1  0.5575489E-006  0.5142873E+02  0.7818608E-02  0.1503446E+00
          2   -1    0    0  502    0  0.00000000000E+00  0.00000000000E+00  0.25790738216E+03  0.25790738216E+03  0.00000000000E+00 0. -1.
          1   -1    0    0  501    0 -0.00000000000E+00 -0.00000000000E+00 -0.79380691102E+02  0.79380691102E+02  0.00000000000E+00 0. -1.
         25    2    1    2    0    0 -0.50710134142E+02 -0.26813967815E+02  0.43757667533E+02  0.14432699388E+03  0.12500016448E+03 0.  0.
          2    1    1    2  501    0 -0.70044100047E+00  0.32130664390E+02 -0.14307507329E+02  0.35179183869E+02  0.00000000000E+00 0. -1.
          1    1    1    2  502    0  0.51410575142E+02 -0.53166965745E+01  0.14907653086E+03  0.15778189551E+03  0.00000000000E+00 0. -1.
         22    1    3    3    0    0 -0.21173057796E+01  0.79796272013E+01  0.75981229621E+02  0.76428428537E+02  0.00000000000E+00 0. -1.
         22    1    3    3    0    0 -0.48592828362E+02 -0.34793595017E+02 -0.32223562088E+02  0.67898565346E+02  0.00000000000E+00 0. -1.
</event>
<event>
 7    1  0.5575489E-006  0.6469773E+02  0.7818608E-02  0.1456764E+00
          2   -1    0    0  502    0  0.00000000000E+00  0.00000000000E+00  0.10758144674E+04  0.10758144674E+04  0.00000000000E+00 0. -1.
          1   -1    0    0  501    0 -0.00000000000E+00 -0.00000000000E+00 -0.39657988224E+02  0.39657988224E+02  0.00000000000E+00 0. -1.
         25    2    1    2    0    0  0.44215252651E+02  0.56353102884E+02  0.35643710436E+03  0.38445205713E+03  0.12500125637E+03 0.  0.
          2    1    1    2  501    0 -0.34660419867E+02  0.77992296945E+01 -0.11055286957E+02  0.37207419407E+02  0.00000000000E+00 0. -1.
          1    1    1    2  502    0 -0.95548327837E+01 -0.64152332579E+02  0.69077466179E+03  0.69381297911E+03  0.00000000000E+00 0. -1.
         22    1    3    3    0    0 -0.35944274116E+02 -0.57311351454E+01  0.51224666098E+02  0.62839503249E+02  0.00000000000E+00 0. -1.
         22    1    3    3    0    0  0.80159526766E+02  0.62084238030E+02  0.30521243826E+03  0.32161255388E+03  0.00000000000E+00 0. -1.
</event>
<event>
 7    1  0.5575489E-006  0.9607563E+02  0.7818608E-02  0.1360808E+00
          2   -1    0    0  502    0  0.00000000000E+00  0.00000000000E+00  0.39965115771E+03  0.39965115771E+03  0.00000000000E+00 0. -1.
          1   -1    0    0  501    0 -0.00000000000E+00 -0.00000000000E+00 -0.12347827724E+04  0.12347827724E+04  0.00000000000E+00 0. -1.
         25    2    1    2    0    0  0.97337519524E+02 -0.64960350142E+01  0.14498283840E+03  0.21485216997E+03  0.12499856131E+03 0.  0.
          2    1    1    2  501    0 -0.86166924559E+01  0.49958605253E+02 -0.11881754151E+04  0.11892564596E+04  0.00000000000E+00 0. -1.
          1    1    1    2  502    0 -0.88720827068E+02 -0.43462570239E+02  0.20806096201E+03  0.23032530056E+03  0.00000000000E+00 0. -1.
         22    1    3    3    0    0  0.44592617276E+02 -0.58158827419E+02  0.11232888295E+03  0.13412206629E+03  0.00000000000E+00 0.  1.
         22    1    3    3    0    0  0.52744902249E+02  0.51662792405E+02  0.32653955457E+02  0.80730103675E+02  0.00000000000E+00 0.  1.
</event>
<event>
 7    1  0.5575489E-006  0.1359580E+03  0.7818608E-02  0.1253800E+00
          2   -1    0    0  502    0  0.00000000000E+00  0.00000000000E+00  0.19458438971E+04  0.19458438971E+04  0.00000000000E+00 0. -1.
          1   -1    0    0  501    0 -0.00000000000E+00 -0.00000000000E+00 -0.40931487645E+03  0.40931487645E+03  0.00000000000E+00 0. -1.
         25    2    1    2    0    0 -0.44236754241E+02 -0.13574107046E+03  0.32981176680E+03  0.38050412188E+03  0.12500022645E+03 0.  0.
          2    1    1    2  501    0  0.94914461742E+02  0.66800089905E+01 -0.37499434101E+03  0.38687741386E+03  0.00000000000E+00 0. -1.
          1    1    1    2  502    0 -0.50677707500E+02  0.12906106147E+03  0.15817115949E+04  0.15877772378E+04  0.00000000000E+00 0. -1.
         22    1    3    3    0    0 -0.15655161392E+02 -0.95697502664E+02  0.31430050805E+03  0.32891929931E+03  0.00000000000E+00 0. -1.
         22    1    3    3    0    0 -0.28581592849E+02 -0.40043567800E+02  0.15511258743E+02  0.51584822572E+02  0.00000000000E+00 0. -1.
</event>
<event>
 7    1  0.5575489E-006  0.5780989E+02  0.7818608E-02  0.1430160E+00
          2   -1    0    0  502    0  0.00000000000E+00  0.00000000000E+00  0.32334544929E+03  0.32334544929E+03  0.00000000000E+00 0. -1.
          1   -1    0    0  501    0 -0.00000000000E+00 -0.00000000000E+00 -0.29889902902E+04  0.29889902902E+04  0.00000000000E+00 0. -1.
         25    2    1    2    0    0 -0.71624506317E+01  0.91056364624E+02 -0.13207213317E+04  0.13297639334E+04  0.12499888073E+03 0.  0.
          2    1    1    2  501    0 -0.23732926766E+02 -0.42248499251E+02 -0.16607749156E+04  0.16614817205E+04  0.00000000000E+00 0. -1.
          1    1    1    2  502    0  0.30895377397E+02 -0.48807865373E+02  0.31585140644E+03  0.32109008552E+03  0.00000000000E+00 0. -1.
         22    1    3    3    0    0 -0.10953201244E+02  0.57817128886E+02 -0.19837008669E+03  0.20691419551E+03  0.00000000000E+00 0.  1.
         22    1    3    3    0    0  0.37907506127E+01  0.33239235739E+02 -0.11223512450E+04  0.11228497379E+04  0.00000000000E+00 0.  1.
</event>
<event>
 7    1  0.5575489E-006  0.9662782E+02  0.7818608E-02  0.1347141E+00
          2   -1    0    0  502    0  0.00000000000E+00  0.00000000000E+00  0.23010163267E+04  0.23010163267E+04  0.00000000000E+00 0. -1.
          1   -1    0    0  501    0 -0.00000000000E+00 -0.00000000000E+00 -0.44929114428E+03  0.44929114428E+03  0.00000000000E+00 0. -1.
         25    2    1    2    0    0 -0.10599828982E+03 -0.10462323580E+03  0.37433188492E+03  0.42181877740E+03  0.12500024794E+03 0.  0.
          2    1    1    2  501    0  0.78513907164E+02  0.55143565734E+02 -0.41971236785E+03  0.43053886954E+03  0.00000000000E+00 0. -1.
          1    1    1    2  502    0  0.27484382658E+02  0.49479670063E+02  0.18971056653E+04  0.18979498240E+04  0.00000000000E+00 0. -1.
         22    1    3    3    0    0  0.24419005235E+02 -0.12847348943E-01  0.76086548431E+02  0.79909015974E+02  0.00000000000E+00 0. -1.
         22    1    3    3    0    0 -0.13041729506E+03 -0.10461038845E+03  0.29824533649E+03  0.34190976143E+03  0.00000000000E+00 0. -1.
</event>
<event>
 7    1  0.5575489E-006  0.1482627E+03  0.7818608E-02  0.1342579E+00
          2   -1    0    0  502    0  0.00000000000E+00  0.00000000000E+00  0.17774123934E+04  0.17774123934E+04  0.00000000000E+00 0. -1.
          1   -1    0    0  501    0 -0.00000000000E+00 -0.00000000000E+00 -0.52442107156E+03  0.52442107156E+03  0.00000000000E+00 0. -1.
         25    2    1    2    0    0 -0.13725199742E+03  0.11442415489E+03  0.30336515767E+03  0.37361227413E+03  0.12499885788E+03 0.  0.
          2    1    1    2  501    0  0.37259148920E+02 -0.91426377836E+01 -0.48487495503E+03  0.48639033092E+03  0.00000000000E+00 0. -1.
          1    1    1    2  502    0  0.99992848495E+02 -0.10528151710E+03  0.14345011192E+04  0.14418308599E+04  0.00000000000E+00 0. -1.
         22    1    3    3    0    0 -0.55513860207E+02  0.39263874282E+02  0.22546308015E+02  0.71636418837E+02  0.00000000000E+00 0.  1.
         22    1    3    3    0    0 -0.81738137208E+02  0.75160280604E+02  0.28081884966E+03  0.30197585529E+03  0.00000000000E+00 0.  1.
</event>
<event>
 7    1  0.5575489E-006  0.1087719E+03  0.7818608E-02  0.1288708E+00
          2   -1    0    0  502    0  0.00000000000E+00  0.00000000000E+00  0.13042961768E+04  0.13042961768E+04  0.00000000000E+00 0. -1.
          1   -1    0    0  501    0 -0.00000000000E+00 -0.00000000000E+00 -0.99957285773E+03  0.99957285773E+03  0.00000000000E+00 0. -1.
         25    2    1    2    0    0  0.96924690070E+02 -0.11783236109E+03  0.60151103935E+03  0.63302481094E+03  0.12500407967E+03 0.  0.
          2    1    1    2  501    0 -0.83302965778E+02  0.16450467771E+02 -0.97815881575E+03  0.98183739531E+03  0.00000000000E+00 0. -1.
          1    1    1    2  502    0 -0.13621724292E+02  0.10138189332E+03  0.68137109549E+03  0.68900682830E+03  0.00000000000E+00 0. -1.
         22    1    3    3    0    0  0.76121624482E+02 -0.85115492120E+02  0.20528575821E+03  0.23490719708E+03  0.00000000000E+00 0.  1.
         22    1    3    3    0    0  0.20803065588E+02 -0.32716868971E+02  0.39622528114E+03  0.39811761386E+03  0.00000000000E+00 0.  1.
</event>
<event>
 7    1  0.5575489E-006  0.1261944E+03  0.7818608E-02  0.1325007E+00
          2   -1    0    0  502    0  0.00000000000E+00  0.00000000000E+00  0.81478072347E+03  0.81478072347E+03  0.00000000000E+00 0. -1.
          1   -1    0    0  501    0 -0.00000000000E+00 -0.00000000000E+00 -0.50705383849E+03  0.50705383849E+03  0.00000000000E+00 0. -1.
         25    2    1    2    0    0  0.81574071870E+01  0.80643815023E+02  0.57439397952E+02  0.15966471176E+03  0.12499427007E+03 0.  0.
          2    1    1    2  501    0  0.22709942130E+02  0.47401472936E+02 -0.44825106289E+03  0.45132212054E+03  0.00000000000E+00 0. -1.
          1    1    1    2  502    0 -0.30867349317E+02 -0.12804528796E+03  0.69853854992E+03  0.71084772965E+03  0.00000000000E+00 0. -1.
         22    1    3    3    0    0  0.47888362583E+02  0.93978752169E+02  0.51361860307E+02  0.11731726993E+03  0.00000000000E+00 0. -1.
         22    1    3    3    0    0 -0.39730955396E+02 -0.13334937146E+02  0.60775376455E+01  0.42347441826E+02  0.00000000000E+00 0. -1.
</event>
<event>
 7    1  0.5575489E-006  0.5531000E+02  0.7818608E-02  0.1505991E+00
          2   -1    0    0  502    0  0.00000000000E+00  0.00000000000E+00  0.15457492592E+04  0.15457492592E+04  0.00000000000E+00 0. -1.
          1   -1    0    0  501    0 -0.00000000000E+00 -0.00000000000E+00 -0.38989069866E+02  0.38989069866E+02  0.00000000000E+00 0. -1.
         25    2    1    2    0    0  0.43050291615E+02  0.20451058775E+02  0.11517672291E+04  0.11595098625E+04  0.12499519117E+03 0.  0.
          2    1    1    2  501    0 -0.55240814288E+02  0.62676174931E+01 -0.12154432933E+02  0.56908354678E+02  0.00000000000E+00 0. -1.
          1    1    1    2  502    0  0.12190522673E+02 -0.26718676269E+02  0.36714739315E+03  0.36832011186E+03  0.00000000000E+00 0. -1.
         22    1    3    3    0    0  0.44957160256E+02  0.62260250679E+02  0.45080451761E+03  0.45729880622E+03  0.00000000000E+00 0. -1.
         22    1    3    3    0    0 -0.19068686412E+01 -0.41809191903E+02  0.70096271148E+03  0.70221105628E+03  0.00000000000E+00 0. -1.
</event>
<event>
 7    1  0.5575489E-006  0.4400809E+02  0.7818608E-02  0.1572111E+00
          2   -1    0    0  502    0  0.00000000000E+00  0.00000000000E+00  0.14856867098E+03  0.14856867098E+03  0.00000000000E+00 0. -1.
          1   -1    0    0  501    0 -0.00000000000E+00 -0.00000000000E+00 -0.10721061741E+04  0.10721061741E+04  0.00000000000E+00 0. -1.
         25    2    1    2    0    0  0.48587231583E+02  0.17423140145E+02 -0.11480732888E+03  0.17739573629E+03  0.12499695839E+03 0.  0.
          2    1    1    2  501    0 -0.29804724642E+02 -0.32337089131E+02 -0.92425011560E+03  0.92529578251E+03  0.00000000000E+00 0. -1.
          1    1    1    2  502    0 -0.18782506941E+02  0.14913948986E+02  0.11551994133E+03  0.11798332630E+03  0.00000000000E+00 0. -1.
         22    1    3    3    0    0  0.62382514959E+02  0.16535426582E+02 -0.28621309228E+01  0.64600234507E+02  0.00000000000E+00 0. -1.
         22    1    3    3    0    0 -0.13795283377E+02  0.88771356246E+00 -0.11194519795E+03  0.11279550179E+03  0.00000000000E+00 0. -1.
</event>
<event>
 7    1  0.5575489E-006  0.1036828E+03  0.7818608E-02  0.1369882E+00
          2   -1    0    0  502    0  0.00000000000E+00  0.00000000000E+00  0.37451025552E+03  0.37451025552E+03  0.00000000000E+00 0. -1.
          1   -1    0    0  501    0 -0.00000000000E+00 -0.00000000000E+00 -0.70398022918E+02  0.70398022918E+02  0.00000000000E+00 0. -1.
         25    2    1    2    0    0  0.81989526691E+02 -0.62221520798E+02  0.13389040339E+03  0.21010744712E+03  0.12499879630E+03 0.  0.
          2    1    1    2  501    0 -0.30385327888E+02 -0.31204227314E+02  0.14286750045E+02  0.45837573888E+02  0.00000000000E+00 0. -1.
          1    1    1    2  502    0 -0.51604198804E+02  0.93425748112E+02  0.15593507917E+03  0.18896325744E+03  0.00000000000E+00 0. -1.
         22    1    3    3    0    0 -0.24147174988E+02  0.18085440456E+01 -0.41645755908E+01  0.24570319113E+02  0.00000000000E+00 0.  1.
         22    1    3    3    0    0  0.10613670168E+03 -0.64030064844E+02  0.13805497898E+03  0.18553712800E+03  0.00000000000E+00 0.  1.
</event>
<event>
 7    1  0.5575489E-006  0.9459300E+02  0.7818608E-02  0.1349414E+00
          2   -1    0    0  502    0  0.00000000000E+00  0.00000000000E+00  0.66860367845E+02  0.66860367845E+02  0.00000000000E+00 0. -1.
          1   -1    0    0  501    0 -0.00000000000E+00 -0.00000000000E+00 -0.12253027088E+04  0.12253027088E+04  0.00000000000E+00 0. -1.
         25    2    1    2    0    0 -0.89752543231E+02  0.56112166454E+02 -0.94441774337E+03  0.95851744412E+03  0.12500688960E+03 0.  0.
          2    1    1    2  501    0  0.48577210112E+02  0.29252787508E+02 -0.23056587070E+03  0.23743650025E+03  0.00000000000E+00 0. -1.
          1    1    1    2  502    0  0.41175333119E+02 -0.85364953962E+02  0.16541273091E+02  0.96209132300E+02  0.00000000000E+00 0. -1.
         22    1    3    3    0    0 -0.10463427597E+02 -0.24885121367E+02 -0.48913297826E+02  0.55868267261E+02  0.00000000000E+00 0. -1.
         22    1    3    3    0    0 -0.79289115634E+02  0.80997287821E+02 -0.89550444554E+03  0.90264917686E+03  0.00000000000E+00 0. -1.
</event>
<event>
 7    1  0.5575489E-006  0.1674712E+03  0.7818608E-02  0.1283547E+00
          2   -1    0    0  502    0  0.00000000000E+00  0.00000000000E+00  0.17690141916E+04  0.17690141916E+04  0.00000000000E+00 0. -1.
          1   -1    0    0  501    0 -0.00000000000E+00 -0.00000000000E+00 -0.62485418482E+02  0.62485418482E+02  0.00000000000E+00 0. -1.
         25    2    1    2    0    0 -0.41775872905E+02 -0.15241641009E+03  0.83008311182E+03  0.85418888058E+03  0.12499874223E+03 0.  0.
          2    1    1    2  501    0  0.98198183823E+02  0.13942698755E+03  0.97949153603E+02  0.19666419312E+03  0.00000000000E+00 0. -1.
          1    1    1    2  502    0 -0.56422310918E+02  0.12989422539E+02  0.77849650768E+03  0.78064653637E+03  0.00000000000E+00 0. -1.
         22    1    3    3    0    0  0.15124598225E+02 -0.39493751502E+01  0.93884369902E+01  0.18234412101E+02  0.00000000000E+00 0.  1.
         22    1    3    3    0    0 -0.56900471130E+02 -0.14846703494E+03  0.82069467483E+03  0.83595446848E+03  0.00000000000E+00 0.  1.
</event>
<event>
 7    1  0.5575489E-006  0.1658860E+03  0.7818608E-02  0.1299932E+00
          2   -1    0    0  502    0  0.00000000000E+00  0.00000000000E+00  0.10923467335E+03  0.10923467335E+03  0.00000000000E+00 0. -1.
          1   -1    0    0  501    0 -0.00000000000E+00 -0.00000000000E+00 -0.40392655055E+04  0.40392655055E+04  0.00000000000E+00 0. -1.
         25    2    1    2    0    0  0.58457775411E+02 -0.17299927298E+03 -0.30351904688E+03  0.37563264710E+03  0.12502005357E+03 0.  0.
          2    1    1    2  501    0 -0.49044521681E+02  0.10509289616E+02 -0.36087951842E+04  0.36091437339E+04  0.00000000000E+00 0. -1.
          1    1    1    2  502    0 -0.94132537302E+01  0.16248998336E+03 -0.17716601089E+02  0.16372379788E+03  0.00000000000E+00 0. -1.
         22    1    3    3    0    0  0.13052238381E+02 -0.17485836943E+03 -0.25101818270E+03  0.30619591495E+03  0.00000000000E+00 0. -1.
         22    1    3    3    0    0  0.45405537031E+02  0.18590964526E+01 -0.52500864177E+02  0.69436732153E+02  0.00000000000E+00 0. -1.
</event>
<event>
 7    1  0.5575489E-006  0.4826541E+02  0.7818608E-02  0.1546812E+00
          2   -1    0    0  502    0  0.00000000000E+00  0.00000000000E+00  0.10754866895E+04  0.10754866895E+04  0.00000000000E+00 0. -1.
          1   -1    0    0  501    0 -0.00000000000E+00 -0.00000000000E+00 -0.12503697406E+04  0.12503697406E+04  0.00000000000E+00 0. -1.
         25    2    1    2    0    0  0.66350751913E+02 -0.25267943370E+02 -0.40732528990E+01  0.14381679020E+03  0.12500314601E+03 0.  0.
          2    1    1    2  501    0 -0.40679645633E+02  0.25694985389E+02 -0.11757687227E+04  0.11767528012E+04  0.00000000000E+00 0. -1.
          1    1    1    2  502    0 -0.25671106280E+02 -0.42704201915E+00  0.10049589245E+04  0.10052868387E+04  0.00000000000E+00 0. -1.
         22    1    3    3    0    0  0.20884096717E+02  0.48127957449E+02 -0.19767761379E+02  0.56064339592E+02  0.00000000000E+00 0.  1.
         22    1    3    3    0    0  0.45466655195E+02 -0.73395900819E+02  0.15694508480E+02  0.87752450610E+02  0.00000000000E+00 0.  1.
</event>
<event>
 7    1  0.5575489E-006  0.9018997E+02  0.7818608E-02  0.1347354E+00
          2   -1    0    0  502    0  0.00000000000E+00  0.00000000000E+00  0.21485257626E+04  0.21485257626E+04  0.00000000000E+00 0. -1.
          1   -1    0    0  501    0 -0.00000000000E+00 -0.00000000000E+00 -0.10248170850E+03  0.10248170850E+03  0.00000000000E+00 0. -1.
         25    2    1    2    0    0  0.12399480263E+03 -0.18693061059E+01  0.29380216202E+03  0.34253880294E+03  0.12503965661E+03 0.  0.
          2    1    1    2  501    0 -0.79396215402E+02 -0.39055799322E+02 -0.52385235398E+02  0.10282668607E+03  0.00000000000E+00 0. -1.
          1    1    1    2  502    0 -0.44598587231E+02  0.40925105428E+02  0.18046271275E+04  0.18056419821E+04  0.00000000000E+00 0. -1.
         22    1    3    3    0    0  0.70495789546E+02 -0.60538715564E+02  0.12273191300E+03  0.15394062132E+03  0.00000000000E+00 0.  1.
         22    1    3    3    0    0  0.53499013087E+02  0.58669409458E+02  0.17107024902E+03  0.18859818161E+03  0.00000000000E+00 0.  1.
</event>
<event>
 7    1  0.5575489E-006  0.1091065E+03  0.7818608E-02  0.1319227E+00
          2   -1    0    0  502    0  0.00000000000E+00  0.00000000000E+00  0.14527139455E+04  0.14527139455E+04  0.00000000000E+00 0. -1.
          1   -1    0    0  501    0 -0.00000000000E+00 -0.00000000000E+00 -0.33198448652E+03  0.33198448652E+03  0.00000000000E+00 0. -1.
         25    2    1    2    0    0  0.47240510742E+02  0.60738997065E+02  0.92844662585E+01  0.14707723346E+03  0.12499847866E+03 0.  0.
          2    1    1    2  501    0 -0.13660462916E+02 -0.11522622704E+03 -0.24950543663E+03  0.27516659418E+03  0.00000000000E+00 0. -1.
          1    1    1    2  502    0 -0.33580047826E+02  0.54487229976E+02  0.13609504294E+04  0.13624546044E+04  0.00000000000E+00 0. -1.
         22    1    3    3    0    0 -0.66931910546E+00 -0.34107543236E+02 -0.16258221345E+02  0.37790240208E+02  0.00000000000E+00 0.  1.
         22    1    3    3    0    0  0.47909829847E+02  0.94846540301E+02  0.25542687603E+02  0.10928699325E+03  0.00000000000E+00 0.  1.
</event>
<event>
 7    1  0.5575489E-006  0.7239803E+02  0.7818608E-02  0.1407853E+00
          2   -1    0    0  502    0  0.00000000000E+00  0.00000000000E+00  0.76562926375E+03  0.76562926375E+03  0.00000000000E+00 0. -1.
          1   -1    0    0  501    0 -0.00000000000E+00 -0.00000000000E+00 -0.13277412004E+04  0.13277412004E+04  0.00000000000E+00 0. -1.
         25    2    1    2    0    0  0.80019633007E+02 -0.31504622948E+02 -0.51870550828E+03  0.54044128334E+03  0.12500277389E+03 0.  0.
          2    1    1    2  501    0 -0.42582157665E+02  0.58142684649E+02 -0.79583879367E+03  0.79909523678E+03  0.00000000000E+00 0. -1.
          1    1    1    2  502    0 -0.37437475342E+02 -0.26638061701E+02  0.75243236529E+03  0.75383394406E+03  0.00000000000E+00 0. -1.
         22    1    3    3    0    0  0.46393728008E+02 -0.44526506210E+02 -0.92171856791E+02  0.11238611542E+03  0.00000000000E+00 0. -1.
         22    1    3    3    0    0  0.33625904999E+02  0.13021883262E+02 -0.42653365149E+03  0.42805516792E+03  0.00000000000E+00 0. -1.
</event>
<event>
 7    1  0.5575489E-006  0.1067622E+03  0.7818608E-02  0.1331604E+00
          2   -1    0    0  502    0  0.00000000000E+00  0.00000000000E+00  0.78428626964E+03  0.78428626964E+03  0.00000000000E+00 0. -1.
          1   -1    0    0  501    0 -0.00000000000E+00 -0.00000000000E+00 -0.21481635089E+03  0.21481635089E+03  0.00000000000E+00 0. -1.
         25    2    1    2    0    0 -0.10295602737E+03 -0.10093141841E+03  0.60291092021E+03  0.63238779397E+03  0.12500259783E+03 0.  0.
          2    1    1    2  501    0  0.44522901436E+02  0.96304337280E+02 -0.17995901007E+03  0.20890681999E+03  0.00000000000E+00 0. -1.
          1    1    1    2  502    0  0.58433125937E+02  0.46270811257E+01  0.14651800861E+03  0.15780800656E+03  0.00000000000E+00 0. -1.
         22    1    3    3    0    0  0.11336109850E+02 -0.19797135911E+02  0.27281459201E+03  0.27376675399E+03  0.00000000000E+00 0. -1.
         22    1    3    3    0    0 -0.11429213722E+03 -0.81134282494E+02  0.33009632820E+03  0.35862103998E+03  0.00000000000E+00 0. -1.
</event>
<event>
 7    1  0.5575489E-006  0.8305043E+02  0.7818608E-02  0.1348404E+00
          2   -1    0    0  502    0  0.00000000000E+00  0.00000000000E+00  0.21266890235E+03  0.21266890235E+03  0.00000000000E+00 0. -1.
          1   -1    0    0  501    0 -0.00000000000E+00 -0.00000000000E+00 -0.77242194677E+03  0.77242194677E+03  0.00000000000E+00 0. -1.
         25    2    1    2    0    0 -0.66759807965E+02 -0.24480159272E+02 -0.48522908542E+02  0.15179847056E+03  0.12502860814E+03 0.  0.
          2    1    1    2  501    0  0.31082310924E+02  0.78988146919E+02 -0.66285337310E+03  0.66826628796E+03  0.00000000000E+00 0. -1.
          1    1    1    2  502    0  0.35677497041E+02 -0.54507987647E+02  0.15162323721E+03  0.16502609059E+03  0.00000000000E+00 0. -1.
         22    1    3    3    0    0  0.10312568547E+02 -0.20231139095E+02 -0.68416686345E+02  0.72086691071E+02  0.00000000000E+00 0.  1.
         22    1    3    3    0    0 -0.77072376512E+02 -0.42490201765E+01  0.19893777803E+02  0.79711779487E+02  0.00000000000E+00 0.  1.
</event>
<event>
 7    1  0.5575489E-006  0.2210873E+03  0.7818608E-02  0.1273465E+00
          2   -1    0    0  502    0  0.00000000000E+00  0.00000000000E+00  0.21401417126E+04  0.21401417126E+04  0.00000000000E+00 0. -1.
          1   -1    0    0  501    0 -0.00000000000E+00 -0.00000000000E+00 -0.17448740367E+04  0.17448740367E+04  0.00000000000E+00 0. -1.
         25    2    1    2    0    0  0.88417060168E+02  0.15648754029E+03  0.18531145172E+03  0.28682981457E+03  0.12500032638E+03 0.  0.
          2    1    1    2  501    0  0.11572680132E+02  0.46876939381E+02 -0.16870254196E+04  0.16877162500E+04  0.00000000000E+00 0. -1.
          1    1    1    2  502    0 -0.99989740300E+02 -0.20336447967E+03  0.18969816437E+04  0.19104696848E+04  0.00000000000E+00 0. -1.
         22    1    3    3    0    0  0.34611786747E+02  0.92216736130E+02  0.18608817746E+02  0.10024066192E+03  0.00000000000E+00 0. -1.
         22    1    3    3    0    0  0.53805273421E+02  0.64270804161E+02  0.16670263397E+03  0.18658915265E+03  0.00000000000E+00 0. -1.
</event>
<event>
 7    1  0.5575489E-006  0.1556243E+03  0.7818608E-02  0.1303417E+00
          2   -1    0    0  502    0  0.00000000000E+00  0.00000000000E+00  0.15569162417E+04  0.15569162417E+04  0.00000000000E+00 0. -1.
          1   -1    0    0  501    0 -0.00000000000E+00 -0.00000000000E+00 -0.13739036140E+04  0.13739036140E+04  0.00000000000E+00 0. -1.
         25    2    1    2    0    0 -0.39422164622E+01  0.20309172859E+03 -0.10930284420E+02  0.23875679569E+03  0.12499418018E+03 0.  0.
          2    1    1    2  501    0  0.16319596907E+02 -0.15281345188E+03 -0.12438650708E+04  0.12533230209E+04  0.00000000000E+00 0. -1.
          1    1    1    2  502    0 -0.12377380445E+02 -0.50278276711E+02  0.14378079829E+04  0.14387400392E+04  0.00000000000E+00 0. -1.
         22    1    3    3    0    0 -0.48665999777E+02  0.52097371719E+02 -0.35049773838E+02  0.79441817202E+02  0.00000000000E+00 0.  1.
         22    1    3    3    0    0  0.44723783314E+02  0.15099435687E+03  0.24119489418E+02  0.15931497848E+03  0.00000000000E+00 0.  1.
</event>
<event>
 7    1  0.5575489E-006  0.4352759E+02  0.7818608E-02  0.1517522E+00
          2   -1    0    0  502    0  0.00000000000E+00  0.00000000000E+00  0.11012297671E+04  0.11012297671E+04  0.00000000000E+00 0. -1.
          1   -1    0    0  501    0 -0.00000000000E+00 -0.00000000000E+00 -0.63670764665E+03  0.63670764665E+03  0.00000000000E+00 0. -1.
         25    2    1    2    0    0  0.55179640771E+02  0.43919214075E+01  0.71460473994E+02  0.15423447539E+03  0.12497036580E+03 0.  0.
          2    1    1    2  501    0 -0.19104334634E+02 -0.28750111797E+02 -0.59434036521E+03  0.59534193053E+03  0.00000000000E+00 0. -1.
          1    1    1    2  502    0 -0.36075306137E+02  0.24358190389E+02  0.98740201166E+03  0.98836100783E+03  0.00000000000E+00 0. -1.
         22    1    3    3    0    0 -0.10064452968E+02 -0.33239605269E+02  0.70859998916E+02  0.78913268963E+02  0.00000000000E+00 0.  1.
         22    1    3    3    0    0  0.65244093739E+02  0.37631526677E+02  0.60047507736E+00  0.75321206430E+02  0.00000000000E+00 0.  1.
</event>
<event>
 7    1  0.5575489E-006  0.2853940E+02  0.7818608E-02  0.1661737E+00
          2   -1    0    0  502    0  0.00000000000E+00  0.00000000000E+00  0.12560456485E+04  0.12560456485E+04  0.00000000000E+00 0. -1.
          1   -1    0    0  501    0 -0.00000000000E+00 -0.00000000000E+00 -0.22027055827E+03  0.22027055827E+03  0.00000000000E+00 0. -1.
         25    2    1    2    0    0  0.48208362380E+02  0.89095902213E+01 -0.21029140915E+02  0.13590191148E+03  0.12499471099E+03 0.  0.
          2    1    1    2  501    0 -0.21746395844E+02  0.16665422272E+01 -0.14079590628E+03  0.14247515685E+03  0.00000000000E+00 0. -1.
          1    1    1    2  502    0 -0.26461966536E+02 -0.10576132448E+02  0.11976001374E+04  0.11979391384E+04  0.00000000000E+00 0. -1.
         22    1    3    3    0    0  0.54330727125E+02 -0.18705662142E+02  0.39065822063E+02  0.69482862344E+02  0.00000000000E+00 0. -1.
         22    1    3    3    0    0 -0.61223647455E+01  0.27615252363E+02 -0.60094962977E+02  0.66419049138E+02  0.00000000000E+00 0. -1.
</event>
<event>
 7    1  0.5575489E-006  0.6520621E+02  0.7818608E-02  0.1400324E+00
          2   -1    0    0  502    0  0.00000000000E+00  0.00000000000E+00  0.11024290960E+03  0.11024290960E+03  0.00000000000E+00 0. -1.
          1   -1    0    0  501    0 -0.00000000000E+00 -0.00000000000E+00 -0.17845043630E+04  0.17845043630E+04  0.00000000000E+00 0. -1.
         25    2    1    2    0    0  0.39795848637E+02 -0.72099264536E+02 -0.14890710900E+04  0.14965755144E+04  0.12499418290E+03 0.  0.
          2    1    1    2  501    0 -0.55552190857E+02  0.20314187668E+02 -0.28152483450E+03  0.28767159152E+03  0.00000000000E+00 0. -1.
          1    1    1    2  502    0  0.15756342220E+02  0.51785076868E+02  0.96334471110E+02  0.11050016665E+03  0.00000000000E+00 0. -1.
         22    1    3    3    0    0  0.81320352396E+02 -0.48005127337E+02 -0.74564864423E+03  0.75160454536E+03  0.00000000000E+00 0.  1.
         22    1    3    3    0    0 -0.41524503759E+02 -0.24094137200E+02 -0.74342244574E+03  0.74497096903E+03  0.00000000000E+00 0.  1.
</event>
<event>
 7    1  0.5575489E-006  0.1234741E+03  0.7818608E-02  0.1309530E+00
          2   -1    0    0  502    0  0.00000000000E+00  0.00000000000E+00  0.90935622315E+03  0.90935622315E+03  0.00000000000E+00 0. -1.
          1   -1    0    0  501    0 -0.00000000000E+00 -0.00000000000E+00 -0.71959739765E+03  0.71959739765E+03  0.00000000000E+00 0. -1.
         25    2    1    2    0    0  0.95258419932E+02 -0.32459632322E+02 -0.10864922993E+03  0.19379311341E+03  0.12499328518E+03 0.  0.
          2    1    1    2  501    0  0.27130931483E+02  0.55438387287E+02 -0.56220595314E+03  0.56558380102E+03  0.00000000000E+00 0. -1.
          1    1    1    2  502    0 -0.12238935141E+03 -0.22978754966E+02  0.86061400858E+03  0.86957670638E+03  0.00000000000E+00 0. -1.
         22    1    3    3    0    0 -0.28576808939E+01  0.38913246201E+02 -0.23212263595E+02  0.45400619503E+02  0.00000000000E+00 0. -1.
         22    1    3    3    0    0  0.98116100826E+02 -0.71372878523E+02 -0.85436966338E+02  0.14839249390E+03  0.00000000000E+00 0. -1.
</event>
<event>
 7    1  0.5575489E-006  0.5637270E+02  0.7818608E-02  0.1448639E+00
          2   -1    0    0  502    0  0.00000000000E+00  0.00000000000E+00  0.34975661959E+03  0.34975661959E+03  0.00000000000E+00 0. -1.
          1   -1    0    0  501    0 -0.00000000000E+00 -0.00000000000E+00 -0.31728947615E+03  0.31728947615E+03  0.00000000000E+00 0. -1.
         25    2    1    2    0    0 -0.53869290180E+02  0.72017587046E+02 -0.41643002504E+02  0.15952345700E+03  0.12500064163E+03 0.  0.
          2    1    1    2  501    0  0.39196790631E+02 -0.18348874603E+02 -0.21183702313E+03  0.21621284413E+03  0.00000000000E+00 0. -1.
          1    1    1    2  502    0  0.14672499549E+02 -0.53668712443E+02  0.28594716908E+03  0.29130979462E+03  0.00000000000E+00 0. -1.
         22    1    3    3    0    0  0.62612846319E+01  0.89859280803E+02 -0.14738698166E+02  0.91274987019E+02  0.00000000000E+00 0.  1.
         22    1    3    3    0    0 -0.60130574812E+02 -0.17841693757E+02 -0.26904304338E+02  0.68248469984E+02  0.00000000000E+00 0.  1.
</event>
<event>
 7    1  0.5575489E-006  0.2468038E+03  0.7818608E-02  0.1241445E+00
          2   -1    0    0  502    0  0.00000000000E+00  0.00000000000E+00  0.17462245792E+04  0.17462245792E+04  0.00000000000E+00 0. -1.
          1   -1    0    0  501    0 -0.00000000000E+00 -0.00000000000E+00 -0.33301776068E+03  0.33301776068E+03  0.00000000000E+00 0. -1.
         25    2    1    2    0    0  0.30560867596E+01 -0.28455725303E+03  0.44165927748E+02  0.31394029924E+03  0.12500284955E+03 0.  0.
          2    1    1    2  501    0 -0.28656686764E+02  0.23103564968E+03 -0.12895249898E+03  0.26613422199E+03  0.00000000000E+00 0. -1.
          1    1    1    2  502    0  0.25600600004E+02  0.53521603353E+02  0.14979933897E+04  0.14991678186E+04  0.00000000000E+00 0. -1.
         22    1    3    3    0    0 -0.40278000845E+02 -0.21498560010E+03  0.67173384422E+02  0.22880863003E+03  0.00000000000E+00 0. -1.
         22    1    3    3    0    0  0.43334087605E+02 -0.69571652930E+02 -0.23007456674E+02  0.85131669210E+02  0.00000000000E+00 0. -1.
</event>
<event>
 7    1  0.5575489E-006  0.3164219E+02  0.7818608E-02  0.1636476E+00
          2   -1    0    0  502    0  0.00000000000E+00  0.00000000000E+00  0.37528776272E+03  0.37528776272E+03  0.00000000000E+00 0. -1.
          1   -1    0    0  501    0 -0.00000000000E+00 -0.00000000000E+00 -0.11351144992E+03  0.11351144992E+03  0.00000000000E+00 0. -1.
         25    2    1    2    0    0 -0.13614101291E+02 -0.29452705448E+02  0.19545481248E+03  0.23426629125E+03  0.12500122353E+03 0.  0.
          2    1    1    2  501    0 -0.90566757341E+01  0.30412881352E+02 -0.90591119873E+02  0.95988112428E+02  0.00000000000E+00 0. -1.
          1    1    1    2  502    0  0.22670777025E+02 -0.96017590404E+00  0.15691262020E+03  0.15854480895E+03  0.00000000000E+00 0. -1.
         22    1    3    3    0    0  0.44070210209E+02  0.20083203632E+02  0.47075114631E+02  0.67539506317E+02  0.00000000000E+00 0. -1.
         22    1    3    3    0    0 -0.57684311500E+02 -0.49535909080E+02  0.14837969785E+03  0.16672678493E+03  0.00000000000E+00 0. -1.
</event>
<event>
 7    1  0.5575489E-006  0.3492925E+02  0.7818608E-02  0.1552246E+00
          2   -1    0    0  502    0  0.00000000000E+00  0.00000000000E+00  0.56251345155E+03  0.56251345155E+03  0.00000000000E+00 0. -1.
          1   -1    0    0  501    0 -0.00000000000E+00 -0.00000000000E+00 -0.14216191190E+03  0.14216191190E+03  0.00000000000E+00 0. -1.
         25    2    1    2    0    0 -0.12069974911E+02 -0.48539115383E+02 -0.89320869504E+02  0.16157015736E+03  0.12499987202E+03 0.  0.
          2    1    1    2  501    0  0.29113434297E+02  0.18059123695E+02  0.20904518368E+01  0.34323373874E+02  0.00000000000E+00 0. -1.
          1    1    1    2  502    0 -0.17043459386E+02  0.30479991688E+02  0.50758195732E+03  0.50878183222E+03  0.00000000000E+00 0. -1.
         22    1    3    3    0    0  0.11485780868E+02 -0.82725691106E+02 -0.86063122599E+02  0.11992632823E+03  0.00000000000E+00 0.  1.
         22    1    3    3    0    0 -0.23555755779E+02  0.34186575723E+02 -0.32577469051E+01  0.41643829133E+02  0.00000000000E+00 0.  1.
</event>
<event>
 7    1  0.5575489E-006  0.2034658E+03  0.7818608E-02  0.1283651E+00
          2   -1    0    0  502    0  0.00000000000E+00  0.00000000000E+00  0.21128915512E+03  0.21128915512E+03  0.00000000000E+00 0. -1.
          1   -1    0    0  501    0 -0.00000000000E+00 -0.00000000000E+00 -0.13189444618E+04  0.13189444618E+04  0.00000000000E+00 0. -1.
         25    2    1    2    0    0  0.18313574636E+02  0.24013820355E+03 -0.21614438182E+03  0.34690531263E+03  0.12499263307E+03 0.  0.
          2    1    1    2  501    0  0.40928761790E+01 -0.19813159536E+03 -0.10237633539E+04  0.10427676086E+04  0.00000000000E+00 0. -1.
          1    1    1    2  502    0 -0.22406450815E+02 -0.42006608194E+02  0.13225242907E+03  0.14056069567E+03  0.00000000000E+00 0. -1.
         22    1    3    3    0    0  0.37868466008E+01  0.23345288561E+03 -0.22850468599E+03  0.32669401820E+03  0.00000000000E+00 0.  1.
         22    1    3    3    0    0  0.14526728035E+02  0.66853179428E+01  0.12360304176E+02  0.20211294435E+02  0.00000000000E+00 0.  1.
</event>
<event>
 7    1  0.5575489E-006  0.2197060E+03  0.7818608E-02  0.1306737E+00
          2   -1    0    0  502    0  0.00000000000E+00  0.00000000000E+00  0.24104350735E+04  0.24104350735E+04  0.00000000000E+00 0. -1.
          1   -1    0    0  501    0 -0.00000000000E+00 -0.00000000000E+00 -0.75714555670E+03  0.75714555670E+03  0.00000000000E+00 0. -1.
         25    2    1    2    0    0  0.12871657609E+03 -0.19748117653E+03  0.98298326499E+01  0.26699878817E+03  0.12499982092E+03 0.  0.
          2    1    1    2  501    0  0.15157319636E+02  0.32190106390E+02 -0.62276818363E+03  0.62378374284E+03  0.00000000000E+00 0. -1.
          1    1    1    2  502    0 -0.14387389572E+03  0.16529107014E+03  0.22662278678E+04  0.22767980992E+04  0.00000000000E+00 0. -1.
         22    1    3    3    0    0  0.79078186610E+02 -0.18207375412E+03  0.45889445501E+02  0.20374015987E+03  0.00000000000E+00 0. -1.
         22    1    3    3    0    0  0.49638389476E+02 -0.15407422415E+02 -0.36059612851E+02  0.63258628299E+02  0.00000000000E+00 0. -1.
</event>
<event>
 7    1  0.5575489E-006  0.1414981E+03  0.7818608E-02  0.1258954E+00
          2   -1    0    0  502    0  0.00000000000E+00  0.00000000000E+00  0.43065209376E+03  0.43065209376E+03  0.00000000000E+00 0. -1.
          1   -1    0    0  501    0 -0.00000000000E+00 -0.00000000000E+00 -0.30450691816E+03  0.30450691816E+03  0.00000000000E+00 0. -1.
         25    2    1    2    0    0 -0.17063048435E+03 -0.13521379086E+01 -0.90360545266E+02  0.23001455789E+03  0.12500031294E+03 0.  0.
          2    1    1    2  501    0  0.11695869723E+03 -0.66970345838E+02 -0.10579491678E+03  0.17133863690E+03  0.00000000000E+00 0. -1.
          1    1    1    2  502    0  0.53671787117E+02  0.68322483747E+02  0.32230063765E+03  0.33380581713E+03  0.00000000000E+00 0. -1.
         22    1    3    3    0    0 -0.76108434588E+02  0.34322070154E+02 -0.97945141721E+02  0.12870022961E+03  0.00000000000E+00 0. -1.
         22    1    3    3    0    0 -0.94522049762E+02 -0.35674208063E+02  0.75845964548E+01  0.10131432828E+03  0.00000000000E+00 0. -1.
</event>
<event>
 7    1  0.5575489E-006  0.5966292E+02  0.7818608E-02  0.1455501E+00
          2   -1    0    0  502    0  0.00000000000E+00  0.00000000000E+00  0.57130902542E+03  0.57130902542E+03  0.00000000000E+00 0. -1.
          1   -1    0    0  501    0 -0.00000000000E+00 -0.00000000000E+00 -0.10835323708E+04  0.10835323708E+04  0.00000000000E+00 0. -1.
         25    2    1    2    0    0  0.93496191847E+02 -0.22732860042E+02 -0.37137432157E+03  0.40348761512E+03  0.12500019207E+03 0.  0.
          2    1    1    2  501    0 -0.38871545957E+02 -0.90046209885E+00 -0.69396069017E+03  0.69504909712E+03  0.00000000000E+00 0. -1.
          1    1    1    2  502    0 -0.54624645889E+02  0.23633322141E+02  0.55311166640E+03  0.55630468393E+03  0.00000000000E+00 0. -1.
         22    1    3    3    0    0  0.89838416967E+01 -0.61559478211E+02 -0.18530547033E+03  0.19546968078E+03  0.00000000000E+00 0. -1.
         22    1    3    3    0    0  0.84512350150E+02  0.38826618169E+02 -0.18606885124E+03  0.20801793434E+03  0.00000000000E+00 0. -1.
</event>
<event>
 7    1  0.5575489E-006  0.1001079E+03  0.7818608E-02  0.1295197E+00
          2   -1    0    0  502    0  0.00000000000E+00  0.00000000000E+00  0.59181197804E+03  0.59181197804E+03  0.00000000000E+00 0. -1.
          1   -1    0    0  501    0 -0.00000000000E+00 -0.00000000000E+00 -0.18076795272E+04  0.18076795272E+04  0.00000000000E+00 0. -1.
         25    2    1    2    0    0  0.11292062863E+02  0.93163426617E+02 -0.49308818693E+02  0.16389869850E+03  0.12499795609E+03 0.  0.
          2    1    1    2  501    0  0.72559085048E+02 -0.70585355987E+02 -0.16960297548E+04  0.16990479812E+04  0.00000000000E+00 0. -1.
          1    1    1    2  502    0 -0.83851147911E+02 -0.22578070630E+02  0.52947102429E+03  0.53654482556E+03  0.00000000000E+00 0. -1.
         22    1    3    3    0    0  0.64827062989E+02  0.42301643927E+02 -0.45336085372E+01  0.77540510581E+02  0.00000000000E+00 0.  1.
         22    1    3    3    0    0 -0.53535000127E+02  0.50861782689E+02 -0.44775210156E+02  0.86358187923E+02  0.00000000000E+00 0.  1.
</event>
<event>
 7    1  0.5575489E-006  0.1936435E+03  0.7818608E-02  0.1256116E+00
          2   -1    0    0  502    0  0.00000000000E+00  0.00000000000E+00  0.35450212617E+04  0.35450212617E+04  0.00000000000E+00 0. -1.
          1   -1    0    0  501    0 -0.00000000000E+00 -0.00000000000E+00 -0.22101721966E+03  0.22101721966E+03  0.00000000000E+00 0. -1.
         25    2    1    2    0    0 -0.31453550036E+02 -0.17463082100E+03  0.34753745197E+03  0.40974512690E+03  0.12499415604E+03 0.  0.
          2    1    1    2  501    0 -0.30701717686E+02  0.19461702254E+03 -0.13837896423E+03  0.24076361576E+03  0.00000000000E+00 0. -1.
          1    1    1    2  502    0  0.62155267722E+02 -0.19986201545E+02  0.31148455543E+04  0.31155297387E+04  0.00000000000E+00 0. -1.
         22    1    3    3    0    0 -0.39284919408E+02 -0.76827959378E+01  0.12619014271E+03  0.13238686628E+03  0.00000000000E+00 0. -1.
         22    1    3    3    0    0  0.78313693719E+01 -0.16694802506E+03  0.22134730926E+03  0.27735826062E+03  0.00000000000E+00 0. -1.
</event>
<event>
 7    1  0.5575489E-006  0.7335284E+02  0.7818608E-02  0.1380902E+00
          2   -1    0    0  502    0  0.00000000000E+00  0.00000000000E+00  0.87539695267E+03  0.87539695267E+03  0.00000000000E+00 0. -1.
          1   -1    0    0  501    0 -0.00000000000E+00 -0.00000000000E+00 -0.10318534855E+03  0.10318534855E+03  0.00000000000E+00 0. -1.
         25    2    1    2    0    0  0.98574292060E+02 -0.29959405894E+02  0.42737296204E+03  0.45704230088E+03  0.12500223620E+03 0.  0.
          2    1    1    2  501    0 -0.70392887772E+02 -0.18707026522E+02 -0.71118426639E+02  0.10179853682E+03  0.00000000000E+00 0. -1.
          1    1    1    2  502    0 -0.28181404288E+02  0.48666432416E+02  0.41595706872E+03  0.41974146353E+03  0.00000000000E+00 0. -1.
         22    1    3    3    0    0  0.64933129362E+02 -0.62325435074E+02  0.38007485366E+03  0.39058630997E+03  0.00000000000E+00 0.  1.
         22    1    3    3    0    0  0.33641162698E+02  0.32366029180E+02  0.47298108379E+02  0.66455990917E+02  0.00000000000E+00 0.  1.
</event>
<event>
 7    1  0.5575489E-006  0.5616986E+02  0.7818608E-02  0.1548133E+00
          2   -1    0    0  502    0  0.00000000000E+00  0.00000000000E+00  0.33701543608E+03  0.33701543608E+03  0.00000000000E+00 0. -1.
          1   -1    0    0  501    0 -0.00000000000E+00 -0.00000000000E+00 -0.28466018864E+03  0.28466018864E+03  0.00000000000E+00 0. -1.
         25    2    1    2    0    0  0.39351087264E+01  0.77066918874E+02  0.36557618910E+02  0.15138187833E+03  0.12500087408E+03 0.  0.
          2    1    1    2  501    0 -0.86956092226E+00 -0.55408152942E+02 -0.22336320977E+03  0.23013461936E+03  0.00000000000E+00 0. -1.
          1    1    1    2  502    0 -0.30655478042E+01 -0.21658765932E+02  0.23916083830E+03  0.24015912704E+03  0.00000000000E+00 0. -1.
         22    1    3    3    0    0  0.56244389732E+02  0.60419646532E+02  0.47743582458E+02  0.95359397698E+02  0.00000000000E+00 0. -1.
         22    1    3    3    0    0 -0.52309281006E+02  0.16647272342E+02 -0.11185963549E+02  0.56022480633E+02  0.00000000000E+00 0. -1.
</event>
<event>
 7    1  0.5575489E-006  0.3984896E+02  0.7818608E-02  0.1550687E+00
          2   -1    0    0  502    0  0.00000000000E+00  0.00000000000E+00  0.68735679393E+02  0.68735679393E+02  0.00000000000E+00 0. -1.
          1   -1    0    0  501    0 -0.00000000000E+00 -0.00000000000E+00 -0.89347220171E+03  0.89347220171E+03  0.00000000000E+00 0. -1.
         25    2    1    2    0    0 -0.58006558135E+01 -0.84053280384E+01 -0.36027163767E+03  0.38147579209E+03  0.12499531946E+03 0.  0.
          2    1    1    2  501    0 -0.12395609174E+02 -0.27683263213E+02 -0.51507327239E+03  0.51596559005E+03  0.00000000000E+00 0. -1.
          1    1    1    2  502    0  0.18196264987E+02  0.36088591251E+02  0.50608387746E+02  0.64766498965E+02  0.00000000000E+00 0. -1.
         22    1    3    3    0    0  0.53397952704E+02  0.90271947216E+00 -0.90105200711E+02  0.10474303533E+03  0.00000000000E+00 0.  1.
         22    1    3    3    0    0 -0.59198608517E+02 -0.93080475105E+01 -0.27016643696E+03  0.27673275675E+03  0.00000000000E+00 0.  1.
</event>
<event>
 7    1  0.5575489E-006  0.7962778E+02  0.7818608E-02  0.1467465E+00
          2   -1    0    0  502    0  0.00000000000E+00  0.00000000000E+00  0.16827343518E+03  0.16827343518E+03  0.00000000000E+00 0. -1.
          1   -1    0    0  501    0 -0.00000000000E+00 -0.00000000000E+00 -0.42238660061E+03  0.42238660061E+03  0.00000000000E+00 0. -1.
         25    2    1    2    0    0 -0.78423230885E+02  0.66334288318E+02 -0.11330044350E+03  0.19751582293E+03  0.12500027544E+03 0.  0.
          2    1    1    2  501    0  0.61564196997E+02 -0.45613200954E+02 -0.25997169343E+03  0.27102766619E+03  0.00000000000E+00 0. -1.
          1    1    1    2  502    0  0.16859033888E+02 -0.20721087364E+02  0.11915897149E+03  0.12211654668E+03  0.00000000000E+00 0. -1.
         22    1    3    3    0    0 -0.19312478915E+02  0.49515933549E+02 -0.12420528769E+03  0.13509904888E+03  0.00000000000E+00 0. -1.
         22    1    3    3    0    0 -0.59110751970E+02  0.16818354769E+02  0.10904844195E+02  0.62416774047E+02  0.00000000000E+00 0. -1.
</event>
<event>
 7    1  0.5575489E-006  0.8446335E+02  0.7818608E-02  0.1383122E+00
          2   -1    0    0  502    0  0.00000000000E+00  0.00000000000E+00  0.28924630665E+04  0.28924630665E+04  0.00000000000E+00 0. -1.
          1   -1    0    0  501    0 -0.00000000000E+00 -0.00000000000E+00 -0.25305254451E+02  0.25305254451E+02  0.00000000000E+00 0. -1.
         25    2    1    2    0    0 -0.90341595769E+02  0.54645611547E+02  0.41220351504E+03  0.44349170845E+03  0.12500164344E+03 0.  0.
          2    1    1    2  501    0  0.66892107686E+01 -0.47496965179E+02  0.55504459227E+02  0.73358382180E+02  0.00000000000E+00 0. -1.
          1    1    1    2  502    0  0.83652385001E+02 -0.71486463677E+01  0.23994498378E+04  0.24009182304E+04  0.00000000000E+00 0. -1.
         22    1    3    3    0    0 -0.10457273349E+03  0.28929031541E+02  0.39457024500E+03  0.40921635316E+03  0.00000000000E+00 0.  1.
         22    1    3    3    0    0  0.14231137717E+02  0.25716580006E+02  0.17633270044E+02  0.34275355291E+02  0.00000000000E+00 0.  1.
</event>
<event>
 7    1  0.5575489E-006  0.4145287E+02  0.7818608E-02  0.1512816E+00
          2   -1    0    0  502    0  0.00000000000E+00  0.00000000000E+00  0.81227989088E+03  0.81227989088E+03  0.00000000000E+00 0. -1.
          1   -1    0    0  501    0 -0.00000000000E+00 -0.00000000000E+00 -0.31630980324E+02  0.31630980324E+02  0.00000000000E+00 0. -1.
         25    2    1    2    0    0  0.16412207875E+02  0.26307658127E+01  0.61987134335E+03  0.63256787342E+03  0.12500140276E+03 0.  0.
          2    1    1    2  501    0 -0.26144297154E+02  0.33494129446E+02 -0.37126826303E+01  0.42651670463E+02  0.00000000000E+00 0. -1.
          1    1    1    2  502    0  0.97320892789E+01 -0.36124895258E+02  0.16449024984E+03  0.16869132732E+03  0.00000000000E+00 0. -1.
         22    1    3    3    0    0  0.52635378481E+02 -0.15346388001E+02  0.54252313114E+03  0.54528647747E+03  0.00000000000E+00 0.  1.
         22    1    3    3    0    0 -0.36223170606E+02  0.17977153813E+02  0.77348212211E+02  0.87281395957E+02  0.00000000000E+00 0.  1.
</event>
<event>
 7    1  0.5575489E-006  0.7188947E+02  0.7818608E-02  0.1363649E+00
          2   -1    0    0  502    0  0.00000000000E+00  0.00000000000E+00  0.26831442419E+03  0.26831442419E+03  0.00000000000E+00 0. -1.
          1   -1    0    0  501    0 -0.00000000000E+00 -0.00000000000E+00 -0.19669945128E+03  0.19669945128E+03  0.00000000000E+00 0. -1.
         25    2    1    2    0    0 -0.11490342057E+03  0.24898490209E+02  0.68017675286E+02  0.18459450696E+03  0.12500398783E+03 0.  0.
          2    1    1    2  501    0  0.52175962682E+02 -0.45928929154E+02 -0.12088670902E+03  0.13944674264E+03  0.00000000000E+00 0. -1.
          1    1    1    2  502    0  0.62727457892E+02  0.21030438945E+02  0.12448400664E+03  0.14097262587E+03  0.00000000000E+00 0. -1.
         22    1    3    3    0    0 -0.73100385922E+02  0.75850219776E+02  0.36003841393E+02  0.11132474503E+03  0.00000000000E+00 0.  1.
         22    1    3    3    0    0 -0.41803034653E+02 -0.50951729567E+02  0.32013833893E+02  0.73269761925E+02  0.00000000000E+00 0.  1.
</event>
<event>
 7    1  0.5575489E-006  0.8452793E+02  0.7818608E-02  0.1473854E+00
          2   -1    0    0  502    0  0.00000000000E+00  0.00000000000E+00  0.31730642315E+04  0.31730642315E+04  0.00000000000E+00 0. -1.
          1   -1    0    0  501    0 -0.00000000000E+00 -0.00000000000E+00 -0.40816599660E+02  0.40816599660E+02  0.00000000000E+00 0. -1.
         25    2    1    2    0    0 -0.10716170501E+03 -0.14336015133E+02  0.24650773862E+04  0.24706112063E+04  0.12499624162E+03 0.  0.
          2    1    1    2  501    0  0.83394685825E+02  0.10724164638E+02  0.88894392884E+01  0.84550005688E+02  0.00000000000E+00 0. -1.
          1    1    1    2  502    0  0.23767019183E+02  0.36118504948E+01  0.65828080628E+03  0.65871961910E+03  0.00000000000E+00 0. -1.
         22    1    3    3    0    0 -0.85011528139E+02 -0.14682379573E+02  0.68695820362E+03  0.69235403205E+03  0.00000000000E+00 0.  1.
         22    1    3    3    0    0 -0.22150176869E+02  0.34636443994E+00  0.17781191826E+04  0.17782571743E+04  0.00000000000E+00 0.  1.
</event>
<event>
 7    1  0.5575489E-006  0.1346983E+03  0.7818608E-02  0.1227812E+00
          2   -1    0    0  502    0  0.00000000000E+00  0.00000000000E+00  0.23731631179E+03  0.23731631179E+03  0.00000000000E+00 0. -1.
          1   -1    0    0  501    0 -0.00000000000E+00 -0.00000000000E+00 -0.80500722432E+03  0.80500722432E+03  0.00000000000E+00 0. -1.
         25    2    1    2    0    0  0.18869509848E+02  0.12476885190E+02 -0.42012325967E+03  0.43891381210E+03  0.12502019864E+03 0.  0.
          2    1    1    2  501    0  0.17189386933E+02  0.12381498658E+03 -0.34149395214E+03  0.36365333118E+03  0.00000000000E+00 0. -1.
          1    1    1    2  502    0 -0.36058896780E+02 -0.13629187177E+03  0.19392629929E+03  0.23975639283E+03  0.00000000000E+00 0. -1.
         22    1    3    3    0    0  0.15494524977E+00 -0.41726901545E+02 -0.32627914365E+03  0.32893652564E+03  0.00000000000E+00 0. -1.
         22    1    3    3    0    0  0.18714564598E+02  0.54203786735E+02 -0.93844116024E+02  0.10997728646E+03  0.00000000000E+00 0. -1.
</event>
<event>
 7    1  0.5575489E-006  0.7948181E+02  0.7818608E-02  0.1435903E+00
          2   -1    0    0  502    0  0.00000000000E+00  0.00000000000E+00  0.13283023215E+04  0.13283023215E+04  0.00000000000E+00 0. -1.
          1   -1    0    0  501    0 -0.00000000000E+00 -0.00000000000E+00 -0.29236708103E+03  0.29236708103E+03  0.00000000000E+00 0. -1.
         25    2    1    2    0    0  0.10206651835E+03  0.37656997769E+02  0.38028810944E+02  0.17001849435E+03  0.12499789722E+03 0.  0.
          2    1    1    2  501    0 -0.68323975019E+02 -0.36933094070E+02 -0.21946963657E+03  0.23280708833E+03  0.00000000000E+00 0. -1.
          1    1    1    2  502    0 -0.33742543333E+02 -0.72390369927E+00  0.12173760661E+04  0.12178438199E+04  0.00000000000E+00 0. -1.
         22    1    3    3    0    0  0.20168983150E+02  0.45020208858E+02  0.66677594209E+02  0.82942803524E+02  0.00000000000E+00 0. -1.
         22    1    3    3    0    0  0.81897535202E+02 -0.73632110886E+01 -0.28648783265E+02  0.87075690823E+02  0.00000000000E+00 0. -1.
</event>
<event>
 7    1  0.5575489E-006  0.8699915E+02  0.7818608E-02  0.1367728E+00
          2   -1    0    0  502    0  0.00000000000E+00  0.00000000000E+00  0.19001233691E+03  0.19001233691E+03  0.00000000000E+00 0. -1.
          1   -1    0    0  501    0 -0.00000000000E+00 -0.00000000000E+00 -0.11563422511E+04  0.11563422511E+04  0.00000000000E+00 0. -1.
         25    2    1    2    0    0 -0.28654882250E+01 -0.92707327050E+02 -0.66980213602E+03  0.68765062230E+03  0.12500246967E+03 0.  0.
          2    1    1    2  501    0  0.51796152868E+02  0.72754716278E+02 -0.46945947314E+03  0.47787894608E+03  0.00000000000E+00 0. -1.
          1    1    1    2  502    0 -0.48930664643E+02  0.19952610772E+02  0.17293169493E+03  0.18082501965E+03  0.00000000000E+00 0. -1.
         22    1    3    3    0    0 -0.17268585889E+02 -0.10530431061E+03 -0.65452131246E+03  0.66316314008E+03  0.00000000000E+00 0.  1.
         22    1    3    3    0    0  0.14403097664E+02  0.12596983555E+02 -0.15280823553E+02  0.24487482219E+02  0.00000000000E+00 0.  1.
</event>
<event>
 7    1  0.5575489E-006  0.1600740E+03  0.7818608E-02  0.1383213E+00
          2   -1    0    0  502    0  0.00000000000E+00  0.00000000000E+00  0.63796221891E+03  0.63796221891E+03  0.00000000000E+00 0. -1.
          1   -1    0    0  501    0 -0.00000000000E+00 -0.00000000000E+00 -0.52069093384E+03  0.52069093384E+03  0.00000000000E+00 0. -1.
         25    2    1    2    0    0  0.11393736836E+03 -0.12996778731E+03  0.46550125185E+02  0.21832492499E+03  0.12500203625E+03 0.  0.
          2    1    1    2  501    0  0.45752278003E+01  0.24873333425E+02 -0.42200772278E+03  0.42276486788E+03  0.00000000000E+00 0. -1.
          1    1    1    2  502    0 -0.11851259616E+03  0.10509445389E+03  0.49272888267E+03  0.51756335989E+03  0.00000000000E+00 0. -1.
         22    1    3    3    0    0  0.75020501282E+02 -0.14574537377E+03  0.12743971968E+02  0.16441471470E+03  0.00000000000E+00 0. -1.
         22    1    3    3    0    0  0.38916867082E+02  0.15777586458E+02  0.33806153217E+02  0.53910210287E+02  0.00000000000E+00 0. -1.
</event>
<event>
 7    1  0.5575489E-006  0.1597327E+03  0.7818608E-02  0.1351782E+00
          2   -1    0    0  502    0  0.00000000000E+00  0.00000000000E+00  0.15706393386E+04  0.15706393386E+04  0.00000000000E+00 0. -1.
          1   -1    0    0  501    0 -0.00000000000E+00 -0.00000000000E+00 -0.26798615757E+04  0.26798615757E+04  0.00000000000E+00 0. -1.
         25    2    1    2    0    0  0.30012299277E+02  0.12376261935E+03 -0.62840895077E+03  0.65325348250E+03  0.12499751573E+03 0.  0.
          2    1    1    2  501    0  0.26879517219E+01  0.32799354925E+02 -0.20347927511E+04  0.20350588597E+04  0.00000000000E+00 0. -1.
          1    1    1    2  502    0 -0.32700250999E+02 -0.15656197428E+03  0.15539794647E+04  0.15621885721E+04  0.00000000000E+00 0. -1.
         22    1    3    3    0    0  0.24068597060E+02  0.14631081346E+02 -0.38967051343E+03  0.39068718298E+03  0.00000000000E+00 0.  1.
         22    1    3    3    0    0  0.59437022167E+01  0.10913153800E+03 -0.23873843734E+03  0.26256629953E+03  0.00000000000E+00 0.  1.
</event>
<event>
 7    1  0.5575489E-006  0.1101097E+03  0.7818608E-02  0.1340775E+00
          2   -1    0    0  502    0  0.00000000000E+00  0.00000000000E+00  0.54217293729E+03  0.54217293729E+03  0.00000000000E+00 0. -1.
          1   -1    0    0  501    0 -0.00000000000E+00 -0.00000000000E+00 -0.10599182088E+04  0.10599182088E+04  0.00000000000E+00 0. -1.
         25    2    1    2    0    0  0.12450263847E+03 -0.62686887001E+02  0.12170975831E+03  0.22331424504E+03  0.12500173592E+03 0.  0.
          2    1    1    2  501    0 -0.50522971937E+02 -0.14157914103E+02 -0.10007193777E+04  0.10020939527E+04  0.00000000000E+00 0. -1.
          1    1    1    2  502    0 -0.73979666529E+02  0.76844801104E+02  0.36126434787E+03  0.37668294832E+03  0.00000000000E+00 0. -1.
         22    1    3    3    0    0 -0.10211418628E+02  0.16698236407E+02 -0.70029486730E+01  0.20788108611E+02  0.00000000000E+00 0. -1.
         22    1    3    3    0    0  0.13471405709E+03 -0.79385123408E+02  0.12871270699E+03  0.20252613643E+03  0.00000000000E+00 0. -1.
</event>
<event>
 7    1  0.5575489E-006  0.1925596E+03  0.7818608E-02  0.1193575E+00
          2   -1    0    0  502    0  0.00000000000E+00  0.00000000000E+00  0.20749000232E+04  0.20749000232E+04  0.00000000000E+00 0. -1.
          1   -1    0    0  501    0 -0.00000000000E+00 -0.00000000000E+00 -0.17484926296E+04  0.17484926296E+04  0.00000000000E+00 0. -1.
         25    2    1    2    0    0  0.97603420166E+02 -0.65574385443E+02 -0.53676779812E+03  0.56353445807E+03  0.12499995475E+03 0.  0.
          2    1    1    2  501    0  0.95029624468E+02  0.82712154087E+02 -0.11904747073E+04  0.11971223657E+04  0.00000000000E+00 0. -1.
          1    1    1    2  502    0 -0.19263304463E+03 -0.17137768644E+02  0.20536498989E+04  0.20627358290E+04  0.00000000000E+00 0. -1.
         22    1    3    3    0    0  0.11622206762E+03 -0.78799026223E+02 -0.38002765513E+03  0.40513932690E+03  0.00000000000E+00 0.  1.
         22    1    3    3    0    0 -0.18618647454E+02  0.13224640780E+02 -0.15674014298E+03  0.15839513117E+03  0.00000000000E+00 0.  1.
</event>
<event>
 7    1  0.5575489E-006  0.4433092E+02  0.7818608E-02  0.1486501E+00
          2   -1    0    0  502    0  0.00000000000E+00  0.00000000000E+00  0.13925733209E+04  0.13925733209E+04  0.00000000000E+00 0. -1.
          1   -1    0    0  501    0 -0.00000000000E+00 -0.00000000000E+00 -0.34554705608E+03  0.34554705608E+03  0.00000000000E+00 0. -1.
         25    2    1    2    0    0 -0.46734419253E+02 -0.30598276968E+02 -0.60511434202E+02  0.14969003880E+03  0.12500045420E+03 0.  0.
          2    1    1    2  501    0  0.39786478239E+02 -0.13208446827E+02 -0.23825092767E+03  0.24191099903E+03  0.00000000000E+00 0. -1.
          1    1    1    2  502    0  0.69479410133E+01  0.43806723795E+02  0.13457886267E+04  0.13465193392E+04  0.00000000000E+00 0. -1.
         22    1    3    3    0    0  0.20768947712E+02  0.31360925748E+02 -0.41686982180E+02  0.56148564863E+02  0.00000000000E+00 0.  1.
         22    1    3    3    0    0 -0.67503366965E+02 -0.61959202717E+02 -0.18824452022E+02  0.93541473940E+02  0.00000000000E+00 0.  1.
</event>
<event>
 7    1  0.5575489E-006  0.1173580E+03  0.7818608E-02  0.1334348E+00
          2   -1    0    0  502    0  0.00000000000E+00  0.00000000000E+00  0.69442868962E+03  0.69442868962E+03  0.00000000000E+00 0. -1.
          1   -1    0    0  501    0 -0.00000000000E+00 -0.00000000000E+00 -0.33883227243E+03  0.33883227243E+03  0.00000000000E+00 0. -1.
         25    2    1    2    0    0  0.37056478522E+02  0.85981071467E+02  0.16099473338E+03  0.22429928623E+03  0.12499975351E+03 0.  0.
          2    1    1    2  501    0  0.52044393273E+02  0.11883077823E+01 -0.29714092319E+03  0.30166663585E+03  0.00000000000E+00 0. -1.
          1    1    1    2  502    0 -0.89100871795E+02 -0.87169379249E+02  0.49174260701E+03  0.50729503997E+03  0.00000000000E+00 0. -1.
         22    1    3    3    0    0 -0.20116860722E+02  0.77486027279E+02  0.38455939395E+02  0.88812340266E+02  0.00000000000E+00 0. -1.
         22    1    3    3    0    0  0.57173339244E+02  0.84950441884E+01  0.12253879398E+03  0.13548694596E+03  0.00000000000E+00 0. -1.
</event>
<event>
 7    1  0.5575489E-006  0.1142099E+03  0.7818608E-02  0.1286908E+00
          2   -1    0    0  502    0  0.00000000000E+00  0.00000000000E+00  0.23030202062E+04  0.23030202062E+04  0.00000000000E+00 0. -1.
          1   -1    0    0  501    0 -0.00000000000E+00 -0.00000000000E+00 -0.17115824798E+03  0.17115824798E+03  0.00000000000E+00 0. -1.
         25    2    1    2    0    0  0.27621909314E+02  0.54553130811E+02  0.88532951808E+03  0.89619673115E+03  0.12498484461E+03 0.  0.
          2    1    1    2  501    0 -0.10860296621E+03 -0.40167538036E+02 -0.14413381486E+03  0.18488534817E+03  0.00000000000E+00 0. -1.
          1    1    1    2  502    0  0.80981056896E+02 -0.14385592775E+02  0.13906662550E+04  0.13930963748E+04  0.00000000000E+00 0. -1.
         22    1    3    3    0    0  0.40176981439E+02 -0.28965387025E+02  0.45262921454E+03  0.45533107662E+03  0.00000000000E+00 0.  1.
         22    1    3    3    0    0 -0.12555072125E+02  0.83518517837E+02  0.43270030354E+03  0.44086565453E+03  0.00000000000E+00 0.  1.
</event>
<event>
 7    1  0.5575489E-006  0.1624949E+03  0.7818608E-02  0.1291901E+00
          2   -1    0    0  502    0  0.00000000000E+00  0.00000000000E+00  0.17504873817E+04  0.17504873817E+04  0.00000000000E+00 0. -1.
          1   -1    0    0  501    0 -0.00000000000E+00 -0.00000000000E+00 -0.13324224658E+04  0.13324224658E+04  0.00000000000E+00 0. -1.
         25    2    1    2    0    0  0.11949234210E+03 -0.57111132407E+01  0.83262724887E+03  0.85041449059E+03  0.12500253440E+03 0.  0.
          2    1    1    2  501    0 -0.15955152479E+03 -0.32215841260E+02 -0.13176795033E+04  0.13276949284E+04  0.00000000000E+00 0. -1.
          1    1    1    2  502    0  0.40059182683E+02  0.37926954501E+02  0.90311717038E+03  0.90480042851E+03  0.00000000000E+00 0. -1.
         22    1    3    3    0    0  0.30480988205E+02  0.49721357233E+02  0.44684718394E+03  0.45063700448E+03  0.00000000000E+00 0. -1.
         22    1    3    3    0    0  0.89011353898E+02 -0.55432470474E+02  0.38578006493E+03  0.39977748611E+03  0.00000000000E+00 0. -1.
</event>
<event>
 7    1  0.5575489E-006  0.1848194E+03  0.7818608E-02  0.1266164E+00
          2   -1    0    0  502    0  0.00000000000E+00  0.00000000000E+00  0.96340364460E+03  0.96340364460E+03  0.00000000000E+00 0. -1.
          1   -1    0    0  501    0 -0.00000000000E+00 -0.00000000000E+00 -0.20684562476E+03  0.20684562476E+03  0.00000000000E+00 0. -1.
         25    2    1    2    0    0  0.12990041899E+03  0.36992670565E+02  0.83673064504E+02  0.20219025715E+03  0.12504855790E+03 0.  0.
          2    1    1    2  501    0  0.50860767277E+02  0.35431534796E+02 -0.12886596271E+03  0.14299876801E+03  0.00000000000E+00 0. -1.
          1    1    1    2  502    0 -0.18076118627E+03 -0.72424205362E+02  0.80175091804E+03  0.82506024420E+03  0.00000000000E+00 0. -1.
         22    1    3    3    0    0  0.15082843455E+03  0.50426439434E+02  0.69409732715E+02  0.17352162246E+03  0.00000000000E+00 0.  1.
         22    1    3    3    0    0 -0.20928015563E+02 -0.13433768869E+02  0.14263331788E+02  0.28668634693E+02  0.00000000000E+00 0.  1.
</event>
<event>
 7    1  0.5575489E-006  0.5513306E+02  0.7818608E-02  0.1447831E+00
          2   -1    0    0  502    0  0.00000000000E+00  0.00000000000E+00  0.29034463452E+03  0.29034463452E+03  0.00000000000E+00 0. -1.
          1   -1    0    0  501    0 -0.00000000000E+00 -0.00000000000E+00 -0.13362648605E+03  0.13362648605E+03  0.00000000000E+00 0. -1.
         25    2    1    2    0    0 -0.13036291294E+02  0.36724267359E+02  0.11387485113E+02  0.13142818968E+03  0.12500031009E+03 0.  0.
          2    1    1    2  501    0 -0.28432980523E+02 -0.52911784939E+02 -0.58536142415E+02  0.83872351438E+02  0.00000000000E+00 0. -1.
          1    1    1    2  502    0  0.41469271817E+02  0.16187517580E+02  0.20386680577E+03  0.20867057945E+03  0.00000000000E+00 0. -1.
         22    1    3    3    0    0  0.11198632272E+02  0.19940078710E+02  0.65735354056E+02  0.69599948826E+02  0.00000000000E+00 0. -1.
         22    1    3    3    0    0 -0.24234923566E+02  0.16784188649E+02 -0.54347868942E+02  0.61828240857E+02  0.00000000000E+00 0. -1.
</event>
<event>
 7    1  0.5575489E-006  0.5619182E+02  0.7818608E-02  0.1417359E+00
          2   -1    0    0  502    0  0.00000000000E+00  0.00000000000E+00  0.66322216567E+03  0.66322216567E+03  0.00000000000E+00 0. -1.
          1   -1    0    0  501    0 -0.00000000000E+00 -0.00000000000E+00 -0.23223140606E+03  0.23223140606E+03  0.00000000000E+00 0. -1.
         25    2    1    2    0    0 -0.91550775895E+02 -0.61139539287E+02 -0.11688240343E+03  0.20348113130E+03  0.12499394677E+03 0.  0.
          2    1    1    2  501    0  0.42093624569E+02  0.35371281553E+02 -0.60095022012E+02  0.81451902732E+02  0.00000000000E+00 0. -1.
          1    1    1    2  502    0  0.49457151327E+02  0.25768257734E+02  0.60796818505E+03  0.61052053770E+03  0.00000000000E+00 0. -1.
         22    1    3    3    0    0 -0.76977295040E+02 -0.46292588315E+02 -0.14374610399E+03  0.16950354008E+03  0.00000000000E+00 0. -1.
         22    1    3    3    0    0 -0.14573480856E+02 -0.14846950972E+02  0.26863700561E+02  0.33977591222E+02  0.00000000000E+00 0. -1.
</event>
<event>
 7    1  0.7020222E-006  0.6290948E+02  0.7818608E-02  0.1393487E+00
          2   -1    0    0  502    0  0.00000000000E+00  0.00000000000E+00  0.59045233057E+03  0.59045233057E+03  0.00000000000E+00 0. -1.
          1   -1    0    0  501    0 -0.00000000000E+00 -0.00000000000E+00 -0.16359742909E+04  0.16359742909E+04  0.00000000000E+00 0. -1.
         25    2    1    2    0    0 -0.91981732095E+02  0.74930608977E+02 -0.54256056571E+03  0.56927355591E+03  0.12500071516E+03 0.  0.
          2    1    1    2  501    0  0.44601503937E+02 -0.39369400023E+02 -0.10777143615E+04  0.10793551263E+04  0.00000000000E+00 0. -1.
          1    1    1    2  502    0  0.47380228159E+02 -0.35561208954E+02  0.57475296688E+03  0.57779793920E+03  0.00000000000E+00 0. -1.
         22    1    3    3    0    0  0.14864313247E+02 -0.11814291567E+02 -0.15410055469E+02  0.24453938397E+02  0.00000000000E+00 0. -1.
         22    1    3    3    0    0 -0.10684604534E+03  0.86744900545E+02 -0.52715051024E+03  0.54481961751E+03  0.00000000000E+00 0. -1.
</event>
<event>
 7    1  0.5575489E-006  0.8148107E+02  0.7818608E-02  0.1410466E+00
          2   -1    0    0  502    0  0.00000000000E+00  0.00000000000E+00  0.50075026183E+03  0.50075026183E+03  0.00000000000E+00 0. -1.
          1   -1    0    0  501    0 -0.00000000000E+00 -0.00000000000E+00 -0.79275572834E+03  0.79275572834E+03  0.00000000000E+00 0. -1.
         25    2    1    2    0    0 -0.50239608257E+02  0.74661829150E+02 -0.53974064097E+02  0.16320874790E+03  0.12500195529E+03 0.  0.
          2    1    1    2  501    0  0.39527562952E+02  0.61306594494E+01 -0.67984946677E+03  0.68102519093E+03  0.00000000000E+00 0. -1.
          1    1    1    2  502    0  0.10712045305E+02 -0.80792488600E+02  0.44181806435E+03  0.44927205134E+03  0.00000000000E+00 0. -1.
         22    1    3    3    0    0 -0.36786407922E+02  0.46431086407E+02 -0.94797461088E+02  0.11178391754E+03  0.00000000000E+00 0.  1.
         22    1    3    3    0    0 -0.13453200335E+02  0.28230742743E+02  0.40823396992E+02  0.51424830355E+02  0.00000000000E+00 0.  1.
</event>
<event>
 7    1  0.5575489E-006  0.9439681E+02  0.7818608E-02  0.1372244E+00
          2   -1    0    0  502    0  0.00000000000E+00  0.00000000000E+00  0.29614746449E+04  0.29614746449E+04  0.00000000000E+00 0. -1.
          1   -1    0    0  501    0 -0.00000000000E+00 -0.00000000000E+00 -0.24953651230E+04  0.24953651230E+04  0.00000000000E+00 0. -1.
         25    2    1    2    0    0  0.69714755334E+02 -0.30310202626E+02 -0.28882023834E+03  0.32376067972E+03  0.12499996866E+03 0.  0.
          2    1    1    2  501    0 -0.58806354962E+02  0.75938355697E+02 -0.21878341015E+04  0.21899412953E+04  0.00000000000E+00 0. -1.
          1    1    1    2  502    0 -0.10908400372E+02 -0.45628153072E+02  0.29427638617E+04  0.29431377928E+04  0.00000000000E+00 0. -1.
         22    1    3    3    0    0  0.69679741928E+02  0.39452996929E+01 -0.27975055425E+03  0.28832482451E+03  0.00000000000E+00 0. -1.
         22    1    3    3    0    0  0.35013405720E-01 -0.34255502319E+02 -0.90696840871E+01  0.35435855210E+02  0.00000000000E+00 0. -1.
</event>
<event>
 7    1  0.5575489E-006  0.3573983E+02  0.7818608E-02  0.1565974E+00
          2   -1    0    0  502    0  0.00000000000E+00  0.00000000000E+00  0.50431018728E+03  0.50431018728E+03  0.00000000000E+00 0. -1.
          1   -1    0    0  501    0 -0.00000000000E+00 -0.00000000000E+00 -0.28349758798E+03  0.28349758798E+03  0.00000000000E+00 0. -1.
         25    2    1    2    0    0  0.34579766942E+02 -0.43942297869E+00  0.32519032952E+03  0.35010164347E+03  0.12500582776E+03 0.  0.
          2    1    1    2  501    0 -0.22548912053E+02 -0.27793342146E+02 -0.26843130817E+03  0.27080674014E+03  0.00000000000E+00 0. -1.
          1    1    1    2  502    0 -0.12030854889E+02  0.28232765124E+02  0.16405357794E+03  0.16689939165E+03  0.00000000000E+00 0. -1.
         22    1    3    3    0    0 -0.43079399220E+02 -0.50430728162E+01  0.18248451695E+03  0.18756829729E+03  0.00000000000E+00 0. -1.
         22    1    3    3    0    0  0.77659166162E+02  0.46036498376E+01  0.14270581257E+03  0.16253334618E+03  0.00000000000E+00 0. -1.
</event>
<event>
 7    1  0.5575489E-006  0.1108535E+03  0.7818608E-02  0.1395836E+00
          2   -1    0    0  502    0  0.00000000000E+00  0.00000000000E+00  0.91706492706E+03  0.91706492706E+03  0.00000000000E+00 0. -1.
          1   -1    0    0  501    0 -0.00000000000E+00 -0.00000000000E+00 -0.41599821785E+03  0.41599821785E+03  0.00000000000E+00 0. -1.
         25    2    1    2    0    0  0.12826470789E+02 -0.10764930611E+03 -0.93667578488E+02  0.19013415457E+03  0.12499796004E+03 0.  0.
          2    1    1    2  501    0  0.32398913092E+02  0.62434794700E+01 -0.26953981458E+03  0.27155180399E+03  0.00000000000E+00 0. -1.
          1    1    1    2  502    0 -0.45225383881E+02  0.10140582664E+03  0.86427410227E+03  0.87137718635E+03  0.00000000000E+00 0. -1.
         22    1    3    3    0    0 -0.55381143702E+02 -0.34222136609E+02 -0.33073791926E+02  0.73021239541E+02  0.00000000000E+00 0. -1.
         22    1    3    3    0    0  0.68207614491E+02 -0.73427169505E+02 -0.60593786562E+02  0.11711291503E+03  0.00000000000E+00 0. -1.
</event>
<event>
 7    1  0.5575489E-006  0.5282442E+02  0.7818608E-02  0.1443878E+00
          2   -1    0    0  502    0  0.00000000000E+00  0.00000000000E+00  0.25737116963E+04  0.25737116963E+04  0.00000000000E+00 0. -1.
          1   -1    0    0  501    0 -0.00000000000E+00 -0.00000000000E+00 -0.20247147860E+03  0.20247147860E+03  0.00000000000E+00 0. -1.
         25    2    1    2    0    0 -0.72996773075E+02 -0.55569142222E+02  0.24114932095E+02  0.15691789772E+03  0.12500095292E+03 0.  0.
          2    1    1    2  501    0  0.49065630745E+02  0.14140802539E+02 -0.13104041076E+03  0.14063778891E+03  0.00000000000E+00 0. -1.
          1    1    1    2  502    0  0.23931142330E+02  0.41428339683E+02  0.24781656963E+04  0.24786274882E+04  0.00000000000E+00 0. -1.
         22    1    3    3    0    0  0.30171318262E+02 -0.40484061587E+02  0.33200599147E+01  0.50599313099E+02  0.00000000000E+00 0.  1.
         22    1    3    3    0    0 -0.10316809134E+03 -0.15085080635E+02  0.20794872180E+02  0.10631858463E+03  0.00000000000E+00 0.  1.
</event>
<event>
 7    1  0.5575489E-006  0.6697063E+02  0.7818608E-02  0.1377021E+00
          2   -1    0    0  502    0  0.00000000000E+00  0.00000000000E+00  0.31280657184E+04  0.31280657184E+04  0.00000000000E+00 0. -1.
          1   -1    0    0  501    0 -0.00000000000E+00 -0.00000000000E+00 -0.18464670105E+03  0.18464670105E+03  0.00000000000E+00 0. -1.
         25    2    1    2    0    0  0.34430624929E+02 -0.33834318024E+00  0.47281300645E+03  0.49026846478E+03  0.12500178430E+03 0.  0.
          2    1    1    2  501    0 -0.24459633033E+02  0.63131561030E+02 -0.16900778692E+03  0.18206454813E+03  0.00000000000E+00 0. -1.
          1    1    1    2  502    0 -0.99709918965E+01 -0.62793217850E+02  0.26396137978E+04  0.26403794066E+04  0.00000000000E+00 0. -1.
         22    1    3    3    0    0  0.16765332132E+02  0.26554408106E+02  0.22081985934E+02  0.38390455247E+02  0.00000000000E+00 0.  1.
         22    1    3    3    0    0  0.17665292797E+02 -0.26892751286E+02  0.45073102052E+03  0.45187800954E+03  0.00000000000E+00 0.  1.
</event>
<event>
 7    1  0.5575489E-006  0.7145720E+02  0.7818608E-02  0.1366287E+00
          2   -1    0    0  502    0  0.00000000000E+00  0.00000000000E+00  0.10906438779E+04  0.10906438779E+04  0.00000000000E+00 0. -1.
          1   -1    0    0  501    0 -0.00000000000E+00 -0.00000000000E+00 -0.56506167334E+02  0.56506167334E+02  0.00000000000E+00 0. -1.
         25    2    1    2    0    0 -0.62372125679E+02 -0.62581881559E+02  0.34240781335E+03  0.37506362918E+03  0.12499136503E+03 0.  0.
          2    1    1    2  501    0 -0.99382753801E+01  0.64347852103E+02 -0.10663736488E+02  0.65978259023E+02  0.00000000000E+00 0. -1.
          1    1    1    2  502    0  0.72310401059E+02 -0.17659705443E+01  0.70239363367E+03  0.70610815699E+03  0.00000000000E+00 0. -1.
         22    1    3    3    0    0 -0.92805402859E+02 -0.41402670765E+02  0.30854679052E+03  0.32485095950E+03  0.00000000000E+00 0.  1.
         22    1    3    3    0    0  0.30433277180E+02 -0.21179210794E+02  0.33861022832E+02  0.50212669686E+02  0.00000000000E+00 0.  1.
</event>
<event>
 7    1  0.5575489E-006  0.2610435E+03  0.7818608E-02  0.1160358E+00
          2   -1    0    0  502    0  0.00000000000E+00  0.00000000000E+00  0.13790680285E+04  0.13790680285E+04  0.00000000000E+00 0. -1.
          1   -1    0    0  501    0 -0.00000000000E+00 -0.00000000000E+00 -0.57587434414E+03  0.57587434414E+03  0.00000000000E+00 0. -1.
         25    2    1    2    0    0 -0.80357038068E+02  0.16715079289E+03 -0.23478787324E+02  0.22488202600E+03  0.12499612407E+03 0.  0.
          2    1    1    2  501    0  0.20316853619E+03 -0.22385047292E+03 -0.39696626077E+03  0.49896763473E+03  0.00000000000E+00 0. -1.
          1    1    1    2  502    0 -0.12281149812E+03  0.56699680026E+02  0.12236387324E+04  0.12310927119E+04  0.00000000000E+00 0. -1.
         22    1    3    3    0    0 -0.80235715123E+02  0.45480914981E+02  0.22296025265E+02  0.94886228460E+02  0.00000000000E+00 0.  1.
         22    1    3    3    0    0 -0.12132294503E+00  0.12166987791E+03 -0.45774812589E+02  0.12999579754E+03  0.00000000000E+00 0.  1.
</event>
<event>
 7    1  0.5575489E-006  0.8083800E+02  0.7818608E-02  0.1381894E+00
          2   -1    0    0  502    0  0.00000000000E+00  0.00000000000E+00  0.39091950648E+03  0.39091950648E+03  0.00000000000E+00 0. -1.
          1   -1    0    0  501    0 -0.00000000000E+00 -0.00000000000E+00 -0.44777355011E+03  0.44777355011E+03  0.00000000000E+00 0. -1.
         25    2    1    2    0    0 -0.98024185564E+02 -0.13568264393E+02 -0.92495413196E+01  0.15970137155E+03  0.12500454114E+03 0.  0.
          2    1    1    2  501    0  0.35011686858E+02 -0.36558171539E+02 -0.35634606429E+03  0.35992337470E+03  0.00000000000E+00 0. -1.
          1    1    1    2  502    0  0.63012498706E+02  0.50126435932E+02  0.30874156198E+03  0.31906831034E+03  0.00000000000E+00 0. -1.
         22    1    3    3    0    0 -0.67718395756E+02  0.53195107479E+02 -0.51278453309E+01  0.86265841334E+02  0.00000000000E+00 0.  1.
         22    1    3    3    0    0 -0.30305789809E+02 -0.66763371872E+02 -0.41216959887E+01  0.73435530211E+02  0.00000000000E+00 0.  1.
</event>
<event>
 7    1  0.5575489E-006  0.8742477E+02  0.7818608E-02  0.1347647E+00
          2   -1    0    0  502    0  0.00000000000E+00  0.00000000000E+00  0.20298559349E+04  0.20298559349E+04  0.00000000000E+00 0. -1.
          1   -1    0    0  501    0 -0.00000000000E+00 -0.00000000000E+00 -0.55782767545E+02  0.55782767545E+02  0.00000000000E+00 0. -1.
         25    2    1    2    0    0  0.65691999636E+02  0.45442792824E+02  0.62029176512E+03  0.63778204747E+03  0.12499431976E+03 0.  0.
          2    1    1    2  501    0  0.25476713774E+02 -0.56840072035E+02 -0.24193554115E+02  0.66822038239E+02  0.00000000000E+00 0. -1.
          1    1    1    2  502    0 -0.91168713409E+02  0.11397279211E+02  0.13779749563E+04  0.13810346167E+04  0.00000000000E+00 0. -1.
         22    1    3    3    0    0 -0.10985016372E+02 -0.35231651672E+02  0.14305693454E+03  0.14774040201E+03  0.00000000000E+00 0. -1.
         22    1    3    3    0    0  0.76677016007E+02  0.80674444496E+02  0.47723483058E+03  0.49004164547E+03  0.00000000000E+00 0. -1.
</event>
<event>
 7    1  0.6761036E-006  0.8581585E+02  0.7818608E-02  0.1337865E+00
          2   -1    0    0  502    0  0.00000000000E+00  0.00000000000E+00  0.22544012794E+04  0.22544012794E+04  0.00000000000E+00 0. -1.
          1   -1    0    0  501    0 -0.00000000000E+00 -0.00000000000E+00 -0.16499244546E+04  0.16499244546E+04  0.00000000000E+00 0. -1.
         25    2    1    2    0    0  0.11506334578E+03 -0.46085525771E+02 -0.10757341957E+03  0.20633208296E+03  0.12504974463E+03 0.  0.
          2    1    1    2  501    0 -0.64940115573E+02 -0.23446689704E+02 -0.14913397287E+04  0.14929370892E+04  0.00000000000E+00 0. -1.
          1    1    1    2  502    0 -0.50123230207E+02  0.69532215475E+02  0.22033899731E+04  0.22050565618E+04  0.00000000000E+00 0. -1.
         22    1    3    3    0    0 -0.72344858867E+01 -0.45163299367E+02 -0.37283002794E+01  0.45890757444E+02  0.00000000000E+00 0. -1.
         22    1    3    3    0    0  0.12229783167E+03 -0.92222640345E+00 -0.10384511929E+03  0.16044132551E+03  0.00000000000E+00 0. -1.
</event>
<event>
 7    1  0.5575489E-006  0.8233897E+02  0.7818608E-02  0.1458473E+00
          2   -1    0    0  502    0  0.00000000000E+00  0.00000000000E+00  0.31754651788E+04  0.31754651788E+04  0.00000000000E+00 0. -1.
          1   -1    0    0  501    0 -0.00000000000E+00 -0.00000000000E+00 -0.99329149526E+03  0.99329149526E+03  0.00000000000E+00 0. -1.
         25    2    1    2    0    0 -0.50050279898E+02 -0.88141278771E+02  0.23529006068E+02  0.16264398053E+03  0.12500213893E+03 0.  0.
          2    1    1    2  501    0  0.25853555422E+02  0.95751853667E+01 -0.92298001309E+03  0.92339168021E+03  0.00000000000E+00 0. -1.
          1    1    1    2  502    0  0.24196724476E+02  0.78566093405E+02  0.30816246906E+04  0.30827210133E+04  0.00000000000E+00 0. -1.
         22    1    3    3    0    0 -0.66018575312E+01 -0.10742435876E+03 -0.40210515094E+01  0.10770211805E+03  0.00000000000E+00 0. -1.
         22    1    3    3    0    0 -0.43448422367E+02  0.19283079991E+02  0.27550057577E+02  0.54941862478E+02  0.00000000000E+00 0. -1.
</event>
<event>
 7    1  0.6195840E-006  0.1618431E+03  0.7818608E-02  0.1314347E+00
          2   -1    0    0  502    0  0.00000000000E+00  0.00000000000E+00  0.15843067129E+04  0.15843067129E+04  0.00000000000E+00 0. -1.
          1   -1    0    0  501    0 -0.00000000000E+00 -0.00000000000E+00 -0.13655359859E+04  0.13655359859E+04  0.00000000000E+00 0. -1.
         25    2    1    2    0    0 -0.10741760380E+03  0.82708933337E+02 -0.21219882986E+03  0.28112710037E+03  0.12499917563E+03 0.  0.
          2    1    1    2  501    0 -0.41413145971E+02 -0.17810577666E+02 -0.11141635192E+04  0.11150751602E+04  0.00000000000E+00 0. -1.
          1    1    1    2  502    0  0.14883074977E+03 -0.64898355671E+02  0.15451330761E+04  0.15536404383E+04  0.00000000000E+00 0. -1.
         22    1    3    3    0    0 -0.13122032612E+03  0.67755310751E+02 -0.20400259719E+03  0.25184641308E+03  0.00000000000E+00 0. -1.
         22    1    3    3    0    0  0.23802722317E+02  0.14953622586E+02 -0.81962326720E+01  0.29280687290E+02  0.00000000000E+00 0. -1.
</event>
<event>
 7    1  0.5575489E-006  0.8129362E+02  0.7818608E-02  0.1331445E+00
          2   -1    0    0  502    0  0.00000000000E+00  0.00000000000E+00  0.47244005367E+03  0.47244005367E+03  0.00000000000E+00 0. -1.
          1   -1    0    0  501    0 -0.00000000000E+00 -0.00000000000E+00 -0.13593506824E+04  0.13593506824E+04  0.00000000000E+00 0. -1.
         25    2    1    2    0    0  0.21512957152E+02 -0.13890446938E+03 -0.12273964821E+03  0.22460347379E+03  0.12499776100E+03 0.  0.
          2    1    1    2  501    0 -0.45449075455E+02  0.62264060508E+02 -0.11805870735E+04  0.11831011241E+04  0.00000000000E+00 0. -1.
          1    1    1    2  502    0  0.23936118302E+02  0.76640408876E+02  0.41641609303E+03  0.42408613815E+03  0.00000000000E+00 0. -1.
         22    1    3    3    0    0 -0.39218242862E+02 -0.99054998745E+01 -0.50696202576E+02  0.64855951589E+02  0.00000000000E+00 0.  1.
         22    1    3    3    0    0  0.60731200014E+02 -0.12899896951E+03 -0.72043445634E+02  0.15974752220E+03  0.00000000000E+00 0.  1.
</event>
<event>
 7    1  0.5575489E-006  0.1842633E+03  0.7818608E-02  0.1220657E+00
          2   -1    0    0  502    0  0.00000000000E+00  0.00000000000E+00  0.96731587907E+03  0.96731587907E+03  0.00000000000E+00 0. -1.
          1   -1    0    0  501    0 -0.00000000000E+00 -0.00000000000E+00 -0.84933324513E+03  0.84933324513E+03  0.00000000000E+00 0. -1.
         25    2    1    2    0    0  0.17863063251E+03  0.33503290476E+02  0.42516161369E+03  0.47897627251E+03  0.12499799409E+03 0.  0.
          2    1    1    2  501    0 -0.13793655318E+03 -0.12315388662E+03 -0.80717021829E+03  0.82808039090E+03  0.00000000000E+00 0. -1.
          1    1    1    2  502    0 -0.40694079339E+02  0.89650596143E+02  0.49999123854E+03  0.50959246079E+03  0.00000000000E+00 0. -1.
         22    1    3    3    0    0  0.19995876345E+02 -0.10023421975E+02 -0.77248118314E+00  0.22380812900E+02  0.00000000000E+00 0.  1.
         22    1    3    3    0    0  0.15863475617E+03  0.43526712451E+02  0.42593409487E+03  0.45659545961E+03  0.00000000000E+00 0.  1.
</event>
<event>
 7    1  0.5575489E-006  0.1605045E+03  0.7818608E-02  0.1201497E+00
          2   -1    0    0  502    0  0.00000000000E+00  0.00000000000E+00  0.40661732361E+03  0.40661732361E+03  0.00000000000E+00 0. -1.
          1   -1    0    0  501    0 -0.00000000000E+00 -0.00000000000E+00 -0.87573334103E+03  0.87573334103E+03  0.00000000000E+00 0. -1.
         25    2    1    2    0    0  0.11302743308E+03 -0.19859423034E+03 -0.36488241058E+03  0.44830740030E+03  0.12500193063E+03 0.  0.
          2    1    1    2  501    0 -0.13608777706E+03  0.61889532097E+02 -0.44324610076E+03  0.46777911784E+03  0.00000000000E+00 0. -1.
          1    1    1    2  502    0  0.23060343987E+02  0.13670469824E+03  0.33901249392E+03  0.36626414651E+03  0.00000000000E+00 0. -1.
         22    1    3    3    0    0 -0.21357850981E+02 -0.66317654839E+02 -0.12589000265E+03  0.14388357067E+03  0.00000000000E+00 0. -1.
         22    1    3    3    0    0  0.13438528406E+03 -0.13227657550E+03 -0.23899240793E+03  0.30442382963E+03  0.00000000000E+00 0. -1.
</event>
<event>
 7    1  0.5575489E-006  0.1041241E+03  0.7818608E-02  0.1286785E+00
          2   -1    0    0  502    0  0.00000000000E+00  0.00000000000E+00  0.30192113172E+03  0.30192113172E+03  0.00000000000E+00 0. -1.
          1   -1    0    0  501    0 -0.00000000000E+00 -0.00000000000E+00 -0.72272490572E+03  0.72272490572E+03  0.00000000000E+00 0. -1.
         25    2    1    2    0    0 -0.80365811017E+02  0.59985956950E+02  0.46175505719E+02  0.16677674850E+03  0.12500131159E+03 0.  0.
          2    1    1    2  501    0  0.73110275600E+02  0.53033791103E+02 -0.64259029990E+03  0.64890676443E+03  0.00000000000E+00 0. -1.
          1    1    1    2  502    0  0.72555354171E+01 -0.11301974805E+03  0.17561102018E+03  0.20896252452E+03  0.00000000000E+00 0. -1.
         22    1    3    3    0    0 -0.35270016939E+02  0.38674382171E+02 -0.40900660478E+02  0.66426997213E+02  0.00000000000E+00 0. -1.
         22    1    3    3    0    0 -0.45095794078E+02  0.21311574778E+02  0.87076166197E+02  0.10034975128E+03  0.00000000000E+00 0. -1.
</event>
<event>
 7    1  0.5575489E-006  0.8468377E+02  0.7818608E-02  0.1328384E+00
          2   -1    0    0  502    0  0.00000000000E+00  0.00000000000E+00  0.16154185240E+04  0.16154185240E+04  0.00000000000E+00 0. -1.
          1   -1    0    0  501    0 -0.00000000000E+00 -0.00000000000E+00 -0.37899505722E+04  0.37899505722E+04  0.00000000000E+00 0. -1.
         25    2    1    2    0    0 -0.45877761155E+01 -0.15801251864E+03 -0.70800674718E+02  0.21360310390E+03  0.12499818685E+03 0.  0.
          2    1    1    2  501    0 -0.10570401306E+02  0.75282791148E+02 -0.36462067972E+04  0.36469992103E+04  0.00000000000E+00 0. -1.
          1    1    1    2  502    0  0.15158177421E+02  0.82729727493E+02  0.15424754237E+04  0.15447667820E+04  0.00000000000E+00 0. -1.
         22    1    3    3    0    0 -0.61384008256E+02 -0.55265942648E+02 -0.42276054851E+02  0.92787853192E+02  0.00000000000E+00 0.  1.
         22    1    3    3    0    0  0.56796232140E+02 -0.10274657599E+03 -0.28524619867E+02  0.12081525070E+03  0.00000000000E+00 0.  1.
</event>
<event>
 7    1  0.5575489E-006  0.2870038E+02  0.7818608E-02  0.1639638E+00
          2   -1    0    0  502    0  0.00000000000E+00  0.00000000000E+00  0.59031372735E+03  0.59031372735E+03  0.00000000000E+00 0. -1.
          1   -1    0    0  501    0 -0.00000000000E+00 -0.00000000000E+00 -0.10894910843E+03  0.10894910843E+03  0.00000000000E+00 0. -1.
         25    2    1    2    0    0 -0.97450982256E+01  0.39714814086E+01  0.68592326125E+02  0.14297356216E+03  0.12500317063E+03 0.  0.
          2    1    1    2  501    0  0.25079550789E+02  0.15222880991E+02 -0.68433301227E+02  0.74456945212E+02  0.00000000000E+00 0. -1.
          1    1    1    2  502    0 -0.15334452563E+02 -0.19194362400E+02  0.48120559402E+03  0.48183232841E+03  0.00000000000E+00 0. -1.
         22    1    3    3    0    0  0.38673847675E+02  0.40158693782E+02  0.61914999301E+01  0.56095649133E+02  0.00000000000E+00 0.  1.
         22    1    3    3    0    0 -0.48418945900E+02 -0.36187212374E+02  0.62400826195E+02  0.86877913023E+02  0.00000000000E+00 0.  1.
</event>
<event>
 7    1  0.5575489E-006  0.6850914E+02  0.7818608E-02  0.1397944E+00
          2   -1    0    0  502    0  0.00000000000E+00  0.00000000000E+00  0.15084547938E+04  0.15084547938E+04  0.00000000000E+00 0. -1.
          1   -1    0    0  501    0 -0.00000000000E+00 -0.00000000000E+00 -0.65310515905E+03  0.65310515905E+03  0.00000000000E+00 0. -1.
         25    2    1    2    0    0  0.22504950904E+02  0.21543097662E+02  0.72987634453E+02  0.14806281321E+03  0.12499929600E+03 0.  0.
          2    1    1    2  501    0  0.47055155525E+02 -0.23284345170E+02 -0.61358000384E+03  0.61582202746E+03  0.00000000000E+00 0. -1.
          1    1    1    2  502    0 -0.69560106428E+02  0.17412475083E+01  0.13959420041E+04  0.13976751122E+04  0.00000000000E+00 0. -1.
         22    1    3    3    0    0  0.19356882956E+02  0.69007445372E+02  0.70338889522E+02  0.10042049499E+03  0.00000000000E+00 0. -1.
         22    1    3    3    0    0  0.31480679475E+01 -0.47464347710E+02  0.26487449310E+01  0.47642318217E+02  0.00000000000E+00 0. -1.
</event>
<event>
 7    1  0.5575489E-006  0.1128722E+03  0.7818608E-02  0.1312873E+00
          2   -1    0    0  502    0  0.00000000000E+00  0.00000000000E+00  0.22162501540E+04  0.22162501540E+04  0.00000000000E+00 0. -1.
          1   -1    0    0  501    0 -0.00000000000E+00 -0.00000000000E+00 -0.15621980037E+03  0.15621980037E+03  0.00000000000E+00 0. -1.
         25    2    1    2    0    0  0.22907190534E+01  0.83215600282E+02  0.15211336829E+04  0.15285302247E+04  0.12500753224E+03 0.  0.
          2    1    1    2  501    0 -0.67282171861E+02 -0.91398903617E+02 -0.12958386746E+03  0.17225744959E+03  0.00000000000E+00 0. -1.
          1    1    1    2  502    0  0.64991452808E+02  0.81833033351E+01  0.66848053822E+03  0.67168228008E+03  0.00000000000E+00 0. -1.
         22    1    3    3    0    0  0.92475128556E+01  0.10373424932E+03  0.14592829782E+04  0.14629945733E+04  0.00000000000E+00 0.  1.
         22    1    3    3    0    0 -0.69567938022E+01 -0.20518649042E+02  0.61850704694E+02  0.65535651440E+02  0.00000000000E+00 0.  1.
</event>
<event>
 7    1  0.5575489E-006  0.6121561E+02  0.7818608E-02  0.1408946E+00
          2   -1    0    0  502    0  0.00000000000E+00  0.00000000000E+00  0.48744886866E+03  0.48744886866E+03  0.00000000000E+00 0. -1.
          1   -1    0    0  501    0 -0.00000000000E+00 -0.00000000000E+00 -0.93043256105E+03  0.93043256105E+03  0.00000000000E+00 0. -1.
         25    2    1    2    0    0  0.42089780411E+02  0.81589008386E+02  0.16204548171E+03  0.22430229579E+03  0.12499786338E+03 0.  0.
          2    1    1    2  501    0  0.75603039199E+01 -0.60667276164E+02 -0.89578737420E+03  0.89787120255E+03  0.00000000000E+00 0. -1.
          1    1    1    2  502    0 -0.49650084331E+02 -0.20921732223E+02  0.29075820009E+03  0.29570793137E+03  0.00000000000E+00 0. -1.
         22    1    3    3    0    0  0.55534101951E+02  0.97026971622E+02  0.74379896310E+02  0.13427821371E+03  0.00000000000E+00 0.  1.
         22    1    3    3    0    0 -0.13444321541E+02 -0.15437963236E+02  0.87665585402E+02  0.90024082080E+02  0.00000000000E+00 0.  1.
</event>
<event>
 7    1  0.5575489E-006  0.1802739E+03  0.7818608E-02  0.1226069E+00
          2   -1    0    0  502    0  0.00000000000E+00  0.00000000000E+00  0.42981480091E+03  0.42981480091E+03  0.00000000000E+00 0. -1.
          1   -1    0    0  501    0 -0.00000000000E+00 -0.00000000000E+00 -0.83763005336E+03  0.83763005336E+03  0.00000000000E+00 0. -1.
         25    2    1    2    0    0  0.45581803327E+02 -0.21439057018E+03 -0.93088578354E+02  0.26894503168E+03  0.12499971708E+03 0.  0.
          2    1    1    2  501    0  0.39944877562E+02  0.17279529566E+03 -0.63765435981E+03  0.66185866318E+03  0.00000000000E+00 0. -1.
          1    1    1    2  502    0 -0.85526680889E+02  0.41595274523E+02  0.32292768571E+03  0.33664115940E+03  0.00000000000E+00 0. -1.
         22    1    3    3    0    0 -0.41905979776E+02 -0.45861996880E+02 -0.17235719826E+02  0.64470954209E+02  0.00000000000E+00 0.  1.
         22    1    3    3    0    0  0.87487783103E+02 -0.16852857330E+03 -0.75852858528E+02  0.20447407747E+03  0.00000000000E+00 0.  1.
</event>
<event>
 7    1  0.5575489E-006  0.7820994E+02  0.7818608E-02  0.1446377E+00
          2   -1    0    0  502    0  0.00000000000E+00  0.00000000000E+00  0.70838035491E+03  0.70838035491E+03  0.00000000000E+00 0. -1.
          1   -1    0    0  501    0 -0.00000000000E+00 -0.00000000000E+00 -0.22785616095E+03  0.22785616095E+03  0.00000000000E+00 0. -1.
         25    2    1    2    0    0 -0.43016528794E+02  0.28252120672E+02  0.23425755812E+03  0.27046197636E+03  0.12499789218E+03 0.  0.
          2    1    1    2  501    0  0.53498880435E+02 -0.58191098223E+02 -0.20172595328E+03  0.21666032019E+03  0.00000000000E+00 0. -1.
          1    1    1    2  502    0 -0.10482351640E+02  0.29938977551E+02  0.44799258912E+03  0.44911421930E+03  0.00000000000E+00 0. -1.
         22    1    3    3    0    0 -0.75830579254E+02  0.18206064087E+02  0.77328905842E+02  0.10982484782E+03  0.00000000000E+00 0. -1.
         22    1    3    3    0    0  0.32814050460E+02  0.10046056586E+02  0.15692865228E+03  0.16063712855E+03  0.00000000000E+00 0. -1.
</event>
<event>
 7    1  0.5575489E-006  0.9392414E+02  0.7818608E-02  0.1374336E+00
          2   -1    0    0  502    0  0.00000000000E+00  0.00000000000E+00  0.59996584329E+03  0.59996584329E+03  0.00000000000E+00 0. -1.
          1   -1    0    0  501    0 -0.00000000000E+00 -0.00000000000E+00 -0.38368728513E+03  0.38368728513E+03  0.00000000000E+00 0. -1.
         25    2    1    2    0    0 -0.33104250660E+02  0.11200062383E+03  0.14466058339E+03  0.22403540341E+03  0.12500058577E+03 0.  0.
          2    1    1    2  501    0 -0.91524615969E+01 -0.92969210326E+02 -0.33632121809E+03  0.34905444182E+03  0.00000000000E+00 0. -1.
          1    1    1    2  502    0  0.42256712257E+02 -0.19031413506E+02  0.40793919287E+03  0.41056328319E+03  0.00000000000E+00 0. -1.
         22    1    3    3    0    0  0.10427326665E+02  0.91244005379E+02  0.25238027001E+02  0.95242614758E+02  0.00000000000E+00 0.  1.
         22    1    3    3    0    0 -0.43531577325E+02  0.20756618452E+02  0.11942255639E+03  0.12879278865E+03  0.00000000000E+00 0.  1.
</event>
<event>
 7    1  0.5575489E-006  0.1065959E+03  0.7818608E-02  0.1388417E+00
          2   -1    0    0  502    0  0.00000000000E+00  0.00000000000E+00  0.34899571680E+03  0.34899571680E+03  0.00000000000E+00 0. -1.
          1   -1    0    0  501    0 -0.00000000000E+00 -0.00000000000E+00 -0.43163951116E+03  0.43163951116E+03  0.00000000000E+00 0. -1.
         25    2    1    2    0    0  0.83880577254E+02 -0.50838750625E+00 -0.47398207089E+02  0.15781738753E+03  0.12499411216E+03 0.  0.
          2    1    1    2  501    0  0.20974727186E+02 -0.29766085160E+02 -0.31782018241E+03  0.31989940193E+03  0.00000000000E+00 0. -1.
          1    1    1    2  502    0 -0.10485530444E+03  0.30274472666E+02  0.28257459514E+03  0.30291843850E+03  0.00000000000E+00 0. -1.
         22    1    3    3    0    0  0.80297278358E+02  0.52578590952E+02 -0.20286579501E+02  0.98100491569E+02  0.00000000000E+00 0. -1.
         22    1    3    3    0    0  0.35832988955E+01 -0.53086978458E+02 -0.27111627588E+02  0.59716895961E+02  0.00000000000E+00 0. -1.
</event>
<event>
 7    1  0.5575489E-006  0.9136091E+02  0.7818608E-02  0.1426659E+00
          2   -1    0    0  502    0  0.00000000000E+00  0.00000000000E+00  0.23409610095E+03  0.23409610095E+03  0.00000000000E+00 0. -1.
          1   -1    0    0  501    0 -0.00000000000E+00 -0.00000000000E+00 -0.12385919670E+04  0.12385919670E+04  0.00000000000E+00 0. -1.
         25    2    1    2    0    0 -0.75719140373E+02 -0.81831796231E+02 -0.83803329812E+02  0.18729096559E+03  0.12500030644E+03 0.  0.
          2    1    1    2  501    0  0.31276925507E+02  0.36501886100E+01 -0.10917162726E+04  0.10921703117E+04  0.00000000000E+00 0. -1.
          1    1    1    2  502    0  0.44442214866E+02  0.78181607621E+02  0.17102373635E+03  0.19322679066E+03  0.00000000000E+00 0. -1.
         22    1    3    3    0    0  0.24388058580E+02 -0.34430939329E+02  0.85822204643E+01  0.43057188627E+02  0.00000000000E+00 0.  1.
         22    1    3    3    0    0 -0.10010719895E+03 -0.47400856902E+02 -0.92385550276E+02  0.14423377696E+03  0.00000000000E+00 0.  1.
</event>
<event>
 7    1  0.5575489E-006  0.3834610E+02  0.7818608E-02  0.1572207E+00
          2   -1    0    0  502    0  0.00000000000E+00  0.00000000000E+00  0.65588762203E+03  0.65588762203E+03  0.00000000000E+00 0. -1.
          1   -1    0    0  501    0 -0.00000000000E+00 -0.00000000000E+00 -0.18576177733E+04  0.18576177733E+04  0.00000000000E+00 0. -1.
         25    2    1    2    0    0 -0.11556718195E+02  0.27595976706E+02  0.26577832146E+03  0.29522606004E+03  0.12500085882E+03 0.  0.
          2    1    1    2  501    0 -0.24748156299E+02 -0.12009807646E+02 -0.18417513297E+04  0.18419567496E+04  0.00000000000E+00 0. -1.
          1    1    1    2  502    0  0.36304874494E+02 -0.15586169060E+02  0.37424285695E+03  0.37632258577E+03  0.00000000000E+00 0. -1.
         22    1    3    3    0    0 -0.30643614781E+01 -0.25218841206E+02  0.13488830896E+01  0.25440120845E+02  0.00000000000E+00 0. -1.
         22    1    3    3    0    0 -0.84923567169E+01  0.52814817912E+02  0.26442943837E+03  0.26978593920E+03  0.00000000000E+00 0. -1.
</event>
<event>
 7    1  0.5575489E-006  0.1211830E+03  0.7818608E-02  0.1296365E+00
          2   -1    0    0  502    0  0.00000000000E+00  0.00000000000E+00  0.29019026285E+04  0.29019026285E+04  0.00000000000E+00 0. -1.
          1   -1    0    0  501    0 -0.00000000000E+00 -0.00000000000E+00 -0.51434383604E+03  0.51434383604E+03  0.00000000000E+00 0. -1.
         25    2    1    2    0    0 -0.72072709045E+02  0.34355333227E+02  0.44228698703E+02  0.15477735559E+03  0.12500035081E+03 0.  0.
          2    1    1    2  501    0  0.86306245279E+01  0.70435260624E+02 -0.45497919967E+03  0.46047984293E+03  0.00000000000E+00 0. -1.
          1    1    1    2  502    0  0.63442084518E+02 -0.10479059385E+03  0.27983092934E+04  0.28009892660E+04  0.00000000000E+00 0. -1.
         22    1    3    3    0    0 -0.81201437630E+02  0.51977007757E+01  0.75541638491E+02  0.11102805372E+03  0.00000000000E+00 0.  1.
         22    1    3    3    0    0  0.91287285849E+01  0.29157632452E+02 -0.31312939788E+02  0.43749301868E+02  0.00000000000E+00 0.  1.
</event>
<event>
 7    1  0.5575489E-006  0.5755398E+02  0.7818608E-02  0.1435571E+00
          2   -1    0    0  502    0  0.00000000000E+00  0.00000000000E+00  0.33789549661E+04  0.33789549661E+04  0.00000000000E+00 0. -1.
          1   -1    0    0  501    0 -0.00000000000E+00 -0.00000000000E+00 -0.19547807722E+03  0.19547807722E+03  0.00000000000E+00 0. -1.
         25    2    1    2    0    0 -0.77632354991E+02  0.67349230853E+02  0.43436083006E+02  0.16755391425E+03  0.12499967774E+03 0.  0.
          2    1    1    2  501    0  0.40138351270E+02 -0.23920296007E+02 -0.12906871344E+03  0.13726616696E+03  0.00000000000E+00 0. -1.
          1    1    1    2  502    0  0.37494003721E+02 -0.43428934846E+02  0.32691095193E+04  0.32696129621E+04  0.00000000000E+00 0. -1.
         22    1    3    3    0    0 -0.22078511469E+02  0.78557395928E+02 -0.18427084017E+02  0.83655738292E+02  0.00000000000E+00 0.  1.
         22    1    3    3    0    0 -0.55553843522E+02 -0.11208165075E+02  0.61863167023E+02  0.83898175955E+02  0.00000000000E+00 0.  1.
</event>
<event>
 7    1  0.5575489E-006  0.4500325E+02  0.7818608E-02  0.1543476E+00
          2   -1    0    0  502    0  0.00000000000E+00  0.00000000000E+00  0.39695434775E+03  0.39695434775E+03  0.00000000000E+00 0. -1.
          1   -1    0    0  501    0 -0.00000000000E+00 -0.00000000000E+00 -0.33263272927E+02  0.33263272927E+02  0.00000000000E+00 0. -1.
         25    2    1    2    0    0  0.57874608252E+02  0.20871334980E+02  0.23410227111E+03  0.27242136684E+03  0.12499777945E+03 0.  0.
          2    1    1    2  501    0 -0.15331914440E+02 -0.23591612606E+02  0.84529696825E+01  0.29378299512E+02  0.00000000000E+00 0. -1.
          1    1    1    2  502    0 -0.42542693812E+02  0.27202776263E+01  0.12113583402E+03  0.12841795432E+03  0.00000000000E+00 0. -1.
         22    1    3    3    0    0  0.46639532082E+02  0.72327436034E+02  0.13284454476E+03  0.15828511310E+03  0.00000000000E+00 0.  1.
         22    1    3    3    0    0  0.11235076170E+02 -0.51456101054E+02  0.10125772636E+03  0.11413625375E+03  0.00000000000E+00 0.  1.
</event>
<event>
 7    1  0.1027731E-005  0.1022634E+03  0.7818608E-02  0.1317648E+00
          2   -1    0    0  502    0  0.00000000000E+00  0.00000000000E+00  0.21095511199E+04  0.21095511199E+04  0.00000000000E+00 0. -1.
          1   -1    0    0  501    0 -0.00000000000E+00 -0.00000000000E+00 -0.87685283388E+03  0.87685283388E+03  0.00000000000E+00 0. -1.
         25    2    1    2    0    0 -0.12626474984E+03 -0.50417314619E+02 -0.47579161068E+03  0.51038001323E+03  0.12500163376E+03 0.  0.
          2    1    1    2  501    0  0.25027255726E+02  0.64579049640E+02 -0.37938150717E+03  0.38565158520E+03  0.00000000000E+00 0. -1.
          1    1    1    2  502    0  0.10123749412E+03 -0.14161735021E+02  0.20878714039E+04  0.20903723554E+04  0.00000000000E+00 0. -1.
         22    1    3    3    0    0 -0.74296557972E+02 -0.50162471057E+02 -0.11473983619E+03  0.14560728704E+03  0.00000000000E+00 0.  1.
         22    1    3    3    0    0 -0.51968191870E+02 -0.25484356143E+00 -0.36105177449E+03  0.36477272619E+03  0.00000000000E+00 0.  1.
</event>
<event>
 7    1  0.5575489E-006  0.2130431E+03  0.7818608E-02  0.1189361E+00
          2   -1    0    0  502    0  0.00000000000E+00  0.00000000000E+00  0.65382794293E+03  0.65382794293E+03  0.00000000000E+00 0. -1.
          1   -1    0    0  501    0 -0.00000000000E+00 -0.00000000000E+00 -0.70504865514E+03  0.70504865514E+03  0.00000000000E+00 0. -1.
         25    2    1    2    0    0 -0.24761735853E+03 -0.14927891058E+03  0.15038688053E+03  0.34905874115E+03  0.12500896587E+03 0.  0.
          2    1    1    2  501    0  0.11928302825E+03 -0.19746072307E+00 -0.57521301332E+03  0.58745084094E+03  0.00000000000E+00 0. -1.
          1    1    1    2  502    0  0.12833433028E+03  0.14947637130E+03  0.37360542058E+03  0.42236701599E+03  0.00000000000E+00 0. -1.
         22    1    3    3    0    0 -0.13079774538E+03 -0.56780145134E+02  0.77721702602E+01  0.14280210681E+03  0.00000000000E+00 0.  1.
         22    1    3    3    0    0 -0.11681961315E+03 -0.92498765443E+02  0.14261471027E+03  0.20625663435E+03  0.00000000000E+00 0.  1.
</event>
<event>
 7    1  0.5575489E-006  0.6923821E+02  0.7818608E-02  0.1451738E+00
          2   -1    0    0  502    0  0.00000000000E+00  0.00000000000E+00  0.18967015638E+04  0.18967015638E+04  0.00000000000E+00 0. -1.
          1   -1    0    0  501    0 -0.00000000000E+00 -0.00000000000E+00 -0.29851036811E+03  0.29851036811E+03  0.00000000000E+00 0. -1.
         25    2    1    2    0    0  0.52555829677E+02 -0.75405330629E+02  0.13033854307E+04  0.13125880185E+04  0.12500258461E+03 0.  0.
          2    1    1    2  501    0 -0.55648825093E+02  0.41102699643E+02 -0.28932360449E+03  0.29748003591E+03  0.00000000000E+00 0. -1.
          1    1    1    2  502    0  0.30929954166E+01  0.34302630985E+02  0.58412936949E+03  0.58514387753E+03  0.00000000000E+00 0. -1.
         22    1    3    3    0    0  0.34427503315E+02  0.24841897370E+02  0.19701432470E+03  0.20153663932E+03  0.00000000000E+00 0. -1.
         22    1    3    3    0    0  0.18128326362E+02 -0.10024722800E+03  0.11063711060E+04  0.11110513792E+04  0.00000000000E+00 0. -1.
</event>
<event>
 7    1  0.5934479E-006  0.7178582E+02  0.7818608E-02  0.1474634E+00
          2   -1    0    0  502    0  0.00000000000E+00  0.00000000000E+00  0.14728721269E+04  0.14728721269E+04  0.00000000000E+00 0. -1.
          1   -1    0    0  501    0 -0.00000000000E+00 -0.00000000000E+00 -0.58058479014E+03  0.58058479014E+03  0.00000000000E+00 0. -1.
         25    2    1    2    0    0 -0.52617784379E+02 -0.80995303705E+02 -0.22123331101E+03  0.27184078753E+03  0.12499746161E+03 0.  0.
          2    1    1    2  501    0  0.45672886137E+01  0.27777311140E+02 -0.33256486747E+03  0.33375414636E+03  0.00000000000E+00 0. -1.
          1    1    1    2  502    0  0.48050495765E+02  0.53217992565E+02  0.14460855153E+04  0.14478619832E+04  0.00000000000E+00 0. -1.
         22    1    3    3    0    0 -0.17790339626E+02 -0.51020921715E+02 -0.21929071317E+03  0.22584961261E+03  0.00000000000E+00 0.  1.
         22    1    3    3    0    0 -0.34827444753E+02 -0.29974381990E+02 -0.19425978443E+01  0.45991174915E+02  0.00000000000E+00 0.  1.
</event>
<event>
 7    1  0.5575489E-006  0.5801008E+02  0.7818608E-02  0.1485065E+00
          2   -1    0    0  502    0  0.00000000000E+00  0.00000000000E+00  0.38129374325E+03  0.38129374325E+03  0.00000000000E+00 0. -1.
          1   -1    0    0  501    0 -0.00000000000E+00 -0.00000000000E+00 -0.47070502968E+02  0.47070502968E+02  0.00000000000E+00 0. -1.
         25    2    1    2    0    0  0.28707291575E+02  0.17125900551E+02  0.16163752437E+03  0.20704912314E+03  0.12500098019E+03 0.  0.
          2    1    1    2  501    0  0.32165527953E+02  0.35442383695E+01 -0.47312566178E+01  0.32704244423E+02  0.00000000000E+00 0. -1.
          1    1    1    2  502    0 -0.60872819528E+02 -0.20670138921E+02  0.17731697253E+03  0.18861087866E+03  0.00000000000E+00 0. -1.
         22    1    3    3    0    0  0.47579591750E+02  0.54953510611E+02  0.14387568727E+03  0.16119528301E+03  0.00000000000E+00 0. -1.
         22    1    3    3    0    0 -0.18872300175E+02 -0.37827610060E+02  0.17761837101E+02  0.45853840123E+02  0.00000000000E+00 0. -1.
</event>
<event>
 7    1  0.5575489E-006  0.4299567E+02  0.7818608E-02  0.1592467E+00
          2   -1    0    0  502    0  0.00000000000E+00  0.00000000000E+00  0.23518063800E+04  0.23518063800E+04  0.00000000000E+00 0. -1.
          1   -1    0    0  501    0 -0.00000000000E+00 -0.00000000000E+00 -0.39548791878E+02  0.39548791878E+02  0.00000000000E+00 0. -1.
         25    2    1    2    0    0 -0.16554043765E+02 -0.56156926127E+02  0.12184805338E+04  0.12262738644E+04  0.12500057067E+03 0.  0.
          2    1    1    2  501    0 -0.56368941425E+01  0.20910428456E+02 -0.31942220502E+02  0.38591787266E+02  0.00000000000E+00 0. -1.
          1    1    1    2  502    0  0.22190937908E+02  0.35246497671E+02  0.11257192748E+04  0.11264895201E+04  0.00000000000E+00 0. -1.
         22    1    3    3    0    0 -0.41999567008E+02 -0.85489261300E+02  0.98406344534E+03  0.98866234978E+03  0.00000000000E+00 0. -1.
         22    1    3    3    0    0  0.25445523243E+02  0.29332335173E+02  0.23441708844E+03  0.23761151465E+03  0.00000000000E+00 0. -1.
</event>
<event>
 7    1  0.5575489E-006  0.4249760E+02  0.7818608E-02  0.1577160E+00
          2   -1    0    0  502    0  0.00000000000E+00  0.00000000000E+00  0.59774886961E+03  0.59774886961E+03  0.00000000000E+00 0. -1.
          1   -1    0    0  501    0 -0.00000000000E+00 -0.00000000000E+00 -0.89081167391E+02  0.89081167391E+02  0.00000000000E+00 0. -1.
         25    2    1    2    0    0  0.29695855690E+02  0.35140657582E+02  0.96463083948E+02  0.16445717854E+03  0.12499730937E+03 0.  0.
          2    1    1    2  501    0  0.10668219790E+02 -0.21574775070E+02 -0.51431931822E+02  0.56784905069E+02  0.00000000000E+00 0. -1.
          1    1    1    2  502    0 -0.40364075480E+02 -0.13565882512E+02  0.46363655010E+03  0.46558795339E+03  0.00000000000E+00 0. -1.
         22    1    3    3    0    0  0.45399577310E+02  0.45448251267E+02  0.11893109427E+03  0.13517126302E+03  0.00000000000E+00 0.  1.
         22    1    3    3    0    0 -0.15703721620E+02 -0.10307593685E+02 -0.22468010319E+02  0.29285915522E+02  0.00000000000E+00 0.  1.
</event>
<event>
 7    1  0.5575489E-006  0.1308241E+03  0.7818608E-02  0.1364622E+00
          2   -1    0    0  502    0  0.00000000000E+00  0.00000000000E+00  0.10297712476E+04  0.10297712476E+04  0.00000000000E+00 0. -1.
          1   -1    0    0  501    0 -0.00000000000E+00 -0.00000000000E+00 -0.58371642623E+03  0.58371642623E+03  0.00000000000E+00 0. -1.
         25    2    1    2    0    0  0.93939205075E+02  0.13717058132E+03 -0.21458578756E+03  0.29885256755E+03  0.12500181710E+03 0.  0.
          2    1    1    2  501    0 -0.19141945127E+02 -0.30561293747E+02 -0.32169230708E+03  0.32370719357E+03  0.00000000000E+00 0. -1.
          1    1    1    2  502    0 -0.74797259948E+02 -0.10660928757E+03  0.98233291598E+03  0.99092791267E+03  0.00000000000E+00 0. -1.
         22    1    3    3    0    0  0.82411245444E+02  0.31701419280E+02 -0.45746632025E+02  0.99445199490E+02  0.00000000000E+00 0. -1.
         22    1    3    3    0    0  0.11527959630E+02  0.10546916204E+03 -0.16883915554E+03  0.19940736806E+03  0.00000000000E+00 0. -1.
</event>
<event>
 7    1  0.5575489E-006  0.1299509E+03  0.7818608E-02  0.1389498E+00
          2   -1    0    0  502    0  0.00000000000E+00  0.00000000000E+00  0.71430499834E+03  0.71430499834E+03  0.00000000000E+00 0. -1.
          1   -1    0    0  501    0 -0.00000000000E+00 -0.00000000000E+00 -0.10070849469E+04  0.10070849469E+04  0.00000000000E+00 0. -1.
         25    2    1    2    0    0  0.36044046434E+02 -0.98463489028E+02 -0.77329816052E+03  0.79032227900E+03  0.12500011067E+03 0.  0.
          2    1    1    2  501    0  0.24373988920E+02 -0.16813850477E+02 -0.21826646027E+03  0.22026584979E+03  0.00000000000E+00 0. -1.
          1    1    1    2  502    0 -0.60418035354E+02  0.11527733951E+03  0.69878467228E+03  0.71080181641E+03  0.00000000000E+00 0. -1.
         22    1    3    3    0    0  0.58119764213E+01  0.39693881256E+01  0.23007013810E+01  0.74046160507E+01  0.00000000000E+00 0.  1.
         22    1    3    3    0    0  0.30232070013E+02 -0.10243287715E+03 -0.77559886190E+03  0.78291766295E+03  0.00000000000E+00 0.  1.
</event>
<event>
 7    1  0.5575489E-006  0.4373373E+02  0.7818608E-02  0.1527511E+00
          2   -1    0    0  502    0  0.00000000000E+00  0.00000000000E+00  0.20487213420E+03  0.20487213420E+03  0.00000000000E+00 0. -1.
          1   -1    0    0  501    0 -0.00000000000E+00 -0.00000000000E+00 -0.17199182884E+04  0.17199182884E+04  0.00000000000E+00 0. -1.
         25    2    1    2    0    0  0.14410587768E+02 -0.96742282876E+01  0.39447139052E+02  0.13225297156E+03  0.12503405925E+03 0.  0.
          2    1    1    2  501    0 -0.43686953918E+02 -0.35959852362E+01 -0.16710525082E+04  0.16716273407E+04  0.00000000000E+00 0. -1.
          1    1    1    2  502    0  0.29276366150E+02  0.13270213524E+02  0.11655921497E+03  0.12091011032E+03  0.00000000000E+00 0. -1.
         22    1    3    3    0    0 -0.15137450204E+02  0.51173846578E+02  0.36291051805E+02  0.64536388289E+02  0.00000000000E+00 0. -1.
         22    1    3    3    0    0  0.29548037972E+02 -0.60848074866E+02  0.31560872467E+01  0.67716583269E+02  0.00000000000E+00 0. -1.
</event>
<event>
 7    1  0.5575489E-006  0.3703165E+02  0.7818608E-02  0.1582159E+00
          2   -1    0    0  502    0  0.00000000000E+00  0.00000000000E+00  0.17735162819E+04  0.17735162819E+04  0.00000000000E+00 0. -1.
          1   -1    0    0  501    0 -0.00000000000E+00 -0.00000000000E+00 -0.21806562796E+03  0.21806562796E+03  0.00000000000E+00 0. -1.
         25    2    1    2    0    0 -0.76715517359E+01  0.46181026973E+02  0.14894323865E+02  0.13430771760E+03  0.12500072865E+03 0.  0.
          2    1    1    2  501    0  0.25815435319E+02 -0.26482800692E+02 -0.15609251751E+03  0.16041399395E+03  0.00000000000E+00 0. -1.
          1    1    1    2  502    0 -0.18143883583E+02 -0.19698226281E+02  0.16966488476E+04  0.16968601983E+04  0.00000000000E+00 0. -1.
         22    1    3    3    0    0 -0.21401057665E+02  0.44803325225E+02 -0.48512050100E+02  0.69417304941E+02  0.00000000000E+00 0. -1.
         22    1    3    3    0    0  0.13729505929E+02  0.13777017475E+01  0.63406373964E+02  0.64890412654E+02  0.00000000000E+00 0. -1.
</event>
<event>
 7    1  0.5575489E-006  0.1202651E+03  0.7818608E-02  0.1377919E+00
          2   -1    0    0  502    0  0.00000000000E+00  0.00000000000E+00  0.91303714185E+03  0.91303714185E+03  0.00000000000E+00 0. -1.
          1   -1    0    0  501    0 -0.00000000000E+00 -0.00000000000E+00 -0.18098266245E+03  0.18098266245E+03  0.00000000000E+00 0. -1.
         25    2    1    2    0    0 -0.11333624782E+03 -0.52974684211E+02 -0.37859138948E+02  0.18085908609E+03  0.12500108952E+03 0.  0.
          2    1    1    2  501    0  0.23078708834E+02 -0.26506656188E+02 -0.62714879215E+02  0.71891485579E+02  0.00000000000E+00 0. -1.
          1    1    1    2  502    0  0.90257538983E+02  0.79481340400E+02  0.83262849757E+03  0.84126923264E+03  0.00000000000E+00 0. -1.
         22    1    3    3    0    0 -0.44817368889E+02  0.38537142704E+02 -0.29956680778E+02  0.66265455896E+02  0.00000000000E+00 0.  1.
         22    1    3    3    0    0 -0.68518878928E+02 -0.91511826915E+02 -0.79024581707E+01  0.11459363019E+03  0.00000000000E+00 0.  1.
</event>
<event>
 7    1  0.5575489E-006  0.8934114E+02  0.7818608E-02  0.1428175E+00
          2   -1    0    0  502    0  0.00000000000E+00  0.00000000000E+00  0.11324655180E+04  0.11324655180E+04  0.00000000000E+00 0. -1.
          1   -1    0    0  501    0 -0.00000000000E+00 -0.00000000000E+00 -0.14725894427E+03  0.14725894427E+03  0.00000000000E+00 0. -1.
         25    2    1    2    0    0 -0.11148477538E+03 -0.16056868135E+02  0.19974553694E+03  0.26116933292E+03  0.12499785107E+03 0.  0.
          2    1    1    2  501    0  0.23773349267E+02  0.21168042577E+02 -0.11218802814E+03  0.11661651607E+03  0.00000000000E+00 0. -1.
          1    1    1    2  502    0  0.87711426109E+02 -0.51111744417E+01  0.89764906496E+03  0.90193861332E+03  0.00000000000E+00 0. -1.
         22    1    3    3    0    0  0.18843850544E+02 -0.27743540269E+02  0.66154448285E+02  0.74170113644E+02  0.00000000000E+00 0. -1.
         22    1    3    3    0    0 -0.13032862592E+03  0.11686672133E+02  0.13359108866E+03  0.18699921927E+03  0.00000000000E+00 0. -1.
</event>
<event>
 7    1  0.5575489E-006  0.1488038E+03  0.7818608E-02  0.1303011E+00
          2   -1    0    0  502    0  0.00000000000E+00  0.00000000000E+00  0.10052748564E+04  0.10052748564E+04  0.00000000000E+00 0. -1.
          1   -1    0    0  501    0 -0.00000000000E+00 -0.00000000000E+00 -0.30813976325E+03  0.30813976325E+03  0.00000000000E+00 0. -1.
         25    2    1    2    0    0 -0.17552806388E+03  0.80723209966E+02  0.64316037353E+03  0.68308603936E+03  0.12499973304E+03 0.  0.
          2    1    1    2  501    0  0.12128098008E+03 -0.84141102649E+02 -0.26683749434E+03  0.30494433864E+03  0.00000000000E+00 0. -1.
          1    1    1    2  502    0  0.54247083803E+02  0.34178926823E+01  0.32081221399E+03  0.32538424169E+03  0.00000000000E+00 0. -1.
         22    1    3    3    0    0  0.37383189116E+01  0.45921126753E+02  0.10139815179E+03  0.11137463848E+03  0.00000000000E+00 0. -1.
         22    1    3    3    0    0 -0.17926638279E+03  0.34802083214E+02  0.54176222174E+03  0.57171140088E+03  0.00000000000E+00 0. -1.
</event>
<event>
 7    1  0.5575489E-006  0.6076387E+02  0.7818608E-02  0.1464244E+00
          2   -1    0    0  502    0  0.00000000000E+00  0.00000000000E+00  0.26668688214E+04  0.26668688214E+04  0.00000000000E+00 0. -1.
          1   -1    0    0  501    0 -0.00000000000E+00 -0.00000000000E+00 -0.33528420850E+03  0.33528420850E+03  0.00000000000E+00 0. -1.
         25    2    1    2    0    0 -0.58196969245E+02 -0.76205658895E+02  0.23124006837E+03  0.27980531238E+03  0.12499941576E+03 0.  0.
          2    1    1    2  501    0  0.23831973037E+02  0.26752171609E+02 -0.30959232146E+03  0.31165854253E+03  0.00000000000E+00 0. -1.
          1    1    1    2  502    0  0.34364996209E+02  0.49453487286E+02  0.24099368660E+04  0.24106891750E+04  0.00000000000E+00 0. -1.
         22    1    3    3    0    0  0.20626172379E+02 -0.32689670360E+02  0.16110023383E+03  0.16567238417E+03  0.00000000000E+00 0.  1.
         22    1    3    3    0    0 -0.78823141624E+02 -0.43515988536E+02  0.70139834533E+02  0.11413292821E+03  0.00000000000E+00 0.  1.
</event>
<event>
 7    1  0.8110374E-006  0.1092073E+03  0.7818608E-02  0.1320394E+00
          2   -1    0    0  502    0  0.00000000000E+00  0.00000000000E+00  0.29648727251E+04  0.29648727251E+04  0.00000000000E+00 0. -1.
          1   -1    0    0  501    0 -0.00000000000E+00 -0.00000000000E+00 -0.11619953694E+04  0.11619953694E+04  0.00000000000E+00 0. -1.
         25    2    1    2    0    0 -0.73190962979E+02  0.39268444615E+02 -0.60783594494E+03  0.62608943142E+03  0.12499804946E+03 0.  0.
          2    1    1    2  501    0  0.93206825505E+02 -0.99300547931E+02 -0.53617989589E+03  0.55320610255E+03  0.00000000000E+00 0. -1.
          1    1    1    2  502    0 -0.20015862526E+02  0.60032103316E+02  0.29468931965E+04  0.29475725606E+04  0.00000000000E+00 0. -1.
         22    1    3    3    0    0  0.24282056851E+02  0.19247930049E+02 -0.32082807500E+03  0.32232088794E+03  0.00000000000E+00 0.  1.
         22    1    3    3    0    0 -0.97473019830E+02  0.20020514566E+02 -0.28700786995E+03  0.30376854348E+03  0.00000000000E+00 0.  1.
</event>
<event>
 7    1  0.5575489E-006  0.1027379E+03  0.7818608E-02  0.1302077E+00
          2   -1    0    0  502    0  0.00000000000E+00  0.00000000000E+00  0.47975075517E+03  0.47975075517E+03  0.00000000000E+00 0. -1.
          1   -1    0    0  501    0 -0.00000000000E+00 -0.00000000000E+00 -0.38444932809E+03  0.38444932809E+03  0.00000000000E+00 0. -1.
         25    2    1    2    0    0 -0.31174329459E+02  0.12831570973E+03  0.57674578603E+02  0.19075497078E+03  0.12499736669E+03 0.  0.
          2    1    1    2  501    0  0.71498204074E+02 -0.34540019697E+02 -0.30539921457E+03  0.31555298510E+03  0.00000000000E+00 0. -1.
          1    1    1    2  502    0 -0.40323874616E+02 -0.93775690030E+02  0.34302606305E+03  0.35789212738E+03  0.00000000000E+00 0. -1.
         22    1    3    3    0    0  0.42780750601E+02  0.23308216023E+02 -0.27890855198E+01  0.48797997441E+02  0.00000000000E+00 0. -1.
         22    1    3    3    0    0 -0.73955080060E+02  0.10500749370E+03  0.60463664123E+02  0.14195697334E+03  0.00000000000E+00 0. -1.
</event>
<event>
 7    1  0.5575489E-006  0.1007894E+03  0.7818608E-02  0.1380314E+00
          2   -1    0    0  502    0  0.00000000000E+00  0.00000000000E+00  0.32000403790E+03  0.32000403790E+03  0.00000000000E+00 0. -1.
          1   -1    0    0  501    0 -0.00000000000E+00 -0.00000000000E+00 -0.11055132706E+04  0.11055132706E+04  0.00000000000E+00 0. -1.
         25    2    1    2    0    0 -0.19206664019E+02  0.96442463138E+02 -0.34745241517E+03  0.38212410849E+03  0.12500243535E+03 0.  0.
          2    1    1    2  501    0  0.41066122574E+02  0.21996386372E+01 -0.73169973531E+03  0.73285453364E+03  0.00000000000E+00 0. -1.
          1    1    1    2  502    0 -0.21859458555E+02 -0.98642101776E+02  0.29364291776E+03  0.31053866638E+03  0.00000000000E+00 0. -1.
         22    1    3    3    0    0 -0.14616728851E+02  0.12693557324E+03 -0.29051810317E+03  0.31737526177E+03  0.00000000000E+00 0. -1.
         22    1    3    3    0    0 -0.45899351683E+01 -0.30493110101E+02 -0.56934312004E+02  0.64748846722E+02  0.00000000000E+00 0. -1.
</event>
<event>
 7    1  0.5575489E-006  0.6156862E+02  0.7818608E-02  0.1440673E+00
          2   -1    0    0  502    0  0.00000000000E+00  0.00000000000E+00  0.86473095080E+02  0.86473095080E+02  0.00000000000E+00 0. -1.
          1   -1    0    0  501    0 -0.00000000000E+00 -0.00000000000E+00 -0.81504353442E+03  0.81504353442E+03  0.00000000000E+00 0. -1.
         25    2    1    2    0    0 -0.11465564136E+02 -0.25990795861E+02 -0.62231928830E+02  0.14249589341E+03  0.12500114417E+03 0.  0.
          2    1    1    2  501    0 -0.20903514098E+02 -0.36475070812E+02 -0.68495580664E+03  0.68624474114E+03  0.00000000000E+00 0. -1.
          1    1    1    2  502    0  0.32369078234E+02  0.62465866672E+02  0.18617296131E+02  0.72775994944E+02  0.00000000000E+00 0. -1.
         22    1    3    3    0    0 -0.59685308063E+02  0.17376825577E+02 -0.40079889970E+02  0.73964097005E+02  0.00000000000E+00 0.  1.
         22    1    3    3    0    0  0.48219743927E+02 -0.43367621438E+02 -0.22152038860E+02  0.68531796410E+02  0.00000000000E+00 0.  1.
</event>
<event>
 7    1  0.5575489E-006  0.5285483E+02  0.7818608E-02  0.1500846E+00
          2   -1    0    0  502    0  0.00000000000E+00  0.00000000000E+00  0.45794614252E+03  0.45794614252E+03  0.00000000000E+00 0. -1.
          1   -1    0    0  501    0 -0.00000000000E+00 -0.00000000000E+00 -0.16799717962E+04  0.16799717962E+04  0.00000000000E+00 0. -1.
         25    2    1    2    0    0  0.54635590431E+02  0.11148243309E+02 -0.58825738077E+02  0.14897015722E+03  0.12498923638E+03 0.  0.
          2    1    1    2  501    0 -0.48924918815E+02  0.20168441744E+02 -0.15750152138E+04  0.15759039747E+04  0.00000000000E+00 0. -1.
          1    1    1    2  502    0 -0.57106716153E+01 -0.31316685053E+02  0.41181529819E+03  0.41304380683E+03  0.00000000000E+00 0. -1.
         22    1    3    3    0    0  0.56124934169E+02  0.31327005517E+02  0.20215722568E+02  0.67380004075E+02  0.00000000000E+00 0.  1.
         22    1    3    3    0    0 -0.14893437384E+01 -0.20178762208E+02 -0.79041460645E+02  0.81590153143E+02  0.00000000000E+00 0.  1.
</event>
<event>
 7    1  0.5575489E-006  0.1764490E+03  0.7818608E-02  0.1313672E+00
          2   -1    0    0  502    0  0.00000000000E+00  0.00000000000E+00  0.11182017107E+04  0.11182017107E+04  0.00000000000E+00 0. -1.
          1   -1    0    0  501    0 -0.00000000000E+00 -0.00000000000E+00 -0.83006353020E+03  0.83006353020E+03  0.00000000000E+00 0. -1.
         25    2    1    2    0    0 -0.12869228378E+03  0.12902860711E+03 -0.11916305999E+03  0.25106483303E+03  0.12499452052E+03 0.  0.
          2    1    1    2  501    0  0.35910510020E+02  0.21002508830E+02 -0.63687302317E+03  0.63823030150E+03  0.00000000000E+00 0. -1.
          1    1    1    2  502    0  0.92781773763E+02 -0.15003111594E+03  0.10441742636E+04  0.10589701064E+04  0.00000000000E+00 0. -1.
         22    1    3    3    0    0 -0.95114823226E+02  0.11093218642E+03 -0.23403654825E+02  0.14798821115E+03  0.00000000000E+00 0.  1.
         22    1    3    3    0    0 -0.33577460556E+02  0.18096420691E+02 -0.95759405169E+02  0.10307662188E+03  0.00000000000E+00 0.  1.
</event>
<event>
 7    1  0.5575489E-006  0.6823984E+02  0.7818608E-02  0.1393068E+00
          2   -1    0    0  502    0  0.00000000000E+00  0.00000000000E+00  0.34440476792E+03  0.34440476792E+03  0.00000000000E+00 0. -1.
          1   -1    0    0  501    0 -0.00000000000E+00 -0.00000000000E+00 -0.15143807807E+04  0.15143807807E+04  0.00000000000E+00 0. -1.
         25    2    1    2    0    0 -0.14201317021E+02  0.12083160027E+03 -0.12839156719E+03  0.21658887028E+03  0.12499756467E+03 0.  0.
          2    1    1    2  501    0  0.32225546331E+01 -0.67146074063E+02 -0.13385403666E+04  0.13402273289E+04  0.00000000000E+00 0. -1.
          1    1    1    2  502    0  0.10978762388E+02 -0.53685526206E+02  0.29695592104E+03  0.30196934941E+03  0.00000000000E+00 0. -1.
         22    1    3    3    0    0  0.37384053026E+01  0.58317069735E+02 -0.13891456613E+03  0.15070538470E+03  0.00000000000E+00 0.  1.
         22    1    3    3    0    0 -0.17939722324E+02  0.62514530534E+02  0.10522998935E+02  0.65883485575E+02  0.00000000000E+00 0.  1.
</event>
<event>
 7    1  0.9161463E-006  0.7477729E+02  0.7818608E-02  0.1439737E+00
          2   -1    0    0  502    0  0.00000000000E+00  0.00000000000E+00  0.19899952158E+04  0.19899952158E+04  0.00000000000E+00 0. -1.
          1   -1    0    0  501    0 -0.00000000000E+00 -0.00000000000E+00 -0.87892192420E+03  0.87892192420E+03  0.00000000000E+00 0. -1.
         25    2    1    2    0    0  0.17947098098E+02  0.86383368163E+02 -0.47990317348E+03  0.50370202619E+03  0.12499796258E+03 0.  0.
          2    1    1    2  501    0 -0.32336907963E+02 -0.13013288877E+02 -0.38562643546E+03  0.38719861703E+03  0.00000000000E+00 0. -1.
          1    1    1    2  502    0  0.14389809865E+02 -0.73370079286E+02  0.19766029006E+04  0.19780164968E+04  0.00000000000E+00 0. -1.
         22    1    3    3    0    0 -0.76739479647E+01  0.10628952040E+03 -0.25353701473E+03  0.27502248901E+03  0.00000000000E+00 0.  1.
         22    1    3    3    0    0  0.25621046062E+02 -0.19906152233E+02 -0.22636615875E+03  0.22867953718E+03  0.00000000000E+00 0.  1.
</event>
<event>
 7    1  0.5575489E-006  0.7796921E+02  0.7818608E-02  0.1446458E+00
          2   -1    0    0  502    0  0.00000000000E+00  0.00000000000E+00  0.94950368513E+03  0.94950368513E+03  0.00000000000E+00 0. -1.
          1   -1    0    0  501    0 -0.00000000000E+00 -0.00000000000E+00 -0.13587019323E+03  0.13587019323E+03  0.00000000000E+00 0. -1.
         25    2    1    2    0    0  0.34194899128E+02 -0.46412902264E+02  0.48715604930E+01  0.13773808496E+03  0.12499839729E+03 0.  0.
          2    1    1    2  501    0 -0.35714430333E+02  0.78176368446E+02 -0.42429509887E+02  0.95850552563E+02  0.00000000000E+00 0. -1.
          1    1    1    2  502    0  0.15195312049E+01 -0.31763466182E+02  0.85119144130E+03  0.85178524083E+03  0.00000000000E+00 0. -1.
         22    1    3    3    0    0 -0.46981210364E+02 -0.25256364500E+02  0.71664498492E+01  0.53818919336E+02  0.00000000000E+00 0. -1.
         22    1    3    3    0    0  0.81176109492E+02 -0.21156537764E+02 -0.22948893562E+01  0.83919165627E+02  0.00000000000E+00 0. -1.
</event>
<event>
 7    1  0.5575489E-006  0.6812537E+02  0.7818608E-02  0.1406065E+00
          2   -1    0    0  502    0  0.00000000000E+00  0.00000000000E+00  0.15880597273E+04  0.15880597273E+04  0.00000000000E+00 0. -1.
          1   -1    0    0  501    0 -0.00000000000E+00 -0.00000000000E+00 -0.97146102359E+03  0.97146102359E+03  0.00000000000E+00 0. -1.
         25    2    1    2    0    0  0.10911661258E+03  0.15632219111E+02  0.61140004540E+03  0.63371447043E+03  0.12503284807E+03 0.  0.
          2    1    1    2  501    0 -0.61484945357E+02 -0.29169447994E+02 -0.95846163263E+03  0.96087457893E+03  0.00000000000E+00 0. -1.
          1    1    1    2  502    0 -0.47631667222E+02  0.13537228883E+02  0.96366029091E+03  0.96493170151E+03  0.00000000000E+00 0. -1.
         22    1    3    3    0    0  0.21270702349E+02  0.53901695901E+02  0.36073359586E+03  0.36535812948E+03  0.00000000000E+00 0. -1.
         22    1    3    3    0    0  0.87845910230E+02 -0.38269476790E+02  0.25066644954E+03  0.26835634094E+03  0.00000000000E+00 0. -1.
</event>
<event>
 7    1  0.5575489E-006  0.1008219E+03  0.7818608E-02  0.1384345E+00
          2   -1    0    0  502    0  0.00000000000E+00  0.00000000000E+00  0.31663844355E+04  0.31663844355E+04  0.00000000000E+00 0. -1.
          1   -1    0    0  501    0 -0.00000000000E+00 -0.00000000000E+00 -0.12506147020E+02  0.12506147020E+02  0.00000000000E+00 0. -1.
         25    2    1    2    0    0  0.33730059722E+02 -0.63234060399E+02  0.13846534407E+04  0.13921302663E+04  0.12500105674E+03 0.  0.
          2    1    1    2  501    0 -0.66932947137E+02  0.85155100983E+02  0.33689555851E+03  0.35387854976E+03  0.00000000000E+00 0. -1.
          1    1    1    2  502    0  0.33202887414E+02 -0.21921040584E+02  0.14323292893E+04  0.14328817665E+04  0.00000000000E+00 0. -1.
         22    1    3    3    0    0  0.67983457464E+02 -0.56612140892E+02  0.12466548904E+04  0.12497900226E+04  0.00000000000E+00 0. -1.
         22    1    3    3    0    0 -0.34253397742E+02 -0.66219195070E+01  0.13799855032E+03  0.14234024366E+03  0.00000000000E+00 0. -1.
</event>
<event>
 7    1  0.1001183E-005  0.9280955E+02  0.7818608E-02  0.1353693E+00
          2   -1    0    0  502    0  0.00000000000E+00  0.00000000000E+00  0.21342462609E+04  0.21342462609E+04  0.00000000000E+00 0. -1.
          1   -1    0    0  501    0 -0.00000000000E+00 -0.00000000000E+00 -0.56224446039E+03  0.56224446039E+03  0.00000000000E+00 0. -1.
         25    2    1    2    0    0 -0.34264341148E+02  0.10211672156E+03 -0.24298326741E+03  0.29371158810E+03  0.12499503527E+03 0.  0.
          2    1    1    2  501    0  0.54519384049E+02 -0.11542179694E+02 -0.29022363719E+03  0.29552553990E+03  0.00000000000E+00 0. -1.
          1    1    1    2  502    0 -0.20255042901E+02 -0.90574541867E+02  0.21052087051E+04  0.21072535933E+04  0.00000000000E+00 0. -1.
         22    1    3    3    0    0 -0.27319566863E+02 -0.15846455658E+02 -0.11612547908E+03  0.12034365701E+03  0.00000000000E+00 0. -1.
         22    1    3    3    0    0 -0.69447742852E+01  0.11796317722E+03 -0.12685778833E+03  0.17336793109E+03  0.00000000000E+00 0. -1.
</event>
<event>
 7    1  0.5575489E-006  0.5099032E+02  0.7818608E-02  0.1558470E+00
          2   -1    0    0  502    0  0.00000000000E+00  0.00000000000E+00  0.12173957652E+04  0.12173957652E+04  0.00000000000E+00 0. -1.
          1   -1    0    0  501    0 -0.00000000000E+00 -0.00000000000E+00 -0.61110062615E+02  0.61110062615E+02  0.00000000000E+00 0. -1.
         25    2    1    2    0    0 -0.16254568285E+02  0.35920195621E+02  0.73439775610E+03  0.74600223495E+03  0.12499919579E+03 0.  0.
          2    1    1    2  501    0  0.12661499425E+02  0.18666135740E+02 -0.51365206897E+02  0.56099221659E+02  0.00000000000E+00 0. -1.
          1    1    1    2  502    0  0.35930688610E+01 -0.54586331361E+02  0.47325315343E+03  0.47640437126E+03  0.00000000000E+00 0. -1.
         22    1    3    3    0    0 -0.22644429219E+02  0.12507566297E+02  0.24307508060E+02  0.35497384938E+02  0.00000000000E+00 0. -1.
         22    1    3    3    0    0  0.63898609332E+01  0.23412629323E+02  0.71009024804E+03  0.71050485001E+03  0.00000000000E+00 0. -1.
</event>
<event>
 7    1  0.5575489E-006  0.1085122E+03  0.7818608E-02  0.1310439E+00
          2   -1    0    0  502    0  0.00000000000E+00  0.00000000000E+00  0.30820805248E+04  0.30820805248E+04  0.00000000000E+00 0. -1.
          1   -1    0    0  501    0 -0.00000000000E+00 -0.00000000000E+00 -0.10973727240E+03  0.10973727240E+03  0.00000000000E+00 0. -1.
         25    2    1    2    0    0 -0.10360704700E+03  0.50632000136E+01  0.36582313230E+03  0.40026428859E+03  0.12499952165E+03 0.  0.
          2    1    1    2  501    0  0.20013587390E+02  0.66717103102E+02 -0.78114138901E+02  0.10465913349E+03  0.00000000000E+00 0. -1.
          1    1    1    2  502    0  0.83593459613E+02 -0.71780303116E+02  0.26846342590E+04  0.26868943751E+04  0.00000000000E+00 0. -1.
         22    1    3    3    0    0  0.27181556328E+02  0.73446922806E+00  0.33774963710E+02  0.43360403862E+02  0.00000000000E+00 0. -1.
         22    1    3    3    0    0 -0.13078860333E+03  0.43287307856E+01  0.33204816859E+03  0.35690388473E+03  0.00000000000E+00 0. -1.
</event>
<event>
 7    1  0.5575489E-006  0.1615843E+03  0.7818608E-02  0.1265160E+00
          2   -1    0    0  502    0  0.00000000000E+00  0.00000000000E+00  0.14732368039E+04  0.14732368039E+04  0.00000000000E+00 0. -1.
          1   -1    0    0  501    0 -0.00000000000E+00 -0.00000000000E+00 -0.45037392460E+04  0.45037392460E+04  0.00000000000E+00 0. -1.
         25    2    1    2    0    0  0.60879162878E+02  0.79950563503E+02 -0.23811567425E+03  0.28709304703E+03  0.12499991300E+03 0.  0.
          2    1    1    2  501    0 -0.68042307030E+02 -0.15118694910E+03 -0.42386287344E+04  0.42418699647E+04  0.00000000000E+00 0. -1.
          1    1    1    2  502    0  0.71631441520E+01  0.71236385596E+02  0.14462419665E+04  0.14480130382E+04  0.00000000000E+00 0. -1.
         22    1    3    3    0    0  0.63067615333E+02  0.74250381142E+02 -0.25294448467E+03  0.27105636965E+03  0.00000000000E+00 0. -1.
         22    1    3    3    0    0 -0.21884524545E+01  0.57001823613E+01  0.14828810413E+02  0.16036677379E+02  0.00000000000E+00 0. -1.
</event>
<event>
 7    1  0.5575489E-006  0.8976159E+02  0.7818608E-02  0.1311648E+00
          2   -1    0    0  502    0  0.00000000000E+00  0.00000000000E+00  0.32332130991E+03  0.32332130991E+03  0.00000000000E+00 0. -1.
          1   -1    0    0  501    0 -0.00000000000E+00 -0.00000000000E+00 -0.60861015737E+03  0.60861015737E+03  0.00000000000E+00 0. -1.
         25    2    1    2    0    0 -0.53119649433E+02  0.83488968096E+02 -0.16684505672E+03  0.23076719883E+03  0.12499648857E+03 0.  0.
          2    1    1    2  501    0  0.83260749203E+02  0.21125831451E+01 -0.39832386391E+03  0.40693822127E+03  0.00000000000E+00 0. -1.
          1    1    1    2  502    0 -0.30141099771E+02 -0.85601551241E+02  0.27988007318E+03  0.29422604717E+03  0.00000000000E+00 0. -1.
         22    1    3    3    0    0  0.33522262402E+02  0.47130640933E+02 -0.31079431332E+02  0.65657980804E+02  0.00000000000E+00 0. -1.
         22    1    3    3    0    0 -0.86641911835E+02  0.36358327163E+02 -0.13576562539E+03  0.16510921803E+03  0.00000000000E+00 0. -1.
</event>
<event>
 7    1  0.5575489E-006  0.3274947E+02  0.7818608E-02  0.1606269E+00
          2   -1    0    0  502    0  0.00000000000E+00  0.00000000000E+00  0.17676909283E+04  0.17676909283E+04  0.00000000000E+00 0. -1.
          1   -1    0    0  501    0 -0.00000000000E+00 -0.00000000000E+00 -0.87698941953E+02  0.87698941953E+02  0.00000000000E+00 0. -1.
         25    2    1    2    0    0  0.86053297842E+01  0.54832868779E+02  0.10533093796E+04  0.10621517268E+04  0.12499978591E+03 0.  0.
          2    1    1    2  501    0  0.30036491767E+01 -0.25992209369E+02 -0.80872742161E+02  0.85000101652E+02  0.00000000000E+00 0. -1.
          1    1    1    2  502    0 -0.11608978961E+02 -0.28840659410E+02  0.70755534896E+03  0.70823804181E+03  0.00000000000E+00 0. -1.
         22    1    3    3    0    0  0.23800388132E+02  0.87987145264E+02  0.54807459422E+03  0.55560233714E+03  0.00000000000E+00 0.  1.
         22    1    3    3    0    0 -0.15195058348E+02 -0.33154276485E+02  0.50523478533E+03  0.50654938965E+03  0.00000000000E+00 0.  1.
</event>
<event>
 7    1  0.5575489E-006  0.6866902E+02  0.7818608E-02  0.1454033E+00
          2   -1    0    0  502    0  0.00000000000E+00  0.00000000000E+00  0.61576783906E+03  0.61576783906E+03  0.00000000000E+00 0. -1.
          1   -1    0    0  501    0 -0.00000000000E+00 -0.00000000000E+00 -0.24884340601E+03  0.24884340601E+03  0.00000000000E+00 0. -1.
         25    2    1    2    0    0  0.95417467353E+02  0.20162215115E+02 -0.81888979115E+02  0.17844623135E+03  0.12500497825E+03 0.  0.
          2    1    1    2  501    0 -0.62741696915E+02 -0.10245114984E+02 -0.10960296601E+03  0.12670553686E+03  0.00000000000E+00 0. -1.
          1    1    1    2  502    0 -0.32675770438E+02 -0.99171001311E+01  0.55841637817E+03  0.55945947687E+03  0.00000000000E+00 0. -1.
         22    1    3    3    0    0  0.82116554880E+02  0.29173109607E+01 -0.11346222620E+03  0.14009038533E+03  0.00000000000E+00 0. -1.
         22    1    3    3    0    0  0.13300912473E+02  0.17244904154E+02  0.31573247086E+02  0.38355846014E+02  0.00000000000E+00 0. -1.
</event>
<event>
 7    1  0.5575489E-006  0.7645200E+02  0.7818608E-02  0.1339644E+00
          2   -1    0    0  502    0  0.00000000000E+00  0.00000000000E+00  0.14500976329E+04  0.14500976329E+04  0.00000000000E+00 0. -1.
          1   -1    0    0  501    0 -0.00000000000E+00 -0.00000000000E+00 -0.77554043191E+03  0.77554043191E+03  0.00000000000E+00 0. -1.
         25    2    1    2    0    0 -0.74366219170E+02  0.13153622657E+03  0.13191990375E+04  0.13336950201E+04  0.12499676963E+03 0.  0.
          2    1    1    2  501    0  0.27731083673E+02 -0.71131348578E+02 -0.75440517510E+03  0.75825843218E+03  0.00000000000E+00 0. -1.
          1    1    1    2  502    0  0.46635135498E+02 -0.60404877992E+02  0.10976333859E+03  0.13368461260E+03  0.00000000000E+00 0. -1.
         22    1    3    3    0    0  0.18893214347E+02  0.80776621893E+02  0.40932962147E+03  0.41765123633E+03  0.00000000000E+00 0. -1.
         22    1    3    3    0    0 -0.93259433517E+02  0.50759604677E+02  0.90986941607E+03  0.91604378373E+03  0.00000000000E+00 0. -1.
</event>
<event>
 7    1  0.5575489E-006  0.1702151E+03  0.7818608E-02  0.1232337E+00
          2   -1    0    0  502    0  0.00000000000E+00  0.00000000000E+00  0.90454159519E+03  0.90454159519E+03  0.00000000000E+00 0. -1.
          1   -1    0    0  501    0 -0.00000000000E+00 -0.00000000000E+00 -0.56684339284E+03  0.56684339284E+03  0.00000000000E+00 0. -1.
         25    2    1    2    0    0  0.10827176451E+03  0.55363211528E+02 -0.56443490154E+02  0.18328927718E+03  0.12498492456E+03 0.  0.
          2    1    1    2  501    0 -0.11503771143E+03 -0.14952654697E+03 -0.42423480519E+03  0.46429196981E+03  0.00000000000E+00 0. -1.
          1    1    1    2  502    0  0.67659469272E+01  0.94163335440E+02  0.81837649769E+03  0.82380374104E+03  0.00000000000E+00 0. -1.
         22    1    3    3    0    0 -0.99756246990E+01  0.51414741901E+02 -0.40345810624E+00  0.52375104309E+02  0.00000000000E+00 0.  1.
         22    1    3    3    0    0  0.11824738920E+03  0.39484696270E+01 -0.56040032048E+02  0.13091417287E+03  0.00000000000E+00 0.  1.
</event>
<event>
 7    1  0.5575489E-006  0.3629796E+02  0.7818608E-02  0.1540718E+00
          2   -1    0    0  502    0  0.00000000000E+00  0.00000000000E+00  0.62110302202E+02  0.62110302202E+02  0.00000000000E+00 0. -1.
          1   -1    0    0  501    0 -0.00000000000E+00 -0.00000000000E+00 -0.21579080020E+04  0.21579080020E+04  0.00000000000E+00 0. -1.
         25    2    1    2    0    0  0.48441183187E+02  0.51321766739E+02 -0.37091448246E+03  0.39772199214E+03  0.12499903103E+03 0.  0.
          2    1    1    2  501    0 -0.20620217131E+02 -0.28914392110E+02 -0.17668373155E+04  0.17671941984E+04  0.00000000000E+00 0. -1.
          1    1    1    2  502    0 -0.27820966056E+02 -0.22407374630E+02  0.41954098099E+02  0.55102113729E+02  0.00000000000E+00 0. -1.
         22    1    3    3    0    0  0.75262223397E+02  0.56750004508E+01 -0.12374824078E+03  0.14494907725E+03  0.00000000000E+00 0. -1.
         22    1    3    3    0    0 -0.26821040210E+02  0.45646766289E+02 -0.24716624169E+03  0.25277291489E+03  0.00000000000E+00 0. -1.
</event>
<event>
 7    1  0.5575489E-006  0.1772423E+03  0.7818608E-02  0.1379338E+00
          2   -1    0    0  502    0  0.00000000000E+00  0.00000000000E+00  0.47201003925E+03  0.47201003925E+03  0.00000000000E+00 0. -1.
          1   -1    0    0  501    0 -0.00000000000E+00 -0.00000000000E+00 -0.12588335347E+04  0.12588335347E+04  0.00000000000E+00 0. -1.
         25    2    1    2    0    0  0.15522732209E+03  0.28740485087E+02 -0.40038860948E+03  0.44817135212E+03  0.12499994102E+03 0.  0.
          2    1    1    2  501    0  0.21751706066E+02 -0.90851805305E+01 -0.81668731336E+03  0.81702744447E+03  0.00000000000E+00 0. -1.
          1    1    1    2  502    0 -0.17697902815E+03 -0.19655304556E+02  0.43025242739E+03  0.46564477736E+03  0.00000000000E+00 0. -1.
         22    1    3    3    0    0  0.10010836440E+03  0.35202756408E+02 -0.36996406667E+03  0.38488222784E+03  0.00000000000E+00 0.  1.
         22    1    3    3    0    0  0.55118957686E+02 -0.64622713215E+01 -0.30424542814E+02  0.63289124283E+02  0.00000000000E+00 0.  1.
</event>
<event>
 7    1  0.5575489E-006  0.5753742E+02  0.7818608E-02  0.1490014E+00
          2   -1    0    0  502    0  0.00000000000E+00  0.00000000000E+00  0.38933011418E+04  0.38933011418E+04  0.00000000000E+00 0. -1.
          1   -1    0    0  501    0 -0.00000000000E+00 -0.00000000000E+00 -0.28880097385E+03  0.28880097385E+03  0.00000000000E+00 0. -1.
         25    2    1    2    0    0  0.25819882881E+02 -0.56519932111E+01  0.21781791692E+04  0.21819231061E+04  0.12500134552E+03 0.  0.
          2    1    1    2  501    0 -0.57334728192E+02  0.52973166330E+01 -0.28389371763E+03  0.28967391241E+03  0.00000000000E+00 0. -1.
          1    1    1    2  502    0  0.31514845311E+02  0.35467657815E+00  0.17102147163E+04  0.17105050971E+04  0.00000000000E+00 0. -1.
         22    1    3    3    0    0  0.57648359767E+02 -0.47696983240E+02  0.12155452423E+04  0.12178458735E+04  0.00000000000E+00 0. -1.
         22    1    3    3    0    0 -0.31828476886E+02  0.42044990029E+02  0.96263392693E+03  0.96407723260E+03  0.00000000000E+00 0. -1.
</event>
<event>
 7    1  0.5575489E-006  0.9709197E+02  0.7818608E-02  0.1303399E+00
          2   -1    0    0  502    0  0.00000000000E+00  0.00000000000E+00  0.17414197682E+04  0.17414197682E+04  0.00000000000E+00 0. -1.
          1   -1    0    0  501    0 -0.00000000000E+00 -0.00000000000E+00 -0.63248297778E+03  0.63248297778E+03  0.00000000000E+00 0. -1.
         25    2    1    2    0    0  0.14334086300E+03  0.58207968832E+02  0.31707434908E+03  0.37429460565E+03  0.12500215331E+03 0.  0.
          2    1    1    2  501    0 -0.96121658573E+02  0.10061470124E+02 -0.59876033026E+03  0.60651013142E+03  0.00000000000E+00 0. -1.
          1    1    1    2  502    0 -0.47219204425E+02 -0.68269438957E+02  0.13906227716E+04  0.13930980089E+04  0.00000000000E+00 0. -1.
         22    1    3    3    0    0  0.14574208196E+03  0.12128784387E+02  0.27675264019E+03  0.31301738884E+03  0.00000000000E+00 0.  1.
         22    1    3    3    0    0 -0.24012189623E+01  0.46079184446E+02  0.40321708892E+02  0.61277216808E+02  0.00000000000E+00 0.  1.
</event>
<event>
 7    1  0.5575489E-006  0.2121997E+03  0.7818608E-02  0.1370229E+00
          2   -1    0    0  502    0  0.00000000000E+00  0.00000000000E+00  0.42488167413E+03  0.42488167413E+03  0.00000000000E+00 0. -1.
          1   -1    0    0  501    0 -0.00000000000E+00 -0.00000000000E+00 -0.38818518149E+03  0.38818518149E+03  0.00000000000E+00 0. -1.
         25    2    1    2    0    0 -0.10540117775E+02 -0.19513946186E+03  0.10348202091E+03  0.25401440700E+03  0.12499714660E+03 0.  0.
          2    1    1    2  501    0  0.50992667267E+01  0.21565015524E+03 -0.27514100735E+03  0.34961917268E+03  0.00000000000E+00 0. -1.
          1    1    1    2  502    0  0.54408510484E+01 -0.20510693384E+02  0.20835547909E+03  0.20943327594E+03  0.00000000000E+00 0. -1.
         22    1    3    3    0    0  0.90611588620E+01 -0.19732716099E+03  0.60287609186E+02  0.20653016459E+03  0.00000000000E+00 0. -1.
         22    1    3    3    0    0 -0.19601276637E+02  0.21876991374E+01  0.43194411721E+02  0.47484242410E+02  0.00000000000E+00 0. -1.
</event>
<event>
 7    1  0.5575489E-006  0.3966634E+02  0.7818608E-02  0.1557087E+00
          2   -1    0    0  502    0  0.00000000000E+00  0.00000000000E+00  0.55104050708E+02  0.55104050708E+02  0.00000000000E+00 0. -1.
          1   -1    0    0  501    0 -0.00000000000E+00 -0.00000000000E+00 -0.82926993472E+03  0.82926993472E+03  0.00000000000E+00 0. -1.
         25    2    1    2    0    0  0.66637476403E+02 -0.21296079118E+01 -0.20243029428E+03  0.24707847673E+03  0.12499864450E+03 0.  0.
          2    1    1    2  501    0 -0.38039960856E+02  0.82751201304E+01 -0.59722797339E+03  0.59849542056E+03  0.00000000000E+00 0. -1.
          1    1    1    2  502    0 -0.28597515547E+02 -0.61455122185E+01  0.25492383653E+02  0.38800088146E+02  0.00000000000E+00 0. -1.
         22    1    3    3    0    0  0.47398159653E+02 -0.57609487708E+02 -0.70382763942E+02  0.10256301513E+03  0.00000000000E+00 0. -1.
         22    1    3    3    0    0  0.19239316749E+02  0.55479879797E+02 -0.13204753034E+03  0.14451546160E+03  0.00000000000E+00 0. -1.
</event>
<event>
 7    1  0.5575489E-006  0.1037976E+03  0.7818608E-02  0.1348900E+00
          2   -1    0    0  502    0  0.00000000000E+00  0.00000000000E+00  0.15688141585E+03  0.15688141585E+03  0.00000000000E+00 0. -1.
          1   -1    0    0  501    0 -0.00000000000E+00 -0.00000000000E+00 -0.10626235533E+04  0.10626235533E+04  0.00000000000E+00 0. -1.
         25    2    1    2    0    0 -0.21983609935E+02  0.96746811346E+02  0.16265536828E+02  0.16041578101E+03  0.12500172198E+03 0.  0.
          2    1    1    2  501    0  0.50751151638E+02  0.10877451490E+02 -0.94409279074E+03  0.94551847992E+03  0.00000000000E+00 0. -1.
          1    1    1    2  502    0 -0.28767541703E+02 -0.10762426284E+03  0.22085116429E+02  0.11357070826E+03  0.00000000000E+00 0. -1.
         22    1    3    3    0    0 -0.66342478058E+02  0.94106662714E+02  0.10894447994E+02  0.11565499280E+03  0.00000000000E+00 0. -1.
         22    1    3    3    0    0  0.44358868123E+02  0.26401486322E+01  0.53710888334E+01  0.44760788210E+02  0.00000000000E+00 0. -1.
</event>
<event>
 7    1  0.5575489E-006  0.7241266E+02  0.7818608E-02  0.1490042E+00
          2   -1    0    0  502    0  0.00000000000E+00  0.00000000000E+00  0.42482139048E+02  0.42482139048E+02  0.00000000000E+00 0. -1.
          1   -1    0    0  501    0 -0.00000000000E+00 -0.00000000000E+00 -0.24534901865E+04  0.24534901865E+04  0.00000000000E+00 0. -1.
         25    2    1    2    0    0  0.54557427428E+02 -0.10399114777E+02 -0.54686555710E+03  0.56371221666E+03  0.12499948479E+03 0.  0.
          2    1    1    2  501    0 -0.73804051748E+02 -0.56147905093E+01 -0.18927766800E+04  0.18942233565E+04  0.00000000000E+00 0. -1.
          1    1    1    2  502    0  0.19246624320E+02  0.16013905286E+02  0.28634189690E+02  0.38036752351E+02  0.00000000000E+00 0. -1.
         22    1    3    3    0    0  0.52837729909E+02  0.38549846995E+02 -0.45432872257E+03  0.45901253202E+03  0.00000000000E+00 0. -1.
         22    1    3    3    0    0  0.17196975193E+01 -0.48948961772E+02 -0.92536834530E+02  0.10469968464E+03  0.00000000000E+00 0. -1.
</event>
<event>
 7    1  0.5575489E-006  0.9131597E+02  0.7818608E-02  0.1327194E+00
          2   -1    0    0  502    0  0.00000000000E+00  0.00000000000E+00  0.35252092679E+03  0.35252092679E+03  0.00000000000E+00 0. -1.
          1   -1    0    0  501    0 -0.00000000000E+00 -0.00000000000E+00 -0.33516684752E+03  0.33516684752E+03  0.00000000000E+00 0. -1.
         25    2    1    2    0    0  0.18116668665E+02 -0.14683549581E+02  0.13381453936E+03  0.18461036476E+03  0.12502333990E+03 0.  0.
          2    1    1    2  501    0  0.81381729559E+02  0.41420048244E+02 -0.28846709879E+03  0.30257540116E+03  0.00000000000E+00 0. -1.
          1    1    1    2  502    0 -0.99498398224E+02 -0.26736498663E+02  0.17200663871E+03  0.20050200839E+03  0.00000000000E+00 0. -1.
         22    1    3    3    0    0 -0.31015985769E+02 -0.55266380031E+02  0.63470161844E+02  0.89692951671E+02  0.00000000000E+00 0. -1.
         22    1    3    3    0    0  0.49132654434E+02  0.40582830451E+02  0.70344377514E+02  0.94917413086E+02  0.00000000000E+00 0. -1.
</event>
<event>
 7    1  0.5575489E-006  0.1363330E+03  0.7818608E-02  0.1219376E+00
          2   -1    0    0  502    0  0.00000000000E+00  0.00000000000E+00  0.14457236216E+03  0.14457236216E+03  0.00000000000E+00 0. -1.
          1   -1    0    0  501    0 -0.00000000000E+00 -0.00000000000E+00 -0.11398171864E+04  0.11398171864E+04  0.00000000000E+00 0. -1.
         25    2    1    2    0    0 -0.80839471300E+02  0.84502258826E+02 -0.20666009327E+03  0.26834570322E+03  0.12500148169E+03 0.  0.
          2    1    1    2  501    0  0.12260406475E+03  0.59623229391E+02 -0.84485584349E+03  0.85578506791E+03  0.00000000000E+00 0. -1.
          1    1    1    2  502    0 -0.41764593453E+02 -0.14412548822E+03  0.56271112556E+02  0.16025877738E+03  0.00000000000E+00 0. -1.
         22    1    3    3    0    0 -0.36003319015E+02  0.11173214210E+03 -0.15766058526E+03  0.19656340123E+03  0.00000000000E+00 0.  1.
         22    1    3    3    0    0 -0.44836152285E+02 -0.27229883274E+02 -0.48999508006E+02  0.71782301995E+02  0.00000000000E+00 0.  1.
</event>
<event>
 7    1  0.5575489E-006  0.1334560E+03  0.7818608E-02  0.1323628E+00
          2   -1    0    0  502    0  0.00000000000E+00  0.00000000000E+00  0.89462562361E+02  0.89462562361E+02  0.00000000000E+00 0. -1.
          1   -1    0    0  501    0 -0.00000000000E+00 -0.00000000000E+00 -0.10938057039E+04  0.10938057039E+04  0.00000000000E+00 0. -1.
         25    2    1    2    0    0  0.10637772838E+03  0.13028832951E+03 -0.58168013943E+02  0.21748814936E+03  0.12500522933E+03 0.  0.
          2    1    1    2  501    0 -0.57550868999E+02 -0.11815081854E+03 -0.81031191520E+03  0.82090018782E+03  0.00000000000E+00 0. -1.
          1    1    1    2  502    0 -0.48826859385E+02 -0.12137510969E+02 -0.13586321241E+03  0.14487992910E+03  0.00000000000E+00 0. -1.
         22    1    3    3    0    0  0.81388844177E+02  0.52053767737E+01 -0.29704474466E+02  0.86796288556E+02  0.00000000000E+00 0. -1.
         22    1    3    3    0    0  0.24988884206E+02  0.12508295274E+03 -0.28463539477E+02  0.13069186080E+03  0.00000000000E+00 0. -1.
</event>
<event>
 7    1  0.5575489E-006  0.8249376E+02  0.7818608E-02  0.1378889E+00
          2   -1    0    0  502    0  0.00000000000E+00  0.00000000000E+00  0.35297601545E+03  0.35297601545E+03  0.00000000000E+00 0. -1.
          1   -1    0    0  501    0 -0.00000000000E+00 -0.00000000000E+00 -0.75744224816E+03  0.75744224816E+03  0.00000000000E+00 0. -1.
         25    2    1    2    0    0 -0.11023152710E+03 -0.25391625110E+02  0.18701794242E+03  0.25178550711E+03  0.12499802643E+03 0.  0.
          2    1    1    2  501    0  0.36646621349E+02  0.35228433204E+02 -0.71376884517E+03  0.71557667772E+03  0.00000000000E+00 0. -1.
          1    1    1    2  502    0  0.73584905755E+02 -0.98368080944E+01  0.12228467004E+03  0.14305607878E+03  0.00000000000E+00 0. -1.
         22    1    3    3    0    0 -0.36122971626E+01  0.41862865147E+02  0.55480878660E+02  0.69596523375E+02  0.00000000000E+00 0. -1.
         22    1    3    3    0    0 -0.10661922994E+03 -0.67254490257E+02  0.13153706376E+03  0.18218898374E+03  0.00000000000E+00 0. -1.
</event>
<event>
 7    1  0.5575489E-006  0.1080059E+03  0.7818608E-02  0.1274179E+00
          2   -1    0    0  502    0  0.00000000000E+00  0.00000000000E+00  0.23734600310E+04  0.23734600310E+04  0.00000000000E+00 0. -1.
          1   -1    0    0  501    0 -0.00000000000E+00 -0.00000000000E+00 -0.85014445226E+02  0.85014445226E+02  0.00000000000E+00 0. -1.
         25    2    1    2    0    0 -0.37882438951E+02  0.40325867692E+02  0.12997379264E+03  0.18862186558E+03  0.12499506636E+03 0.  0.
          2    1    1    2  501    0 -0.70576849325E+02 -0.68225615748E+02 -0.98367874120E+01  0.98653883306E+02  0.00000000000E+00 0. -1.
          1    1    1    2  502    0  0.10845928828E+03  0.27899748055E+02  0.21683085806E+04  0.21711987274E+04  0.00000000000E+00 0. -1.
         22    1    3    3    0    0 -0.50731549567E+02 -0.18068215654E+02  0.10280471839E+02  0.54825529087E+02  0.00000000000E+00 0. -1.
         22    1    3    3    0    0  0.12849110615E+02  0.58394083347E+02  0.11969332080E+03  0.13379633649E+03  0.00000000000E+00 0. -1.
</event>
<event>
 7    1  0.5575489E-006  0.8929127E+02  0.7818608E-02  0.1374525E+00
          2   -1    0    0  502    0  0.00000000000E+00  0.00000000000E+00  0.18590096426E+03  0.18590096426E+03  0.00000000000E+00 0. -1.
          1   -1    0    0  501    0 -0.00000000000E+00 -0.00000000000E+00 -0.41939919807E+03  0.41939919807E+03  0.00000000000E+00 0. -1.
         25    2    1    2    0    0  0.43633661431E+02  0.34367739598E+01  0.55110356693E+02  0.14344782053E+03  0.12499767188E+03 0.  0.
          2    1    1    2  501    0 -0.91894588391E+02  0.28872602997E+01 -0.36216342077E+03  0.37365130134E+03  0.00000000000E+00 0. -1.
          1    1    1    2  502    0  0.48260926961E+02 -0.63240342595E+01  0.73554830276E+02  0.88201040455E+02  0.00000000000E+00 0. -1.
         22    1    3    3    0    0  0.81435747944E+02 -0.10110386868E+02  0.61812027165E+02  0.10273620427E+03  0.00000000000E+00 0.  1.
         22    1    3    3    0    0 -0.37802086513E+02  0.13547160827E+02 -0.67016704722E+01  0.40711616258E+02  0.00000000000E+00 0.  1.
</event>
<event>
 7    1  0.5575489E-006  0.9649589E+02  0.7818608E-02  0.1391555E+00
          2   -1    0    0  502    0  0.00000000000E+00  0.00000000000E+00  0.15221654865E+04  0.15221654865E+04  0.00000000000E+00 0. -1.
          1   -1    0    0  501    0 -0.00000000000E+00 -0.00000000000E+00 -0.24863406307E+03  0.24863406307E+03  0.00000000000E+00 0. -1.
         25    2    1    2    0    0  0.79341355309E+02 -0.46597826763E+01  0.15184241118E+03  0.21211954827E+03  0.12498728211E+03 0.  0.
          2    1    1    2  501    0  0.85923214007E+01 -0.38270753272E+02 -0.21493208582E+03  0.21848176139E+03  0.00000000000E+00 0. -1.
          1    1    1    2  502    0 -0.87933676710E+02  0.42930535948E+02  0.13366210980E+04  0.13401982399E+04  0.00000000000E+00 0. -1.
         22    1    3    3    0    0  0.89636229133E+02 -0.37323372941E+02  0.60095785680E+02  0.11418927794E+03  0.00000000000E+00 0. -1.
         22    1    3    3    0    0 -0.10294873824E+02  0.32663590265E+02  0.91746625500E+02  0.97930270329E+02  0.00000000000E+00 0. -1.
</event>
<event>
 7    1  0.5575489E-006  0.1868080E+03  0.7818608E-02  0.1276344E+00
          2   -1    0    0  502    0  0.00000000000E+00  0.00000000000E+00  0.30438402461E+03  0.30438402461E+03  0.00000000000E+00 0. -1.
          1   -1    0    0  501    0 -0.00000000000E+00 -0.00000000000E+00 -0.44688803046E+03  0.44688803046E+03  0.00000000000E+00 0. -1.
         25    2    1    2    0    0  0.71414631723E+00 -0.17651230386E+03 -0.24273748096E+03  0.32512292693E+03  0.12500531801E+03 0.  0.
          2    1    1    2  501    0  0.49012193648E+02  0.20135807845E+03 -0.91486793957E+02  0.22653278869E+03  0.00000000000E+00 0. -1.
          1    1    1    2  502    0 -0.49726339966E+02 -0.24845774593E+02  0.19172026907E+03  0.19961633945E+03  0.00000000000E+00 0. -1.
         22    1    3    3    0    0 -0.33332778391E+02 -0.16610564300E+01 -0.16669767356E+02  0.37305688138E+02  0.00000000000E+00 0. -1.
         22    1    3    3    0    0  0.34046924709E+02 -0.17485124743E+03 -0.22606771361E+03  0.28781723879E+03  0.00000000000E+00 0. -1.
</event>
<event>
 7    1  0.5575489E-006  0.2938994E+02  0.7818608E-02  0.1615090E+00
          2   -1    0    0  502    0  0.00000000000E+00  0.00000000000E+00  0.91415601659E+03  0.91415601659E+03  0.00000000000E+00 0. -1.
          1   -1    0    0  501    0 -0.00000000000E+00 -0.00000000000E+00 -0.13780963971E+02  0.13780963971E+02  0.00000000000E+00 0. -1.
         25    2    1    2    0    0 -0.32313562318E+01 -0.49252612554E+01  0.48252508099E+03  0.49848636012E+03  0.12499399016E+03 0.  0.
          2    1    1    2  501    0 -0.27657997977E+02 -0.78372242278E+00  0.31914083262E+02  0.42238463317E+02  0.00000000000E+00 0. -1.
          1    1    1    2  502    0  0.30889354209E+02  0.57089836782E+01  0.38593588836E+03  0.38721215713E+03  0.00000000000E+00 0. -1.
         22    1    3    3    0    0  0.34680613407E+02  0.44247990552E+02  0.31164121419E+03  0.31667155856E+03  0.00000000000E+00 0. -1.
         22    1    3    3    0    0 -0.37911969639E+02 -0.49173251807E+02  0.17088386680E+03  0.18181480157E+03  0.00000000000E+00 0. -1.
</event>
<event>
 7    1  0.1045194E-005  0.7273140E+02  0.7818608E-02  0.1400657E+00
          2   -1    0    0  502    0  0.00000000000E+00  0.00000000000E+00  0.20270855056E+04  0.20270855056E+04  0.00000000000E+00 0. -1.
          1   -1    0    0  501    0 -0.00000000000E+00 -0.00000000000E+00 -0.78758993583E+03  0.78758993583E+03  0.00000000000E+00 0. -1.
         25    2    1    2    0    0  0.73204793889E+02  0.73841820218E+02 -0.13118706438E+03  0.20891296828E+03  0.12499210452E+03 0.  0.
          2    1    1    2  501    0 -0.25306432013E+02 -0.66885602434E+02 -0.61517370668E+03  0.61931638821E+03  0.00000000000E+00 0. -1.
          1    1    1    2  502    0 -0.47898361875E+02 -0.69562177840E+01  0.19858563409E+04  0.19864460850E+04  0.00000000000E+00 0. -1.
         22    1    3    3    0    0 -0.12622113277E+02 -0.13142248533E+02 -0.69843566460E+02  0.72181439553E+02  0.00000000000E+00 0.  1.
         22    1    3    3    0    0  0.85826907166E+02  0.86984068752E+02 -0.61343497917E+02  0.13673152872E+03  0.00000000000E+00 0.  1.
</event>
<event>
 7    1  0.5575489E-006  0.1055112E+03  0.7818608E-02  0.1328126E+00
          2   -1    0    0  502    0  0.00000000000E+00  0.00000000000E+00  0.19592243179E+04  0.19592243179E+04  0.00000000000E+00 0. -1.
          1   -1    0    0  501    0 -0.00000000000E+00 -0.00000000000E+00 -0.59318182414E+03  0.59318182414E+03  0.00000000000E+00 0. -1.
         25    2    1    2    0    0  0.16235771512E+03  0.18981910390E+02  0.28601620475E+03  0.35234998857E+03  0.12499961794E+03 0.  0.
          2    1    1    2  501    0 -0.10153312716E+03 -0.25320530110E+02 -0.55454984218E+03  0.56433645339E+03  0.00000000000E+00 0. -1.
          1    1    1    2  502    0 -0.60824587954E+02  0.63386197204E+01  0.16345761312E+04  0.16357197001E+04  0.00000000000E+00 0. -1.
         22    1    3    3    0    0  0.13675111991E+03 -0.38978550767E+02  0.19026516513E+03  0.23753111223E+03  0.00000000000E+00 0. -1.
         22    1    3    3    0    0  0.25606595211E+02  0.57960461157E+02  0.95751039620E+02  0.11481887634E+03  0.00000000000E+00 0. -1.
</event>
<event>
 7    1  0.5575489E-006  0.1234638E+03  0.7818608E-02  0.1325104E+00
          2   -1    0    0  502    0  0.00000000000E+00  0.00000000000E+00  0.19614167418E+04  0.19614167418E+04  0.00000000000E+00 0. -1.
          1   -1    0    0  501    0 -0.00000000000E+00 -0.00000000000E+00 -0.45919358398E+03  0.45919358398E+03  0.00000000000E+00 0. -1.
         25    2    1    2    0    0  0.16465945749E+02 -0.73682547803E+02  0.18462233707E+03  0.23539534940E+03  0.12500127182E+03 0.  0.
          2    1    1    2  501    0 -0.27390222833E+01  0.12557480554E+03 -0.42429307579E+03  0.44249423521E+03  0.00000000000E+00 0. -1.
          1    1    1    2  502    0 -0.13726923466E+02 -0.51892257737E+02  0.17418938965E+04  0.17427207411E+04  0.00000000000E+00 0. -1.
         22    1    3    3    0    0 -0.39481427004E+02 -0.72971119938E+02  0.14421681892E+03  0.16637926038E+03  0.00000000000E+00 0. -1.
         22    1    3    3    0    0  0.55947372753E+02 -0.71142786418E+00  0.40405518142E+02  0.69016089022E+02  0.00000000000E+00 0. -1.
</event>
<event>
 7    1  0.5575489E-006  0.3301662E+02  0.7818608E-02  0.1567583E+00
          2   -1    0    0  502    0  0.00000000000E+00  0.00000000000E+00  0.92951786691E+02  0.92951786691E+02  0.00000000000E+00 0. -1.
          1   -1    0    0  501    0 -0.00000000000E+00 -0.00000000000E+00 -0.19240717005E+03  0.19240717005E+03  0.00000000000E+00 0. -1.
         25    2    1    2    0    0  0.96318211327E+00  0.16899703371E+02 -0.22292838859E+02  0.12808072056E+03  0.12498468955E+03 0.  0.
          2    1    1    2  501    0 -0.33039731872E+02 -0.90771497847E+01 -0.10726140393E+03  0.11260118695E+03  0.00000000000E+00 0. -1.
          1    1    1    2  502    0  0.32076549759E+02 -0.78225535868E+01  0.30098859425E+02  0.44677049228E+02  0.00000000000E+00 0. -1.
         22    1    3    3    0    0  0.13634334183E+02  0.17417445988E+02 -0.72758284112E+02  0.76046238567E+02  0.00000000000E+00 0.  1.
         22    1    3    3    0    0 -0.12671152070E+02 -0.51774261675E+00  0.50465445252E+02  0.52034481997E+02  0.00000000000E+00 0.  1.
</event>
<event>
 7    1  0.5575489E-006  0.1259504E+03  0.7818608E-02  0.1319030E+00
          2   -1    0    0  502    0  0.00000000000E+00  0.00000000000E+00  0.46125828387E+04  0.46125828387E+04  0.00000000000E+00 0. -1.
          1   -1    0    0  501    0 -0.00000000000E+00 -0.00000000000E+00 -0.56737222197E+02  0.56737222197E+02  0.00000000000E+00 0. -1.
         25    2    1    2    0    0  0.87630238520E+01  0.78288041222E+02  0.60568921980E+03  0.62344980101E+03  0.12499766161E+03 0.  0.
          2    1    1    2  501    0  0.26636213931E+02  0.48737866608E+02 -0.30273801881E+02  0.63256387933E+02  0.00000000000E+00 0. -1.
          1    1    1    2  502    0 -0.35399237783E+02 -0.12702590783E+03  0.39804301986E+04  0.39826138719E+04  0.00000000000E+00 0. -1.
         22    1    3    3    0    0  0.47889979424E+02  0.90143606855E+02  0.35252694231E+03  0.36700758172E+03  0.00000000000E+00 0.  1.
         22    1    3    3    0    0 -0.39126955572E+02 -0.11855565632E+02  0.25316227750E+03  0.25644221929E+03  0.00000000000E+00 0.  1.
</event>
<event>
 7    1  0.5575489E-006  0.5504498E+02  0.7818608E-02  0.1476601E+00
          2   -1    0    0  502    0  0.00000000000E+00  0.00000000000E+00  0.13802819242E+04  0.13802819242E+04  0.00000000000E+00 0. -1.
          1   -1    0    0  501    0 -0.00000000000E+00 -0.00000000000E+00 -0.22838229861E+02  0.22838229861E+02  0.00000000000E+00 0. -1.
         25    2    1    2    0    0 -0.62455305144E+02 -0.36376059602E+01  0.66383948809E+03  0.67839632959E+03  0.12499926693E+03 0.  0.
          2    1    1    2  501    0  0.46995461930E+02 -0.29097352082E+02  0.35647967075E+02  0.65772387039E+02  0.00000000000E+00 0. -1.
          1    1    1    2  502    0  0.15459843214E+02  0.32734958042E+02  0.65795623922E+03  0.65895143748E+03  0.00000000000E+00 0. -1.
         22    1    3    3    0    0  0.34264011834E+02 -0.11780126128E+02  0.10222487791E+03  0.10845607195E+03  0.00000000000E+00 0.  1.
         22    1    3    3    0    0 -0.96719316978E+02  0.81425201681E+01  0.56161461018E+03  0.56994025764E+03  0.00000000000E+00 0.  1.
</event>
<event>
 7    1  0.5575489E-006  0.2019274E+03  0.7818608E-02  0.1181916E+00
          2   -1    0    0  502    0  0.00000000000E+00  0.00000000000E+00  0.22528712501E+03  0.22528712501E+03  0.00000000000E+00 0. -1.
          1   -1    0    0  501    0 -0.00000000000E+00 -0.00000000000E+00 -0.20444718763E+04  0.20444718763E+04  0.00000000000E+00 0. -1.
         25    2    1    2    0    0 -0.83955783128E+02 -0.17140152562E+01 -0.61571002620E+03  0.63385722316E+03  0.12499852645E+03 0.  0.
          2    1    1    2  501    0 -0.11669922652E+03  0.71234520002E+02 -0.13632886642E+04  0.13701273840E+04  0.00000000000E+00 0. -1.
          1    1    1    2  502    0  0.20065500965E+03 -0.69520504746E+02  0.15981393912E+03  0.26577439420E+03  0.00000000000E+00 0. -1.
         22    1    3    3    0    0  0.25363353917E+02 -0.25356339074E+02 -0.10226908267E+03  0.10837531510E+03  0.00000000000E+00 0.  1.
         22    1    3    3    0    0 -0.10931913704E+03  0.23642323818E+02 -0.51344094353E+03  0.52548190806E+03  0.00000000000E+00 0.  1.
</event>
<event>
 7    1  0.5575489E-006  0.4994790E+02  0.7818608E-02  0.1515752E+00
          2   -1    0    0  502    0  0.00000000000E+00  0.00000000000E+00  0.26381924728E+03  0.26381924728E+03  0.00000000000E+00 0. -1.
          1   -1    0    0  501    0 -0.00000000000E+00 -0.00000000000E+00 -0.48246321177E+03  0.48246321177E+03  0.00000000000E+00 0. -1.
         25    2    1    2    0    0 -0.15853080400E+02  0.18504434592E+02  0.33162536578E+02  0.13160141564E+03  0.12500177802E+03 0.  0.
          2    1    1    2  501    0  0.46250079668E+02 -0.20149246905E+02 -0.43048347185E+03  0.43342944242E+03  0.00000000000E+00 0. -1.
          1    1    1    2  502    0 -0.30396999268E+02  0.16448123133E+01  0.17867697078E+03  0.18125160099E+03  0.00000000000E+00 0. -1.
         22    1    3    3    0    0  0.40950312557E+02 -0.52638087497E+00  0.54355370708E+02  0.68056678586E+02  0.00000000000E+00 0.  1.
         22    1    3    3    0    0 -0.56803392956E+02  0.19030815467E+02 -0.21192834130E+02  0.63544737053E+02  0.00000000000E+00 0.  1.
</event>
<event>
 7    1  0.5575489E-006  0.3324974E+02  0.7818608E-02  0.1584473E+00
          2   -1    0    0  502    0  0.00000000000E+00  0.00000000000E+00  0.86615370979E+03  0.86615370979E+03  0.00000000000E+00 0. -1.
          1   -1    0    0  501    0 -0.00000000000E+00 -0.00000000000E+00 -0.11444876020E+04  0.11444876020E+04  0.00000000000E+00 0. -1.
         25    2    1    2    0    0 -0.78432721211E+01 -0.38307177149E+02  0.70157352542E+02  0.14858390745E+03  0.12500466671E+03 0.  0.
          2    1    1    2  501    0  0.27192473266E+02  0.11192521227E+02 -0.11047120290E+04  0.11051033300E+04  0.00000000000E+00 0. -1.
          1    1    1    2  502    0 -0.19349201145E+02  0.27114655923E+02  0.75622078420E+03  0.75695407431E+03  0.00000000000E+00 0. -1.
         22    1    3    3    0    0 -0.22116662250E+02 -0.15047049867E+02 -0.32654182051E+02  0.42212036959E+02  0.00000000000E+00 0.  1.
         22    1    3    3    0    0  0.14273390129E+02 -0.23260127282E+02  0.10281153459E+03  0.10637187049E+03  0.00000000000E+00 0.  1.
</event>
<event>
 7    1  0.5575489E-006  0.1294605E+03  0.7818608E-02  0.1379816E+00
          2   -1    0    0  502    0  0.00000000000E+00  0.00000000000E+00  0.76151103217E+03  0.76151103217E+03  0.00000000000E+00 0. -1.
          1   -1    0    0  501    0 -0.00000000000E+00 -0.00000000000E+00 -0.45949340343E+03  0.45949340343E+03  0.00000000000E+00 0. -1.
         25    2    1    2    0    0  0.10400216333E+03  0.10690379968E+03 -0.16606718825E+03  0.25582639784E+03  0.12499584974E+03 0.  0.
          2    1    1    2  501    0  0.10944997527E+01 -0.32128834938E+02 -0.24166983096E+03  0.24379862009E+03  0.00000000000E+00 0. -1.
          1    1    1    2  502    0 -0.10509666309E+03 -0.74774964738E+02  0.70975464795E+03  0.72137941767E+03  0.00000000000E+00 0. -1.
         22    1    3    3    0    0  0.12860932946E+03  0.10084432415E+03 -0.16207790405E+03  0.23017207546E+03  0.00000000000E+00 0. -1.
         22    1    3    3    0    0 -0.24607166127E+02  0.60594755247E+01 -0.39892842016E+01  0.25654322382E+02  0.00000000000E+00 0. -1.
</event>
<event>
 7    1  0.5575489E-006  0.7646887E+02  0.7818608E-02  0.1476951E+00
          2   -1    0    0  502    0  0.00000000000E+00  0.00000000000E+00  0.70936614415E+03  0.70936614415E+03  0.00000000000E+00 0. -1.
          1   -1    0    0  501    0 -0.00000000000E+00 -0.00000000000E+00 -0.12152679579E+03  0.12152679579E+03  0.00000000000E+00 0. -1.
         25    2    1    2    0    0  0.88389914384E+02  0.51425758500E+01  0.46966080355E+02  0.16018825372E+03  0.12496095740E+03 0.  0.
          2    1    1    2  501    0 -0.16576420850E+02  0.20023760226E+02 -0.59813088716E+02  0.65217591826E+02  0.00000000000E+00 0. -1.
          1    1    1    2  502    0 -0.71813493534E+02 -0.25166336076E+02  0.60068635673E+03  0.60548709440E+03  0.00000000000E+00 0. -1.
         22    1    3    3    0    0  0.60723973287E+02 -0.34362329098E+02 -0.24519019707E+02  0.73955073661E+02  0.00000000000E+00 0. -1.
         22    1    3    3    0    0  0.27665941097E+02  0.39504904948E+02  0.71485100062E+02  0.86233180056E+02  0.00000000000E+00 0. -1.
</event>
<event>
 7    1  0.5575489E-006  0.9669889E+02  0.7818608E-02  0.1399633E+00
          2   -1    0    0  502    0  0.00000000000E+00  0.00000000000E+00  0.17843003960E+04  0.17843003960E+04  0.00000000000E+00 0. -1.
          1   -1    0    0  501    0 -0.00000000000E+00 -0.00000000000E+00 -0.19504766053E+02  0.19504766053E+02  0.00000000000E+00 0. -1.
         25    2    1    2    0    0  0.17157482930E+02  0.81112454043E+02  0.69515596063E+03  0.71115468554E+03  0.12500227094E+03 0.  0.
          2    1    1    2  501    0 -0.30640214330E+02  0.20202067621E+02  0.28398406892E+02  0.46404911210E+02  0.00000000000E+00 0. -1.
          1    1    1    2  502    0  0.13482731400E+02 -0.10131452166E+03  0.10412412624E+04  0.10462455653E+04  0.00000000000E+00 0. -1.
         22    1    3    3    0    0 -0.97449953490E+01  0.41833167761E+02  0.57746400180E+02  0.71969615763E+02  0.00000000000E+00 0. -1.
         22    1    3    3    0    0  0.26902478279E+02  0.39279286282E+02  0.63740956045E+03  0.63918506977E+03  0.00000000000E+00 0. -1.
</event>
<event>
 7    1  0.5575489E-006  0.6787867E+02  0.7818608E-02  0.1389204E+00
          2   -1    0    0  502    0  0.00000000000E+00  0.00000000000E+00  0.64160627680E+03  0.64160627680E+03  0.00000000000E+00 0. -1.
          1   -1    0    0  501    0 -0.00000000000E+00 -0.00000000000E+00 -0.38588401420E+03  0.38588401420E+03  0.00000000000E+00 0. -1.
         25    2    1    2    0    0 -0.11686506696E+02 -0.65627773349E+00 -0.15407525669E+03  0.19875460865E+03  0.12500881808E+03 0.  0.
          2    1    1    2  501    0 -0.56784620770E+02  0.20724449676E+01 -0.20367471157E+03  0.21145253916E+03  0.00000000000E+00 0. -1.
          1    1    1    2  502    0  0.68471127466E+02 -0.14161672341E+01  0.61347223086E+03  0.61728314319E+03  0.00000000000E+00 0. -1.
         22    1    3    3    0    0 -0.12402170235E+02  0.26012744363E+02 -0.16674742658E+03  0.16921932800E+03  0.00000000000E+00 0.  1.
         22    1    3    3    0    0  0.71566353897E+00 -0.26669022096E+02  0.12672169888E+02  0.29535280658E+02  0.00000000000E+00 0.  1.
</event>
<event>
 7    1  0.5575489E-006  0.7386290E+02  0.7818608E-02  0.1347475E+00
          2   -1    0    0  502    0  0.00000000000E+00  0.00000000000E+00  0.27250080055E+03  0.27250080055E+03  0.00000000000E+00 0. -1.
          1   -1    0    0  501    0 -0.00000000000E+00 -0.00000000000E+00 -0.79378260635E+03  0.79378260635E+03  0.00000000000E+00 0. -1.
         25    2    1    2    0    0  0.38714811344E+01 -0.10040858957E+03 -0.67606405897E+02  0.17404669417E+03  0.12499900962E+03 0.  0.
          2    1    1    2  501    0  0.52281923880E+02  0.52175936781E+02 -0.66460403182E+03  0.66869593019E+03  0.00000000000E+00 0. -1.
          1    1    1    2  502    0 -0.56153405014E+02  0.48232652793E+02  0.21092863192E+03  0.22354078253E+03  0.00000000000E+00 0. -1.
         22    1    3    3    0    0 -0.23260341256E+02 -0.10545174661E+03 -0.79048991421E+01  0.10827558252E+03  0.00000000000E+00 0. -1.
         22    1    3    3    0    0  0.27131822391E+02  0.50431570379E+01 -0.59701506755E+02  0.65771111652E+02  0.00000000000E+00 0. -1.
</event>
<event>
 7    1  0.5575489E-006  0.4417745E+02  0.7818608E-02  0.1490481E+00
          2   -1    0    0  502    0  0.00000000000E+00  0.00000000000E+00  0.71429289045E+03  0.71429289045E+03  0.00000000000E+00 0. -1.
          1   -1    0    0  501    0 -0.00000000000E+00 -0.00000000000E+00 -0.14896697270E+03  0.14896697270E+03  0.00000000000E+00 0. -1.
         25    2    1    2    0    0 -0.64662143987E+01 -0.93179161537E+00  0.38912158177E+02  0.13107964865E+03  0.12500015228E+03 0.  0.
          2    1    1    2  501    0  0.43850071011E+02 -0.15694914889E+02 -0.96907034313E+02  0.10751805607E+03  0.00000000000E+00 0. -1.
          1    1    1    2  502    0 -0.37383856612E+02  0.16626706504E+02  0.62332079388E+03  0.62466215844E+03  0.00000000000E+00 0. -1.
         22    1    3    3    0    0  0.35207190085E+02  0.32603918575E+02 -0.19571438216E+02  0.51822803224E+02  0.00000000000E+00 0. -1.
         22    1    3    3    0    0 -0.41673404484E+02 -0.33535710190E+02  0.58483596393E+02  0.79256845422E+02  0.00000000000E+00 0. -1.
</event>
<event>
 7    1  0.5575489E-006  0.6984218E+02  0.7818608E-02  0.1483665E+00
          2   -1    0    0  502    0  0.00000000000E+00  0.00000000000E+00  0.10839975021E+04  0.10839975021E+04  0.00000000000E+00 0. -1.
          1   -1    0    0  501    0 -0.00000000000E+00 -0.00000000000E+00 -0.12813254780E+04  0.12813254780E+04  0.00000000000E+00 0. -1.
         25    2    1    2    0    0 -0.43341623819E+02 -0.87646856429E+01  0.68198673788E+03  0.69475623159E+03  0.12499997850E+03 0.  0.
          2    1    1    2  501    0  0.65425271004E+02  0.24546999896E+02 -0.12735161793E+04  0.12754318799E+04  0.00000000000E+00 0. -1.
          1    1    1    2  502    0 -0.22083647185E+02 -0.15782314253E+02  0.39420146556E+03  0.39513486857E+03  0.00000000000E+00 0. -1.
         22    1    3    3    0    0 -0.28864712097E+02  0.56047399786E+02  0.25743812645E+03  0.26504503688E+03  0.00000000000E+00 0.  1.
         22    1    3    3    0    0 -0.14476911722E+02 -0.64812085429E+02  0.42454861143E+03  0.42971119470E+03  0.00000000000E+00 0.  1.
</event>
<event>
 7    1  0.5575489E-006  0.2295056E+03  0.7818608E-02  0.1241350E+00
          2   -1    0    0  502    0  0.00000000000E+00  0.00000000000E+00  0.12186685482E+04  0.12186685482E+04  0.00000000000E+00 0. -1.
          1   -1    0    0  501    0 -0.00000000000E+00 -0.00000000000E+00 -0.78102043513E+03  0.78102043513E+03  0.00000000000E+00 0. -1.
         25    2    1    2    0    0 -0.14264032181E+03  0.23539904459E+03  0.29377668680E+02  0.30372404872E+03  0.12500511492E+03 0.  0.
          2    1    1    2  501    0  0.58338978226E+02 -0.25980190734E+02 -0.63010501042E+03  0.63333303313E+03  0.00000000000E+00 0. -1.
          1    1    1    2  502    0  0.84301343582E+02 -0.20941885385E+03  0.10383754548E+04  0.10626319015E+04  0.00000000000E+00 0. -1.
         22    1    3    3    0    0 -0.63727532923E+02  0.18082297034E+03 -0.25147888486E+02  0.19336639147E+03  0.00000000000E+00 0. -1.
         22    1    3    3    0    0 -0.78912788884E+02  0.54576074252E+02  0.54525557165E+02  0.11035765725E+03  0.00000000000E+00 0. -1.
</event>
<event>
 7    1  0.5575489E-006  0.8706854E+02  0.7818608E-02  0.1329991E+00
          2   -1    0    0  502    0  0.00000000000E+00  0.00000000000E+00  0.17171214858E+04  0.17171214858E+04  0.00000000000E+00 0. -1.
          1   -1    0    0  501    0 -0.00000000000E+00 -0.00000000000E+00 -0.13904836422E+03  0.13904836422E+03  0.00000000000E+00 0. -1.
         25    2    1    2    0    0 -0.38066593367E+02 -0.36013885784E+02  0.19085922173E+03  0.23408027547E+03  0.12498106795E+03 0.  0.
          2    1    1    2  501    0 -0.51099894951E+02  0.51992349844E+02 -0.10461680551E+03  0.12751109638E+03  0.00000000000E+00 0. -1.
          1    1    1    2  502    0  0.89166488318E+02 -0.15978464060E+02  0.14918307054E+04  0.14945784782E+04  0.00000000000E+00 0. -1.
         22    1    3    3    0    0  0.32729642880E+02 -0.36904943962E+02  0.13551778488E+03  0.14421606856E+03  0.00000000000E+00 0.  1.
         22    1    3    3    0    0 -0.70796236247E+02  0.89105817821E+00  0.55341436849E+02  0.89864206912E+02  0.00000000000E+00 0.  1.
</event>
<event>
 7    1  0.5575489E-006  0.8941744E+02  0.7818608E-02  0.1429112E+00
          2   -1    0    0  502    0  0.00000000000E+00  0.00000000000E+00  0.69131179090E+03  0.69131179090E+03  0.00000000000E+00 0. -1.
          1   -1    0    0  501    0 -0.00000000000E+00 -0.00000000000E+00 -0.28197894699E+03  0.28197894699E+03  0.00000000000E+00 0. -1.
         25    2    1    2    0    0 -0.77439807156E+02  0.18658562373E+01  0.48187324003E+03  0.50381305318E+03  0.12500147179E+03 0.  0.
          2    1    1    2  501    0  0.84912484323E+02  0.28816246749E+02 -0.26225078133E+03  0.27715695622E+03  0.00000000000E+00 0. -1.
          1    1    1    2  502    0 -0.74726771676E+01 -0.30682102987E+02  0.18971038522E+03  0.19232072850E+03  0.00000000000E+00 0. -1.
         22    1    3    3    0    0 -0.34556782944E+02 -0.60034812255E+02  0.18515944383E+03  0.19769261385E+03  0.00000000000E+00 0.  1.
         22    1    3    3    0    0 -0.42883024212E+02  0.61900668492E+02  0.29671379619E+03  0.30612043933E+03  0.00000000000E+00 0.  1.
</event>
<event>
 7    1  0.5575489E-006  0.1104015E+03  0.7818608E-02  0.1321337E+00
          2   -1    0    0  502    0  0.00000000000E+00  0.00000000000E+00  0.57345225544E+03  0.57345225544E+03  0.00000000000E+00 0. -1.
          1   -1    0    0  501    0 -0.00000000000E+00 -0.00000000000E+00 -0.15103601554E+03  0.15103601554E+03  0.00000000000E+00 0. -1.
         25    2    1    2    0    0 -0.51356358598E+02 -0.63533415246E+02  0.25025808323E+03  0.29142454373E+03  0.12500074417E+03 0.  0.
          2    1    1    2  501    0  0.10780673174E+03  0.37721172023E+02 -0.10128985616E+03  0.15265914053E+03  0.00000000000E+00 0. -1.
          1    1    1    2  502    0 -0.56450373146E+02  0.25812243223E+02  0.27344801283E+03  0.28040458671E+03  0.00000000000E+00 0. -1.
         22    1    3    3    0    0 -0.29373477544E+02  0.31965041921E+01  0.20661099088E+03  0.20871300960E+03  0.00000000000E+00 0. -1.
         22    1    3    3    0    0 -0.21982881054E+02 -0.66729919438E+02  0.43647092345E+02  0.82711534128E+02  0.00000000000E+00 0. -1.
</event>
<event>
 7    1  0.5575489E-006  0.1496880E+03  0.7818608E-02  0.1261213E+00
          2   -1    0    0  502    0  0.00000000000E+00  0.00000000000E+00  0.28131968998E+04  0.28131968998E+04  0.00000000000E+00 0. -1.
          1   -1    0    0  501    0 -0.00000000000E+00 -0.00000000000E+00 -0.81406370633E+03  0.81406370633E+03  0.00000000000E+00 0. -1.
         25    2    1    2    0    0 -0.16310260435E+02  0.12368848657E+03  0.30074637250E+03  0.34876769745E+03  0.12500263959E+03 0.  0.
          2    1    1    2  501    0 -0.80231223106E+02 -0.39133219842E+01 -0.78562553822E+03  0.78972137463E+03  0.00000000000E+00 0. -1.
          1    1    1    2  502    0  0.96541483541E+02 -0.11977516458E+03  0.24840123592E+04  0.24887715341E+04  0.00000000000E+00 0. -1.
         22    1    3    3    0    0 -0.39094602997E+02 -0.93961629754E+01  0.51922059797E+02  0.65670207520E+02  0.00000000000E+00 0.  1.
         22    1    3    3    0    0  0.22784342562E+02  0.13308464954E+03  0.24882431270E+03  0.28309748993E+03  0.00000000000E+00 0.  1.
</event>
<event>
 7    1  0.5575489E-006  0.1095676E+03  0.7818608E-02  0.1396844E+00
          2   -1    0    0  502    0  0.00000000000E+00  0.00000000000E+00  0.23524242654E+04  0.23524242654E+04  0.00000000000E+00 0. -1.
          1   -1    0    0  501    0 -0.00000000000E+00 -0.00000000000E+00 -0.32788102623E+02  0.32788102623E+02  0.00000000000E+00 0. -1.
         25    2    1    2    0    0 -0.77618742775E+02  0.65649771925E+02  0.17593147651E+04  0.17666774343E+04  0.12500460876E+03 0.  0.
          2    1    1    2  501    0  0.59131141789E+02 -0.93124027912E+02  0.78057226675E+02  0.13513514399E+03  0.00000000000E+00 0. -1.
          1    1    1    2  502    0  0.18487600986E+02  0.27474255988E+02  0.48226417101E+03  0.48339978979E+03  0.00000000000E+00 0. -1.
         22    1    3    3    0    0 -0.10744498780E+03  0.68044298570E+02  0.12409983757E+04  0.12474980643E+04  0.00000000000E+00 0. -1.
         22    1    3    3    0    0  0.29826245026E+02 -0.23945266453E+01  0.51831638948E+03  0.51917937002E+03  0.00000000000E+00 0. -1.
</event>
<event>
 7    1  0.5575489E-006  0.1883119E+03  0.7818608E-02  0.1328151E+00
          2   -1    0    0  502    0  0.00000000000E+00  0.00000000000E+00  0.16061804614E+04  0.16061804614E+04  0.00000000000E+00 0. -1.
          1   -1    0    0  501    0 -0.00000000000E+00 -0.00000000000E+00 -0.11475555199E+04  0.11475555199E+04  0.00000000000E+00 0. -1.
         25    2    1    2    0    0  0.24654789126E+02  0.19697772608E+03 -0.19678515089E+03  0.30619817464E+03  0.12499937336E+03 0.  0.
          2    1    1    2  501    0 -0.53813321231E+02 -0.17899628351E+03 -0.88612454242E+03  0.90562257466E+03  0.00000000000E+00 0. -1.
          1    1    1    2  502    0  0.29158532105E+02 -0.17981442570E+02  0.15415346348E+04  0.15419152320E+04  0.00000000000E+00 0. -1.
         22    1    3    3    0    0 -0.25506473281E+02  0.13738389177E+03 -0.67312234124E+02  0.15509948665E+03  0.00000000000E+00 0. -1.
         22    1    3    3    0    0  0.50161262407E+02  0.59593834311E+02 -0.12947291677E+03  0.15109868799E+03  0.00000000000E+00 0. -1.
</event>
<event>
 7    1  0.5575489E-006  0.7508499E+02  0.7818608E-02  0.1372188E+00
          2   -1    0    0  502    0  0.00000000000E+00  0.00000000000E+00  0.16364561897E+03  0.16364561897E+03  0.00000000000E+00 0. -1.
          1   -1    0    0  501    0 -0.00000000000E+00 -0.00000000000E+00 -0.16655604571E+03  0.16655604571E+03  0.00000000000E+00 0. -1.
         25    2    1    2    0    0 -0.13644917492E+02 -0.32707819510E+02  0.53888357734E+02  0.14066442393E+03  0.12500615917E+03 0.  0.
          2    1    1    2  501    0  0.20953307580E+02 -0.72102109978E+02 -0.15627999549E+02  0.76694131013E+02  0.00000000000E+00 0. -1.
          1    1    1    2  502    0 -0.73083900877E+01  0.10480992949E+03 -0.41170784922E+02  0.11284310974E+03  0.00000000000E+00 0. -1.
         22    1    3    3    0    0  0.10052135969E+02  0.48962621609E+01  0.85432294433E+02  0.86160871355E+02  0.00000000000E+00 0. -1.
         22    1    3    3    0    0 -0.23697053461E+02 -0.37604081671E+02 -0.31543936699E+02  0.54503552577E+02  0.00000000000E+00 0. -1.
</event>
<event>
 7    1  0.5575489E-006  0.1341763E+03  0.7818608E-02  0.1321765E+00
          2   -1    0    0  502    0  0.00000000000E+00  0.00000000000E+00  0.71191965486E+03  0.71191965486E+03  0.00000000000E+00 0. -1.
          1   -1    0    0  501    0 -0.00000000000E+00 -0.00000000000E+00 -0.26565013710E+04  0.26565013710E+04  0.00000000000E+00 0. -1.
         25    2    1    2    0    0  0.93423395818E+02 -0.13294668514E+02  0.61082376652E+01  0.15673581757E+03  0.12499650734E+03 0.  0.
          2    1    1    2  501    0  0.44527655392E+02  0.24616143401E+02 -0.25733364396E+04  0.25738393691E+04  0.00000000000E+00 0. -1.
          1    1    1    2  502    0 -0.13795105121E+03 -0.11321474887E+02  0.62264648578E+03  0.63784583919E+03  0.00000000000E+00 0. -1.
         22    1    3    3    0    0  0.10391066924E+03  0.31476715718E+02 -0.73544175449E+01  0.10882232433E+03  0.00000000000E+00 0.  1.
         22    1    3    3    0    0 -0.10487273422E+02 -0.44771384232E+02  0.13462655210E+02  0.47913493248E+02  0.00000000000E+00 0.  1.
</event>
<event>
 7    1  0.5575489E-006  0.1105038E+03  0.7818608E-02  0.1344681E+00
          2   -1    0    0  502    0  0.00000000000E+00  0.00000000000E+00  0.16592243233E+04  0.16592243233E+04  0.00000000000E+00 0. -1.
          1   -1    0    0  501    0 -0.00000000000E+00 -0.00000000000E+00 -0.12932596143E+03  0.12932596143E+03  0.00000000000E+00 0. -1.
         25    2    1    2    0    0 -0.49364538574E+02  0.75167540728E+02  0.86869697311E+02  0.17680116173E+03  0.12500115852E+03 0.  0.
          2    1    1    2  501    0  0.35644272317E+02  0.35843656036E+02 -0.74539954726E+02  0.90063792267E+02  0.00000000000E+00 0. -1.
          1    1    1    2  502    0  0.13720266257E+02 -0.11101119676E+03  0.15175686193E+04  0.15216853307E+04  0.00000000000E+00 0. -1.
         22    1    3    3    0    0  0.34035126414E+02 -0.68580871632E+01  0.33421915900E+02  0.48191779922E+02  0.00000000000E+00 0.  1.
         22    1    3    3    0    0 -0.83399664988E+02  0.82025627891E+02  0.53447781411E+02  0.12860938181E+03  0.00000000000E+00 0.  1.
</event>
<event>
 7    1  0.5575489E-006  0.9970348E+02  0.7818608E-02  0.1451067E+00
          2   -1    0    0  502    0  0.00000000000E+00  0.00000000000E+00  0.12841589390E+04  0.12841589390E+04  0.00000000000E+00 0. -1.
          1   -1    0    0  501    0 -0.00000000000E+00 -0.00000000000E+00 -0.69482175259E+03  0.69482175259E+03  0.00000000000E+00 0. -1.
         25    2    1    2    0    0  0.35570620971E+02  0.77598420967E+02  0.48670350852E+02  0.15899946933E+03  0.12500097673E+03 0.  0.
          2    1    1    2  501    0 -0.59386637113E+02 -0.80843287141E+02 -0.63560092668E+03  0.64346790731E+03  0.00000000000E+00 0. -1.
          1    1    1    2  502    0  0.23816016142E+02  0.32448661737E+01  0.11762677622E+04  0.11765133149E+04  0.00000000000E+00 0. -1.
         22    1    3    3    0    0  0.25068034527E+02  0.78199060572E+02  0.86773832379E+02  0.11947048763E+03  0.00000000000E+00 0.  1.
         22    1    3    3    0    0  0.10502586444E+02 -0.60063960463E+00 -0.38103481527E+02  0.39528981702E+02  0.00000000000E+00 0.  1.
</event>
<event>
 7    1  0.5575489E-006  0.1311342E+03  0.7818608E-02  0.1283709E+00
          2   -1    0    0  502    0  0.00000000000E+00  0.00000000000E+00  0.61109510005E+03  0.61109510005E+03  0.00000000000E+00 0. -1.
          1   -1    0    0  501    0 -0.00000000000E+00 -0.00000000000E+00 -0.13197413804E+04  0.13197413804E+04  0.00000000000E+00 0. -1.
         25    2    1    2    0    0 -0.19740509429E+03 -0.17940757068E+02  0.43024044961E+02  0.23825875278E+03  0.12500209125E+03 0.  0.
          2    1    1    2  501    0  0.12915612945E+03 -0.10215613592E+02 -0.12157642402E+04  0.12226480901E+04  0.00000000000E+00 0. -1.
          1    1    1    2  502    0  0.68248964838E+02  0.28156370660E+02  0.46409391488E+03  0.46992963754E+03  0.00000000000E+00 0. -1.
         22    1    3    3    0    0 -0.14782280410E+03 -0.46834554208E+02  0.75340194754E+02  0.17239838115E+03  0.00000000000E+00 0. -1.
         22    1    3    3    0    0 -0.49582290190E+02  0.28893797140E+02 -0.32316149792E+02  0.65860371629E+02  0.00000000000E+00 0. -1.
</event>
<event>
 7    1  0.5575489E-006  0.5051691E+02  0.7818608E-02  0.1572257E+00
          2   -1    0    0  502    0  0.00000000000E+00  0.00000000000E+00  0.70291414036E+03  0.70291414036E+03  0.00000000000E+00 0. -1.
          1   -1    0    0  501    0 -0.00000000000E+00 -0.00000000000E+00 -0.49004706626E+03  0.49004706626E+03  0.00000000000E+00 0. -1.
         25    2    1    2    0    0  0.36683822407E+02  0.41864453513E+01  0.13458966484E+03  0.18736796121E+03  0.12501658232E+03 0.  0.
          2    1    1    2  501    0 -0.49055776510E+02  0.12626352144E+02 -0.46207228688E+03  0.46484050198E+03  0.00000000000E+00 0. -1.
          1    1    1    2  502    0  0.12371954102E+02 -0.16812797495E+02  0.54034969614E+03  0.54075274343E+03  0.00000000000E+00 0. -1.
         22    1    3    3    0    0 -0.39124585876E+02 -0.45338967624E+01  0.89817651696E+01  0.40397543804E+02  0.00000000000E+00 0.  1.
         22    1    3    3    0    0  0.75808408283E+02  0.87203421137E+01  0.12560789967E+03  0.14697041740E+03  0.00000000000E+00 0.  1.
</event>
<event>
 7    1  0.5575489E-006  0.1164819E+03  0.7818608E-02  0.1355063E+00
          2   -1    0    0  502    0  0.00000000000E+00  0.00000000000E+00  0.54002251041E+03  0.54002251041E+03  0.00000000000E+00 0. -1.
          1   -1    0    0  501    0 -0.00000000000E+00 -0.00000000000E+00 -0.14938741173E+04  0.14938741173E+04  0.00000000000E+00 0. -1.
         25    2    1    2    0    0 -0.10866458639E+03 -0.11728432456E+03  0.15908231185E+03  0.25786615098E+03  0.12499665897E+03 0.  0.
          2    1    1    2  501    0  0.78809231509E+02  0.85113513678E+02 -0.14406883219E+04  0.14453504924E+04  0.00000000000E+00 0. -1.
          1    1    1    2  502    0  0.29855354877E+02  0.32170810879E+02  0.32775440310E+03  0.33067998434E+03  0.00000000000E+00 0. -1.
         22    1    3    3    0    0  0.12920727881E+02  0.11269079806E+02 -0.35823042249E+01  0.17514858612E+02  0.00000000000E+00 0. -1.
         22    1    3    3    0    0 -0.12158531427E+03 -0.12855340436E+03  0.16266461607E+03  0.24035129236E+03  0.00000000000E+00 0. -1.
</event>
<event>
 7    1  0.5575489E-006  0.5533755E+02  0.7818608E-02  0.1490389E+00
          2   -1    0    0  502    0  0.00000000000E+00  0.00000000000E+00  0.73345003314E+03  0.73345003314E+03  0.00000000000E+00 0. -1.
          1   -1    0    0  501    0 -0.00000000000E+00 -0.00000000000E+00 -0.23639244904E+04  0.23639244904E+04  0.00000000000E+00 0. -1.
         25    2    1    2    0    0  0.67618932539E+02  0.55764089415E+02 -0.14766304731E+03  0.21238804117E+03  0.12498940269E+03 0.  0.
          2    1    1    2  501    0 -0.26860723827E+02 -0.18621394160E+02 -0.21826920892E+04  0.21829367858E+04  0.00000000000E+00 0. -1.
          1    1    1    2  502    0 -0.40758208712E+02 -0.37142695255E+02  0.69988067918E+03  0.70204969659E+03  0.00000000000E+00 0. -1.
         22    1    3    3    0    0 -0.43122474894E+01  0.44141106377E+02 -0.13007907217E+03  0.13743215696E+03  0.00000000000E+00 0. -1.
         22    1    3    3    0    0  0.71931180029E+02  0.11622983039E+02 -0.17583975136E+02  0.74955884203E+02  0.00000000000E+00 0. -1.
</event>
<event>
 7    1  0.5575489E-006  0.5667968E+02  0.7818608E-02  0.1490871E+00
          2   -1    0    0  502    0  0.00000000000E+00  0.00000000000E+00  0.31007569299E+03  0.31007569299E+03  0.00000000000E+00 0. -1.
          1   -1    0    0  501    0 -0.00000000000E+00 -0.00000000000E+00 -0.37937799584E+03  0.37937799584E+03  0.00000000000E+00 0. -1.
         25    2    1    2    0    0  0.44656854536E+02 -0.63526086066E+02  0.16787212025E+03  0.22324340690E+03  0.12500708660E+03 0.  0.
          2    1    1    2  501    0 -0.26904087704E+01  0.31689346542E+02 -0.34486424771E+03  0.34632759395E+03  0.00000000000E+00 0. -1.
          1    1    1    2  502    0 -0.41966445765E+02  0.31836739524E+02  0.10768982461E+03  0.11988268798E+03  0.00000000000E+00 0. -1.
         22    1    3    3    0    0  0.73608643411E+02 -0.60244759191E+02  0.16916964417E+03  0.19407738637E+03  0.00000000000E+00 0.  1.
         22    1    3    3    0    0 -0.28951788875E+02 -0.32813268758E+01 -0.12975239142E+01  0.29166020528E+02  0.00000000000E+00 0.  1.
</event>
<event>
 7    1  0.5575489E-006  0.7633262E+02  0.7818608E-02  0.1417656E+00
          2   -1    0    0  502    0  0.00000000000E+00  0.00000000000E+00  0.15054279518E+04  0.15054279518E+04  0.00000000000E+00 0. -1.
          1   -1    0    0  501    0 -0.00000000000E+00 -0.00000000000E+00 -0.24284547481E+03  0.24284547481E+03  0.00000000000E+00 0. -1.
         25    2    1    2    0    0 -0.41243114603E+02 -0.97551011190E+02  0.32705994671E+02  0.16706255880E+03  0.12499208847E+03 0.  0.
          2    1    1    2  501    0  0.85796935877E+01  0.73806638851E+02 -0.16750521333E+03  0.18324581188E+03  0.00000000000E+00 0. -1.
          1    1    1    2  502    0  0.32663421015E+02  0.23744372338E+02  0.13973816957E+04  0.13979650560E+04  0.00000000000E+00 0. -1.
         22    1    3    3    0    0 -0.61261787822E+02 -0.92864633124E+02 -0.17676226477E+02  0.11264677410E+03  0.00000000000E+00 0.  1.
         22    1    3    3    0    0  0.20018673219E+02 -0.46863780656E+01  0.50382221148E+02  0.54415784701E+02  0.00000000000E+00 0.  1.
</event>
<event>
 7    1  0.5575489E-006  0.5921931E+02  0.7818608E-02  0.1500618E+00
          2   -1    0    0  502    0  0.00000000000E+00  0.00000000000E+00  0.56646009414E+03  0.56646009414E+03  0.00000000000E+00 0. -1.
          1   -1    0    0  501    0 -0.00000000000E+00 -0.00000000000E+00 -0.14354186770E+03  0.14354186770E+03  0.00000000000E+00 0. -1.
         25    2    1    2    0    0 -0.24842027504E+02  0.56477714836E+02  0.40654261226E+02  0.14520060000E+03  0.12499434660E+03 0.  0.
          2    1    1    2  501    0 -0.21190779531E+02 -0.18992499432E+02 -0.87134727519E+02  0.91663650983E+02  0.00000000000E+00 0. -1.
          1    1    1    2  502    0  0.46032807035E+02 -0.37485215405E+02  0.46939869273E+03  0.47313771086E+03  0.00000000000E+00 0. -1.
         22    1    3    3    0    0  0.21958333728E+02  0.60229164028E+02  0.65862528114E+02  0.91910789514E+02  0.00000000000E+00 0. -1.
         22    1    3    3    0    0 -0.46800361232E+02 -0.37514491910E+01 -0.25208266888E+02  0.53289810489E+02  0.00000000000E+00 0. -1.
</event>
<event>
 7    1  0.5575489E-006  0.1450085E+03  0.7818608E-02  0.1228266E+00
          2   -1    0    0  502    0  0.00000000000E+00  0.00000000000E+00  0.11817030078E+03  0.11817030078E+03  0.00000000000E+00 0. -1.
          1   -1    0    0  501    0 -0.00000000000E+00 -0.00000000000E+00 -0.83755640374E+03  0.83755640374E+03  0.00000000000E+00 0. -1.
         25    2    1    2    0    0 -0.11753891494E+03 -0.82065790901E+02 -0.15034720251E+03  0.24244672588E+03  0.12500377204E+03 0.  0.
          2    1    1    2  501    0  0.15064653205E+03 -0.28661306468E+02 -0.57739089005E+03  0.59740780713E+03  0.00000000000E+00 0. -1.
          1    1    1    2  502    0 -0.33107617105E+02  0.11072709737E+03  0.83519895973E+01  0.11587217152E+03  0.00000000000E+00 0. -1.
         22    1    3    3    0    0 -0.11759953194E+03 -0.11044664326E+02 -0.10607788940E+03  0.15875815929E+03  0.00000000000E+00 0. -1.
         22    1    3    3    0    0  0.60616993450E-01 -0.71021126575E+02 -0.44269313117E+02  0.83688566592E+02  0.00000000000E+00 0. -1.
</event>
<event>
 7    1  0.5575489E-006  0.1486186E+03  0.7818608E-02  0.1254978E+00
          2   -1    0    0  502    0  0.00000000000E+00  0.00000000000E+00  0.18556383890E+04  0.18556383890E+04  0.00000000000E+00 0. -1.
          1   -1    0    0  501    0 -0.00000000000E+00 -0.00000000000E+00 -0.12602033861E+04  0.12602033861E+04  0.00000000000E+00 0. -1.
         25    2    1    2    0    0  0.73131837806E+02  0.73408145086E+02  0.52267778186E+02  0.17056900446E+03  0.12499937271E+03 0.  0.
          2    1    1    2  501    0 -0.41572301832E+02  0.75322504287E+02 -0.11961915481E+04  0.11992814330E+04  0.00000000000E+00 0. -1.
          1    1    1    2  502    0 -0.31559535973E+02 -0.14873064937E+03  0.17393587728E+04  0.17459913375E+04  0.00000000000E+00 0. -1.
         22    1    3    3    0    0  0.12619325512E+01 -0.58416901896E+01 -0.33139488653E+02  0.33674077957E+02  0.00000000000E+00 0.  1.
         22    1    3    3    0    0  0.71869905254E+02  0.79249835276E+02  0.85407266839E+02  0.13689492650E+03  0.00000000000E+00 0.  1.
</event>
<event>
 7    1  0.5575489E-006  0.4437791E+02  0.7818608E-02  0.1523170E+00
          2   -1    0    0  502    0  0.00000000000E+00  0.00000000000E+00  0.12398583158E+04  0.12398583158E+04  0.00000000000E+00 0. -1.
          1   -1    0    0  501    0 -0.00000000000E+00 -0.00000000000E+00 -0.47327102138E+02  0.47327102138E+02  0.00000000000E+00 0. -1.
         25    2    1    2    0    0 -0.11858784264E+02 -0.89677921115E+01  0.90154353533E+02  0.15484117468E+03  0.12500771919E+03 0.  0.
          2    1    1    2  501    0 -0.32502174457E+02  0.25635467671E+01  0.37664888889E+01  0.32819956658E+02  0.00000000000E+00 0. -1.
          1    1    1    2  502    0  0.44360958721E+02  0.64042453444E+01  0.10986103712E+04  0.10995242866E+04  0.00000000000E+00 0. -1.
         22    1    3    3    0    0  0.32128408200E+02 -0.27091580357E+02 -0.10667239316E+02  0.43358716936E+02  0.00000000000E+00 0.  1.
         22    1    3    3    0    0 -0.43987192463E+02  0.18123788246E+02  0.10082159285E+03  0.11148245775E+03  0.00000000000E+00 0.  1.
</event>
<event>
 7    1  0.5575489E-006  0.2778008E+03  0.7818608E-02  0.1135273E+00
          2   -1    0    0  502    0  0.00000000000E+00  0.00000000000E+00  0.30793401759E+03  0.30793401759E+03  0.00000000000E+00 0. -1.
          1   -1    0    0  501    0 -0.00000000000E+00 -0.00000000000E+00 -0.15953185641E+04  0.15953185641E+04  0.00000000000E+00 0. -1.
         25    2    1    2    0    0  0.13504570986E+03 -0.12733676807E+03 -0.91044434863E+02  0.24159099080E+03  0.12500048584E+03 0.  0.
          2    1    1    2  501    0  0.10036652599E+03 -0.13881762275E+03 -0.12842480125E+04  0.12956221400E+04  0.00000000000E+00 0. -1.
          1    1    1    2  502    0 -0.23541223585E+03  0.26615439082E+03  0.87907900927E+02  0.36603945086E+03  0.00000000000E+00 0. -1.
         22    1    3    3    0    0 -0.68039379899E+01 -0.66566250010E+02 -0.44673705134E+02  0.80455572479E+02  0.00000000000E+00 0.  1.
         22    1    3    3    0    0  0.14184964785E+03 -0.60770518063E+02 -0.46370729729E+02  0.16113541832E+03  0.00000000000E+00 0.  1.
</event>
<event>
 7    1  0.5575489E-006  0.5697273E+02  0.7818608E-02  0.1506614E+00
          2   -1    0    0  502    0  0.00000000000E+00  0.00000000000E+00  0.10766845576E+04  0.10766845576E+04  0.00000000000E+00 0. -1.
          1   -1    0    0  501    0 -0.00000000000E+00 -0.00000000000E+00 -0.41555151535E+02  0.41555151535E+02  0.00000000000E+00 0. -1.
         25    2    1    2    0    0 -0.21855484197E+01 -0.41115268012E+02  0.57503821938E+03  0.58991142177E+03  0.12502515707E+03 0.  0.
          2    1    1    2  501    0 -0.23710647967E+02  0.52751501360E+02 -0.88674344475E+01  0.58511085415E+02  0.00000000000E+00 0. -1.
          1    1    1    2  502    0  0.25896196387E+02 -0.11636233348E+02  0.46895862114E+03  0.46981720196E+03  0.00000000000E+00 0. -1.
         22    1    3    3    0    0 -0.40936493551E+02  0.13580784458E+02  0.40258390258E+03  0.40488767927E+03  0.00000000000E+00 0. -1.
         22    1    3    3    0    0  0.38750945132E+02 -0.54696052470E+02  0.17245431680E+03  0.18502374249E+03  0.00000000000E+00 0. -1.
</event>
<event>
 7    1  0.5575489E-006  0.7127905E+02  0.7818608E-02  0.1443937E+00
          2   -1    0    0  502    0  0.00000000000E+00  0.00000000000E+00  0.12407572534E+04  0.12407572534E+04  0.00000000000E+00 0. -1.
          1   -1    0    0  501    0 -0.00000000000E+00 -0.00000000000E+00 -0.57270858469E+03  0.57270858469E+03  0.00000000000E+00 0. -1.
         25    2    1    2    0    0 -0.89361056075E+02  0.87053543960E+00  0.53101277438E+03  0.55280043707E+03  0.12501040155E+03 0.  0.
          2    1    1    2  501    0  0.66299803822E+02  0.26041130164E+02 -0.55910437781E+03  0.56362355321E+03  0.00000000000E+00 0. -1.
          1    1    1    2  502    0  0.23061252253E+02 -0.26911665604E+02  0.69614027216E+03  0.69704184783E+03  0.00000000000E+00 0. -1.
         22    1    3    3    0    0 -0.65312956943E+02 -0.29024219897E+02  0.11762868467E+03  0.13763972952E+03  0.00000000000E+00 0. -1.
         22    1    3    3    0    0 -0.24048099132E+02  0.29894755336E+02  0.41338408971E+03  0.41516070755E+03  0.00000000000E+00 0. -1.
</event>
<event>
 7    1  0.5575489E-006  0.5886168E+02  0.7818608E-02  0.1489550E+00
          2   -1    0    0  502    0  0.00000000000E+00  0.00000000000E+00  0.37587052583E+03  0.37587052583E+03  0.00000000000E+00 0. -1.
          1   -1    0    0  501    0 -0.00000000000E+00 -0.00000000000E+00 -0.63587747699E+03  0.63587747699E+03  0.00000000000E+00 0. -1.
         25    2    1    2    0    0  0.25133432150E+02  0.77435834734E+02 -0.37582940047E+03  0.40435128438E+03  0.12499689999E+03 0.  0.
          2    1    1    2  501    0  0.89455333735E+01 -0.29584569636E+02 -0.24241350625E+03  0.24437589353E+03  0.00000000000E+00 0. -1.
          1    1    1    2  502    0 -0.34078965524E+02 -0.47851265098E+02  0.35823595556E+03  0.36302082491E+03  0.00000000000E+00 0. -1.
         22    1    3    3    0    0 -0.11559387847E+02  0.98946895555E+02 -0.19982405251E+03  0.22327955471E+03  0.00000000000E+00 0.  1.
         22    1    3    3    0    0  0.36692819997E+02 -0.21511060821E+02 -0.17600534795E+03  0.18107172967E+03  0.00000000000E+00 0.  1.
</event>
<event>
 7    1  0.5575489E-006  0.8563436E+02  0.7818608E-02  0.1348322E+00
          2   -1    0    0  502    0  0.00000000000E+00  0.00000000000E+00  0.28585720237E+03  0.28585720237E+03  0.00000000000E+00 0. -1.
          1   -1    0    0  501    0 -0.00000000000E+00 -0.00000000000E+00 -0.10281970581E+04  0.10281970581E+04  0.00000000000E+00 0. -1.
         25    2    1    2    0    0 -0.13333894173E+03 -0.16958205554E+01 -0.65779766522E+03  0.68271974216E+03  0.12500531497E+03 0.  0.
          2    1    1    2  501    0  0.71229665850E+02 -0.10126876655E+02 -0.35058047828E+03  0.35788670090E+03  0.00000000000E+00 0. -1.
          1    1    1    2  502    0  0.62109275880E+02  0.11822697211E+02  0.26603828774E+03  0.27344781744E+03  0.00000000000E+00 0. -1.
         22    1    3    3    0    0 -0.66775512561E+02  0.24012162064E+02 -0.11414800600E+03  0.13440729251E+03  0.00000000000E+00 0. -1.
         22    1    3    3    0    0 -0.66563429169E+02 -0.25707982619E+02 -0.54364965922E+03  0.54831244965E+03  0.00000000000E+00 0. -1.
</event>
<event>
 7    1  0.5575489E-006  0.8409903E+02  0.7818608E-02  0.1381906E+00
          2   -1    0    0  502    0  0.00000000000E+00  0.00000000000E+00  0.69968589329E+03  0.69968589329E+03  0.00000000000E+00 0. -1.
          1   -1    0    0  501    0 -0.00000000000E+00 -0.00000000000E+00 -0.44184592728E+03  0.44184592728E+03  0.00000000000E+00 0. -1.
         25    2    1    2    0    0 -0.93713637093E+02  0.45091227144E+02  0.31033967517E+02  0.16555651460E+03  0.12502154952E+03 0.  0.
          2    1    1    2  501    0  0.10033949108E+02 -0.47605977855E+02 -0.37007124407E+03  0.37325558931E+03  0.00000000000E+00 0. -1.
          1    1    1    2  502    0  0.83679687985E+02  0.25147507112E+01  0.59687724257E+03  0.60271971666E+03  0.00000000000E+00 0. -1.
         22    1    3    3    0    0 -0.79269356512E+02 -0.25624041341E+02  0.40731970476E+02  0.92732495898E+02  0.00000000000E+00 0.  1.
         22    1    3    3    0    0 -0.14444280580E+02  0.70715268485E+02 -0.96980029593E+01  0.72824018701E+02  0.00000000000E+00 0.  1.
</event>
<event>
 7    1  0.5575489E-006  0.1657901E+03  0.7818608E-02  0.1277746E+00
          2   -1    0    0  502    0  0.00000000000E+00  0.00000000000E+00  0.37307925005E+03  0.37307925005E+03  0.00000000000E+00 0. -1.
          1   -1    0    0  501    0 -0.00000000000E+00 -0.00000000000E+00 -0.65944485344E+03  0.65944485344E+03  0.00000000000E+00 0. -1.
         25    2    1    2    0    0  0.21705895982E+03 -0.27515458393E+02 -0.64496632295E+02  0.26011027207E+03  0.12500338224E+03 0.  0.
          2    1    1    2  501    0 -0.15549347191E+03  0.32907077988E+02 -0.48070674435E+03  0.50630037493E+03  0.00000000000E+00 0. -1.
          1    1    1    2  502    0 -0.61565487912E+02 -0.53916195955E+01  0.25883777325E+03  0.26611345649E+03  0.00000000000E+00 0. -1.
         22    1    3    3    0    0  0.16573645009E+03 -0.39156465767E+02  0.80460358772E+01  0.17048911518E+03  0.00000000000E+00 0. -1.
         22    1    3    3    0    0  0.51322509730E+02  0.11641007374E+02 -0.72542668172E+02  0.89621156895E+02  0.00000000000E+00 0. -1.
</event>
