<event>
 7    1  0.5667373E-006  0.8052461E+02  0.7818608E-02  0.1385101E+00
          2   -1    0    0  502    0  0.00000000000E+00  0.00000000000E+00  0.82385015438E+02  0.82385015438E+02  0.00000000000E+00 0. -1.
          1   -1    0    0  501    0 -0.00000000000E+00 -0.00000000000E+00 -0.12779314632E+04  0.12779314632E+04  0.00000000000E+00 0. -1.
         25    2    1    2    0    0 -0.31191453158E+02  0.75093289758E+02 -0.18506346489E+03  0.23766908127E+03  0.12500478886E+03 0.  0.
          2    1    1    2  501    0  0.49236057400E+02  0.52154887628E+01 -0.10354500329E+04  0.10366330890E+04  0.00000000000E+00 0. -1.
          1    1    1    2  502    0 -0.18044604243E+02 -0.80308778521E+02  0.24967050022E+02  0.86014308325E+02  0.00000000000E+00 0. -1.
         22    1    3    3    0    0 -0.19718502534E+02 -0.46237728541E+01 -0.14735450890E+03  0.14873987331E+03  0.00000000000E+00 0. -1.
         22    1    3    3    0    0 -0.11472950623E+02  0.79717062612E+02 -0.37708955986E+02  0.88929207964E+02  0.00000000000E+00 0. -1.
</event>
<event>
 7    1  0.5667373E-006  0.9625879E+02  0.7818608E-02  0.1334985E+00
          2   -1    0    0  502    0  0.00000000000E+00  0.00000000000E+00  0.42692149880E+03  0.42692149880E+03  0.00000000000E+00 0. -1.
          1   -1    0    0  501    0 -0.00000000000E+00 -0.00000000000E+00 -0.11487156456E+03  0.11487156456E+03  0.00000000000E+00 0. -1.
         25    2    1    2    0    0  0.54452820323E+02 -0.61522151355E+02  0.69574402693E+02  0.16497455981E+03  0.12500369245E+03 0.  0.
          2    1    1    2  501    0 -0.48755632034E+02 -0.40081803531E+02 -0.41246494873E+02  0.75398514366E+02  0.00000000000E+00 0. -1.
          1    1    1    2  502    0 -0.56971882893E+01  0.10160395489E+03  0.28372202642E+03  0.30141998918E+03  0.00000000000E+00 0. -1.
         22    1    3    3    0    0  0.24895500055E+02 -0.95519780201E+02  0.25501653876E+02  0.10195169779E+03  0.00000000000E+00 0.  1.
         22    1    3    3    0    0  0.29557320268E+02  0.33997628846E+02  0.44072748818E+02  0.63022862018E+02  0.00000000000E+00 0.  1.
</event>
<event>
 7    1  0.5667373E-006  0.1160793E+03  0.7818608E-02  0.1271452E+00
          2   -1    0    0  502    0  0.00000000000E+00  0.00000000000E+00  0.16004092590E+04  0.16004092590E+04  0.00000000000E+00 0. -1.
          1   -1    0    0  501    0 -0.00000000000E+00 -0.00000000000E+00 -0.93325590246E+02  0.93325590246E+02  0.00000000000E+00 0. -1.
         25    2    1    2    0    0 -0.55636329266E+02 -0.31137484702E+02  0.35734080408E+03  0.38390489955E+03  0.12500231017E+03 0.  0.
          2    1    1    2  501    0  0.31504795914E+02  0.12174248808E+03 -0.27610959788E+02  0.12874840065E+03  0.00000000000E+00 0. -1.
          1    1    1    2  502    0  0.24131533352E+02 -0.90605003374E+02  0.11773538245E+04  0.11810815490E+04  0.00000000000E+00 0. -1.
         22    1    3    3    0    0 -0.32217316644E+02 -0.13853858168E+02  0.35269015668E+03  0.35442944502E+03  0.00000000000E+00 0.  1.
         22    1    3    3    0    0 -0.23419012622E+02 -0.17283626535E+02  0.46506473994E+01  0.29475454528E+02  0.00000000000E+00 0.  1.
</event>
<event>
 7    1  0.5667373E-006  0.9811053E+02  0.7818608E-02  0.1446997E+00
          2   -1    0    0  502    0  0.00000000000E+00  0.00000000000E+00  0.82447996782E+03  0.82447996782E+03  0.00000000000E+00 0. -1.
          1   -1    0    0  501    0 -0.00000000000E+00 -0.00000000000E+00 -0.21097819585E+03  0.21097819585E+03  0.00000000000E+00 0. -1.
         25    2    1    2    0    0 -0.60756179464E+02 -0.96175080896E+02  0.47591941386E+03  0.50503978446E+03  0.12499974348E+03 0.  0.
          2    1    1    2  501    0  0.31898597044E+01  0.24968033299E+02 -0.18929353275E+03  0.19095973249E+03  0.00000000000E+00 0. -1.
          1    1    1    2  502    0  0.57566319760E+02  0.71207047597E+02  0.32687589087E+03  0.33945864672E+03  0.00000000000E+00 0. -1.
         22    1    3    3    0    0 -0.86253606279E+02 -0.10060860909E+03  0.44700371753E+03  0.46623395447E+03  0.00000000000E+00 0.  1.
         22    1    3    3    0    0  0.25497426815E+02  0.44335281978E+01  0.28915696327E+02  0.38805829981E+02  0.00000000000E+00 0.  1.
</event>
<event>
 7    1  0.5667373E-006  0.9366664E+02  0.7818608E-02  0.1341544E+00
          2   -1    0    0  502    0  0.00000000000E+00  0.00000000000E+00  0.62715868808E+03  0.62715868808E+03  0.00000000000E+00 0. -1.
          1   -1    0    0  501    0 -0.00000000000E+00 -0.00000000000E+00 -0.27356095712E+04  0.27356095712E+04  0.00000000000E+00 0. -1.
         25    2    1    2    0    0 -0.39426241808E+02 -0.10461340059E+03  0.17509889512E+02  0.16861283305E+03  0.12500119644E+03 0.  0.
          2    1    1    2  501    0 -0.36201599071E+02  0.49432409936E+02 -0.26555995267E+04  0.26563062634E+04  0.00000000000E+00 0. -1.
          1    1    1    2  502    0  0.75627840879E+02  0.55180990657E+02  0.52963875410E+03  0.53784916277E+03  0.00000000000E+00 0. -1.
         22    1    3    3    0    0 -0.84386902696E+02 -0.60792803397E+02  0.23758515084E+01  0.10403152869E+03  0.00000000000E+00 0.  1.
         22    1    3    3    0    0  0.44960660887E+02 -0.43820597196E+02  0.15134038004E+02  0.64581304356E+02  0.00000000000E+00 0.  1.
</event>
<event>
 7    1  0.5667373E-006  0.4359820E+02  0.7818608E-02  0.1599735E+00
          2   -1    0    0  502    0  0.00000000000E+00  0.00000000000E+00  0.16039517773E+04  0.16039517773E+04  0.00000000000E+00 0. -1.
          1   -1    0    0  501    0 -0.00000000000E+00 -0.00000000000E+00 -0.51756254784E+03  0.51756254784E+03  0.00000000000E+00 0. -1.
         25    2    1    2    0    0 -0.13139125770E+01 -0.25135404160E+02 -0.56275677730E+02  0.13933850179E+03  0.12495899835E+03 0.  0.
          2    1    1    2  501    0 -0.12248120974E+02 -0.16363095716E+02 -0.41920142838E+03  0.41969942212E+03  0.00000000000E+00 0. -1.
          1    1    1    2  502    0  0.13562033551E+02  0.41498499875E+02  0.15618663356E+04  0.15624764012E+04  0.00000000000E+00 0. -1.
         22    1    3    3    0    0 -0.10912446599E+02 -0.62784560723E+02 -0.73118709159E+02  0.96991382014E+02  0.00000000000E+00 0. -1.
         22    1    3    3    0    0  0.95985340223E+01  0.37649156563E+02  0.16843031429E+02  0.42347119772E+02  0.00000000000E+00 0. -1.
</event>
<event>
 7    1  0.5667373E-006  0.1030059E+03  0.7818608E-02  0.1277682E+00
          2   -1    0    0  502    0  0.00000000000E+00  0.00000000000E+00  0.10426225166E+04  0.10426225166E+04  0.00000000000E+00 0. -1.
          1   -1    0    0  501    0 -0.00000000000E+00 -0.00000000000E+00 -0.15621381975E+04  0.15621381975E+04  0.00000000000E+00 0. -1.
         25    2    1    2    0    0  0.42010980898E+02 -0.19108904497E+01 -0.57669548017E+02  0.14394175830E+03  0.12499951598E+03 0.  0.
          2    1    1    2  501    0 -0.20657143698E+01  0.99509330261E+02 -0.14568481242E+04  0.14602440998E+04  0.00000000000E+00 0. -1.
          1    1    1    2  502    0 -0.39945266528E+02 -0.97598439812E+02  0.99500199135E+03  0.10005748561E+04  0.00000000000E+00 0. -1.
         22    1    3    3    0    0 -0.32505569521E+02 -0.31305192198E+02  0.18495926466E+00  0.45129384201E+02  0.00000000000E+00 0. -1.
         22    1    3    3    0    0  0.74516550418E+02  0.29394301749E+02 -0.57854507282E+02  0.98812374096E+02  0.00000000000E+00 0. -1.
</event>
<event>
 7    1  0.5667373E-006  0.8929424E+02  0.7818608E-02  0.1432626E+00
          2   -1    0    0  502    0  0.00000000000E+00  0.00000000000E+00  0.78612710655E+03  0.78612710655E+03  0.00000000000E+00 0. -1.
          1   -1    0    0  501    0 -0.00000000000E+00 -0.00000000000E+00 -0.33086506432E+03  0.33086506432E+03  0.00000000000E+00 0. -1.
         25    2    1    2    0    0 -0.44622076301E+02 -0.57544326413E+02 -0.67720881040E+02  0.15972737825E+03  0.12499695372E+03 0.  0.
          2    1    1    2  501    0 -0.29877702098E+02  0.74496187184E+01 -0.21330890848E+03  0.21551998594E+03  0.00000000000E+00 0. -1.
          1    1    1    2  502    0  0.74499778399E+02  0.50094707695E+02  0.73629183175E+03  0.74174480667E+03  0.00000000000E+00 0. -1.
         22    1    3    3    0    0 -0.34474685642E+02  0.36400782907E+02 -0.25131390613E+02  0.56081260154E+02  0.00000000000E+00 0.  1.
         22    1    3    3    0    0 -0.10147390659E+02 -0.93945109321E+02 -0.42589490427E+02  0.10364611810E+03  0.00000000000E+00 0.  1.
</event>
<event>
 7    1  0.5667373E-006  0.7904130E+02  0.7818608E-02  0.1431753E+00
          2   -1    0    0  502    0  0.00000000000E+00  0.00000000000E+00  0.57405252822E+03  0.57405252822E+03  0.00000000000E+00 0. -1.
          1   -1    0    0  501    0 -0.00000000000E+00 -0.00000000000E+00 -0.11712544016E+03  0.11712544016E+03  0.00000000000E+00 0. -1.
         25    2    1    2    0    0 -0.10765295949E+03  0.97427335983E+01  0.28391673133E+03  0.32850837634E+03  0.12499984981E+03 0.  0.
          2    1    1    2  501    0  0.74615015831E+02 -0.21348074527E+02 -0.77526582647E+02  0.10969736501E+03  0.00000000000E+00 0. -1.
          1    1    1    2  502    0  0.33037943655E+02  0.11605340929E+02  0.25053693938E+03  0.25297222703E+03  0.00000000000E+00 0. -1.
         22    1    3    3    0    0 -0.45195244864E+01  0.40268979962E+02  0.23710219987E+02  0.46948816605E+02  0.00000000000E+00 0.  1.
         22    1    3    3    0    0 -0.10313343500E+03 -0.30526246364E+02  0.26020651135E+03  0.28155955974E+03  0.00000000000E+00 0.  1.
</event>
<event>
 7    1  0.5667373E-006  0.4555916E+02  0.7818608E-02  0.1512040E+00
          2   -1    0    0  502    0  0.00000000000E+00  0.00000000000E+00  0.11175662353E+04  0.11175662353E+04  0.00000000000E+00 0. -1.
          1   -1    0    0  501    0 -0.00000000000E+00 -0.00000000000E+00 -0.14918424994E+03  0.14918424994E+03  0.00000000000E+00 0. -1.
         25    2    1    2    0    0 -0.12431457120E+02  0.18999594082E+02 -0.34614422884E+02  0.13167532290E+03  0.12499882674E+03 0.  0.
          2    1    1    2  501    0  0.22758533987E+02  0.25554682441E+02 -0.61082007905E+02  0.70014315348E+02  0.00000000000E+00 0. -1.
          1    1    1    2  502    0 -0.10327076868E+02 -0.44554276524E+02  0.10640784162E+04  0.10650608470E+04  0.00000000000E+00 0. -1.
         22    1    3    3    0    0  0.47831257407E+02  0.21587875489E+02 -0.46595810556E+02  0.70178594419E+02  0.00000000000E+00 0. -1.
         22    1    3    3    0    0 -0.60262714527E+02 -0.25882814072E+01  0.11981387672E+02  0.61496728477E+02  0.00000000000E+00 0. -1.
</event>
<event>
 7    1  0.5667373E-006  0.3958787E+02  0.7818608E-02  0.1519135E+00
          2   -1    0    0  502    0  0.00000000000E+00  0.00000000000E+00  0.15458308179E+03  0.15458308179E+03  0.00000000000E+00 0. -1.
          1   -1    0    0  501    0 -0.00000000000E+00 -0.00000000000E+00 -0.97884862069E+03  0.97884862069E+03  0.00000000000E+00 0. -1.
         25    2    1    2    0    0  0.16357098537E+02 -0.19658174512E+01  0.63147001358E+02  0.14101757548E+03  0.12500797455E+03 0.  0.
          2    1    1    2  501    0 -0.87968600543E+01  0.38742708689E+02 -0.93272322018E+03  0.93356895176E+03  0.00000000000E+00 0. -1.
          1    1    1    2  502    0 -0.75602384822E+01 -0.36776891237E+02  0.45310679925E+02  0.58845175251E+02  0.00000000000E+00 0. -1.
         22    1    3    3    0    0  0.70984427853E+02  0.41225069936E+01  0.34390229818E+02  0.78983998179E+02  0.00000000000E+00 0. -1.
         22    1    3    3    0    0 -0.54627329316E+02 -0.60883244448E+01  0.28756771540E+02  0.62033577296E+02  0.00000000000E+00 0. -1.
</event>
<event>
 7    1  0.5667373E-006  0.1150927E+03  0.7818608E-02  0.1366957E+00
          2   -1    0    0  502    0  0.00000000000E+00  0.00000000000E+00  0.48179900324E+03  0.48179900324E+03  0.00000000000E+00 0. -1.
          1   -1    0    0  501    0 -0.00000000000E+00 -0.00000000000E+00 -0.16127739392E+04  0.16127739392E+04  0.00000000000E+00 0. -1.
         25    2    1    2    0    0  0.56682117304E+01 -0.15386629668E+03 -0.23313360183E+03  0.30607835752E+03  0.12500287503E+03 0.  0.
          2    1    1    2  501    0  0.25383410224E+01  0.40120366447E+02 -0.13355594621E+04  0.13361643476E+04  0.00000000000E+00 0. -1.
          1    1    1    2  502    0 -0.82065527528E+01  0.11374593023E+03  0.43771812791E+03  0.45233023738E+03  0.00000000000E+00 0. -1.
         22    1    3    3    0    0  0.48412217683E+02 -0.11795703019E+03 -0.10108456525E+03  0.16271353085E+03  0.00000000000E+00 0.  1.
         22    1    3    3    0    0 -0.42744005953E+02 -0.35909266491E+02 -0.13204903658E+03  0.14336482667E+03  0.00000000000E+00 0.  1.
</event>
<event>
 7    1  0.5667373E-006  0.1761849E+03  0.7818608E-02  0.1205785E+00
          2   -1    0    0  502    0  0.00000000000E+00  0.00000000000E+00  0.17131589819E+03  0.17131589819E+03  0.00000000000E+00 0. -1.
          1   -1    0    0  501    0 -0.00000000000E+00 -0.00000000000E+00 -0.22208842456E+04  0.22208842456E+04  0.00000000000E+00 0. -1.
         25    2    1    2    0    0 -0.13613257399E+03  0.24667567853E+03 -0.45719249466E+03  0.55138971387E+03  0.12499868519E+03 0.  0.
          2    1    1    2  501    0  0.10493589232E+03 -0.13019636699E+03 -0.16821726853E+04  0.16904637170E+04  0.00000000000E+00 0. -1.
          1    1    1    2  502    0  0.31196681678E+02 -0.11647931155E+03  0.89796832493E+02  0.15034671294E+03  0.00000000000E+00 0. -1.
         22    1    3    3    0    0 -0.15967217291E+03  0.20958330582E+03 -0.37687174263E+03  0.45983983655E+03  0.00000000000E+00 0.  1.
         22    1    3    3    0    0  0.23539598916E+02  0.37092372716E+02 -0.80320752031E+02  0.91549877322E+02  0.00000000000E+00 0.  1.
</event>
<event>
 7    1  0.5667373E-006  0.1127808E+03  0.7818608E-02  0.1387699E+00
          2   -1    0    0  502    0  0.00000000000E+00  0.00000000000E+00  0.79699365100E+03  0.79699365100E+03  0.00000000000E+00 0. -1.
          1   -1    0    0  501    0 -0.00000000000E+00 -0.00000000000E+00 -0.10052655047E+03  0.10052655047E+03  0.00000000000E+00 0. -1.
         25    2    1    2    0    0  0.70453315283E+02 -0.55377567680E+02  0.20584810932E+03  0.25696070429E+03  0.12500005921E+03 0.  0.
          2    1    1    2  501    0  0.82026419589E+01 -0.33630712599E+02 -0.64323675146E+02  0.73046857217E+02  0.00000000000E+00 0. -1.
          1    1    1    2  502    0 -0.78655957242E+02  0.89008280279E+02  0.55494266636E+03  0.56751263996E+03  0.00000000000E+00 0. -1.
         22    1    3    3    0    0  0.15003314513E+02 -0.38596774565E+01 -0.16171242121E+02  0.22394321338E+02  0.00000000000E+00 0. -1.
         22    1    3    3    0    0  0.55450000770E+02 -0.51517890223E+02  0.22201935144E+03  0.23456638295E+03  0.00000000000E+00 0. -1.
</event>
<event>
 7    1  0.5667373E-006  0.1999848E+03  0.7818608E-02  0.1372361E+00
          2   -1    0    0  502    0  0.00000000000E+00  0.00000000000E+00  0.54345494552E+02  0.54345494552E+02  0.00000000000E+00 0. -1.
          1   -1    0    0  501    0 -0.00000000000E+00 -0.00000000000E+00 -0.15258036522E+04  0.15258036522E+04  0.00000000000E+00 0. -1.
         25    2    1    2    0    0  0.19347970291E+03 -0.30860131152E+02 -0.68610592584E+03  0.72439777151E+03  0.12499618699E+03 0.  0.
          2    1    1    2  501    0  0.14555440721E+01 -0.22075144300E+02 -0.52861333202E+03  0.52907606768E+03  0.00000000000E+00 0. -1.
          1    1    1    2  502    0 -0.19493524698E+03  0.52935275453E+02 -0.25673889977E+03  0.32667530755E+03  0.00000000000E+00 0. -1.
         22    1    3    3    0    0  0.19845610611E+03 -0.29658660985E+02 -0.50765843903E+03  0.54587686610E+03  0.00000000000E+00 0.  1.
         22    1    3    3    0    0 -0.49764032016E+01 -0.12014701673E+01 -0.17844748681E+03  0.17852090541E+03  0.00000000000E+00 0.  1.
</event>
<event>
 7    1  0.5667373E-006  0.3019690E+02  0.7818608E-02  0.1604936E+00
          2   -1    0    0  502    0  0.00000000000E+00  0.00000000000E+00  0.50988728781E+02  0.50988728781E+02  0.00000000000E+00 0. -1.
          1   -1    0    0  501    0 -0.00000000000E+00 -0.00000000000E+00 -0.17225994044E+04  0.17225994044E+04  0.00000000000E+00 0. -1.
         25    2    1    2    0    0 -0.22209175137E+02 -0.15926090371E+02 -0.93274368384E+03  0.94147880745E+03  0.12499870928E+03 0.  0.
          2    1    1    2  501    0  0.28937974351E+02 -0.11875005990E+02 -0.78075794905E+03  0.78138428263E+03  0.00000000000E+00 0. -1.
          1    1    1    2  502    0 -0.67287992138E+01  0.27801096362E+02  0.41890957267E+02  0.50725043110E+02  0.00000000000E+00 0. -1.
         22    1    3    3    0    0  0.33710822000E+02 -0.45383727462E+02 -0.60932913116E+03  0.61194615148E+03  0.00000000000E+00 0. -1.
         22    1    3    3    0    0 -0.55919997137E+02  0.29457637091E+02 -0.32341455269E+03  0.32953265597E+03  0.00000000000E+00 0. -1.
</event>
<event>
 7    1  0.5667373E-006  0.3031658E+02  0.7818608E-02  0.1596175E+00
          2   -1    0    0  502    0  0.00000000000E+00  0.00000000000E+00  0.13315783317E+04  0.13315783317E+04  0.00000000000E+00 0. -1.
          1   -1    0    0  501    0 -0.00000000000E+00 -0.00000000000E+00 -0.12472986512E+03  0.12472986512E+03  0.00000000000E+00 0. -1.
         25    2    1    2    0    0 -0.10288549753E+02  0.39030533494E+01  0.44364604950E+03  0.46105140200E+03  0.12500195984E+03 0.  0.
          2    1    1    2  501    0  0.12772866470E+02  0.27180078051E+02 -0.11380214960E+03  0.11769805442E+03  0.00000000000E+00 0. -1.
          1    1    1    2  502    0 -0.24843167171E+01 -0.31083131400E+02  0.87700456672E+03  0.87755874045E+03  0.00000000000E+00 0. -1.
         22    1    3    3    0    0 -0.66444681612E+02 -0.28842349391E+01  0.28391206839E+03  0.29159780024E+03  0.00000000000E+00 0. -1.
         22    1    3    3    0    0  0.56156131860E+02  0.67872882885E+01  0.15973398112E+03  0.16945360176E+03  0.00000000000E+00 0. -1.
</event>
<event>
 7    1  0.5667373E-006  0.5167879E+02  0.7818608E-02  0.1530878E+00
          2   -1    0    0  502    0  0.00000000000E+00  0.00000000000E+00  0.20349670318E+04  0.20349670318E+04  0.00000000000E+00 0. -1.
          1   -1    0    0  501    0 -0.00000000000E+00 -0.00000000000E+00 -0.45196800680E+02  0.45196800680E+02  0.00000000000E+00 0. -1.
         25    2    1    2    0    0  0.50609358600E+02 -0.51723455467E+02  0.21526741814E+03  0.25923372661E+03  0.12500176270E+03 0.  0.
          2    1    1    2  501    0 -0.25725854060E+02  0.67773389169E+01 -0.15099872292E+02  0.30590162359E+02  0.00000000000E+00 0. -1.
          1    1    1    2  502    0 -0.24883504540E+02  0.44946116551E+02  0.17896026853E+04  0.17903399435E+04  0.00000000000E+00 0. -1.
         22    1    3    3    0    0  0.70626332042E+01  0.39557919577E+02  0.87472896561E+02  0.96261193748E+02  0.00000000000E+00 0. -1.
         22    1    3    3    0    0  0.43546725396E+02 -0.91281375044E+02  0.12779452158E+03  0.16297253286E+03  0.00000000000E+00 0. -1.
</event>
<event>
 7    1  0.5667373E-006  0.4408383E+02  0.7818608E-02  0.1583224E+00
          2   -1    0    0  502    0  0.00000000000E+00  0.00000000000E+00  0.47983857682E+03  0.47983857682E+03  0.00000000000E+00 0. -1.
          1   -1    0    0  501    0 -0.00000000000E+00 -0.00000000000E+00 -0.70415343702E+02  0.70415343702E+02  0.00000000000E+00 0. -1.
         25    2    1    2    0    0 -0.52453040356E+02  0.38522885015E+02  0.13744576070E+03  0.19685619198E+03  0.12500275627E+03 0.  0.
          2    1    1    2  501    0  0.16083805538E+02 -0.15518652020E+02 -0.36029709642E+02  0.42398789346E+02  0.00000000000E+00 0. -1.
          1    1    1    2  502    0  0.36369234817E+02 -0.23004232995E+02  0.30800718206E+03  0.31099893919E+03  0.00000000000E+00 0. -1.
         22    1    3    3    0    0 -0.46310532820E+02  0.66407587145E+02  0.14608952260E+03  0.16702329686E+03  0.00000000000E+00 0. -1.
         22    1    3    3    0    0 -0.61425075357E+01 -0.27884702130E+02 -0.86437619019E+01  0.29832895125E+02  0.00000000000E+00 0. -1.
</event>
<event>
 7    1  0.5667373E-006  0.2038329E+03  0.7818608E-02  0.1286522E+00
          2   -1    0    0  502    0  0.00000000000E+00  0.00000000000E+00  0.15302179885E+04  0.15302179885E+04  0.00000000000E+00 0. -1.
          1   -1    0    0  501    0 -0.00000000000E+00 -0.00000000000E+00 -0.44449869952E+03  0.44449869952E+03  0.00000000000E+00 0. -1.
         25    2    1    2    0    0  0.50620765621E+02  0.24029757918E+03  0.60206840427E+03  0.66213067478E+03  0.12500111433E+03 0.  0.
          2    1    1    2  501    0 -0.27255817643E+02 -0.20038049246E+03 -0.38915140708E+03  0.43855904846E+03  0.00000000000E+00 0. -1.
          1    1    1    2  502    0 -0.23364947978E+02 -0.39917086716E+02  0.87280229181E+03  0.87402696480E+03  0.00000000000E+00 0. -1.
         22    1    3    3    0    0  0.81271007322E+02  0.16794181995E+03  0.33166081895E+03  0.38053689748E+03  0.00000000000E+00 0.  1.
         22    1    3    3    0    0 -0.30650241701E+02  0.72355759228E+02  0.27040758533E+03  0.28159377730E+03  0.00000000000E+00 0.  1.
</event>
<event>
 7    1  0.5667373E-006  0.1134816E+03  0.7818608E-02  0.1408218E+00
          2   -1    0    0  502    0  0.00000000000E+00  0.00000000000E+00  0.18321249706E+04  0.18321249706E+04  0.00000000000E+00 0. -1.
          1   -1    0    0  501    0 -0.00000000000E+00 -0.00000000000E+00 -0.56245142608E+03  0.56245142608E+03  0.00000000000E+00 0. -1.
         25    2    1    2    0    0  0.10764287737E+03  0.27278271078E+02  0.10124209098E+04  0.10261384907E+04  0.12503203698E+03 0.  0.
          2    1    1    2  501    0 -0.56532553864E+01  0.28677527758E+02 -0.55104110080E+03  0.55181577965E+03  0.00000000000E+00 0. -1.
          1    1    1    2  502    0 -0.10198962199E+03 -0.55955798837E+02  0.80829373552E+03  0.81662212638E+03  0.00000000000E+00 0. -1.
         22    1    3    3    0    0  0.79036954820E+02  0.76498838638E+02  0.63741768328E+03  0.64683863173E+03  0.00000000000E+00 0.  1.
         22    1    3    3    0    0  0.28605922552E+02 -0.49220567560E+02  0.37500322656E+03  0.37929985896E+03  0.00000000000E+00 0.  1.
</event>
<event>
 7    1  0.5667373E-006  0.7616927E+02  0.7818608E-02  0.1481839E+00
          2   -1    0    0  502    0  0.00000000000E+00  0.00000000000E+00  0.16614618731E+03  0.16614618731E+03  0.00000000000E+00 0. -1.
          1   -1    0    0  501    0 -0.00000000000E+00 -0.00000000000E+00 -0.21539099272E+04  0.21539099272E+04  0.00000000000E+00 0. -1.
         25    2    1    2    0    0 -0.30882816927E+02  0.82336377562E+02 -0.13627458468E+03  0.20476581282E+03  0.12500099287E+03 0.  0.
          2    1    1    2  501    0  0.65606083713E+01 -0.75702589198E+02 -0.19814501594E+04  0.19829066185E+04  0.00000000000E+00 0. -1.
          1    1    1    2  502    0  0.24322208556E+02 -0.66337883641E+01  0.12996100415E+03  0.13238368320E+03  0.00000000000E+00 0. -1.
         22    1    3    3    0    0 -0.43380774716E+02  0.11210951017E+03 -0.11278435468E+03  0.16483550754E+03  0.00000000000E+00 0. -1.
         22    1    3    3    0    0  0.12497957788E+02 -0.29773132610E+02 -0.23490229997E+02  0.39930305278E+02  0.00000000000E+00 0. -1.
</event>
<event>
 7    1  0.5667373E-006  0.4244737E+03  0.7818608E-02  0.1205175E+00
          2   -1    0    0  502    0  0.00000000000E+00  0.00000000000E+00  0.58503604143E+03  0.58503604143E+03  0.00000000000E+00 0. -1.
          1   -1    0    0  501    0 -0.00000000000E+00 -0.00000000000E+00 -0.16373421737E+04  0.16373421737E+04  0.00000000000E+00 0. -1.
         25    2    1    2    0    0  0.86657292061E+02 -0.40617342685E+03  0.12550274406E+02  0.43389986395E+03  0.12500097443E+03 0.  0.
          2    1    1    2  501    0 -0.13696796277E+03  0.40352528003E+03 -0.13928800896E+04  0.14566083271E+04  0.00000000000E+00 0. -1.
          1    1    1    2  502    0  0.50310670714E+02  0.26481468112E+01  0.32802368299E+03  0.33187002406E+03  0.00000000000E+00 0. -1.
         22    1    3    3    0    0  0.52669921738E+02 -0.39377437718E+03  0.15646272388E+02  0.39758921844E+03  0.00000000000E+00 0. -1.
         22    1    3    3    0    0  0.33987370322E+02 -0.12399049663E+02 -0.30959979815E+01  0.36310645511E+02  0.00000000000E+00 0. -1.
</event>
<event>
 7    1  0.5667373E-006  0.6104681E+02  0.7818608E-02  0.1482893E+00
          2   -1    0    0  502    0  0.00000000000E+00  0.00000000000E+00  0.17353326847E+04  0.17353326847E+04  0.00000000000E+00 0. -1.
          1   -1    0    0  501    0 -0.00000000000E+00 -0.00000000000E+00 -0.23147646595E+02  0.23147646595E+02  0.00000000000E+00 0. -1.
         25    2    1    2    0    0 -0.41790993285E+02  0.72557784864E+02  0.97769042488E+03  0.98919806506E+03  0.12499250282E+03 0.  0.
          2    1    1    2  501    0  0.43449502971E+02 -0.41378593446E+02  0.35756299418E+02  0.69846691060E+02  0.00000000000E+00 0. -1.
          1    1    1    2  502    0 -0.16585096861E+01 -0.31179191418E+02  0.69873831385E+03  0.69943557522E+03  0.00000000000E+00 0. -1.
         22    1    3    3    0    0 -0.31516398725E+02 -0.24003951809E+02  0.50980146805E+03  0.51133844948E+03  0.00000000000E+00 0. -1.
         22    1    3    3    0    0 -0.10274594560E+02  0.96561736674E+02  0.46788895682E+03  0.47785961558E+03  0.00000000000E+00 0. -1.
</event>
<event>
 7    1  0.5667373E-006  0.7506518E+02  0.7818608E-02  0.1483492E+00
          2   -1    0    0  502    0  0.00000000000E+00  0.00000000000E+00  0.14363062336E+04  0.14363062336E+04  0.00000000000E+00 0. -1.
          1   -1    0    0  501    0 -0.00000000000E+00 -0.00000000000E+00 -0.26235760248E+03  0.26235760248E+03  0.00000000000E+00 0. -1.
         25    2    1    2    0    0 -0.11353646383E+02 -0.58968568473E+02  0.35716980596E+03  0.38314788205E+03  0.12500332745E+03 0.  0.
          2    1    1    2  501    0  0.18126073600E+02 -0.17629722502E+02 -0.24733658604E+03  0.24862571962E+03  0.00000000000E+00 0. -1.
          1    1    1    2  502    0 -0.67724272162E+01  0.76598290974E+02  0.10641154111E+04  0.10668902344E+04  0.00000000000E+00 0. -1.
         22    1    3    3    0    0 -0.27079459215E+02  0.16490892436E+02  0.24502280989E+03  0.24706562693E+03  0.00000000000E+00 0.  1.
         22    1    3    3    0    0  0.15725812831E+02 -0.75459460909E+02  0.11214699607E+03  0.13608225512E+03  0.00000000000E+00 0.  1.
</event>
<event>
 7    1  0.5667373E-006  0.9563894E+02  0.7818608E-02  0.1448590E+00
          2   -1    0    0  502    0  0.00000000000E+00  0.00000000000E+00  0.84422662911E+03  0.84422662911E+03  0.00000000000E+00 0. -1.
          1   -1    0    0  501    0 -0.00000000000E+00 -0.00000000000E+00 -0.11032650494E+03  0.11032650494E+03  0.00000000000E+00 0. -1.
         25    2    1    2    0    0 -0.12369699890E+02  0.81862656352E+02  0.18842463120E+03  0.24080053802E+03  0.12500621379E+03 0.  0.
          2    1    1    2  501    0  0.20184200134E+02  0.15614982838E+02 -0.78302384569E+02  0.82355892644E+02  0.00000000000E+00 0. -1.
          1    1    1    2  502    0 -0.78145002437E+01 -0.97477639190E+02  0.62377787753E+03  0.63139670339E+03  0.00000000000E+00 0. -1.
         22    1    3    3    0    0 -0.49822698689E+02  0.96812129183E+02  0.12652212621E+03  0.16692135298E+03  0.00000000000E+00 0.  1.
         22    1    3    3    0    0  0.37452998799E+02 -0.14949472831E+02  0.61902504995E+02  0.73879185036E+02  0.00000000000E+00 0.  1.
</event>
<event>
 7    1  0.5667373E-006  0.4540604E+02  0.7818608E-02  0.1513505E+00
          2   -1    0    0  502    0  0.00000000000E+00  0.00000000000E+00  0.11501883325E+04  0.11501883325E+04  0.00000000000E+00 0. -1.
          1   -1    0    0  501    0 -0.00000000000E+00 -0.00000000000E+00 -0.19931040541E+02  0.19931040541E+02  0.00000000000E+00 0. -1.
         25    2    1    2    0    0 -0.11839811711E+02  0.15953767752E+02  0.34341575842E+03  0.36599571335E+03  0.12499510074E+03 0.  0.
          2    1    1    2  501    0  0.44133982320E+02 -0.26578540694E+02  0.72322208239E+02  0.88795996674E+02  0.00000000000E+00 0. -1.
          1    1    1    2  502    0 -0.32294170609E+02  0.10624772943E+02  0.71451932530E+03  0.71532766302E+03  0.00000000000E+00 0. -1.
         22    1    3    3    0    0  0.53233655990E+02 -0.25262159486E+01  0.20669703238E+03  0.21345694435E+03  0.00000000000E+00 0.  1.
         22    1    3    3    0    0 -0.65073467701E+02  0.18479983700E+02  0.13671872604E+03  0.15253876900E+03  0.00000000000E+00 0.  1.
</event>
<event>
 7    1  0.5667373E-006  0.6635869E+02  0.7818608E-02  0.1412577E+00
          2   -1    0    0  502    0  0.00000000000E+00  0.00000000000E+00  0.27995755324E+03  0.27995755324E+03  0.00000000000E+00 0. -1.
          1   -1    0    0  501    0 -0.00000000000E+00 -0.00000000000E+00 -0.79390441522E+02  0.79390441522E+02  0.00000000000E+00 0. -1.
         25    2    1    2    0    0 -0.62462472619E+00  0.33376623162E+02  0.17425753796E+03  0.21703947738E+03  0.12500422424E+03 0.  0.
          2    1    1    2  501    0  0.42267011473E+02 -0.57876931135E+02 -0.21007108525E+02  0.74682916554E+02  0.00000000000E+00 0. -1.
          1    1    1    2  502    0 -0.41642386747E+02  0.24500307973E+02  0.47316682287E+02  0.67625600828E+02  0.00000000000E+00 0. -1.
         22    1    3    3    0    0  0.29984687628E+02  0.63246079339E+02  0.15512880228E+03  0.17018840542E+03  0.00000000000E+00 0. -1.
         22    1    3    3    0    0 -0.30609312354E+02 -0.29869456177E+02  0.19128735681E+02  0.46851071960E+02  0.00000000000E+00 0. -1.
</event>
<event>
 7    1  0.5667373E-006  0.9719109E+02  0.7818608E-02  0.1387544E+00
          2   -1    0    0  502    0  0.00000000000E+00  0.00000000000E+00  0.26979090946E+03  0.26979090946E+03  0.00000000000E+00 0. -1.
          1   -1    0    0  501    0 -0.00000000000E+00 -0.00000000000E+00 -0.26615400406E+03  0.26615400406E+03  0.00000000000E+00 0. -1.
         25    2    1    2    0    0 -0.54533493653E+02  0.24697575961E+02 -0.22521617396E+03  0.26444629975E+03  0.12500259298E+03 0.  0.
          2    1    1    2  501    0 -0.39900376777E+02  0.50551473264E+01  0.32935815233E+02  0.51984252486E+02  0.00000000000E+00 0. -1.
          1    1    1    2  502    0  0.94433870429E+02 -0.29752723288E+02  0.19591726413E+03  0.21951436128E+03  0.00000000000E+00 0. -1.
         22    1    3    3    0    0 -0.27654779920E+02 -0.26262748064E+02 -0.70290015610E+01  0.38780480287E+02  0.00000000000E+00 0.  1.
         22    1    3    3    0    0 -0.26878713733E+02  0.50960324026E+02 -0.21818717239E+03  0.22566581946E+03  0.00000000000E+00 0.  1.
</event>
<event>
 7    1  0.5667373E-006  0.2317140E+02  0.7818608E-02  0.1691464E+00
          2   -1    0    0  502    0  0.00000000000E+00  0.00000000000E+00  0.13164944033E+03  0.13164944033E+03  0.00000000000E+00 0. -1.
          1   -1    0    0  501    0 -0.00000000000E+00 -0.00000000000E+00 -0.15834544515E+03  0.15834544515E+03  0.00000000000E+00 0. -1.
         25    2    1    2    0    0 -0.71410383996E+01 -0.11020844633E+02  0.14177472635E+02  0.12648383171E+03  0.12499882202E+03 0.  0.
          2    1    1    2  501    0  0.22884253246E+02 -0.55203872231E+01 -0.98631931768E+02  0.10140227653E+03  0.00000000000E+00 0. -1.
          1    1    1    2  502    0 -0.15743214847E+02  0.16541231856E+02  0.57758454314E+02  0.62108777236E+02  0.00000000000E+00 0. -1.
         22    1    3    3    0    0  0.51354579859E+02 -0.30540864978E+02 -0.93588873133E+01  0.60478310805E+02  0.00000000000E+00 0. -1.
         22    1    3    3    0    0 -0.58495618259E+02  0.19520020345E+02  0.23536359949E+02  0.66005520901E+02  0.00000000000E+00 0. -1.
</event>
<event>
 7    1  0.5667373E-006  0.1051036E+03  0.7818608E-02  0.1373130E+00
          2   -1    0    0  502    0  0.00000000000E+00  0.00000000000E+00  0.10096739823E+04  0.10096739823E+04  0.00000000000E+00 0. -1.
          1   -1    0    0  501    0 -0.00000000000E+00 -0.00000000000E+00 -0.70947562167E+03  0.70947562167E+03  0.00000000000E+00 0. -1.
         25    2    1    2    0    0 -0.99584293797E+01 -0.96684763766E+02  0.73465726297E+02  0.17455506311E+03  0.12500057303E+03 0.  0.
          2    1    1    2  501    0  0.51546539889E+02  0.92207314469E+02 -0.65419767543E+03  0.66267173861E+03  0.00000000000E+00 0. -1.
          1    1    1    2  502    0 -0.41588110509E+02  0.44774492966E+01  0.88093030978E+03  0.88192280228E+03  0.00000000000E+00 0. -1.
         22    1    3    3    0    0  0.10495430335E+02 -0.29385899094E+01  0.77747760508E+02  0.78507984515E+02  0.00000000000E+00 0. -1.
         22    1    3    3    0    0 -0.20453859714E+02 -0.93746173856E+02 -0.42820342111E+01  0.96047078596E+02  0.00000000000E+00 0. -1.
</event>
<event>
 7    1  0.5667373E-006  0.7123077E+02  0.7818608E-02  0.1390788E+00
          2   -1    0    0  502    0  0.00000000000E+00  0.00000000000E+00  0.16439625879E+04  0.16439625879E+04  0.00000000000E+00 0. -1.
          1   -1    0    0  501    0 -0.00000000000E+00 -0.00000000000E+00 -0.32440343622E+03  0.32440343622E+03  0.00000000000E+00 0. -1.
         25    2    1    2    0    0  0.89315957969E+02  0.75030832442E+02  0.85288693807E+02  0.19107279548E+03  0.12501074240E+03 0.  0.
          2    1    1    2  501    0 -0.24242310282E+02 -0.47651788672E+02 -0.26804244510E+03  0.27332240110E+03  0.00000000000E+00 0. -1.
          1    1    1    2  502    0 -0.65073647688E+02 -0.27379043771E+02  0.15023129030E+04  0.15039708275E+04  0.00000000000E+00 0. -1.
         22    1    3    3    0    0  0.10449716341E+03  0.55976731828E+02  0.18501180506E+02  0.11998060405E+03  0.00000000000E+00 0. -1.
         22    1    3    3    0    0 -0.15181205445E+02  0.19054100615E+02  0.66787513301E+02  0.71092191427E+02  0.00000000000E+00 0. -1.
</event>
<event>
 7    1  0.5667373E-006  0.5584098E+02  0.7818608E-02  0.1452441E+00
          2   -1    0    0  502    0  0.00000000000E+00  0.00000000000E+00  0.81611032285E+03  0.81611032285E+03  0.00000000000E+00 0. -1.
          1   -1    0    0  501    0 -0.00000000000E+00 -0.00000000000E+00 -0.41534391781E+03  0.41534391781E+03  0.00000000000E+00 0. -1.
         25    2    1    2    0    0 -0.97858540258E+02  0.59217940465E+00 -0.24656104792E+02  0.16065556297E+03  0.12500256730E+03 0.  0.
          2    1    1    2  501    0  0.42484079267E+02 -0.27070820318E+00 -0.32025858304E+03  0.32306428197E+03  0.00000000000E+00 0. -1.
          1    1    1    2  502    0  0.55374460991E+02 -0.32147120147E+00  0.74568109287E+03  0.74773439572E+03  0.00000000000E+00 0. -1.
         22    1    3    3    0    0 -0.93918512263E+02  0.40493087525E+02  0.16039933184E+02  0.10352611525E+03  0.00000000000E+00 0. -1.
         22    1    3    3    0    0 -0.39400279955E+01 -0.39900908120E+02 -0.40696037977E+02  0.57129447717E+02  0.00000000000E+00 0. -1.
</event>
<event>
 7    1  0.5667373E-006  0.1212325E+03  0.7818608E-02  0.1313079E+00
          2   -1    0    0  502    0  0.00000000000E+00  0.00000000000E+00  0.21639544044E+03  0.21639544044E+03  0.00000000000E+00 0. -1.
          1   -1    0    0  501    0 -0.00000000000E+00 -0.00000000000E+00 -0.72700233663E+03  0.72700233663E+03  0.00000000000E+00 0. -1.
         25    2    1    2    0    0  0.15762503060E+03 -0.83375749701E+01 -0.36786190026E+03  0.41936049739E+03  0.12500273470E+03 0.  0.
          2    1    1    2  501    0 -0.10677929242E+03 -0.25133897160E+02 -0.31912257256E+03  0.33745036138E+03  0.00000000000E+00 0. -1.
          1    1    1    2  502    0 -0.50845738177E+02  0.33471472130E+02  0.17637757664E+03  0.18658691830E+03  0.00000000000E+00 0. -1.
         22    1    3    3    0    0  0.98919995915E+02  0.51912879617E+02 -0.16018164328E+03  0.19529022379E+03  0.00000000000E+00 0.  1.
         22    1    3    3    0    0  0.58705034684E+02 -0.60250454587E+02 -0.20768025698E+03  0.22407027361E+03  0.00000000000E+00 0.  1.
</event>
<event>
 7    1  0.5667373E-006  0.3385185E+02  0.7818608E-02  0.1643939E+00
          2   -1    0    0  502    0  0.00000000000E+00  0.00000000000E+00  0.27739203320E+02  0.27739203320E+02  0.00000000000E+00 0. -1.
          1   -1    0    0  501    0 -0.00000000000E+00 -0.00000000000E+00 -0.92705399859E+03  0.92705399859E+03  0.00000000000E+00 0. -1.
         25    2    1    2    0    0  0.16499158493E+02  0.15994641450E+02 -0.25563386668E+03  0.28548510606E+03  0.12500008483E+03 0.  0.
          2    1    1    2  501    0 -0.64948658949E+01 -0.33686064447E+02 -0.64768526414E+03  0.64859319731E+03  0.00000000000E+00 0. -1.
          1    1    1    2  502    0 -0.10004292598E+02  0.17691422996E+02  0.40043355444E+01  0.20714898532E+02  0.00000000000E+00 0. -1.
         22    1    3    3    0    0  0.70337335342E+02  0.14078259885E+02 -0.16714533578E+03  0.18188760655E+03  0.00000000000E+00 0.  1.
         22    1    3    3    0    0 -0.53838176850E+02  0.19163815654E+01 -0.88488530895E+02  0.10359749951E+03  0.00000000000E+00 0.  1.
</event>
<event>
 7    1  0.5667373E-006  0.5974333E+02  0.7818608E-02  0.1463780E+00
          2   -1    0    0  502    0  0.00000000000E+00  0.00000000000E+00  0.26038990052E+04  0.26038990052E+04  0.00000000000E+00 0. -1.
          1   -1    0    0  501    0 -0.00000000000E+00 -0.00000000000E+00 -0.35760116862E+02  0.35760116862E+02  0.00000000000E+00 0. -1.
         25    2    1    2    0    0 -0.16132422177E+02 -0.42655507384E+02  0.11924775208E+04  0.11998783100E+04  0.12500229484E+03 0.  0.
          2    1    1    2  501    0 -0.17140317883E+02  0.57812056798E+02 -0.32479349674E+01  0.60386865210E+02  0.00000000000E+00 0. -1.
          1    1    1    2  502    0  0.33272740060E+02 -0.15156549414E+02  0.13789093025E+04  0.13793939469E+04  0.00000000000E+00 0. -1.
         22    1    3    3    0    0  0.43294384590E+02  0.19097003360E+02  0.43833239430E+03  0.44087910720E+03  0.00000000000E+00 0. -1.
         22    1    3    3    0    0 -0.59426806766E+02 -0.61752510744E+02  0.75414512652E+03  0.75899920277E+03  0.00000000000E+00 0. -1.
</event>
<event>
 7    1  0.5667373E-006  0.2287699E+03  0.7818608E-02  0.1294426E+00
          2   -1    0    0  502    0  0.00000000000E+00  0.00000000000E+00  0.10093939855E+03  0.10093939855E+03  0.00000000000E+00 0. -1.
          1   -1    0    0  501    0 -0.00000000000E+00 -0.00000000000E+00 -0.12413659431E+04  0.12413659431E+04  0.00000000000E+00 0. -1.
         25    2    1    2    0    0 -0.15442386865E+03  0.14020210852E+03 -0.38568698404E+03  0.45594423692E+03  0.12500933997E+03 0.  0.
          2    1    1    2  501    0  0.15979014497E+03 -0.17809682133E+03 -0.79534756802E+03  0.83055952355E+03  0.00000000000E+00 0. -1.
          1    1    1    2  502    0 -0.53662763264E+01  0.37894712812E+02  0.40608007549E+02  0.55801581140E+02  0.00000000000E+00 0. -1.
         22    1    3    3    0    0 -0.15310102872E+03  0.69988838800E+02 -0.22878936252E+03  0.28404741674E+03  0.00000000000E+00 0.  1.
         22    1    3    3    0    0 -0.13228399252E+01  0.70213269715E+02 -0.15689762152E+03  0.17189682018E+03  0.00000000000E+00 0.  1.
</event>
<event>
 7    1  0.5667373E-006  0.2827718E+03  0.7818608E-02  0.1272783E+00
          2   -1    0    0  502    0  0.00000000000E+00  0.00000000000E+00  0.24385789689E+04  0.24385789689E+04  0.00000000000E+00 0. -1.
          1   -1    0    0  501    0 -0.00000000000E+00 -0.00000000000E+00 -0.46938317181E+03  0.46938317181E+03  0.00000000000E+00 0. -1.
         25    2    1    2    0    0 -0.30501182865E+03 -0.36292573391E+02  0.42030345347E+03  0.53537668601E+03  0.12499534562E+03 0.  0.
          2    1    1    2  501    0  0.27425762908E+03  0.58612867059E+02 -0.36389201112E+03  0.45942367271E+03  0.00000000000E+00 0. -1.
          1    1    1    2  502    0  0.30754199572E+02 -0.22320293668E+02  0.19127843547E+04  0.19131617819E+04  0.00000000000E+00 0. -1.
         22    1    3    3    0    0 -0.30705236563E+03 -0.17079431595E+02  0.41254863866E+03  0.51455732575E+03  0.00000000000E+00 0. -1.
         22    1    3    3    0    0  0.20405369824E+01 -0.19213141797E+02  0.77548148081E+01  0.20819360259E+02  0.00000000000E+00 0. -1.
</event>
<event>
 7    1  0.5667373E-006  0.1572555E+03  0.7818608E-02  0.1282479E+00
          2   -1    0    0  502    0  0.00000000000E+00  0.00000000000E+00  0.15018467379E+04  0.15018467379E+04  0.00000000000E+00 0. -1.
          1   -1    0    0  501    0 -0.00000000000E+00 -0.00000000000E+00 -0.28514050406E+04  0.28514050406E+04  0.00000000000E+00 0. -1.
         25    2    1    2    0    0 -0.29504048357E+02 -0.13307671062E+03  0.75854860167E+02  0.19989489290E+03  0.12499643442E+03 0.  0.
          2    1    1    2  501    0 -0.62235767876E+02  0.25104031974E+01 -0.27843683321E+04  0.27850649188E+04  0.00000000000E+00 0. -1.
          1    1    1    2  502    0  0.91739816233E+02  0.13056630742E+03  0.13589551692E+04  0.13682919668E+04  0.00000000000E+00 0. -1.
         22    1    3    3    0    0  0.37312953428E+02 -0.26115619154E+01  0.23859742803E+02  0.44366249287E+02  0.00000000000E+00 0.  1.
         22    1    3    3    0    0 -0.66817001785E+02 -0.13046514871E+03  0.51995117364E+02  0.15552864361E+03  0.00000000000E+00 0.  1.
</event>
<event>
 7    1  0.5667373E-006  0.5572760E+02  0.7818608E-02  0.1417201E+00
          2   -1    0    0  502    0  0.00000000000E+00  0.00000000000E+00  0.17751965196E+04  0.17751965196E+04  0.00000000000E+00 0. -1.
          1   -1    0    0  501    0 -0.00000000000E+00 -0.00000000000E+00 -0.13960207322E+04  0.13960207322E+04  0.00000000000E+00 0. -1.
         25    2    1    2    0    0  0.69356505223E+02  0.45548656547E+02  0.90659675411E+02  0.17529772901E+03  0.12500044848E+03 0.  0.
          2    1    1    2  501    0 -0.55108113506E+02  0.80989909718E+01 -0.13526593339E+04  0.13538056623E+04  0.00000000000E+00 0. -1.
          1    1    1    2  502    0 -0.14248391717E+02 -0.53647647519E+02  0.16411754459E+04  0.16421138605E+04  0.00000000000E+00 0. -1.
         22    1    3    3    0    0  0.10395151440E+03  0.49286577696E+02  0.65783544981E+02  0.13252380495E+03  0.00000000000E+00 0.  1.
         22    1    3    3    0    0 -0.34595009179E+02 -0.37379211489E+01  0.24876130430E+02  0.42773924064E+02  0.00000000000E+00 0.  1.
</event>
<event>
 7    1  0.5667373E-006  0.1188863E+03  0.7818608E-02  0.1303233E+00
          2   -1    0    0  502    0  0.00000000000E+00  0.00000000000E+00  0.24088402036E+03  0.24088402036E+03  0.00000000000E+00 0. -1.
          1   -1    0    0  501    0 -0.00000000000E+00 -0.00000000000E+00 -0.66572859914E+03  0.66572859914E+03  0.00000000000E+00 0. -1.
         25    2    1    2    0    0  0.14420063065E+03 -0.99472063355E+02 -0.52160767518E+02  0.22143529111E+03  0.12499731683E+03 0.  0.
          2    1    1    2  501    0 -0.10665066773E+03  0.42906802498E+02 -0.51490477528E+03  0.52758154463E+03  0.00000000000E+00 0. -1.
          1    1    1    2  502    0 -0.37549962922E+02  0.56565260857E+02  0.14222096402E+03  0.15759578376E+03  0.00000000000E+00 0. -1.
         22    1    3    3    0    0 -0.16362329781E+02 -0.40788510900E+02 -0.59520664065E+01  0.44349245222E+02  0.00000000000E+00 0.  1.
         22    1    3    3    0    0  0.16056296043E+03 -0.58683552456E+02 -0.46208701111E+02  0.17708604589E+03  0.00000000000E+00 0.  1.
</event>
<event>
 7    1  0.5667373E-006  0.6928340E+02  0.7818608E-02  0.1393371E+00
          2   -1    0    0  502    0  0.00000000000E+00  0.00000000000E+00  0.37249276488E+03  0.37249276488E+03  0.00000000000E+00 0. -1.
          1   -1    0    0  501    0 -0.00000000000E+00 -0.00000000000E+00 -0.13577007768E+04  0.13577007768E+04  0.00000000000E+00 0. -1.
         25    2    1    2    0    0  0.33626221346E+02 -0.28194106896E+02  0.12693080896E+03  0.18347867969E+03  0.12500946049E+03 0.  0.
          2    1    1    2  501    0  0.44388901897E+02  0.30470775286E+02 -0.13218524897E+04  0.13229485429E+04  0.00000000000E+00 0. -1.
          1    1    1    2  502    0 -0.78015123243E+02 -0.22766683904E+01  0.20971366879E+03  0.22376631907E+03  0.00000000000E+00 0. -1.
         22    1    3    3    0    0  0.72909334781E+02 -0.43020660688E+02  0.10851380158E+03  0.13762918832E+03  0.00000000000E+00 0. -1.
         22    1    3    3    0    0 -0.39283113435E+02  0.14826553792E+02  0.18417007381E+02  0.45849491375E+02  0.00000000000E+00 0. -1.
</event>
<event>
 7    1  0.5667373E-006  0.1819410E+03  0.7818608E-02  0.1298953E+00
          2   -1    0    0  502    0  0.00000000000E+00  0.00000000000E+00  0.29374004045E+04  0.29374004045E+04  0.00000000000E+00 0. -1.
          1   -1    0    0  501    0 -0.00000000000E+00 -0.00000000000E+00 -0.80918846496E+03  0.80918846496E+03  0.00000000000E+00 0. -1.
         25    2    1    2    0    0  0.62276539240E+02  0.20312997043E+03  0.13536650310E+04  0.13759272262E+04  0.12500625300E+03 0.  0.
          2    1    1    2  501    0 -0.27412328008E+02 -0.37122416477E+02 -0.79281021323E+03  0.79415209106E+03  0.00000000000E+00 0. -1.
          1    1    1    2  502    0 -0.34864211232E+02 -0.16600755395E+03  0.15673571217E+04  0.15765095522E+04  0.00000000000E+00 0. -1.
         22    1    3    3    0    0  0.30660538792E+02  0.15159022187E+03  0.59210156478E+03  0.61196725976E+03  0.00000000000E+00 0.  1.
         22    1    3    3    0    0  0.31616000448E+02  0.51539748558E+02  0.76156346626E+03  0.76395996643E+03  0.00000000000E+00 0.  1.
</event>
<event>
 7    1  0.5667373E-006  0.1386256E+03  0.7818608E-02  0.1331632E+00
          2   -1    0    0  502    0  0.00000000000E+00  0.00000000000E+00  0.13575411244E+04  0.13575411244E+04  0.00000000000E+00 0. -1.
          1   -1    0    0  501    0 -0.00000000000E+00 -0.00000000000E+00 -0.51221417729E+02  0.51221417729E+02  0.00000000000E+00 0. -1.
         25    2    1    2    0    0  0.95493145804E+02  0.39364023478E+02  0.52430414730E+03  0.54880720722E+03  0.12500417825E+03 0.  0.
          2    1    1    2  501    0 -0.13925081548E+03 -0.50416127400E+02  0.10525082175E+03  0.18168739910E+03  0.00000000000E+00 0. -1.
          1    1    1    2  502    0  0.43757669676E+02  0.11052103922E+02  0.67676473757E+03  0.67826793576E+03  0.00000000000E+00 0. -1.
         22    1    3    3    0    0  0.91482054866E+02  0.64028201274E+02  0.50509052221E+03  0.51728619985E+03  0.00000000000E+00 0. -1.
         22    1    3    3    0    0  0.40110909380E+01 -0.24664177796E+02  0.19213625083E+02  0.31521007371E+02  0.00000000000E+00 0. -1.
</event>
<event>
 7    1  0.5667373E-006  0.1363391E+03  0.7818608E-02  0.1280975E+00
          2   -1    0    0  502    0  0.00000000000E+00  0.00000000000E+00  0.25750703621E+03  0.25750703621E+03  0.00000000000E+00 0. -1.
          1   -1    0    0  501    0 -0.00000000000E+00 -0.00000000000E+00 -0.53944064921E+03  0.53944064921E+03  0.00000000000E+00 0. -1.
         25    2    1    2    0    0  0.16642034988E+03  0.81622327101E+02 -0.12433387966E+03  0.25581179236E+03  0.12499128907E+03 0.  0.
          2    1    1    2  501    0 -0.12688476561E+03 -0.20404594339E+02 -0.32990542930E+03  0.35405322127E+03  0.00000000000E+00 0. -1.
          1    1    1    2  502    0 -0.39535584274E+02 -0.61217732763E+02  0.17230569595E+03  0.18708267179E+03  0.00000000000E+00 0. -1.
         22    1    3    3    0    0 -0.18258860294E+02 -0.59090006688E+01 -0.10656735157E+02  0.21951498180E+02  0.00000000000E+00 0.  1.
         22    1    3    3    0    0  0.18467921017E+03  0.87531327770E+02 -0.11367714450E+03  0.23386029418E+03  0.00000000000E+00 0.  1.
</event>
<event>
 7    1  0.5667373E-006  0.2915467E+03  0.7818608E-02  0.1131873E+00
          2   -1    0    0  502    0  0.00000000000E+00  0.00000000000E+00  0.27792351648E+04  0.27792351648E+04  0.00000000000E+00 0. -1.
          1   -1    0    0  501    0 -0.00000000000E+00 -0.00000000000E+00 -0.14733020710E+04  0.14733020710E+04  0.00000000000E+00 0. -1.
         25    2    1    2    0    0 -0.40017219869E+03 -0.84998628158E+02 -0.24455953501E+03  0.49274214197E+03  0.12499158735E+03 0.  0.
          2    1    1    2  501    0  0.23930673916E+03  0.14039642940E+03 -0.10844427539E+04  0.11193725739E+04  0.00000000000E+00 0. -1.
          1    1    1    2  502    0  0.16086545954E+03 -0.55397801242E+02  0.26349353827E+04  0.26404225199E+04  0.00000000000E+00 0. -1.
         22    1    3    3    0    0 -0.36962918587E+03 -0.11013557069E+03 -0.20494089616E+03  0.43675662548E+03  0.00000000000E+00 0.  1.
         22    1    3    3    0    0 -0.30543012822E+02  0.25136942531E+02 -0.39618638853E+02  0.55985516490E+02  0.00000000000E+00 0.  1.
</event>
<event>
 7    1  0.5667373E-006  0.5187161E+02  0.7818608E-02  0.1461236E+00
          2   -1    0    0  502    0  0.00000000000E+00  0.00000000000E+00  0.14685406691E+03  0.14685406691E+03  0.00000000000E+00 0. -1.
          1   -1    0    0  501    0 -0.00000000000E+00 -0.00000000000E+00 -0.33926334138E+03  0.33926334138E+03  0.00000000000E+00 0. -1.
         25    2    1    2    0    0 -0.18788488775E+02 -0.21873728291E+02 -0.10835240225E+03  0.16790896830E+03  0.12498684436E+03 0.  0.
          2    1    1    2  501    0 -0.75990808639E+01  0.55690076908E+02 -0.19305690891E+03  0.20107237696E+03  0.00000000000E+00 0. -1.
          1    1    1    2  502    0  0.26387569639E+02 -0.33816348617E+02  0.10900003669E+03  0.11713606304E+03  0.00000000000E+00 0. -1.
         22    1    3    3    0    0  0.38289237741E+02 -0.50863448688E+02 -0.62055752261E+02  0.88904850980E+02  0.00000000000E+00 0.  1.
         22    1    3    3    0    0 -0.57077726516E+02  0.28989720397E+02 -0.46296649991E+02  0.79004117319E+02  0.00000000000E+00 0.  1.
</event>
<event>
 7    1  0.5667373E-006  0.5652044E+02  0.7818608E-02  0.1429752E+00
          2   -1    0    0  502    0  0.00000000000E+00  0.00000000000E+00  0.44867590153E+03  0.44867590153E+03  0.00000000000E+00 0. -1.
          1   -1    0    0  501    0 -0.00000000000E+00 -0.00000000000E+00 -0.61208646981E+03  0.61208646981E+03  0.00000000000E+00 0. -1.
         25    2    1    2    0    0 -0.54843299677E+01 -0.81157069492E+02  0.11159979473E+03  0.18627158926E+03  0.12500417185E+03 0.  0.
          2    1    1    2  501    0 -0.30873716394E+02  0.47247094144E+02 -0.57128874865E+03  0.57406995097E+03  0.00000000000E+00 0. -1.
          1    1    1    2  502    0  0.36358046362E+02  0.33909975348E+02  0.29627838564E+03  0.30042083110E+03  0.00000000000E+00 0. -1.
         22    1    3    3    0    0 -0.10514617269E+02 -0.11360039670E+03  0.72315250263E+02  0.13507443402E+03  0.00000000000E+00 0. -1.
         22    1    3    3    0    0  0.50302873012E+01  0.32443327207E+02  0.39284544468E+02  0.51197155240E+02  0.00000000000E+00 0. -1.
</event>
<event>
 7    1  0.5667373E-006  0.1322451E+03  0.7818608E-02  0.1238165E+00
          2   -1    0    0  502    0  0.00000000000E+00  0.00000000000E+00  0.10181362689E+04  0.10181362689E+04  0.00000000000E+00 0. -1.
          1   -1    0    0  501    0 -0.00000000000E+00 -0.00000000000E+00 -0.71991029630E+02  0.71991029630E+02  0.00000000000E+00 0. -1.
         25    2    1    2    0    0 -0.57967445692E+01 -0.62860851844E+02  0.16416374891E+03  0.21578283355E+03  0.12500962306E+03 0.  0.
          2    1    1    2  501    0 -0.89195868643E+02  0.15486714489E+03  0.16462895346E+03  0.24298647672E+03  0.00000000000E+00 0. -1.
          1    1    1    2  502    0  0.94992613212E+02 -0.92006293046E+02  0.61735253688E+03  0.63135798825E+03  0.00000000000E+00 0. -1.
         22    1    3    3    0    0  0.77360172933E+01  0.26073459113E+02  0.10415278486E+03  0.10764512914E+03  0.00000000000E+00 0. -1.
         22    1    3    3    0    0 -0.13532761863E+02 -0.88934310957E+02  0.60010964045E+02  0.10813770441E+03  0.00000000000E+00 0. -1.
</event>
<event>
 7    1  0.5667373E-006  0.1033753E+03  0.7818608E-02  0.1330251E+00
          2   -1    0    0  502    0  0.00000000000E+00  0.00000000000E+00  0.38399933447E+03  0.38399933447E+03  0.00000000000E+00 0. -1.
          1   -1    0    0  501    0 -0.00000000000E+00 -0.00000000000E+00 -0.12031913790E+04  0.12031913790E+04  0.00000000000E+00 0. -1.
         25    2    1    2    0    0  0.13635376489E+03 -0.13950569648E+02 -0.75790086176E+02  0.20038856930E+03  0.12499789578E+03 0.  0.
          2    1    1    2  501    0 -0.88342033908E+02  0.51998586924E+02 -0.10596897978E+04  0.10646363866E+04  0.00000000000E+00 0. -1.
          1    1    1    2  502    0 -0.48011730980E+02 -0.38048017275E+02  0.31628783951E+03  0.32216575757E+03  0.00000000000E+00 0. -1.
         22    1    3    3    0    0  0.13763958756E+03  0.30210508856E+02 -0.51950449623E+02  0.15018715034E+03  0.00000000000E+00 0. -1.
         22    1    3    3    0    0 -0.12858226754E+01 -0.44161078504E+02 -0.23839636553E+02  0.50201418960E+02  0.00000000000E+00 0. -1.
</event>
<event>
 7    1  0.5667373E-006  0.7655131E+02  0.7818608E-02  0.1452374E+00
          2   -1    0    0  502    0  0.00000000000E+00  0.00000000000E+00  0.36684401241E+03  0.36684401241E+03  0.00000000000E+00 0. -1.
          1   -1    0    0  501    0 -0.00000000000E+00 -0.00000000000E+00 -0.93746785634E+03  0.93746785634E+03  0.00000000000E+00 0. -1.
         25    2    1    2    0    0 -0.41053146194E+02 -0.45340663846E+02 -0.32998341864E+03  0.35812918240E+03  0.12500527231E+03 0.  0.
          2    1    1    2  501    0 -0.28370342892E+02  0.12510757701E+02 -0.58881945728E+03  0.58963526751E+03  0.00000000000E+00 0. -1.
          1    1    1    2  502    0  0.69423489086E+02  0.32829906145E+02  0.34817903198E+03  0.35654741885E+03  0.00000000000E+00 0. -1.
         22    1    3    3    0    0 -0.26973855213E+02 -0.84208229433E+02 -0.27793454830E+03  0.29166115255E+03  0.00000000000E+00 0.  1.
         22    1    3    3    0    0 -0.14079290981E+02  0.38867565586E+02 -0.52048870333E+02  0.66468029849E+02  0.00000000000E+00 0.  1.
</event>
<event>
 7    1  0.5667373E-006  0.1492388E+03  0.7818608E-02  0.1340048E+00
          2   -1    0    0  502    0  0.00000000000E+00  0.00000000000E+00  0.66278091475E+03  0.66278091475E+03  0.00000000000E+00 0. -1.
          1   -1    0    0  501    0 -0.00000000000E+00 -0.00000000000E+00 -0.10586429166E+04  0.10586429166E+04  0.00000000000E+00 0. -1.
         25    2    1    2    0    0 -0.75720044872E+01 -0.11519856290E+03 -0.35664668265E+02  0.17385206696E+03  0.12499811390E+03 0.  0.
          2    1    1    2  501    0  0.24540127347E+02  0.15026565277E+03 -0.94715907811E+03  0.95931866629E+03  0.00000000000E+00 0. -1.
          1    1    1    2  502    0 -0.16968122859E+02 -0.35067089871E+02  0.58696174448E+03  0.58825309814E+03  0.00000000000E+00 0. -1.
         22    1    3    3    0    0  0.13176703369E+02 -0.13931804823E+02 -0.63883143205E+02  0.66699150542E+02  0.00000000000E+00 0. -1.
         22    1    3    3    0    0 -0.20748707856E+02 -0.10126675807E+03  0.28218474940E+02  0.10715291641E+03  0.00000000000E+00 0. -1.
</event>
<event>
 7    1  0.5667373E-006  0.7478470E+02  0.7818608E-02  0.1347826E+00
          2   -1    0    0  502    0  0.00000000000E+00  0.00000000000E+00  0.94160845975E+03  0.94160845975E+03  0.00000000000E+00 0. -1.
          1   -1    0    0  501    0 -0.00000000000E+00 -0.00000000000E+00 -0.14423412329E+03  0.14423412329E+03  0.00000000000E+00 0. -1.
         25    2    1    2    0    0  0.14515578780E+03 -0.77820491331E+01  0.77729187591E+02  0.20687312537E+03  0.12499560143E+03 0.  0.
          2    1    1    2  501    0 -0.72702739832E+02 -0.57666795863E+00 -0.61011832826E+02  0.94912932047E+02  0.00000000000E+00 0. -1.
          1    1    1    2  502    0 -0.72453047973E+02  0.83587170917E+01  0.78065698169E+03  0.78405652563E+03  0.00000000000E+00 0. -1.
         22    1    3    3    0    0  0.13407866172E+03  0.37358807804E+02  0.34501516874E+02  0.14339847529E+03  0.00000000000E+00 0.  1.
         22    1    3    3    0    0  0.11077126083E+02 -0.45140856937E+02  0.43227670717E+02  0.63474650081E+02  0.00000000000E+00 0.  1.
</event>
<event>
 7    1  0.5667373E-006  0.8500891E+02  0.7818608E-02  0.1410651E+00
          2   -1    0    0  502    0  0.00000000000E+00  0.00000000000E+00  0.81448979775E+03  0.81448979775E+03  0.00000000000E+00 0. -1.
          1   -1    0    0  501    0 -0.00000000000E+00 -0.00000000000E+00 -0.14471453801E+03  0.14471453801E+03  0.00000000000E+00 0. -1.
         25    2    1    2    0    0 -0.30160762606E+02  0.10424551603E+03  0.16028713537E+03  0.23042360357E+03  0.12500508830E+03 0.  0.
          2    1    1    2  501    0 -0.19742086896E+01 -0.83435055936E+02 -0.93068996781E+02  0.12500857659E+03  0.00000000000E+00 0. -1.
          1    1    1    2  502    0  0.32134971295E+02 -0.20810460091E+02  0.60255712115E+03  0.60377215560E+03  0.00000000000E+00 0. -1.
         22    1    3    3    0    0 -0.86963789117E+01  0.38429069066E+02  0.15618055061E+03  0.16107384873E+03  0.00000000000E+00 0. -1.
         22    1    3    3    0    0 -0.21464383694E+02  0.65816446961E+02  0.41065847657E+01  0.69349754840E+02  0.00000000000E+00 0. -1.
</event>
<event>
 7    1  0.5667373E-006  0.8847639E+02  0.7818608E-02  0.1449776E+00
          2   -1    0    0  502    0  0.00000000000E+00  0.00000000000E+00  0.35435928114E+03  0.35435928114E+03  0.00000000000E+00 0. -1.
          1   -1    0    0  501    0 -0.00000000000E+00 -0.00000000000E+00 -0.14194241627E+03  0.14194241627E+03  0.00000000000E+00 0. -1.
         25    2    1    2    0    0 -0.95824574427E+02 -0.26288352421E+02  0.63418550702E+02  0.17181325124E+03  0.12499781675E+03 0.  0.
          2    1    1    2  501    0  0.86983113039E+02  0.41235208435E+00 -0.65102272840E+02  0.10864869036E+03  0.00000000000E+00 0. -1.
          1    1    1    2  502    0  0.88414613875E+01  0.25876000336E+02  0.21410058700E+03  0.21583975581E+03  0.00000000000E+00 0. -1.
         22    1    3    3    0    0 -0.69998573811E+02  0.89905449755E+01  0.94662982531E+02  0.11807502063E+03  0.00000000000E+00 0.  1.
         22    1    3    3    0    0 -0.25826000616E+02 -0.35278897396E+02 -0.31244431829E+02  0.53738230615E+02  0.00000000000E+00 0.  1.
</event>
<event>
 7    1  0.5667373E-006  0.6397391E+02  0.7818608E-02  0.1429234E+00
          2   -1    0    0  502    0  0.00000000000E+00  0.00000000000E+00  0.67182122744E+03  0.67182122744E+03  0.00000000000E+00 0. -1.
          1   -1    0    0  501    0 -0.00000000000E+00 -0.00000000000E+00 -0.24568190759E+03  0.24568190759E+03  0.00000000000E+00 0. -1.
         25    2    1    2    0    0  0.30973188473E+02 -0.68904061022E+02  0.14482853483E+03  0.20568716749E+03  0.12499919334E+03 0.  0.
          2    1    1    2  501    0  0.12694907486E+02  0.62762272360E+02 -0.20947990070E+03  0.21904815065E+03  0.00000000000E+00 0. -1.
          1    1    1    2  502    0 -0.43668095959E+02  0.61417886617E+01  0.49079068572E+03  0.49276781689E+03  0.00000000000E+00 0. -1.
         22    1    3    3    0    0 -0.48333835251E+02 -0.22840890673E+02  0.42672708204E+02  0.68401943995E+02  0.00000000000E+00 0. -1.
         22    1    3    3    0    0  0.79307023724E+02 -0.46063170350E+02  0.10215582663E+03  0.13728522349E+03  0.00000000000E+00 0. -1.
</event>
<event>
 7    1  0.5667373E-006  0.4925189E+02  0.7818608E-02  0.1454558E+00
          2   -1    0    0  502    0  0.00000000000E+00  0.00000000000E+00  0.79133463015E+02  0.79133463015E+02  0.00000000000E+00 0. -1.
          1   -1    0    0  501    0 -0.00000000000E+00 -0.00000000000E+00 -0.60560739195E+03  0.60560739195E+03  0.00000000000E+00 0. -1.
         25    2    1    2    0    0  0.23116145320E+02 -0.32716277682E+02 -0.79872117667E+02  0.15365238101E+03  0.12499915204E+03 0.  0.
          2    1    1    2  501    0 -0.49928662493E+02 -0.64044223356E+01 -0.47376612895E+03  0.47643282098E+03  0.00000000000E+00 0. -1.
          1    1    1    2  502    0  0.26812517173E+02  0.39120700018E+02  0.27164317682E+02  0.54655652975E+02  0.00000000000E+00 0. -1.
         22    1    3    3    0    0 -0.47992109234E+02 -0.22294231170E+02 -0.58037876991E+02  0.78540883990E+02  0.00000000000E+00 0. -1.
         22    1    3    3    0    0  0.71108254554E+02 -0.10422046512E+02 -0.21834240676E+02  0.75111497024E+02  0.00000000000E+00 0. -1.
</event>
<event>
 7    1  0.5667373E-006  0.4069830E+02  0.7818608E-02  0.1574599E+00
          2   -1    0    0  502    0  0.00000000000E+00  0.00000000000E+00  0.66813811821E+03  0.66813811821E+03  0.00000000000E+00 0. -1.
          1   -1    0    0  501    0 -0.00000000000E+00 -0.00000000000E+00 -0.14285352875E+03  0.14285352875E+03  0.00000000000E+00 0. -1.
         25    2    1    2    0    0  0.21798770466E+02 -0.55772539342E+02  0.99813859142E+02  0.17080266390E+03  0.12499992392E+03 0.  0.
          2    1    1    2  501    0 -0.15452407112E+01  0.40221257471E+02 -0.10326743807E+03  0.11083456630E+03  0.00000000000E+00 0. -1.
          1    1    1    2  502    0 -0.20253529754E+02  0.15551281871E+02  0.52873816839E+03  0.52935441676E+03  0.00000000000E+00 0. -1.
         22    1    3    3    0    0  0.73204940784E+02 -0.42234839844E+02  0.70738034723E+02  0.11021168091E+03  0.00000000000E+00 0. -1.
         22    1    3    3    0    0 -0.51406170318E+02 -0.13537699497E+02  0.29075824419E+02  0.60590982993E+02  0.00000000000E+00 0. -1.
</event>
<event>
 7    1  0.5667373E-006  0.6889165E+02  0.7818608E-02  0.1481930E+00
          2   -1    0    0  502    0  0.00000000000E+00  0.00000000000E+00  0.61418093041E+03  0.61418093041E+03  0.00000000000E+00 0. -1.
          1   -1    0    0  501    0 -0.00000000000E+00 -0.00000000000E+00 -0.47266116546E+03  0.47266116546E+03  0.00000000000E+00 0. -1.
         25    2    1    2    0    0 -0.11310678362E+02  0.53879512206E+02 -0.32545067806E+03  0.35295098004E+03  0.12500126873E+03 0.  0.
          2    1    1    2  501    0  0.26187026798E+02 -0.77430655854E+02 -0.12058388039E+03  0.14567683085E+03  0.00000000000E+00 0. -1.
          1    1    1    2  502    0 -0.14876348437E+02  0.23551143649E+02  0.58755432339E+03  0.58821428497E+03  0.00000000000E+00 0. -1.
         22    1    3    3    0    0  0.54521750696E+02  0.75990670767E+01 -0.11104442253E+03  0.12394043285E+03  0.00000000000E+00 0. -1.
         22    1    3    3    0    0 -0.65832429058E+02  0.46280445129E+02 -0.21440625552E+03  0.22901054719E+03  0.00000000000E+00 0. -1.
</event>
<event>
 7    1  0.5667373E-006  0.3241787E+02  0.7818608E-02  0.1589878E+00
          2   -1    0    0  502    0  0.00000000000E+00  0.00000000000E+00  0.58396213163E+02  0.58396213163E+02  0.00000000000E+00 0. -1.
          1   -1    0    0  501    0 -0.00000000000E+00 -0.00000000000E+00 -0.12159951531E+04  0.12159951531E+04  0.00000000000E+00 0. -1.
         25    2    1    2    0    0 -0.52471320564E+01  0.86005684457E+01 -0.21696887295E+03  0.25060500099E+03  0.12500349003E+03 0.  0.
          2    1    1    2  501    0  0.20260822283E+02  0.20998830953E+02 -0.97533179391E+03  0.97576818970E+03  0.00000000000E+00 0. -1.
          1    1    1    2  502    0 -0.15013690227E+02 -0.29599399399E+02  0.34701726892E+02  0.48018175603E+02  0.00000000000E+00 0. -1.
         22    1    3    3    0    0  0.20759885571E+02 -0.38103266971E+02 -0.22411910872E+02  0.48837747202E+02  0.00000000000E+00 0. -1.
         22    1    3    3    0    0 -0.26007017628E+02  0.46703835417E+02 -0.19455696208E+03  0.20176725379E+03  0.00000000000E+00 0. -1.
</event>
<event>
 7    1  0.5667373E-006  0.5879158E+02  0.7818608E-02  0.1414897E+00
          2   -1    0    0  502    0  0.00000000000E+00  0.00000000000E+00  0.25745143189E+04  0.25745143189E+04  0.00000000000E+00 0. -1.
          1   -1    0    0  501    0 -0.00000000000E+00 -0.00000000000E+00 -0.93927242314E+03  0.93927242314E+03  0.00000000000E+00 0. -1.
         25    2    1    2    0    0 -0.32250532759E+02 -0.10104993329E+02  0.99174374873E+03  0.10001616586E+04  0.12500188951E+03 0.  0.
          2    1    1    2  501    0  0.40318713187E+02 -0.42844691223E+02 -0.93368300997E+03  0.93553472907E+03  0.00000000000E+00 0. -1.
          1    1    1    2  502    0 -0.80681804287E+01  0.52949684552E+02  0.15771811570E+04  0.15780903544E+04  0.00000000000E+00 0. -1.
         22    1    3    3    0    0 -0.69567928043E+02 -0.60321233044E+01  0.86911910976E+03  0.87191978420E+03  0.00000000000E+00 0. -1.
         22    1    3    3    0    0  0.37317395285E+02 -0.40728700249E+01  0.12262463897E+03  0.12824187437E+03  0.00000000000E+00 0. -1.
</event>
<event>
 7    1  0.5667373E-006  0.1328423E+03  0.7818608E-02  0.1274057E+00
          2   -1    0    0  502    0  0.00000000000E+00  0.00000000000E+00  0.87237702375E+03  0.87237702375E+03  0.00000000000E+00 0. -1.
          1   -1    0    0  501    0 -0.00000000000E+00 -0.00000000000E+00 -0.12056936435E+03  0.12056936435E+03  0.00000000000E+00 0. -1.
         25    2    1    2    0    0  0.50721655663E+02 -0.55398375339E+02  0.21554647890E+03  0.26024429494E+03  0.12500056856E+03 0.  0.
          2    1    1    2  501    0 -0.12897045834E+03  0.71574158392E+02 -0.38477200979E+02  0.15243600057E+03  0.00000000000E+00 0. -1.
          1    1    1    2  502    0  0.78248802674E+02 -0.16175783053E+02  0.57473838148E+03  0.58026609260E+03  0.00000000000E+00 0. -1.
         22    1    3    3    0    0  0.83515727522E+02 -0.54854662248E+02  0.20079251656E+03  0.22428006024E+03  0.00000000000E+00 0.  1.
         22    1    3    3    0    0 -0.32794071859E+02 -0.54371309082E+00  0.14753962337E+02  0.35964234701E+02  0.00000000000E+00 0.  1.
</event>
<event>
 7    1  0.5667373E-006  0.1288671E+03  0.7818608E-02  0.1319139E+00
          2   -1    0    0  502    0  0.00000000000E+00  0.00000000000E+00  0.26425345529E+04  0.26425345529E+04  0.00000000000E+00 0. -1.
          1   -1    0    0  501    0 -0.00000000000E+00 -0.00000000000E+00 -0.59370870044E+02  0.59370870044E+02  0.00000000000E+00 0. -1.
         25    2    1    2    0    0  0.13476182722E+03  0.71532841101E+02  0.12928528050E+04  0.13078117431E+04  0.12500192946E+03 0.  0.
          2    1    1    2  501    0 -0.14192265534E+02 -0.52341992975E+02 -0.34103766910E+02  0.64063808402E+02  0.00000000000E+00 0. -1.
          1    1    1    2  502    0 -0.12056956168E+03 -0.19190848126E+02  0.13244146448E+04  0.13300298715E+04  0.00000000000E+00 0. -1.
         22    1    3    3    0    0  0.55354586508E+02 -0.29098978928E+02  0.59552133661E+03  0.59879591112E+03  0.00000000000E+00 0.  1.
         22    1    3    3    0    0  0.79407240709E+02  0.10063182003E+03  0.69733146843E+03  0.70901583194E+03  0.00000000000E+00 0.  1.
</event>
<event>
 7    1  0.1019076E-005  0.4176473E+02  0.7818608E-02  0.1593668E+00
          2   -1    0    0  502    0  0.00000000000E+00  0.00000000000E+00  0.19736118812E+04  0.19736118812E+04  0.00000000000E+00 0. -1.
          1   -1    0    0  501    0 -0.00000000000E+00 -0.00000000000E+00 -0.91109497281E+03  0.91109497281E+03  0.00000000000E+00 0. -1.
         25    2    1    2    0    0  0.17638145241E+01  0.62738998158E+02 -0.56058732396E+03  0.57777378836E+03  0.12500043921E+03 0.  0.
          2    1    1    2  501    0 -0.62710763275E+01 -0.21226194536E+02 -0.34133412265E+03  0.34205096260E+03  0.00000000000E+00 0. -1.
          1    1    1    2  502    0  0.45072618034E+01 -0.41512803623E+02  0.19644383550E+04  0.19648821030E+04  0.00000000000E+00 0. -1.
         22    1    3    3    0    0  0.77597848070E+01  0.29706437343E+02 -0.21126923338E+02  0.37269740670E+02  0.00000000000E+00 0. -1.
         22    1    3    3    0    0 -0.59959702829E+01  0.33032560816E+02 -0.53946040062E+03  0.54050404769E+03  0.00000000000E+00 0. -1.
</event>
<event>
 7    1  0.5667373E-006  0.5114851E+02  0.7818608E-02  0.1540862E+00
          2   -1    0    0  502    0  0.00000000000E+00  0.00000000000E+00  0.71748211520E+03  0.71748211520E+03  0.00000000000E+00 0. -1.
          1   -1    0    0  501    0 -0.00000000000E+00 -0.00000000000E+00 -0.29038486519E+03  0.29038486519E+03  0.00000000000E+00 0. -1.
         25    2    1    2    0    0 -0.12883581393E+02 -0.29500246417E+02  0.23608790400E+03  0.26907974192E+03  0.12502062986E+03 0.  0.
          2    1    1    2  501    0  0.37512271846E+00  0.51352684818E+02 -0.27113600835E+03  0.27595647117E+03  0.00000000000E+00 0. -1.
          1    1    1    2  502    0  0.12508458675E+02 -0.21852438401E+02  0.46214535436E+03  0.46283076730E+03  0.00000000000E+00 0. -1.
         22    1    3    3    0    0  0.28027706446E+02 -0.50787886467E+02  0.47618675196E+02  0.75049983130E+02  0.00000000000E+00 0. -1.
         22    1    3    3    0    0 -0.40911287840E+02  0.21287640050E+02  0.18846922880E+03  0.19402975879E+03  0.00000000000E+00 0. -1.
</event>
<event>
 7    1  0.2089720E-005  0.9583128E+02  0.7818608E-02  0.1326494E+00
          2   -1    0    0  502    0  0.00000000000E+00  0.00000000000E+00  0.23106920768E+04  0.23106920768E+04  0.00000000000E+00 0. -1.
          1   -1    0    0  501    0 -0.00000000000E+00 -0.00000000000E+00 -0.14614529814E+04  0.14614529814E+04  0.00000000000E+00 0. -1.
         25    2    1    2    0    0 -0.13934171619E+02 -0.61351132227E+02 -0.30030345028E+03  0.33131054420E+03  0.12500556742E+03 0.  0.
          2    1    1    2  501    0  0.65414746952E+02 -0.19672254541E+02 -0.11436226888E+04  0.11456609189E+04  0.00000000000E+00 0. -1.
          1    1    1    2  502    0 -0.51480575334E+02  0.81023386768E+02  0.22931652345E+04  0.22951735951E+04  0.00000000000E+00 0. -1.
         22    1    3    3    0    0 -0.50528829050E+02  0.97268435784E+01 -0.65652550952E+02  0.83414815817E+02  0.00000000000E+00 0.  1.
         22    1    3    3    0    0  0.36594657432E+02 -0.71077975805E+02 -0.23465089932E+03  0.24789572838E+03  0.00000000000E+00 0.  1.
</event>
<event>
 7    1  0.5667373E-006  0.1282981E+03  0.7818608E-02  0.1377793E+00
          2   -1    0    0  502    0  0.00000000000E+00  0.00000000000E+00  0.12743015313E+04  0.12743015313E+04  0.00000000000E+00 0. -1.
          1   -1    0    0  501    0 -0.00000000000E+00 -0.00000000000E+00 -0.36674523285E+03  0.36674523285E+03  0.00000000000E+00 0. -1.
         25    2    1    2    0    0 -0.94498666162E+02 -0.39632216278E+02  0.49941039984E+02  0.16917648829E+03  0.12500346492E+03 0.  0.
          2    1    1    2  501    0  0.11378376797E+03  0.66384912157E+02 -0.29275450392E+03  0.32102788349E+03  0.00000000000E+00 0. -1.
          1    1    1    2  502    0 -0.19285101805E+02 -0.26752695880E+02  0.11503697624E+04  0.11508423924E+04  0.00000000000E+00 0. -1.
         22    1    3    3    0    0 -0.10915839448E+03 -0.11344705102E+01  0.62903363271E+02  0.12599077435E+03  0.00000000000E+00 0.  1.
         22    1    3    3    0    0  0.14659728321E+02 -0.38497745767E+02 -0.12962323286E+02  0.43185713941E+02  0.00000000000E+00 0.  1.
</event>
<event>
 7    1  0.5667373E-006  0.1623237E+03  0.7818608E-02  0.1276151E+00
          2   -1    0    0  502    0  0.00000000000E+00  0.00000000000E+00  0.17732320541E+03  0.17732320541E+03  0.00000000000E+00 0. -1.
          1   -1    0    0  501    0 -0.00000000000E+00 -0.00000000000E+00 -0.20616124790E+04  0.20616124790E+04  0.00000000000E+00 0. -1.
         25    2    1    2    0    0  0.19439086026E+03  0.29559969841E+02 -0.86495244850E+03  0.89578327889E+03  0.12499338467E+03 0.  0.
          2    1    1    2  501    0 -0.49426883660E+02  0.40799317118E+02 -0.11400281972E+04  0.11418283109E+04  0.00000000000E+00 0. -1.
          1    1    1    2  502    0 -0.14496397661E+03 -0.70359286959E+02  0.12069137212E+03  0.20132409463E+03  0.00000000000E+00 0. -1.
         22    1    3    3    0    0  0.18018737964E+03  0.26827581925E+02 -0.86197589944E+03  0.88101626668E+03  0.00000000000E+00 0.  1.
         22    1    3    3    0    0  0.14203480621E+02  0.27323879159E+01 -0.29765490570E+01  0.14767012215E+02  0.00000000000E+00 0.  1.
</event>
<event>
 7    1  0.5667373E-006  0.4390204E+02  0.7818608E-02  0.1578880E+00
          2   -1    0    0  502    0  0.00000000000E+00  0.00000000000E+00  0.48789059243E+02  0.48789059243E+02  0.00000000000E+00 0. -1.
          1   -1    0    0  501    0 -0.00000000000E+00 -0.00000000000E+00 -0.84736170854E+03  0.84736170854E+03  0.00000000000E+00 0. -1.
         25    2    1    2    0    0 -0.39052421024E+02  0.27213157740E+02 -0.33338661249E+03  0.35921811479E+03  0.12500149225E+03 0.  0.
          2    1    1    2  501    0  0.43789222587E+02 -0.46534980236E+01 -0.49627782045E+03  0.49822768503E+03  0.00000000000E+00 0. -1.
          1    1    1    2  502    0 -0.47368015626E+01 -0.22559659716E+02  0.31091783639E+02  0.38704967968E+02  0.00000000000E+00 0. -1.
         22    1    3    3    0    0 -0.81459230452E+02  0.18299669919E+02 -0.26859011703E+03  0.28126701746E+03  0.00000000000E+00 0.  1.
         22    1    3    3    0    0  0.42406809428E+02  0.89134878211E+01 -0.64796495461E+02  0.77951097331E+02  0.00000000000E+00 0.  1.
</event>
<event>
 7    1  0.5667373E-006  0.4780588E+02  0.7818608E-02  0.1530084E+00
          2   -1    0    0  502    0  0.00000000000E+00  0.00000000000E+00  0.11568106671E+04  0.11568106671E+04  0.00000000000E+00 0. -1.
          1   -1    0    0  501    0 -0.00000000000E+00 -0.00000000000E+00 -0.11058890117E+03  0.11058890117E+03  0.00000000000E+00 0. -1.
         25    2    1    2    0    0 -0.54387953657E+02  0.39567892285E+02  0.32244291093E+02  0.14555840949E+03  0.12499555457E+03 0.  0.
          2    1    1    2  501    0  0.82178849696E+01 -0.27717232039E+02 -0.49485009723E+02  0.57310948104E+02  0.00000000000E+00 0. -1.
          1    1    1    2  502    0  0.46170068688E+02 -0.11850660245E+02  0.10634624846E+04  0.10645302107E+04  0.00000000000E+00 0. -1.
         22    1    3    3    0    0 -0.16950421605E+02 -0.24328392000E+01  0.73705153595E+02  0.75668257319E+02  0.00000000000E+00 0. -1.
         22    1    3    3    0    0 -0.37437532053E+02  0.42000731485E+02 -0.41460862502E+02  0.69890152174E+02  0.00000000000E+00 0. -1.
</event>
<event>
 7    1  0.5667373E-006  0.7906189E+02  0.7818608E-02  0.1341742E+00
          2   -1    0    0  502    0  0.00000000000E+00  0.00000000000E+00  0.14023865749E+03  0.14023865749E+03  0.00000000000E+00 0. -1.
          1   -1    0    0  501    0 -0.00000000000E+00 -0.00000000000E+00 -0.50732311329E+03  0.50732311329E+03  0.00000000000E+00 0. -1.
         25    2    1    2    0    0 -0.16581779794E+02 -0.10773103311E+03 -0.10192713838E+03  0.19467925150E+03  0.12501975249E+03 0.  0.
          2    1    1    2  501    0  0.59128345191E+02  0.41893216965E+02 -0.33811630789E+03  0.34579450617E+03  0.00000000000E+00 0. -1.
          1    1    1    2  502    0 -0.42546565396E+02  0.65837816140E+02  0.72958990469E+02  0.10708801311E+03  0.00000000000E+00 0. -1.
         22    1    3    3    0    0  0.16400666799E+01 -0.73265037296E+02  0.12006042440E+02  0.74260356610E+02  0.00000000000E+00 0. -1.
         22    1    3    3    0    0 -0.18221846474E+02 -0.34465995809E+02 -0.11393318082E+03  0.12041889489E+03  0.00000000000E+00 0. -1.
</event>
<event>
 7    1  0.5667373E-006  0.4888055E+02  0.7818608E-02  0.1516142E+00
          2   -1    0    0  502    0  0.00000000000E+00  0.00000000000E+00  0.51854221193E+03  0.51854221193E+03  0.00000000000E+00 0. -1.
          1   -1    0    0  501    0 -0.00000000000E+00 -0.00000000000E+00 -0.37920681994E+02  0.37920681994E+02  0.00000000000E+00 0. -1.
         25    2    1    2    0    0  0.22472458362E+02  0.14841736549E+01  0.22814072086E+03  0.26110625179E+03  0.12498428723E+03 0.  0.
          2    1    1    2  501    0 -0.51965152648E+02  0.81445354269E+01  0.13411152011E+02  0.54282313375E+02  0.00000000000E+00 0. -1.
          1    1    1    2  502    0  0.29492694286E+02 -0.96287090817E+01  0.23906965706E+03  0.24107432875E+03  0.00000000000E+00 0. -1.
         22    1    3    3    0    0 -0.40963846696E+02  0.27283488787E+02  0.14649912576E+03  0.15454584869E+03  0.00000000000E+00 0.  1.
         22    1    3    3    0    0  0.63436305059E+02 -0.25799315132E+02  0.81641595096E+02  0.10656040311E+03  0.00000000000E+00 0.  1.
</event>
<event>
 7    1  0.5667373E-006  0.7637830E+02  0.7818608E-02  0.1377860E+00
          2   -1    0    0  502    0  0.00000000000E+00  0.00000000000E+00  0.41306855877E+03  0.41306855877E+03  0.00000000000E+00 0. -1.
          1   -1    0    0  501    0 -0.00000000000E+00 -0.00000000000E+00 -0.44189312568E+03  0.44189312568E+03  0.00000000000E+00 0. -1.
         25    2    1    2    0    0  0.74766270758E+02 -0.13596177691E+02 -0.39573259705E+02  0.15154562914E+03  0.12500073415E+03 0.  0.
          2    1    1    2  501    0 -0.47428975531E+02  0.61743699040E+02 -0.33975734782E+03  0.34856397905E+03  0.00000000000E+00 0. -1.
          1    1    1    2  502    0 -0.27337295226E+02 -0.48147521348E+02  0.35050604061E+03  0.35485207626E+03  0.00000000000E+00 0. -1.
         22    1    3    3    0    0  0.16095183145E+02 -0.24756860700E+02 -0.76037971983E+02  0.81570400609E+02  0.00000000000E+00 0. -1.
         22    1    3    3    0    0  0.58671087613E+02  0.11160683009E+02  0.36464712278E+02  0.69975228534E+02  0.00000000000E+00 0. -1.
</event>
<event>
 7    1  0.5667373E-006  0.4589218E+02  0.7818608E-02  0.1522528E+00
          2   -1    0    0  502    0  0.00000000000E+00  0.00000000000E+00  0.36118277656E+03  0.36118277656E+03  0.00000000000E+00 0. -1.
          1   -1    0    0  501    0 -0.00000000000E+00 -0.00000000000E+00 -0.42558131900E+03  0.42558131900E+03  0.00000000000E+00 0. -1.
         25    2    1    2    0    0 -0.41331408671E+02  0.27083322012E+02 -0.12780581447E+03  0.18547520913E+03  0.12499974126E+03 0.  0.
          2    1    1    2  501    0  0.26973329404E+02  0.16581531901E+02 -0.26640957451E+03  0.26828449282E+03  0.00000000000E+00 0. -1.
          1    1    1    2  502    0  0.14358079267E+02 -0.43664853914E+02  0.32981684653E+03  0.33300439361E+03  0.00000000000E+00 0. -1.
         22    1    3    3    0    0 -0.83100855196E+02  0.13095962805E+02 -0.55421067019E+02  0.10074100975E+03  0.00000000000E+00 0.  1.
         22    1    3    3    0    0  0.41769446525E+02  0.13987359207E+02 -0.72384747450E+02  0.84734199377E+02  0.00000000000E+00 0.  1.
</event>
<event>
 7    1  0.5667373E-006  0.6594954E+02  0.7818608E-02  0.1479022E+00
          2   -1    0    0  502    0  0.00000000000E+00  0.00000000000E+00  0.10758085146E+03  0.10758085146E+03  0.00000000000E+00 0. -1.
          1   -1    0    0  501    0 -0.00000000000E+00 -0.00000000000E+00 -0.73675778212E+03  0.73675778212E+03  0.00000000000E+00 0. -1.
         25    2    1    2    0    0  0.50325854810E+02  0.66871262833E+02 -0.32212911522E+03  0.35550418161E+03  0.12494638375E+03 0.  0.
          2    1    1    2  501    0 -0.21430586355E+02 -0.59994937933E+02 -0.39287822781E+03  0.39801000553E+03  0.00000000000E+00 0. -1.
          1    1    1    2  502    0 -0.28895268455E+02 -0.68763249001E+01  0.85830412380E+02  0.90824446447E+02  0.00000000000E+00 0. -1.
         22    1    3    3    0    0  0.81123221782E+02  0.80469145111E+02 -0.21896155930E+03  0.24698264084E+03  0.00000000000E+00 0. -1.
         22    1    3    3    0    0 -0.30797366972E+02 -0.13597882278E+02 -0.10316755593E+03  0.10852154077E+03  0.00000000000E+00 0. -1.
</event>
<event>
 7    1  0.5667373E-006  0.1218146E+03  0.7818608E-02  0.1306809E+00
          2   -1    0    0  502    0  0.00000000000E+00  0.00000000000E+00  0.21259893155E+04  0.21259893155E+04  0.00000000000E+00 0. -1.
          1   -1    0    0  501    0 -0.00000000000E+00 -0.00000000000E+00 -0.17951300328E+03  0.17951300328E+03  0.00000000000E+00 0. -1.
         25    2    1    2    0    0 -0.12499593084E+03  0.44499110531E+02  0.31006102084E+03  0.35967439429E+03  0.12499471868E+03 0.  0.
          2    1    1    2  501    0  0.81135655444E+02 -0.91285919199E+02 -0.12992948843E+03  0.17831933600E+03  0.00000000000E+00 0. -1.
          1    1    1    2  502    0  0.43860275397E+02  0.46786808668E+02  0.17663447798E+04  0.17675085885E+04  0.00000000000E+00 0. -1.
         22    1    3    3    0    0 -0.75350009831E+01 -0.37036475726E+02  0.47480604890E+02  0.60686774628E+02  0.00000000000E+00 0. -1.
         22    1    3    3    0    0 -0.11746092986E+03  0.81535586257E+02  0.26258041595E+03  0.29898761966E+03  0.00000000000E+00 0. -1.
</event>
<event>
 7    1  0.5667373E-006  0.6621573E+02  0.7818608E-02  0.1387608E+00
          2   -1    0    0  502    0  0.00000000000E+00  0.00000000000E+00  0.12951630168E+03  0.12951630168E+03  0.00000000000E+00 0. -1.
          1   -1    0    0  501    0 -0.00000000000E+00 -0.00000000000E+00 -0.19016509236E+04  0.19016509236E+04  0.00000000000E+00 0. -1.
         25    2    1    2    0    0  0.10463423582E+03 -0.66282792058E+02 -0.75805572561E+03  0.77821258119E+03  0.12499842621E+03 0.  0.
          2    1    1    2  501    0 -0.53024603762E+02  0.25879755767E+02 -0.11236920752E+04  0.11252400856E+04  0.00000000000E+00 0. -1.
          1    1    1    2  502    0 -0.51609632058E+02  0.40403036291E+02  0.10961317890E+03  0.12771455849E+03  0.00000000000E+00 0. -1.
         22    1    3    3    0    0  0.67032344390E+02  0.16984510191E+02 -0.17718886658E+03  0.19020437224E+03  0.00000000000E+00 0.  1.
         22    1    3    3    0    0  0.37601891431E+02 -0.83267302249E+02 -0.58086685903E+03  0.58800820895E+03  0.00000000000E+00 0.  1.
</event>
<event>
 7    1  0.5667373E-006  0.2063749E+03  0.7818608E-02  0.1343483E+00
          2   -1    0    0  502    0  0.00000000000E+00  0.00000000000E+00  0.35142237144E+04  0.35142237144E+04  0.00000000000E+00 0. -1.
          1   -1    0    0  501    0 -0.00000000000E+00 -0.00000000000E+00 -0.43564713769E+02  0.43564713769E+02  0.00000000000E+00 0. -1.
         25    2    1    2    0    0 -0.24651334222E+02  0.20614321127E+03  0.15906077480E+04  0.16089614077E+04  0.12498436507E+03 0.  0.
          2    1    1    2  501    0 -0.26610230905E+02 -0.63073885468E+01 -0.22321326782E+02  0.35300554789E+02  0.00000000000E+00 0. -1.
          1    1    1    2  502    0  0.51261565127E+02 -0.19983582273E+03  0.19023725794E+04  0.19135264658E+04  0.00000000000E+00 0. -1.
         22    1    3    3    0    0  0.15826298641E+02 -0.44329873177E+01  0.31721048981E+03  0.31763598341E+03  0.00000000000E+00 0.  1.
         22    1    3    3    0    0 -0.40477632863E+02  0.21057619859E+03  0.12733972582E+04  0.12913254243E+04  0.00000000000E+00 0.  1.
</event>
<event>
 7    1  0.5667373E-006  0.6809859E+02  0.7818608E-02  0.1374388E+00
          2   -1    0    0  502    0  0.00000000000E+00  0.00000000000E+00  0.10085512453E+04  0.10085512453E+04  0.00000000000E+00 0. -1.
          1   -1    0    0  501    0 -0.00000000000E+00 -0.00000000000E+00 -0.13607428017E+04  0.13607428017E+04  0.00000000000E+00 0. -1.
         25    2    1    2    0    0 -0.55375985186E+02  0.11182504952E+03  0.34171219689E+03  0.38465973417E+03  0.12499817659E+03 0.  0.
          2    1    1    2  501    0  0.95470269179E+01 -0.67304949464E+02 -0.13368218724E+04  0.13385491476E+04  0.00000000000E+00 0. -1.
          1    1    1    2  502    0  0.45828958268E+02 -0.44520100057E+02  0.64291811915E+03  0.64608516517E+03  0.00000000000E+00 0. -1.
         22    1    3    3    0    0  0.29712984738E+02  0.80647894297E+02  0.16152431229E+03  0.18296734074E+03  0.00000000000E+00 0. -1.
         22    1    3    3    0    0 -0.85088969924E+02  0.31177155223E+02  0.18018788460E+03  0.20169239343E+03  0.00000000000E+00 0. -1.
</event>
<event>
 7    1  0.5667373E-006  0.1024144E+03  0.7818608E-02  0.1291620E+00
          2   -1    0    0  502    0  0.00000000000E+00  0.00000000000E+00  0.64724477647E+02  0.64724477647E+02  0.00000000000E+00 0. -1.
          1   -1    0    0  501    0 -0.00000000000E+00 -0.00000000000E+00 -0.15983331163E+04  0.15983331163E+04  0.00000000000E+00 0. -1.
         25    2    1    2    0    0 -0.49252415070E+01 -0.31821297056E+02 -0.31481018844E+03  0.34024611001E+03  0.12500043072E+03 0.  0.
          2    1    1    2  501    0  0.48725218038E+02  0.10786672521E+03 -0.12287989321E+04  0.12344862060E+04  0.00000000000E+00 0. -1.
          1    1    1    2  502    0 -0.43799976531E+02 -0.76045428156E+02  0.10000481873E+02  0.88325277952E+02  0.00000000000E+00 0. -1.
         22    1    3    3    0    0 -0.15881804860E+02  0.46714291216E+02 -0.10727592592E+03  0.11807870685E+03  0.00000000000E+00 0. -1.
         22    1    3    3    0    0  0.10956563353E+02 -0.78535588271E+02 -0.20753426252E+03  0.22216740316E+03  0.00000000000E+00 0. -1.
</event>
<event>
 7    1  0.5667373E-006  0.5190892E+02  0.7818608E-02  0.1448228E+00
          2   -1    0    0  502    0  0.00000000000E+00  0.00000000000E+00  0.96455789582E+03  0.96455789582E+03  0.00000000000E+00 0. -1.
          1   -1    0    0  501    0 -0.00000000000E+00 -0.00000000000E+00 -0.43304709685E+02  0.43304709685E+02  0.00000000000E+00 0. -1.
         25    2    1    2    0    0 -0.63409910375E+02  0.10928278132E+02  0.13872358660E+03  0.19750640316E+03  0.12499720721E+03 0.  0.
          2    1    1    2  501    0  0.29457958042E+02 -0.43635524564E+02  0.39464830129E+02  0.65797440019E+02  0.00000000000E+00 0. -1.
          1    1    1    2  502    0  0.33951952333E+02  0.32707246431E+02  0.74306476940E+03  0.74455876233E+03  0.00000000000E+00 0. -1.
         22    1    3    3    0    0  0.23343806578E+02  0.31453298050E+02  0.91448117102E+01  0.40222765258E+02  0.00000000000E+00 0. -1.
         22    1    3    3    0    0 -0.86753716953E+02 -0.20525019917E+02  0.12957877489E+03  0.15728363790E+03  0.00000000000E+00 0. -1.
</event>
<event>
 7    1  0.5667373E-006  0.2348688E+02  0.7818608E-02  0.1700443E+00
          2   -1    0    0  502    0  0.00000000000E+00  0.00000000000E+00  0.59170074626E+01  0.59170074626E+01  0.00000000000E+00 0. -1.
          1   -1    0    0  501    0 -0.00000000000E+00 -0.00000000000E+00 -0.15001494975E+04  0.15001494975E+04  0.00000000000E+00 0. -1.
         25    2    1    2    0    0  0.37190843565E+02  0.16941296115E+02 -0.99441436312E+03  0.10030728499E+04  0.12500020103E+03 0.  0.
          2    1    1    2  501    0 -0.15737395600E+02 -0.15981561013E+02 -0.41117628063E+03  0.41178757833E+03  0.00000000000E+00 0. -1.
          1    1    1    2  502    0 -0.21453447965E+02 -0.95973510166E+00 -0.88641846284E+02  0.91206076736E+02  0.00000000000E+00 0. -1.
         22    1    3    3    0    0 -0.12197399868E+02 -0.25775970143E+02 -0.73544965457E+03  0.73600229049E+03  0.00000000000E+00 0. -1.
         22    1    3    3    0    0  0.49388243433E+02  0.42717266257E+02 -0.25896470855E+03  0.26707055940E+03  0.00000000000E+00 0. -1.
</event>
<event>
 7    1  0.5667373E-006  0.8327776E+02  0.7818608E-02  0.1454759E+00
          2   -1    0    0  502    0  0.00000000000E+00  0.00000000000E+00  0.15538357845E+04  0.15538357845E+04  0.00000000000E+00 0. -1.
          1   -1    0    0  501    0 -0.00000000000E+00 -0.00000000000E+00 -0.93499647381E+02  0.93499647381E+02  0.00000000000E+00 0. -1.
         25    2    1    2    0    0 -0.90663112596E+02 -0.21469103282E+02  0.56490104155E+03  0.58602027988E+03  0.12500343716E+03 0.  0.
          2    1    1    2  501    0  0.86105958508E+01  0.26651420901E+02 -0.78793639776E+02  0.83623431322E+02  0.00000000000E+00 0. -1.
          1    1    1    2  502    0  0.82052516745E+02 -0.51823176192E+01  0.97422873537E+03  0.97769172071E+03  0.00000000000E+00 0. -1.
         22    1    3    3    0    0 -0.49529681510E+02  0.50643459156E+02  0.21346717866E+03  0.22491372939E+03  0.00000000000E+00 0.  1.
         22    1    3    3    0    0 -0.41133431085E+02 -0.72112562438E+02  0.35143386289E+03  0.36110655048E+03  0.00000000000E+00 0.  1.
</event>
<event>
 7    1  0.5667373E-006  0.4582484E+02  0.7818608E-02  0.1534389E+00
          2   -1    0    0  502    0  0.00000000000E+00  0.00000000000E+00  0.43715979675E+03  0.43715979675E+03  0.00000000000E+00 0. -1.
          1   -1    0    0  501    0 -0.00000000000E+00 -0.00000000000E+00 -0.15501377855E+03  0.15501377855E+03  0.00000000000E+00 0. -1.
         25    2    1    2    0    0  0.51680524751E+02 -0.50184398804E+02 -0.26228163763E+00  0.14427146172E+03  0.12499934141E+03 0.  0.
          2    1    1    2  501    0 -0.35270834941E+02  0.25889442477E+02 -0.76323215695E+02  0.87974588850E+02  0.00000000000E+00 0. -1.
          1    1    1    2  502    0 -0.16409689810E+02  0.24294956327E+02  0.35873151553E+03  0.35992752473E+03  0.00000000000E+00 0. -1.
         22    1    3    3    0    0 -0.13728670451E+02  0.11202286597E+02  0.41647953202E+02  0.45260574712E+02  0.00000000000E+00 0.  1.
         22    1    3    3    0    0  0.65409195202E+02 -0.61386685401E+02 -0.41910234840E+02  0.99010887006E+02  0.00000000000E+00 0.  1.
</event>
<event>
 7    1  0.5667373E-006  0.9249833E+02  0.7818608E-02  0.1453460E+00
          2   -1    0    0  502    0  0.00000000000E+00  0.00000000000E+00  0.13051766730E+04  0.13051766730E+04  0.00000000000E+00 0. -1.
          1   -1    0    0  501    0 -0.00000000000E+00 -0.00000000000E+00 -0.21630352060E+03  0.21630352060E+03  0.00000000000E+00 0. -1.
         25    2    1    2    0    0  0.70049174511E+02 -0.88046808769E+02 -0.25500135178E+02  0.17010460131E+03  0.12500476435E+03 0.  0.
          2    1    1    2  501    0 -0.49872494896E+02  0.72523881145E+02 -0.10200590489E+03  0.13473004014E+03  0.00000000000E+00 0. -1.
          1    1    1    2  502    0 -0.20176679615E+02  0.15522927624E+02  0.12163791924E+04  0.12166455521E+04  0.00000000000E+00 0. -1.
         22    1    3    3    0    0  0.17036068210E+02 -0.10485262796E+03  0.56203987355E+01  0.10637617258E+03  0.00000000000E+00 0.  1.
         22    1    3    3    0    0  0.53013106301E+02  0.16805819190E+02 -0.31120533914E+02  0.63728428738E+02  0.00000000000E+00 0.  1.
</event>
<event>
 7    1  0.5667373E-006  0.1019140E+03  0.7818608E-02  0.1329874E+00
          2   -1    0    0  502    0  0.00000000000E+00  0.00000000000E+00  0.63950419118E+03  0.63950419118E+03  0.00000000000E+00 0. -1.
          1   -1    0    0  501    0 -0.00000000000E+00 -0.00000000000E+00 -0.14906013421E+04  0.14906013421E+04  0.00000000000E+00 0. -1.
         25    2    1    2    0    0 -0.79027309507E+02  0.12349433906E+03 -0.36909040267E+02  0.19617191505E+03  0.12499990228E+03 0.  0.
          2    1    1    2  501    0  0.80463338765E+02 -0.61165716440E+02 -0.13704584411E+04  0.13741804585E+04  0.00000000000E+00 0. -1.
          1    1    1    2  502    0 -0.14360292578E+01 -0.62328622621E+02  0.55627033041E+03  0.55975315977E+03  0.00000000000E+00 0. -1.
         22    1    3    3    0    0 -0.10279352712E+03  0.12984979325E+03 -0.21153695322E+02  0.16695794935E+03  0.00000000000E+00 0. -1.
         22    1    3    3    0    0  0.23766217614E+02 -0.63554541849E+01 -0.15755344945E+02  0.29213965699E+02  0.00000000000E+00 0. -1.
</event>
<event>
 7    1  0.5667373E-006  0.9050167E+02  0.7818608E-02  0.1439054E+00
          2   -1    0    0  502    0  0.00000000000E+00  0.00000000000E+00  0.68021884198E+03  0.68021884198E+03  0.00000000000E+00 0. -1.
          1   -1    0    0  501    0 -0.00000000000E+00 -0.00000000000E+00 -0.10482178183E+03  0.10482178183E+03  0.00000000000E+00 0. -1.
         25    2    1    2    0    0 -0.51700231696E+02 -0.47322791355E+02  0.13667410603E+03  0.19803368220E+03  0.12500066994E+03 0.  0.
          2    1    1    2  501    0  0.80590835052E+02  0.49151648922E+02 -0.43484682126E+02  0.10393115445E+03  0.00000000000E+00 0. -1.
          1    1    1    2  502    0 -0.28890603356E+02 -0.18288575677E+01  0.48220763625E+03  0.48307578716E+03  0.00000000000E+00 0. -1.
         22    1    3    3    0    0  0.35305316499E+02  0.12771527536E+02  0.37390563714E+02  0.52987088461E+02  0.00000000000E+00 0.  1.
         22    1    3    3    0    0 -0.87005548196E+02 -0.60094318890E+02  0.99283542313E+02  0.14504659373E+03  0.00000000000E+00 0.  1.
</event>
<event>
 7    1  0.5667373E-006  0.1136720E+03  0.7818608E-02  0.1375830E+00
          2   -1    0    0  502    0  0.00000000000E+00  0.00000000000E+00  0.27391636165E+03  0.27391636165E+03  0.00000000000E+00 0. -1.
          1   -1    0    0  501    0 -0.00000000000E+00 -0.00000000000E+00 -0.17718541551E+03  0.17718541551E+03  0.00000000000E+00 0. -1.
         25    2    1    2    0    0  0.72632362340E+02 -0.45713528850E+02 -0.12942203995E+02  0.15217561168E+03  0.12499891746E+03 0.  0.
          2    1    1    2  501    0  0.37809586469E+02 -0.11168874676E+01 -0.71935602036E+02  0.81274492351E+02  0.00000000000E+00 0. -1.
          1    1    1    2  502    0 -0.11044194881E+03  0.46830416317E+02  0.18160875217E+03  0.21765167312E+03  0.00000000000E+00 0. -1.
         22    1    3    3    0    0 -0.34537751686E+02  0.83358758630E+00  0.58764267612E+00  0.34552807175E+02  0.00000000000E+00 0. -1.
         22    1    3    3    0    0  0.10717011403E+03 -0.46547116436E+02 -0.13529846671E+02  0.11762280451E+03  0.00000000000E+00 0. -1.
</event>
<event>
 7    1  0.5667373E-006  0.7447755E+02  0.7818608E-02  0.1450881E+00
          2   -1    0    0  502    0  0.00000000000E+00  0.00000000000E+00  0.88152794249E+03  0.88152794249E+03  0.00000000000E+00 0. -1.
          1   -1    0    0  501    0 -0.00000000000E+00 -0.00000000000E+00 -0.35035619158E+03  0.35035619158E+03  0.00000000000E+00 0. -1.
         25    2    1    2    0    0  0.97446156381E+02 -0.21936494487E+02 -0.46304382759E+02  0.16657484043E+03  0.12500447359E+03 0.  0.
          2    1    1    2  501    0 -0.23329888773E+02  0.22224693074E+02 -0.24117097941E+03  0.24331391658E+03  0.00000000000E+00 0. -1.
          1    1    1    2  502    0 -0.74116267608E+02 -0.28819858734E+00  0.81864711307E+03  0.82199537707E+03  0.00000000000E+00 0. -1.
         22    1    3    3    0    0  0.36258528553E+02 -0.58369564205E+02 -0.63228464028E+02  0.93378399973E+02  0.00000000000E+00 0.  1.
         22    1    3    3    0    0  0.61187627828E+02  0.36433069718E+02  0.16924081269E+02  0.73196440454E+02  0.00000000000E+00 0.  1.
</event>
<event>
 7    1  0.5667373E-006  0.1476576E+03  0.7818608E-02  0.1231322E+00
          2   -1    0    0  502    0  0.00000000000E+00  0.00000000000E+00  0.31124692259E+04  0.31124692259E+04  0.00000000000E+00 0. -1.
          1   -1    0    0  501    0 -0.00000000000E+00 -0.00000000000E+00 -0.59878406154E+02  0.59878406154E+02  0.00000000000E+00 0. -1.
         25    2    1    2    0    0  0.17973880083E+03 -0.64208038161E+02  0.24011467259E+03  0.33123652700E+03  0.12503548352E+03 0.  0.
          2    1    1    2  501    0 -0.94695959447E+02 -0.55913756368E+02  0.23523905257E+03  0.25967495979E+03  0.00000000000E+00 0. -1.
          1    1    1    2  502    0 -0.85042841378E+02  0.12012179453E+03  0.25772370945E+04  0.25814361452E+04  0.00000000000E+00 0. -1.
         22    1    3    3    0    0  0.19445427238E+03 -0.41511752837E+02  0.22493490511E+03  0.30021892214E+03  0.00000000000E+00 0. -1.
         22    1    3    3    0    0 -0.14715471557E+02 -0.22696285325E+02  0.15179767479E+02  0.31017604863E+02  0.00000000000E+00 0. -1.
</event>
<event>
 7    1  0.5667373E-006  0.1381234E+03  0.7818608E-02  0.1299018E+00
          2   -1    0    0  502    0  0.00000000000E+00  0.00000000000E+00  0.17948455561E+04  0.17948455561E+04  0.00000000000E+00 0. -1.
          1   -1    0    0  501    0 -0.00000000000E+00 -0.00000000000E+00 -0.29172235640E+02  0.29172235640E+02  0.00000000000E+00 0. -1.
         25    2    1    2    0    0 -0.36577194161E+02 -0.13957436101E+03  0.59666857095E+03  0.62646433939E+03  0.12500116630E+03 0.  0.
          2    1    1    2  501    0  0.88333701304E+02  0.10776588740E+03  0.35625099824E+03  0.38253248622E+03  0.00000000000E+00 0. -1.
          1    1    1    2  502    0 -0.51756507143E+02  0.31808473617E+02  0.81275375125E+03  0.81502096611E+03  0.00000000000E+00 0. -1.
         22    1    3    3    0    0 -0.48225751258E+02 -0.16005690752E+03  0.51367896714E+03  0.54019442612E+03  0.00000000000E+00 0. -1.
         22    1    3    3    0    0  0.11648557097E+02  0.20482546510E+02  0.82989603809E+02  0.86269913263E+02  0.00000000000E+00 0. -1.
</event>
<event>
 7    1  0.5667373E-006  0.8283003E+02  0.7818608E-02  0.1336201E+00
          2   -1    0    0  502    0  0.00000000000E+00  0.00000000000E+00  0.15728945096E+04  0.15728945096E+04  0.00000000000E+00 0. -1.
          1   -1    0    0  501    0 -0.00000000000E+00 -0.00000000000E+00 -0.24659832137E+03  0.24659832137E+03  0.00000000000E+00 0. -1.
         25    2    1    2    0    0  0.20365546488E+02  0.99878986735E+02  0.18664331869E+03  0.24667674991E+03  0.12499249201E+03 0.  0.
          2    1    1    2  501    0 -0.65964820653E+02 -0.30261975600E+02 -0.20918308182E+03  0.22141523536E+03  0.00000000000E+00 0. -1.
          1    1    1    2  502    0  0.45599274165E+02 -0.69617011135E+02  0.13488359514E+04  0.13514008457E+04  0.00000000000E+00 0. -1.
         22    1    3    3    0    0 -0.22531770423E+02  0.14028810415E+02 -0.95987305037E+01  0.28224525281E+02  0.00000000000E+00 0.  1.
         22    1    3    3    0    0  0.42897316912E+02  0.85850176320E+02  0.19624204920E+03  0.21845222463E+03  0.00000000000E+00 0.  1.
</event>
<event>
 7    1  0.5667373E-006  0.1159726E+03  0.7818608E-02  0.1369528E+00
          2   -1    0    0  502    0  0.00000000000E+00  0.00000000000E+00  0.51890363938E+03  0.51890363938E+03  0.00000000000E+00 0. -1.
          1   -1    0    0  501    0 -0.00000000000E+00 -0.00000000000E+00 -0.55645138716E+03  0.55645138716E+03  0.00000000000E+00 0. -1.
         25    2    1    2    0    0 -0.42992024897E+02  0.76506026541E+02 -0.12872216312E+03  0.19973997646E+03  0.12500070646E+03 0.  0.
          2    1    1    2  501    0  0.12863355173E+02  0.36873986838E+02 -0.38409780582E+03  0.38607807662E+03  0.00000000000E+00 0. -1.
          1    1    1    2  502    0  0.30128669724E+02 -0.11338001338E+03  0.47527222116E+03  0.48953697345E+03  0.00000000000E+00 0. -1.
         22    1    3    3    0    0  0.12512406084E+02  0.15571682175E+02  0.20903664021E+02  0.28913677754E+02  0.00000000000E+00 0. -1.
         22    1    3    3    0    0 -0.55504430981E+02  0.60934344366E+02 -0.14962582715E+03  0.17082629871E+03  0.00000000000E+00 0. -1.
</event>
<event>
 7    1  0.5667373E-006  0.8710616E+02  0.7818608E-02  0.1479792E+00
          2   -1    0    0  502    0  0.00000000000E+00  0.00000000000E+00  0.13585052358E+03  0.13585052358E+03  0.00000000000E+00 0. -1.
          1   -1    0    0  501    0 -0.00000000000E+00 -0.00000000000E+00 -0.45821879114E+03  0.45821879114E+03  0.00000000000E+00 0. -1.
         25    2    1    2    0    0  0.37697086034E+02 -0.57962696337E+02 -0.30652851932E+03  0.33818034136E+03  0.12500186264E+03 0.  0.
          2    1    1    2  501    0 -0.15173126158E+01 -0.22314471854E+02 -0.11852690783E+03  0.12061867920E+03  0.00000000000E+00 0. -1.
          1    1    1    2  502    0 -0.36179773418E+02  0.80277168191E+02  0.10268715960E+03  0.13527029416E+03  0.00000000000E+00 0. -1.
         22    1    3    3    0    0  0.46316938365E+02 -0.31456874534E+02 -0.36765631354E+02  0.66981380874E+02  0.00000000000E+00 0. -1.
         22    1    3    3    0    0 -0.86198523315E+01 -0.26505821802E+02 -0.26976288797E+03  0.27119896049E+03  0.00000000000E+00 0. -1.
</event>
<event>
 7    1  0.5667373E-006  0.2497218E+03  0.7818608E-02  0.1214655E+00
          2   -1    0    0  502    0  0.00000000000E+00  0.00000000000E+00  0.23763100307E+04  0.23763100307E+04  0.00000000000E+00 0. -1.
          1   -1    0    0  501    0 -0.00000000000E+00 -0.00000000000E+00 -0.33574457847E+03  0.33574457847E+03  0.00000000000E+00 0. -1.
         25    2    1    2    0    0 -0.10713317060E+03 -0.17824057839E+03  0.49464135059E+03  0.55094688485E+03  0.12500073675E+03 0.  0.
          2    1    1    2  501    0  0.18447735192E+03  0.17553053313E+03 -0.25391534909E+03  0.35960515282E+03  0.00000000000E+00 0. -1.
          1    1    1    2  502    0 -0.77344181314E+02  0.27100452628E+01  0.17998394508E+04  0.18015025715E+04  0.00000000000E+00 0. -1.
         22    1    3    3    0    0 -0.51600987937E+02 -0.84840100048E+02  0.97334491048E+02  0.13904858029E+03  0.00000000000E+00 0.  1.
         22    1    3    3    0    0 -0.55532182667E+02 -0.93400478346E+02  0.39730685954E+03  0.41189830457E+03  0.00000000000E+00 0.  1.
</event>
<event>
 7    1  0.5667373E-006  0.4621484E+02  0.7818608E-02  0.1499495E+00
          2   -1    0    0  502    0  0.00000000000E+00  0.00000000000E+00  0.41591017398E+03  0.41591017398E+03  0.00000000000E+00 0. -1.
          1   -1    0    0  501    0 -0.00000000000E+00 -0.00000000000E+00 -0.10589847802E+04  0.10589847802E+04  0.00000000000E+00 0. -1.
         25    2    1    2    0    0 -0.41744656690E+02 -0.10205401757E+02  0.22456868473E+03  0.26058171892E+03  0.12499988594E+03 0.  0.
          2    1    1    2  501    0  0.21567126844E+02  0.40916290261E+02 -0.10385102118E+04  0.10395396788E+04  0.00000000000E+00 0. -1.
          1    1    1    2  502    0  0.20177529846E+02 -0.30710888504E+02  0.17086692088E+03  0.17477355645E+03  0.00000000000E+00 0. -1.
         22    1    3    3    0    0 -0.71229577221E+02 -0.32223718699E+02  0.81819253882E+02  0.11316541443E+03  0.00000000000E+00 0.  1.
         22    1    3    3    0    0  0.29484920531E+02  0.22018316942E+02  0.14274943085E+03  0.14741630448E+03  0.00000000000E+00 0.  1.
</event>
<event>
 7    1  0.5667373E-006  0.1040995E+03  0.7818608E-02  0.1311282E+00
          2   -1    0    0  502    0  0.00000000000E+00  0.00000000000E+00  0.48161596894E+03  0.48161596894E+03  0.00000000000E+00 0. -1.
          1   -1    0    0  501    0 -0.00000000000E+00 -0.00000000000E+00 -0.28040581840E+03  0.28040581840E+03  0.00000000000E+00 0. -1.
         25    2    1    2    0    0  0.65935046204E+02 -0.11870484165E+03  0.12831060670E+03  0.22478261769E+03  0.12500137470E+03 0.  0.
          2    1    1    2  501    0  0.44160852494E+01  0.10313187118E+03 -0.21604865655E+03  0.23944249134E+03  0.00000000000E+00 0. -1.
          1    1    1    2  502    0 -0.70351131454E+02  0.15572970468E+02  0.28894820039E+03  0.29779667832E+03  0.00000000000E+00 0. -1.
         22    1    3    3    0    0  0.15028359343E+02 -0.73079136987E+02  0.13687409986E+03  0.15588755903E+03  0.00000000000E+00 0.  1.
         22    1    3    3    0    0  0.50906686861E+02 -0.45625704659E+02 -0.85634931626E+01  0.68895058661E+02  0.00000000000E+00 0.  1.
</event>
<event>
 7    1  0.5667373E-006  0.3542560E+03  0.7818608E-02  0.1197464E+00
          2   -1    0    0  502    0  0.00000000000E+00  0.00000000000E+00  0.12364318683E+04  0.12364318683E+04  0.00000000000E+00 0. -1.
          1   -1    0    0  501    0 -0.00000000000E+00 -0.00000000000E+00 -0.11223102196E+04  0.11223102196E+04  0.00000000000E+00 0. -1.
         25    2    1    2    0    0 -0.64632688576E+02 -0.28522714966E+03 -0.52316477042E+03  0.61225616707E+03  0.12499730304E+03 0.  0.
          2    1    1    2  501    0 -0.25954159891E+02 -0.60276267218E+02 -0.52575403841E+03  0.52983408319E+03  0.00000000000E+00 0. -1.
          1    1    1    2  502    0  0.90586848467E+02  0.34550341688E+03  0.11630404575E+04  0.12166518376E+04  0.00000000000E+00 0. -1.
         22    1    3    3    0    0 -0.49979775210E+02 -0.20707681125E+03 -0.25353876548E+03  0.33115055381E+03  0.00000000000E+00 0.  1.
         22    1    3    3    0    0 -0.14652913367E+02 -0.78150338409E+02 -0.26962600494E+03  0.28110561326E+03  0.00000000000E+00 0.  1.
</event>
<event>
 7    1  0.5667373E-006  0.2334629E+03  0.7818608E-02  0.1362382E+00
          2   -1    0    0  502    0  0.00000000000E+00  0.00000000000E+00  0.33944636176E+04  0.33944636176E+04  0.00000000000E+00 0. -1.
          1   -1    0    0  501    0 -0.00000000000E+00 -0.00000000000E+00 -0.34992864718E+02  0.34992864718E+02  0.00000000000E+00 0. -1.
         25    2    1    2    0    0 -0.38496901046E+02 -0.21887887007E+03  0.84989788290E+03  0.88732223766E+03  0.12499748374E+03 0.  0.
          2    1    1    2  501    0  0.12220590893E+02 -0.16570349781E+02 -0.80226661816E+00  0.20604925755E+02  0.00000000000E+00 0. -1.
          1    1    1    2  502    0  0.26276310154E+02  0.23544921985E+03  0.25103751366E+04  0.25215293189E+04  0.00000000000E+00 0. -1.
         22    1    3    3    0    0  0.32889819033E+02 -0.11138303542E+03  0.28260166172E+03  0.30553497342E+03  0.00000000000E+00 0.  1.
         22    1    3    3    0    0 -0.71386720080E+02 -0.10749583465E+03  0.56729622117E+03  0.58178726424E+03  0.00000000000E+00 0.  1.
</event>
<event>
 7    1  0.5667373E-006  0.4503620E+02  0.7818608E-02  0.1532697E+00
          2   -1    0    0  502    0  0.00000000000E+00  0.00000000000E+00  0.15113421793E+04  0.15113421793E+04  0.00000000000E+00 0. -1.
          1   -1    0    0  501    0 -0.00000000000E+00 -0.00000000000E+00 -0.10216677499E+03  0.10216677499E+03  0.00000000000E+00 0. -1.
         25    2    1    2    0    0  0.31829789916E+02 -0.45464292656E+02  0.61285280086E+03  0.62792754538E+03  0.12499723716E+03 0.  0.
          2    1    1    2  501    0 -0.41704317938E+02  0.16962081258E+02 -0.89002966400E+02  0.99742119304E+02  0.00000000000E+00 0. -1.
          1    1    1    2  502    0  0.98745280226E+01  0.28502211399E+02  0.88532556985E+03  0.88583928959E+03  0.00000000000E+00 0. -1.
         22    1    3    3    0    0  0.75602445035E+02 -0.29608800291E+02  0.48736434341E+03  0.49408138396E+03  0.00000000000E+00 0.  1.
         22    1    3    3    0    0 -0.43772655119E+02 -0.15855492365E+02  0.12548845745E+03  0.13384616142E+03  0.00000000000E+00 0.  1.
</event>
<event>
 7    1  0.5667373E-006  0.5064247E+02  0.7818608E-02  0.1506693E+00
          2   -1    0    0  502    0  0.00000000000E+00  0.00000000000E+00  0.43811308475E+03  0.43811308475E+03  0.00000000000E+00 0. -1.
          1   -1    0    0  501    0 -0.00000000000E+00 -0.00000000000E+00 -0.27489549378E+03  0.27489549378E+03  0.00000000000E+00 0. -1.
         25    2    1    2    0    0  0.14858895365E+01  0.68595624126E+02  0.11595547111E+03  0.18378902522E+03  0.12500066797E+03 0.  0.
          2    1    1    2  501    0 -0.22916575640E+02 -0.44936711624E+02 -0.23743715127E+03  0.24273623193E+03  0.00000000000E+00 0. -1.
          1    1    1    2  502    0  0.21430686103E+02 -0.23658912501E+02  0.28469927113E+03  0.28648332138E+03  0.00000000000E+00 0. -1.
         22    1    3    3    0    0 -0.43930449877E+02  0.81091298220E+02  0.94445399652E+02  0.13200612330E+03  0.00000000000E+00 0.  1.
         22    1    3    3    0    0  0.45416339414E+02 -0.12495674094E+02  0.21510071459E+02  0.51782901917E+02  0.00000000000E+00 0.  1.
</event>
<event>
 7    1  0.5667373E-006  0.1097657E+03  0.7818608E-02  0.1288222E+00
          2   -1    0    0  502    0  0.00000000000E+00  0.00000000000E+00  0.15559246861E+04  0.15559246861E+04  0.00000000000E+00 0. -1.
          1   -1    0    0  501    0 -0.00000000000E+00 -0.00000000000E+00 -0.59344084356E+03  0.59344084356E+03  0.00000000000E+00 0. -1.
         25    2    1    2    0    0 -0.10858145043E+03 -0.53120914712E+02  0.56171245259E+03  0.58801160940E+03  0.12500004171E+03 0.  0.
          2    1    1    2  501    0 -0.27339906836E+00  0.84527327586E+02 -0.57391435875E+03  0.58010571022E+03  0.00000000000E+00 0. -1.
          1    1    1    2  502    0  0.10885484950E+03 -0.31406412874E+02  0.97468574871E+03  0.98124821007E+03  0.00000000000E+00 0. -1.
         22    1    3    3    0    0 -0.44588799295E+02 -0.73265435187E+02  0.16802567877E+03  0.18864944670E+03  0.00000000000E+00 0. -1.
         22    1    3    3    0    0 -0.63992651140E+02  0.20144520475E+02  0.39368677383E+03  0.39936216270E+03  0.00000000000E+00 0. -1.
</event>
<event>
 7    1  0.5667373E-006  0.5562458E+02  0.7818608E-02  0.1516668E+00
          2   -1    0    0  502    0  0.00000000000E+00  0.00000000000E+00  0.13586273720E+04  0.13586273720E+04  0.00000000000E+00 0. -1.
          1   -1    0    0  501    0 -0.00000000000E+00 -0.00000000000E+00 -0.57826059306E+03  0.57826059306E+03  0.00000000000E+00 0. -1.
         25    2    1    2    0    0  0.78610043288E+02  0.24832579919E+02 -0.19873955407E+03  0.24883766371E+03  0.12500630624E+03 0.  0.
          2    1    1    2  501    0 -0.26691359978E+02 -0.50620875450E+01 -0.35337177852E+03  0.35441454158E+03  0.00000000000E+00 0. -1.
          1    1    1    2  502    0 -0.51918683310E+02 -0.19770492374E+02  0.13324781115E+04  0.13336357598E+04  0.00000000000E+00 0. -1.
         22    1    3    3    0    0  0.18093464024E+02 -0.50159084547E+02 -0.67566276501E+02  0.86072695574E+02  0.00000000000E+00 0.  1.
         22    1    3    3    0    0  0.60516579264E+02  0.74991664466E+02 -0.13117327757E+03  0.16276496814E+03  0.00000000000E+00 0.  1.
</event>
<event>
 7    1  0.5667373E-006  0.5351153E+02  0.7818608E-02  0.1506528E+00
          2   -1    0    0  502    0  0.00000000000E+00  0.00000000000E+00  0.28327314792E+03  0.28327314792E+03  0.00000000000E+00 0. -1.
          1   -1    0    0  501    0 -0.00000000000E+00 -0.00000000000E+00 -0.21477129096E+04  0.21477129096E+04  0.00000000000E+00 0. -1.
         25    2    1    2    0    0  0.30092202893E+02  0.16256744842E+02  0.15706523965E+03  0.20361373328E+03  0.12497695967E+03 0.  0.
          2    1    1    2  501    0  0.30085371553E+02 -0.30983742905E+01 -0.21151050136E+04  0.21153212399E+04  0.00000000000E+00 0. -1.
          1    1    1    2  502    0 -0.60177574446E+02 -0.13158370552E+02  0.93600012317E+02  0.11205108428E+03  0.00000000000E+00 0. -1.
         22    1    3    3    0    0  0.75873644195E+02 -0.88909297686E+01  0.10513429347E+03  0.12995798621E+03  0.00000000000E+00 0.  1.
         22    1    3    3    0    0 -0.45781441303E+02  0.25147674611E+02  0.51930946175E+02  0.73655747072E+02  0.00000000000E+00 0.  1.
</event>
<event>
 7    1  0.5667373E-006  0.1124123E+03  0.7818608E-02  0.1330496E+00
          2   -1    0    0  502    0  0.00000000000E+00  0.00000000000E+00  0.97302891623E+02  0.97302891623E+02  0.00000000000E+00 0. -1.
          1   -1    0    0  501    0 -0.00000000000E+00 -0.00000000000E+00 -0.70374221634E+03  0.70374221634E+03  0.00000000000E+00 0. -1.
         25    2    1    2    0    0 -0.11530266171E+03 -0.41692529207E+02 -0.14537950438E+03  0.22758176800E+03  0.12500116016E+03 0.  0.
          2    1    1    2  501    0  0.37963006109E+01  0.56085945552E+02 -0.45753626147E+03  0.46097665423E+03  0.00000000000E+00 0. -1.
          1    1    1    2  502    0  0.11150636110E+03 -0.14393416346E+02 -0.35235588662E+01  0.11248668573E+03  0.00000000000E+00 0. -1.
         22    1    3    3    0    0 -0.34667093795E+02  0.30178579482E+02 -0.10069241974E+03  0.11068657301E+03  0.00000000000E+00 0.  1.
         22    1    3    3    0    0 -0.80635567915E+02 -0.71871108688E+02 -0.44687084635E+02  0.11689519498E+03  0.00000000000E+00 0.  1.
</event>
<event>
 7    1  0.5667373E-006  0.1007163E+03  0.7818608E-02  0.1340436E+00
          2   -1    0    0  502    0  0.00000000000E+00  0.00000000000E+00  0.53050972811E+03  0.53050972811E+03  0.00000000000E+00 0. -1.
          1   -1    0    0  501    0 -0.00000000000E+00 -0.00000000000E+00 -0.55454424203E+03  0.55454424203E+03  0.00000000000E+00 0. -1.
         25    2    1    2    0    0  0.13742725138E+03  0.44274967984E+02 -0.27023475576E+03  0.33090586491E+03  0.12500138400E+03 0.  0.
          2    1    1    2  501    0 -0.37334216817E+02 -0.43771835212E+02 -0.24560873187E+03  0.25225674714E+03  0.00000000000E+00 0. -1.
          1    1    1    2  502    0 -0.10009303456E+03 -0.50313277244E+00  0.49180897371E+03  0.50189135810E+03  0.00000000000E+00 0. -1.
         22    1    3    3    0    0  0.10213703931E+03  0.63086888911E+02 -0.10062096769E+03  0.15664134029E+03  0.00000000000E+00 0.  1.
         22    1    3    3    0    0  0.35290212075E+02 -0.18811920927E+02 -0.16961378807E+03  0.17426452462E+03  0.00000000000E+00 0.  1.
</event>
<event>
 7    1  0.5667373E-006  0.7528307E+02  0.7818608E-02  0.1369656E+00
          2   -1    0    0  502    0  0.00000000000E+00  0.00000000000E+00  0.34290511340E+02  0.34290511340E+02  0.00000000000E+00 0. -1.
          1   -1    0    0  501    0 -0.00000000000E+00 -0.00000000000E+00 -0.63347853108E+03  0.63347853108E+03  0.00000000000E+00 0. -1.
         25    2    1    2    0    0  0.11873955444E+01  0.31120043039E+02 -0.37958329776E+03  0.40084683001E+03  0.12499933683E+03 0.  0.
          2    1    1    2  501    0 -0.18447121240E+02  0.57195818141E+02 -0.10761457613E+03  0.12325808245E+03  0.00000000000E+00 0. -1.
          1    1    1    2  502    0  0.17259725696E+02 -0.88315861180E+02 -0.11199014585E+03  0.14366412995E+03  0.00000000000E+00 0. -1.
         22    1    3    3    0    0  0.43931497413E+02  0.24591131729E+02 -0.59878891752E+02  0.78231591458E+02  0.00000000000E+00 0.  1.
         22    1    3    3    0    0 -0.42744101869E+02  0.65289113101E+01 -0.31970440601E+03  0.32261523855E+03  0.00000000000E+00 0.  1.
</event>
<event>
 7    1  0.5667373E-006  0.7012986E+02  0.7818608E-02  0.1363171E+00
          2   -1    0    0  502    0  0.00000000000E+00  0.00000000000E+00  0.10870634826E+03  0.10870634826E+03  0.00000000000E+00 0. -1.
          1   -1    0    0  501    0 -0.00000000000E+00 -0.00000000000E+00 -0.11486637857E+04  0.11486637857E+04  0.00000000000E+00 0. -1.
         25    2    1    2    0    0 -0.43825730192E+02 -0.11004976088E+02 -0.47199976873E+03  0.49035778386E+03  0.12500068152E+03 0.  0.
          2    1    1    2  501    0  0.68769763970E+00  0.68087125478E+02 -0.65262185406E+03  0.65616431934E+03  0.00000000000E+00 0. -1.
          1    1    1    2  502    0  0.43138032552E+02 -0.57082149390E+02  0.84664185374E+02  0.11084803073E+03  0.00000000000E+00 0. -1.
         22    1    3    3    0    0 -0.52939620905E+02  0.20952036858E+02 -0.87298471218E+02  0.10422386669E+03  0.00000000000E+00 0.  1.
         22    1    3    3    0    0  0.91138907125E+01 -0.31957012946E+02 -0.38470129751E+03  0.38613391717E+03  0.00000000000E+00 0.  1.
</event>
<event>
 7    1  0.5667373E-006  0.7855848E+02  0.7818608E-02  0.1338097E+00
          2   -1    0    0  502    0  0.00000000000E+00  0.00000000000E+00  0.34494507116E+04  0.34494507116E+04  0.00000000000E+00 0. -1.
          1   -1    0    0  501    0 -0.00000000000E+00 -0.00000000000E+00 -0.17931961918E+03  0.17931961918E+03  0.00000000000E+00 0. -1.
         25    2    1    2    0    0  0.10117382940E+03 -0.15811246957E+02 -0.13924272950E+02  0.16217928858E+03  0.12498838739E+03 0.  0.
          2    1    1    2  501    0 -0.44447225673E+02  0.65283944472E+02 -0.73680910492E+02  0.10801123019E+03  0.00000000000E+00 0. -1.
          1    1    1    2  502    0 -0.56726603725E+02 -0.49472697516E+02  0.33577362759E+04  0.33585798120E+04  0.00000000000E+00 0. -1.
         22    1    3    3    0    0  0.51860892256E+02  0.54712802862E+02 -0.98678905282E+01  0.76029061589E+02  0.00000000000E+00 0.  1.
         22    1    3    3    0    0  0.49312937141E+02 -0.70524049819E+02 -0.40563824219E+01  0.86150226991E+02  0.00000000000E+00 0.  1.
</event>
<event>
 7    1  0.5667373E-006  0.2874716E+02  0.7818608E-02  0.1674043E+00
          2   -1    0    0  502    0  0.00000000000E+00  0.00000000000E+00  0.58810865093E+03  0.58810865093E+03  0.00000000000E+00 0. -1.
          1   -1    0    0  501    0 -0.00000000000E+00 -0.00000000000E+00 -0.45354932637E+02  0.45354932637E+02  0.00000000000E+00 0. -1.
         25    2    1    2    0    0 -0.93436726874E+00 -0.31881348585E+02  0.16737833243E+03  0.21132041507E+03  0.12499407277E+03 0.  0.
          2    1    1    2  501    0 -0.17669162030E+02  0.98514417163E+01 -0.18380471344E+02  0.27332982230E+02  0.00000000000E+00 0. -1.
          1    1    1    2  502    0  0.18603529299E+02  0.22029906869E+02  0.39375585720E+03  0.39481018627E+03  0.00000000000E+00 0. -1.
         22    1    3    3    0    0  0.43219028629E+01 -0.58738968457E+02  0.17354505010E+03  0.18326709926E+03  0.00000000000E+00 0. -1.
         22    1    3    3    0    0 -0.52562701316E+01  0.26857619871E+02 -0.61667176641E+01  0.28053315804E+02  0.00000000000E+00 0. -1.
</event>
<event>
 7    1  0.5667373E-006  0.3216093E+02  0.7818608E-02  0.1637746E+00
          2   -1    0    0  502    0  0.00000000000E+00  0.00000000000E+00  0.14839569719E+03  0.14839569719E+03  0.00000000000E+00 0. -1.
          1   -1    0    0  501    0 -0.00000000000E+00 -0.00000000000E+00 -0.62235566276E+03  0.62235566276E+03  0.00000000000E+00 0. -1.
         25    2    1    2    0    0  0.49229731730E+02  0.44998679256E+00  0.85407554845E+02  0.15918502281E+03  0.12498660764E+03 0.  0.
          2    1    1    2  501    0 -0.21195548382E+02 -0.64768980816E+01 -0.57731357212E+03  0.57773883549E+03  0.00000000000E+00 0. -1.
          1    1    1    2  502    0 -0.28034183348E+02  0.60269112890E+01  0.17946051705E+02  0.33827501644E+02  0.00000000000E+00 0. -1.
         22    1    3    3    0    0 -0.31857263721E+02  0.31732445639E+02  0.44006719091E+02  0.62916012931E+02  0.00000000000E+00 0.  1.
         22    1    3    3    0    0  0.81086995451E+02 -0.31282458847E+02  0.41400835754E+02  0.96269009883E+02  0.00000000000E+00 0.  1.
</event>
<event>
 7    1  0.5667373E-006  0.1150316E+03  0.7818608E-02  0.1414547E+00
          2   -1    0    0  502    0  0.00000000000E+00  0.00000000000E+00  0.87740023453E+03  0.87740023453E+03  0.00000000000E+00 0. -1.
          1   -1    0    0  501    0 -0.00000000000E+00 -0.00000000000E+00 -0.15262310177E+03  0.15262310177E+03  0.00000000000E+00 0. -1.
         25    2    1    2    0    0 -0.71595070448E+02  0.11484459244E+03  0.61838343595E+02  0.19433035054E+03  0.12500067951E+03 0.  0.
          2    1    1    2  501    0  0.65065099937E+02 -0.88183871508E+02 -0.51247063837E+02  0.12097984946E+03  0.00000000000E+00 0. -1.
          1    1    1    2  502    0  0.65299705116E+01 -0.26660720930E+02  0.71418585301E+03  0.71471313629E+03  0.00000000000E+00 0. -1.
         22    1    3    3    0    0 -0.95947465534E+02  0.10648093764E+03  0.19327158963E+02  0.14462933761E+03  0.00000000000E+00 0. -1.
         22    1    3    3    0    0  0.24352395085E+02  0.83636548002E+01  0.42511184632E+02  0.49701012936E+02  0.00000000000E+00 0. -1.
</event>
<event>
 7    1  0.5667373E-006  0.9231728E+02  0.7818608E-02  0.1447567E+00
          2   -1    0    0  502    0  0.00000000000E+00  0.00000000000E+00  0.18836150562E+04  0.18836150562E+04  0.00000000000E+00 0. -1.
          1   -1    0    0  501    0 -0.00000000000E+00 -0.00000000000E+00 -0.12646997583E+03  0.12646997583E+03  0.00000000000E+00 0. -1.
         25    2    1    2    0    0 -0.21911656637E+02 -0.11480178366E+03  0.27263031075E+03  0.32186701498E+03  0.12494606342E+03 0.  0.
          2    1    1    2  501    0  0.10453199517E+02  0.24501222823E+02 -0.98780093760E+02  0.10230877882E+03  0.00000000000E+00 0. -1.
          1    1    1    2  502    0  0.11458457120E+02  0.90300560839E+02  0.15832948634E+04  0.15859092382E+04  0.00000000000E+00 0. -1.
         22    1    3    3    0    0 -0.13393383424E+02 -0.14173767180E+03  0.21812646823E+03  0.26047669084E+03  0.00000000000E+00 0. -1.
         22    1    3    3    0    0 -0.85182732130E+01  0.26935888143E+02  0.54503842519E+02  0.61390324140E+02  0.00000000000E+00 0. -1.
</event>
<event>
 7    1  0.5667373E-006  0.1860626E+03  0.7818608E-02  0.1246953E+00
          2   -1    0    0  502    0  0.00000000000E+00  0.00000000000E+00  0.21655492230E+04  0.21655492230E+04  0.00000000000E+00 0. -1.
          1   -1    0    0  501    0 -0.00000000000E+00 -0.00000000000E+00 -0.64057954229E+03  0.64057954229E+03  0.00000000000E+00 0. -1.
         25    2    1    2    0    0 -0.19341258419E+03  0.41479045262E+02  0.26705462531E+03  0.35506691750E+03  0.12500161633E+03 0.  0.
          2    1    1    2  501    0  0.18334079764E+03  0.32281960010E+02 -0.58127908410E+03  0.61036165233E+03  0.00000000000E+00 0. -1.
          1    1    1    2  502    0  0.10071786549E+02 -0.73761005272E+02  0.18391941395E+04  0.18407001954E+04  0.00000000000E+00 0. -1.
         22    1    3    3    0    0 -0.60037173102E+02  0.32954554827E+02  0.15508185511E+02  0.70220856274E+02  0.00000000000E+00 0.  1.
         22    1    3    3    0    0 -0.13337541108E+03  0.85244904341E+01  0.25154643980E+03  0.28484606122E+03  0.00000000000E+00 0.  1.
</event>
<event>
 7    1  0.5667373E-006  0.8325028E+02  0.7818608E-02  0.1361867E+00
          2   -1    0    0  502    0  0.00000000000E+00  0.00000000000E+00  0.14005846037E+04  0.14005846037E+04  0.00000000000E+00 0. -1.
          1   -1    0    0  501    0 -0.00000000000E+00 -0.00000000000E+00 -0.76767179140E+03  0.76767179140E+03  0.00000000000E+00 0. -1.
         25    2    1    2    0    0 -0.87229627356E+02  0.10582280950E+03 -0.29584313488E+02  0.18790258329E+03  0.12499869720E+03 0.  0.
          2    1    1    2  501    0  0.23766876175E+02 -0.52894878228E+02 -0.65635679461E+03  0.65891348019E+03  0.00000000000E+00 0. -1.
          1    1    1    2  502    0  0.63462751181E+02 -0.52927931273E+02  0.13188539204E+04  0.13214403316E+04  0.00000000000E+00 0. -1.
         22    1    3    3    0    0 -0.19052821399E+02  0.10138197845E+03 -0.52620050347E+02  0.11580235427E+03  0.00000000000E+00 0.  1.
         22    1    3    3    0    0 -0.68176805957E+02  0.44408310544E+01  0.23035736859E+02  0.72100229012E+02  0.00000000000E+00 0.  1.
</event>
<event>
 7    1  0.5667373E-006  0.1495770E+03  0.7818608E-02  0.1367587E+00
          2   -1    0    0  502    0  0.00000000000E+00  0.00000000000E+00  0.15065027304E+04  0.15065027304E+04  0.00000000000E+00 0. -1.
          1   -1    0    0  501    0 -0.00000000000E+00 -0.00000000000E+00 -0.18392651008E+03  0.18392651008E+03  0.00000000000E+00 0. -1.
         25    2    1    2    0    0  0.54307099504E+02  0.13913007097E+03 -0.73820384682E+02  0.20828568243E+03  0.12500815415E+03 0.  0.
          2    1    1    2  501    0 -0.25507878366E+02 -0.14996740685E+03  0.92818954032E+02  0.17820278674E+03  0.00000000000E+00 0. -1.
          1    1    1    2  502    0 -0.28799221138E+02  0.10837335877E+02  0.13035776509E+04  0.13039407713E+04  0.00000000000E+00 0. -1.
         22    1    3    3    0    0  0.93401790638E+02  0.78746627539E+02 -0.38101145589E+02  0.12797118089E+03  0.00000000000E+00 0. -1.
         22    1    3    3    0    0 -0.39094691134E+02  0.60383443432E+02 -0.35719239093E+02  0.80314501536E+02  0.00000000000E+00 0. -1.
</event>
<event>
 7    1  0.5667373E-006  0.7244689E+02  0.7818608E-02  0.1411515E+00
          2   -1    0    0  502    0  0.00000000000E+00  0.00000000000E+00  0.32336811866E+04  0.32336811866E+04  0.00000000000E+00 0. -1.
          1   -1    0    0  501    0 -0.00000000000E+00 -0.00000000000E+00 -0.92550651586E+01  0.92550651586E+01  0.00000000000E+00 0. -1.
         25    2    1    2    0    0 -0.66787354427E+02  0.86624992163E+01  0.14333891245E+04  0.14404043419E+04  0.12499878489E+03 0.  0.
          2    1    1    2  501    0  0.54912863556E+02 -0.51675505647E+02  0.25668619112E+03  0.26753239277E+03  0.00000000000E+00 0. -1.
          1    1    1    2  502    0  0.11874490871E+02  0.43013006430E+02  0.15343508058E+04  0.15349995171E+04  0.00000000000E+00 0. -1.
         22    1    3    3    0    0 -0.34678236970E+02 -0.43876949980E+02  0.10971029942E+04  0.10985275358E+04  0.00000000000E+00 0. -1.
         22    1    3    3    0    0 -0.32109117456E+02  0.52539449196E+02  0.33628613031E+03  0.34187680615E+03  0.00000000000E+00 0. -1.
</event>
<event>
 7    1  0.5667373E-006  0.9800656E+02  0.7818608E-02  0.1286330E+00
          2   -1    0    0  502    0  0.00000000000E+00  0.00000000000E+00  0.54340286078E+03  0.54340286078E+03  0.00000000000E+00 0. -1.
          1   -1    0    0  501    0 -0.00000000000E+00 -0.00000000000E+00 -0.35509974899E+03  0.35509974899E+03  0.00000000000E+00 0. -1.
         25    2    1    2    0    0 -0.65338331608E+02  0.46509026369E+02 -0.17480419795E+03  0.22936955583E+03  0.12498679294E+03 0.  0.
          2    1    1    2  501    0  0.81312749865E+02  0.51724168891E+02 -0.13238384986E+03  0.16374564618E+03  0.00000000000E+00 0. -1.
          1    1    1    2  502    0 -0.15974418258E+02 -0.98233195260E+02  0.49549115960E+03  0.50538740777E+03  0.00000000000E+00 0. -1.
         22    1    3    3    0    0  0.21067622970E+02  0.55125496137E+02 -0.92535708051E+02  0.10975209486E+03  0.00000000000E+00 0.  1.
         22    1    3    3    0    0 -0.86405954578E+02 -0.86164697680E+01 -0.82268489901E+02  0.11961746097E+03  0.00000000000E+00 0.  1.
</event>
<event>
 7    1  0.5667373E-006  0.2953521E+02  0.7818608E-02  0.1611465E+00
          2   -1    0    0  502    0  0.00000000000E+00  0.00000000000E+00  0.49942065752E+03  0.49942065752E+03  0.00000000000E+00 0. -1.
          1   -1    0    0  501    0 -0.00000000000E+00 -0.00000000000E+00 -0.40090237447E+03  0.40090237447E+03  0.00000000000E+00 0. -1.
         25    2    1    2    0    0  0.55877310739E+01  0.17851886101E+02 -0.13945403388E+03  0.18820657401E+03  0.12499749742E+03 0.  0.
          2    1    1    2  501    0 -0.30116957651E+02 -0.40823879124E+01 -0.23567900280E+03  0.23763057335E+03  0.00000000000E+00 0. -1.
          1    1    1    2  502    0  0.24529226578E+02 -0.13769498189E+02  0.47365131972E+03  0.47448588463E+03  0.00000000000E+00 0. -1.
         22    1    3    3    0    0 -0.53405275238E+02  0.36294967880E+02 -0.72398826490E+02  0.97010505585E+02  0.00000000000E+00 0. -1.
         22    1    3    3    0    0  0.58993006312E+02 -0.18443081779E+02 -0.67055207386E+02  0.91196068429E+02  0.00000000000E+00 0. -1.
</event>
<event>
 7    1  0.5667373E-006  0.1595487E+03  0.7818608E-02  0.1202116E+00
          2   -1    0    0  502    0  0.00000000000E+00  0.00000000000E+00  0.10611401654E+03  0.10611401654E+03  0.00000000000E+00 0. -1.
          1   -1    0    0  501    0 -0.00000000000E+00 -0.00000000000E+00 -0.93995335649E+03  0.93995335649E+03  0.00000000000E+00 0. -1.
         25    2    1    2    0    0 -0.68737370311E+02  0.23466465110E+02 -0.10345369668E+03  0.17777070999E+03  0.12499702760E+03 0.  0.
          2    1    1    2  501    0  0.12082269150E+03 -0.15183581409E+03 -0.70009743997E+03  0.72649064872E+03  0.00000000000E+00 0. -1.
          1    1    1    2  502    0 -0.52085321186E+02  0.12836934898E+03 -0.30288203296E+02  0.14180601433E+03  0.00000000000E+00 0. -1.
         22    1    3    3    0    0 -0.78326690018E+02  0.38920268616E+02 -0.16589375369E+02  0.89022834450E+02  0.00000000000E+00 0. -1.
         22    1    3    3    0    0  0.95893197072E+01 -0.15453803506E+02 -0.86864321311E+02  0.88747875536E+02  0.00000000000E+00 0. -1.
</event>
<event>
 7    1  0.5667373E-006  0.7952421E+02  0.7818608E-02  0.1350609E+00
          2   -1    0    0  502    0  0.00000000000E+00  0.00000000000E+00  0.15076337296E+04  0.15076337296E+04  0.00000000000E+00 0. -1.
          1   -1    0    0  501    0 -0.00000000000E+00 -0.00000000000E+00 -0.41629731102E+03  0.41629731102E+03  0.00000000000E+00 0. -1.
         25    2    1    2    0    0 -0.57814955495E+02  0.19803924919E+02 -0.14989474521E+03  0.20453153725E+03  0.12501980069E+03 0.  0.
          2    1    1    2  501    0 -0.69572652146E+01 -0.66402079091E+02 -0.23332322305E+03  0.24268779545E+03  0.00000000000E+00 0. -1.
          1    1    1    2  502    0  0.64772220709E+02  0.46598154172E+02  0.14745543869E+04  0.14767117080E+04  0.00000000000E+00 0. -1.
         22    1    3    3    0    0 -0.82094946971E+02 -0.25008722075E+02 -0.75204014539E+02  0.11410810795E+03  0.00000000000E+00 0. -1.
         22    1    3    3    0    0  0.24279991477E+02  0.44812646994E+02 -0.74690730674E+02  0.90423429294E+02  0.00000000000E+00 0. -1.
</event>
<event>
 7    1  0.5667373E-006  0.1057298E+03  0.7818608E-02  0.1270414E+00
          2   -1    0    0  502    0  0.00000000000E+00  0.00000000000E+00  0.93525820037E+03  0.93525820037E+03  0.00000000000E+00 0. -1.
          1   -1    0    0  501    0 -0.00000000000E+00 -0.00000000000E+00 -0.37417337082E+03  0.37417337082E+03  0.00000000000E+00 0. -1.
         25    2    1    2    0    0 -0.36209426123E+02 -0.87603127255E+01  0.12303885794E+03  0.17930778797E+03  0.12499942658E+03 0.  0.
          2    1    1    2  501    0  0.62918153950E+02 -0.91729815069E+02 -0.33352146553E+03  0.35158159940E+03  0.00000000000E+00 0. -1.
          1    1    1    2  502    0 -0.26708727827E+02  0.10049012779E+03  0.77156743714E+03  0.77854218382E+03  0.00000000000E+00 0. -1.
         22    1    3    3    0    0  0.94747489242E+01  0.51120592683E+02  0.31591439225E+02  0.60836706812E+02  0.00000000000E+00 0.  1.
         22    1    3    3    0    0 -0.45684175047E+02 -0.59880905409E+02  0.91447418714E+02  0.11847108116E+03  0.00000000000E+00 0.  1.
</event>
<event>
 7    1  0.5667373E-006  0.5287195E+02  0.7818608E-02  0.1477937E+00
          2   -1    0    0  502    0  0.00000000000E+00  0.00000000000E+00  0.10054895264E+04  0.10054895264E+04  0.00000000000E+00 0. -1.
          1   -1    0    0  501    0 -0.00000000000E+00 -0.00000000000E+00 -0.17114554572E+03  0.17114554572E+03  0.00000000000E+00 0. -1.
         25    2    1    2    0    0  0.17764501605E+02 -0.49243330649E+02  0.29944233212E+03  0.32868089635E+03  0.12499975291E+03 0.  0.
          2    1    1    2  501    0 -0.37324774378E+02 -0.85788227350E+00 -0.15323564532E+03  0.15771822260E+03  0.00000000000E+00 0. -1.
          1    1    1    2  502    0  0.19560272774E+02  0.50101212923E+02  0.68813729388E+03  0.69023595316E+03  0.00000000000E+00 0. -1.
         22    1    3    3    0    0  0.10496884757E+02  0.40309678637E+02  0.13517867574E+03  0.14145080119E+03  0.00000000000E+00 0.  1.
         22    1    3    3    0    0  0.72676168477E+01 -0.89553009286E+02  0.16426365638E+03  0.18723009516E+03  0.00000000000E+00 0.  1.
</event>
<event>
 7    1  0.5667373E-006  0.1518481E+03  0.7818608E-02  0.1339267E+00
          2   -1    0    0  502    0  0.00000000000E+00  0.00000000000E+00  0.20411656554E+04  0.20411656554E+04  0.00000000000E+00 0. -1.
          1   -1    0    0  501    0 -0.00000000000E+00 -0.00000000000E+00 -0.75776070244E+03  0.75776070244E+03  0.00000000000E+00 0. -1.
         25    2    1    2    0    0 -0.10560658121E+03  0.49952803365E+02  0.27240557312E+03  0.32168052010E+03  0.12500211272E+03 0.  0.
          2    1    1    2  501    0  0.14414658939E+03 -0.50702115713E+02 -0.72494479322E+03  0.74087373890E+03  0.00000000000E+00 0. -1.
          1    1    1    2  502    0 -0.38540008178E+02  0.74931234806E+00  0.17359441731E+04  0.17363720989E+04  0.00000000000E+00 0. -1.
         22    1    3    3    0    0  0.80474318955E+01 -0.40270361933E+01 -0.94299028687E+01  0.13034617322E+02  0.00000000000E+00 0. -1.
         22    1    3    3    0    0 -0.11365401311E+03  0.53979839558E+02  0.28183547599E+03  0.30864590278E+03  0.00000000000E+00 0. -1.
</event>
<event>
 7    1  0.5667373E-006  0.3466525E+02  0.7818608E-02  0.1584899E+00
          2   -1    0    0  502    0  0.00000000000E+00  0.00000000000E+00  0.19778223552E+04  0.19778223552E+04  0.00000000000E+00 0. -1.
          1   -1    0    0  501    0 -0.00000000000E+00 -0.00000000000E+00 -0.19286648875E+03  0.19286648875E+03  0.00000000000E+00 0. -1.
         25    2    1    2    0    0  0.21598419055E+02  0.42160771288E+02  0.32179707998E+03  0.34845796624E+03  0.12500228484E+03 0.  0.
          2    1    1    2  501    0  0.92956582469E+01 -0.26551346285E+02 -0.17825048093E+03  0.18045669066E+03  0.00000000000E+00 0. -1.
          1    1    1    2  502    0 -0.30894077302E+02 -0.15609425003E+02  0.16414092674E+04  0.16417741871E+04  0.00000000000E+00 0. -1.
         22    1    3    3    0    0 -0.18575549381E+02 -0.37335073234E+02  0.13890869505E+03  0.14503304551E+03  0.00000000000E+00 0.  1.
         22    1    3    3    0    0  0.40173968435E+02  0.79495844522E+02  0.18288838492E+03  0.20342492073E+03  0.00000000000E+00 0.  1.
</event>
<event>
 7    1  0.5667373E-006  0.1004527E+03  0.7818608E-02  0.1319665E+00
          2   -1    0    0  502    0  0.00000000000E+00  0.00000000000E+00  0.43942505903E+03  0.43942505903E+03  0.00000000000E+00 0. -1.
          1   -1    0    0  501    0 -0.00000000000E+00 -0.00000000000E+00 -0.19942388876E+03  0.19942388876E+03  0.00000000000E+00 0. -1.
         25    2    1    2    0    0  0.51565112560E+02 -0.14276087876E+03  0.67065837523E+02  0.20776023765E+03  0.12500744158E+03 0.  0.
          2    1    1    2  501    0 -0.50661636792E+02  0.47205399653E+02 -0.11137633713E+03  0.13114739674E+03  0.00000000000E+00 0. -1.
          1    1    1    2  502    0 -0.90347576791E+00  0.95555479103E+02  0.28431166988E+03  0.29994131340E+03  0.00000000000E+00 0. -1.
         22    1    3    3    0    0  0.61998348971E+00 -0.40777257366E+02 -0.35758364936E+02  0.54238637157E+02  0.00000000000E+00 0. -1.
         22    1    3    3    0    0  0.50945129070E+02 -0.10198362139E+03  0.10282420246E+03  0.15352160050E+03  0.00000000000E+00 0. -1.
</event>
<event>
 7    1  0.5667373E-006  0.6382724E+02  0.7818608E-02  0.1497471E+00
          2   -1    0    0  502    0  0.00000000000E+00  0.00000000000E+00  0.13570347190E+04  0.13570347190E+04  0.00000000000E+00 0. -1.
          1   -1    0    0  501    0 -0.00000000000E+00 -0.00000000000E+00 -0.25250556435E+03  0.25250556435E+03  0.00000000000E+00 0. -1.
         25    2    1    2    0    0  0.65773481252E+02  0.24450972496E+02  0.31027842136E+03  0.34179170527E+03  0.12499948055E+03 0.  0.
          2    1    1    2  501    0 -0.46678847577E+02 -0.43511651764E+02 -0.23226835121E+03  0.24087500000E+03  0.00000000000E+00 0. -1.
          1    1    1    2  502    0 -0.19094633676E+02  0.19060679268E+02  0.10265190845E+04  0.10268735781E+04  0.00000000000E+00 0. -1.
         22    1    3    3    0    0  0.35088631673E+02  0.22939153339E+02  0.14404826001E+02  0.44327371236E+02  0.00000000000E+00 0. -1.
         22    1    3    3    0    0  0.30684849580E+02  0.15118191569E+01  0.29587359536E+03  0.29746433404E+03  0.00000000000E+00 0. -1.
</event>
<event>
 7    1  0.5667373E-006  0.3329907E+02  0.7818608E-02  0.1626521E+00
          2   -1    0    0  502    0  0.00000000000E+00  0.00000000000E+00  0.17283500408E+03  0.17283500408E+03  0.00000000000E+00 0. -1.
          1   -1    0    0  501    0 -0.00000000000E+00 -0.00000000000E+00 -0.19547066159E+03  0.19547066159E+03  0.00000000000E+00 0. -1.
         25    2    1    2    0    0 -0.81954066811E+01 -0.29516177835E+02  0.16530557537E+00  0.12871555217E+03  0.12501718522E+03 0.  0.
          2    1    1    2  501    0 -0.14630513868E+02  0.30291560848E+02 -0.12779106464E+03  0.13214456779E+03  0.00000000000E+00 0. -1.
          1    1    1    2  502    0  0.22825920550E+02 -0.77538301267E+00  0.10499010156E+03  0.10744554571E+03  0.00000000000E+00 0. -1.
         22    1    3    3    0    0 -0.32395896206E+02 -0.34314938287E+02  0.52660581095E+02  0.70711709652E+02  0.00000000000E+00 0. -1.
         22    1    3    3    0    0  0.24200489525E+02  0.47987604526E+01 -0.52495275520E+02  0.58003842519E+02  0.00000000000E+00 0. -1.
</event>
<event>
 7    1  0.5667373E-006  0.7251502E+02  0.7818608E-02  0.1453634E+00
          2   -1    0    0  502    0  0.00000000000E+00  0.00000000000E+00  0.65124876800E+03  0.65124876800E+03  0.00000000000E+00 0. -1.
          1   -1    0    0  501    0 -0.00000000000E+00 -0.00000000000E+00 -0.45753414629E+02  0.45753414629E+02  0.00000000000E+00 0. -1.
         25    2    1    2    0    0 -0.56745184574E+02 -0.20332573471E+02  0.10910695038E+03  0.17653146425E+03  0.12500240691E+03 0.  0.
          2    1    1    2  501    0  0.87714419282E+02  0.10705568125E+02  0.16216778163E+03  0.18468031280E+03  0.00000000000E+00 0. -1.
          1    1    1    2  502    0 -0.30969234708E+02  0.96270053460E+01  0.33422062137E+03  0.33579040558E+03  0.00000000000E+00 0. -1.
         22    1    3    3    0    0 -0.12687850555E+02  0.51515516285E+02  0.54769628781E+02  0.76253145553E+02  0.00000000000E+00 0.  1.
         22    1    3    3    0    0 -0.44057334019E+02 -0.71848089756E+02  0.54337321594E+02  0.10027831870E+03  0.00000000000E+00 0.  1.
</event>
<event>
 7    1  0.5667373E-006  0.2428320E+02  0.7818608E-02  0.1701391E+00
          2   -1    0    0  502    0  0.00000000000E+00  0.00000000000E+00  0.22414093302E+04  0.22414093302E+04  0.00000000000E+00 0. -1.
          1   -1    0    0  501    0 -0.00000000000E+00 -0.00000000000E+00 -0.14295206536E+02  0.14295206536E+02  0.00000000000E+00 0. -1.
         25    2    1    2    0    0  0.14677033344E+02  0.38396296131E+02  0.46367858796E+03  0.48199027304E+03  0.12500839773E+03 0.  0.
          2    1    1    2  501    0 -0.14975366854E+02 -0.14242321882E+02  0.16063332806E+02  0.26175102785E+02  0.00000000000E+00 0. -1.
          1    1    1    2  502    0  0.29833350988E+00 -0.24153974250E+02  0.17473722028E+04  0.17475391609E+04  0.00000000000E+00 0. -1.
         22    1    3    3    0    0 -0.37285949357E+02 -0.19105473176E+02  0.77380728864E+02  0.87994535764E+02  0.00000000000E+00 0.  1.
         22    1    3    3    0    0  0.51962982702E+02  0.57501769307E+02  0.38629785910E+03  0.39399573727E+03  0.00000000000E+00 0.  1.
</event>
<event>
 7    1  0.5667373E-006  0.6222899E+02  0.7818608E-02  0.1426995E+00
          2   -1    0    0  502    0  0.00000000000E+00  0.00000000000E+00  0.20263517378E+03  0.20263517378E+03  0.00000000000E+00 0. -1.
          1   -1    0    0  501    0 -0.00000000000E+00 -0.00000000000E+00 -0.14061375478E+04  0.14061375478E+04  0.00000000000E+00 0. -1.
         25    2    1    2    0    0 -0.97415941754E+02  0.79545294065E+01 -0.31042860909E+03  0.34863113265E+03  0.12499842027E+03 0.  0.
          2    1    1    2  501    0  0.58522167897E+02  0.16816865758E+02 -0.10728343023E+04  0.10745608830E+04  0.00000000000E+00 0. -1.
          1    1    1    2  502    0  0.38893773857E+02 -0.24771395164E+02  0.17976053729E+03  0.18558070598E+03  0.00000000000E+00 0. -1.
         22    1    3    3    0    0 -0.57848625302E+02 -0.35109425022E+02 -0.56801487988E+02  0.88348991009E+02  0.00000000000E+00 0.  1.
         22    1    3    3    0    0 -0.39567316452E+02  0.43063954428E+02 -0.25362712110E+03  0.26028214165E+03  0.00000000000E+00 0.  1.
</event>
<event>
 7    1  0.5667373E-006  0.6828982E+02  0.7818608E-02  0.1454180E+00
          2   -1    0    0  502    0  0.00000000000E+00  0.00000000000E+00  0.93271446968E+03  0.93271446968E+03  0.00000000000E+00 0. -1.
          1   -1    0    0  501    0 -0.00000000000E+00 -0.00000000000E+00 -0.94204898518E+03  0.94204898518E+03  0.00000000000E+00 0. -1.
         25    2    1    2    0    0 -0.89884863061E+02 -0.13205746379E+02  0.28926865612E+03  0.32795587633E+03  0.12500008425E+03 0.  0.
          2    1    1    2  501    0  0.24232681240E+02  0.24274804371E+02 -0.92060944642E+03  0.92124819772E+03  0.00000000000E+00 0. -1.
          1    1    1    2  502    0  0.65652181822E+02 -0.11069057991E+02  0.62200627480E+03  0.62555938080E+03  0.00000000000E+00 0. -1.
         22    1    3    3    0    0 -0.84264373316E+02 -0.57253736876E+02  0.24461724336E+03  0.26498315181E+03  0.00000000000E+00 0. -1.
         22    1    3    3    0    0 -0.56204897453E+01  0.44047990496E+02  0.44651412763E+02  0.62972724520E+02  0.00000000000E+00 0. -1.
</event>
<event>
 7    1  0.5667373E-006  0.1040064E+03  0.7818608E-02  0.1453340E+00
          2   -1    0    0  502    0  0.00000000000E+00  0.00000000000E+00  0.25765597415E+03  0.25765597415E+03  0.00000000000E+00 0. -1.
          1   -1    0    0  501    0 -0.00000000000E+00 -0.00000000000E+00 -0.17762777998E+03  0.17762777998E+03  0.00000000000E+00 0. -1.
         25    2    1    2    0    0  0.69285975825E+02 -0.57117768855E+02  0.75359250586E+02  0.17138349758E+03  0.12502120072E+03 0.  0.
          2    1    1    2  501    0  0.10319263075E+02 -0.20174125751E+02 -0.10528288752E+03  0.10769386680E+03  0.00000000000E+00 0. -1.
          1    1    1    2  502    0 -0.79605238900E+02  0.77291894606E+02  0.10995183111E+03  0.15620638974E+03  0.00000000000E+00 0. -1.
         22    1    3    3    0    0  0.68458149386E+02 -0.26581485368E+02  0.10545160099E+03  0.12850343860E+03  0.00000000000E+00 0. -1.
         22    1    3    3    0    0  0.82782643893E+00 -0.30536283487E+02 -0.30092350399E+02  0.42880058983E+02  0.00000000000E+00 0. -1.
</event>
<event>
 7    1  0.5667373E-006  0.5665371E+02  0.7818608E-02  0.1440032E+00
          2   -1    0    0  502    0  0.00000000000E+00  0.00000000000E+00  0.39544407180E+03  0.39544407180E+03  0.00000000000E+00 0. -1.
          1   -1    0    0  501    0 -0.00000000000E+00 -0.00000000000E+00 -0.93560908781E+02  0.93560908781E+02  0.00000000000E+00 0. -1.
         25    2    1    2    0    0 -0.11464356502E+02  0.82817866293E+01  0.15414025104E+03  0.19895826268E+03  0.12500061535E+03 0.  0.
          2    1    1    2  501    0  0.53507161841E+02 -0.26716429307E+02 -0.55556242657E+02  0.81628916821E+02  0.00000000000E+00 0. -1.
          1    1    1    2  502    0 -0.42042805340E+02  0.18434642677E+02  0.20329915463E+03  0.20841780108E+03  0.00000000000E+00 0. -1.
         22    1    3    3    0    0  0.36772222305E+02 -0.41041915962E+02  0.52467127624E+02  0.76088334719E+02  0.00000000000E+00 0. -1.
         22    1    3    3    0    0 -0.48236578807E+02  0.49323702592E+02  0.10167312341E+03  0.12286992796E+03  0.00000000000E+00 0. -1.
</event>
<event>
 7    1  0.5667373E-006  0.1826227E+03  0.7818608E-02  0.1227562E+00
          2   -1    0    0  502    0  0.00000000000E+00  0.00000000000E+00  0.15592876563E+04  0.15592876563E+04  0.00000000000E+00 0. -1.
          1   -1    0    0  501    0 -0.00000000000E+00 -0.00000000000E+00 -0.16617624144E+04  0.16617624144E+04  0.00000000000E+00 0. -1.
         25    2    1    2    0    0  0.25103991410E+03 -0.97286054041E+02  0.99005397111E+02  0.31292970148E+03  0.12504924881E+03 0.  0.
          2    1    1    2  501    0 -0.15950176506E+03  0.84417634792E+02 -0.15479737394E+04  0.15584575220E+04  0.00000000000E+00 0. -1.
          1    1    1    2  502    0 -0.91538149041E+02  0.12868419249E+02  0.13464935841E+04  0.13496628472E+04  0.00000000000E+00 0. -1.
         22    1    3    3    0    0  0.12660922969E+01 -0.96664217393E+01  0.40748239037E+02  0.41898230077E+02  0.00000000000E+00 0. -1.
         22    1    3    3    0    0  0.24977382181E+03 -0.87619632302E+02  0.58257158074E+02  0.27103147140E+03  0.00000000000E+00 0. -1.
</event>
<event>
 7    1  0.5667373E-006  0.4586118E+02  0.7818608E-02  0.1532331E+00
          2   -1    0    0  502    0  0.00000000000E+00  0.00000000000E+00  0.18847006314E+04  0.18847006314E+04  0.00000000000E+00 0. -1.
          1   -1    0    0  501    0 -0.00000000000E+00 -0.00000000000E+00 -0.21000122252E+02  0.21000122252E+02  0.00000000000E+00 0. -1.
         25    2    1    2    0    0  0.24753373504E+02 -0.47822293212E+02  0.24092022699E+03  0.27670732196E+03  0.12499874010E+03 0.  0.
          2    1    1    2  501    0  0.15296834393E+02  0.25449623097E+02  0.76913892129E+02  0.82446487255E+02  0.00000000000E+00 0. -1.
          1    1    1    2  502    0 -0.40050207898E+02  0.22372670115E+02  0.15458663901E+04  0.15465469445E+04  0.00000000000E+00 0. -1.
         22    1    3    3    0    0  0.17552746991E+02 -0.65992025366E+01 -0.10727493477E+02  0.21603877368E+02  0.00000000000E+00 0.  1.
         22    1    3    3    0    0  0.72006265137E+01 -0.41223090676E+02  0.25164772046E+03  0.25510344459E+03  0.00000000000E+00 0.  1.
</event>
<event>
 7    1  0.5667373E-006  0.1676216E+03  0.7818608E-02  0.1245509E+00
          2   -1    0    0  502    0  0.00000000000E+00  0.00000000000E+00  0.19789052602E+03  0.19789052602E+03  0.00000000000E+00 0. -1.
          1   -1    0    0  501    0 -0.00000000000E+00 -0.00000000000E+00 -0.25339234805E+04  0.25339234805E+04  0.00000000000E+00 0. -1.
         25    2    1    2    0    0 -0.24060508429E+03 -0.56225303356E+02 -0.69905689571E+03  0.75190276328E+03  0.12500052265E+03 0.  0.
          2    1    1    2  501    0  0.80845585315E+02  0.22220487738E+02 -0.17683250771E+04  0.17703116497E+04  0.00000000000E+00 0. -1.
          1    1    1    2  502    0  0.15975949898E+03  0.34004815618E+02  0.13134901833E+03  0.20959959355E+03  0.00000000000E+00 0. -1.
         22    1    3    3    0    0 -0.86323670663E+02 -0.79078564941E+02 -0.23908524223E+03  0.26620846831E+03  0.00000000000E+00 0. -1.
         22    1    3    3    0    0 -0.15428141363E+03  0.22853261586E+02 -0.45997165349E+03  0.48569429497E+03  0.00000000000E+00 0. -1.
</event>
<event>
 7    1  0.5667373E-006  0.8141222E+02  0.7818608E-02  0.1380697E+00
          2   -1    0    0  502    0  0.00000000000E+00  0.00000000000E+00  0.18543278885E+04  0.18543278885E+04  0.00000000000E+00 0. -1.
          1   -1    0    0  501    0 -0.00000000000E+00 -0.00000000000E+00 -0.47271697165E+03  0.47271697165E+03  0.00000000000E+00 0. -1.
         25    2    1    2    0    0 -0.92049743277E+02  0.29365847111E+02 -0.34132239252E+03  0.37611231075E+03  0.12499594571E+03 0.  0.
          2    1    1    2  501    0  0.73642814124E+02  0.17933446537E+02 -0.10100902069E+03  0.12628418285E+03  0.00000000000E+00 0. -1.
          1    1    1    2  502    0  0.18406929153E+02 -0.47299293648E+02  0.18239423301E+04  0.18246483666E+04  0.00000000000E+00 0. -1.
         22    1    3    3    0    0 -0.11681773875E+03  0.58646290324E+01 -0.30296953610E+03  0.32476347973E+03  0.00000000000E+00 0.  1.
         22    1    3    3    0    0  0.24767995476E+02  0.23501218079E+02 -0.38352856421E+02  0.51348831016E+02  0.00000000000E+00 0.  1.
</event>
<event>
 7    1  0.9789924E-006  0.4862830E+02  0.7818608E-02  0.1492645E+00
          2   -1    0    0  502    0  0.00000000000E+00  0.00000000000E+00  0.18296345155E+04  0.18296345155E+04  0.00000000000E+00 0. -1.
          1   -1    0    0  501    0 -0.00000000000E+00 -0.00000000000E+00 -0.88682534053E+03  0.88682534053E+03  0.00000000000E+00 0. -1.
         25    2    1    2    0    0  0.32829069882E+02  0.33570221037E+02 -0.22009893091E+03  0.25743163008E+03  0.12499118852E+03 0.  0.
          2    1    1    2  501    0 -0.49358552580E+02 -0.89876698254E+00 -0.64693447962E+03  0.64881530146E+03  0.00000000000E+00 0. -1.
          1    1    1    2  502    0  0.16529482698E+02 -0.32671454054E+02  0.18098425855E+04  0.18102129245E+04  0.00000000000E+00 0. -1.
         22    1    3    3    0    0 -0.10582805005E+02  0.73421521373E+02 -0.11257186491E+03  0.13481520809E+03  0.00000000000E+00 0. -1.
         22    1    3    3    0    0  0.43411874886E+02 -0.39851300336E+02 -0.10752706600E+03  0.12261642199E+03  0.00000000000E+00 0. -1.
</event>
<event>
 7    1  0.5667373E-006  0.9653296E+02  0.7818608E-02  0.1347193E+00
          2   -1    0    0  502    0  0.00000000000E+00  0.00000000000E+00  0.19332928987E+03  0.19332928987E+03  0.00000000000E+00 0. -1.
          1   -1    0    0  501    0 -0.00000000000E+00 -0.00000000000E+00 -0.17416292447E+04  0.17416292447E+04  0.00000000000E+00 0. -1.
         25    2    1    2    0    0  0.68993349379E+02  0.13194002063E+03 -0.42901254963E+03  0.47100560814E+03  0.12500505534E+03 0.  0.
          2    1    1    2  501    0 -0.39974471345E+02 -0.83308873309E+02 -0.12852638219E+04  0.12885811650E+04  0.00000000000E+00 0. -1.
          1    1    1    2  502    0 -0.29018878034E+02 -0.48631147320E+02  0.16597641678E+03  0.17537176141E+03  0.00000000000E+00 0. -1.
         22    1    3    3    0    0 -0.32602921274E+02  0.61768290047E+02 -0.17959338399E+03  0.19269679733E+03  0.00000000000E+00 0. -1.
         22    1    3    3    0    0  0.10159627065E+03  0.70171730582E+02 -0.24941916564E+03  0.27830881081E+03  0.00000000000E+00 0. -1.
</event>
<event>
 7    1  0.5667373E-006  0.2193093E+03  0.7818608E-02  0.1271259E+00
          2   -1    0    0  502    0  0.00000000000E+00  0.00000000000E+00  0.87174834856E+02  0.87174834856E+02  0.00000000000E+00 0. -1.
          1   -1    0    0  501    0 -0.00000000000E+00 -0.00000000000E+00 -0.34628058111E+04  0.34628058111E+04  0.00000000000E+00 0. -1.
         25    2    1    2    0    0  0.17180369006E+03  0.45456894431E+02 -0.49991648321E+03  0.54509004781E+03  0.12499533138E+03 0.  0.
          2    1    1    2  501    0 -0.21985188972E+03 -0.58246693202E+02 -0.29256179822E+04  0.29344451109E+04  0.00000000000E+00 0. -1.
          1    1    1    2  502    0  0.48048199656E+02  0.12789798771E+02  0.49903489207E+02  0.70445487278E+02  0.00000000000E+00 0. -1.
         22    1    3    3    0    0  0.24471572095E+02 -0.39989367801E+02 -0.10225788793E+03  0.11249303544E+03  0.00000000000E+00 0. -1.
         22    1    3    3    0    0  0.14733211797E+03  0.85446262232E+02 -0.39765859528E+03  0.43259701237E+03  0.00000000000E+00 0. -1.
</event>
<event>
 7    1  0.5667373E-006  0.6805672E+02  0.7818608E-02  0.1379283E+00
          2   -1    0    0  502    0  0.00000000000E+00  0.00000000000E+00  0.69306924940E+03  0.69306924940E+03  0.00000000000E+00 0. -1.
          1   -1    0    0  501    0 -0.00000000000E+00 -0.00000000000E+00 -0.14318133137E+04  0.14318133137E+04  0.00000000000E+00 0. -1.
         25    2    1    2    0    0  0.58899323803E+02  0.11415139749E+03 -0.97526462671E+02  0.20404852442E+03  0.12499887001E+03 0.  0.
          2    1    1    2  501    0 -0.32095724161E+02 -0.52365474787E+02 -0.12785141913E+04  0.12799885998E+04  0.00000000000E+00 0. -1.
          1    1    1    2  502    0 -0.26803599641E+02 -0.61785922700E+02  0.63729658968E+03  0.64084543879E+03  0.00000000000E+00 0. -1.
         22    1    3    3    0    0 -0.76495786592E+01  0.61482199658E+02  0.14376674593E+02  0.63602403262E+02  0.00000000000E+00 0. -1.
         22    1    3    3    0    0  0.66548902462E+02  0.52669197830E+02 -0.11190313726E+03  0.14044612116E+03  0.00000000000E+00 0. -1.
</event>
<event>
 7    1  0.5667373E-006  0.6622590E+02  0.7818608E-02  0.1449333E+00
          2   -1    0    0  502    0  0.00000000000E+00  0.00000000000E+00  0.15581261534E+04  0.15581261534E+04  0.00000000000E+00 0. -1.
          1   -1    0    0  501    0 -0.00000000000E+00 -0.00000000000E+00 -0.17214652047E+03  0.17214652047E+03  0.00000000000E+00 0. -1.
         25    2    1    2    0    0 -0.76986571953E+02 -0.18736798517E+02  0.42594173718E+02  0.15400214429E+03  0.12499758770E+03 0.  0.
          2    1    1    2  501    0  0.27075189306E+02 -0.24703741143E+02 -0.11278839959E+03  0.11859411361E+03  0.00000000000E+00 0. -1.
          1    1    1    2  502    0  0.49911382647E+02  0.43440539660E+02  0.14561738588E+04  0.14576764160E+04  0.00000000000E+00 0. -1.
         22    1    3    3    0    0 -0.35806638426E+02  0.53771559201E+02  0.19272711667E+02  0.67416120841E+02  0.00000000000E+00 0. -1.
         22    1    3    3    0    0 -0.41179933527E+02 -0.72508357718E+02  0.23321462052E+02  0.86586023447E+02  0.00000000000E+00 0. -1.
</event>
<event>
 7    1  0.5667373E-006  0.2624203E+03  0.7818608E-02  0.1277439E+00
          2   -1    0    0  502    0  0.00000000000E+00  0.00000000000E+00  0.43912577366E+03  0.43912577366E+03  0.00000000000E+00 0. -1.
          1   -1    0    0  501    0 -0.00000000000E+00 -0.00000000000E+00 -0.48194922175E+03  0.48194922175E+03  0.00000000000E+00 0. -1.
         25    2    1    2    0    0  0.91336102173E+02  0.25861662056E+03  0.12580171399E+03  0.32661343809E+03  0.12500170682E+03 0.  0.
          2    1    1    2  501    0 -0.37870263714E+02 -0.99632216030E+01 -0.30388320179E+03  0.30639585994E+03  0.00000000000E+00 0. -1.
          1    1    1    2  502    0 -0.53465838459E+02 -0.24865339896E+03  0.13525803972E+03  0.28806569738E+03  0.00000000000E+00 0. -1.
         22    1    3    3    0    0  0.10115429071E+03  0.24222845428E+03  0.14469988393E+03  0.29974134016E+03  0.00000000000E+00 0. -1.
         22    1    3    3    0    0 -0.98181885357E+01  0.16388166288E+02 -0.18898169940E+02  0.26872097936E+02  0.00000000000E+00 0. -1.
</event>
<event>
 7    1  0.5667373E-006  0.2199477E+03  0.7818608E-02  0.1172323E+00
          2   -1    0    0  502    0  0.00000000000E+00  0.00000000000E+00  0.56684884426E+02  0.56684884426E+02  0.00000000000E+00 0. -1.
          1   -1    0    0  501    0 -0.00000000000E+00 -0.00000000000E+00 -0.35097455075E+04  0.35097455075E+04  0.00000000000E+00 0. -1.
         25    2    1    2    0    0  0.36809130502E+02  0.17104403671E+03 -0.12099909827E+04  0.12289485758E+04  0.12500179664E+03 0.  0.
          2    1    1    2  501    0 -0.17101855498E+03 -0.21049423873E+03 -0.21553926213E+04  0.21723886675E+04  0.00000000000E+00 0. -1.
          1    1    1    2  502    0  0.13420942448E+03  0.39450202020E+02 -0.87677019104E+02  0.16509314867E+03  0.00000000000E+00 0. -1.
         22    1    3    3    0    0 -0.45049023513E+02  0.41996219664E+02 -0.30688849091E+03  0.31300741658E+03  0.00000000000E+00 0. -1.
         22    1    3    3    0    0  0.81858154015E+02  0.12904781704E+03 -0.90310249179E+03  0.91594115921E+03  0.00000000000E+00 0. -1.
</event>
<event>
 7    1  0.5667373E-006  0.2946718E+02  0.7818608E-02  0.1606639E+00
          2   -1    0    0  502    0  0.00000000000E+00  0.00000000000E+00  0.19598755915E+02  0.19598755915E+02  0.00000000000E+00 0. -1.
          1   -1    0    0  501    0 -0.00000000000E+00 -0.00000000000E+00 -0.12423778918E+04  0.12423778918E+04  0.00000000000E+00 0. -1.
         25    2    1    2    0    0 -0.31700673187E+01 -0.11712367747E+02 -0.79713975607E+03  0.80697123633E+03  0.12499422653E+03 0.  0.
          2    1    1    2  501    0  0.31752049445E+02  0.67154505840E+01 -0.42473778839E+03  0.42597591341E+03  0.00000000000E+00 0. -1.
          1    1    1    2  502    0 -0.28581982126E+02  0.49969171627E+01 -0.90159138436E+00  0.29029497936E+02  0.00000000000E+00 0. -1.
         22    1    3    3    0    0 -0.38301989282E+02 -0.45051530915E+02 -0.63513148213E+03  0.63787826614E+03  0.00000000000E+00 0.  1.
         22    1    3    3    0    0  0.35131921964E+02  0.33339163168E+02 -0.16200827394E+03  0.16909297019E+03  0.00000000000E+00 0.  1.
</event>
<event>
 7    1  0.5667373E-006  0.3472095E+02  0.7818608E-02  0.1596818E+00
          2   -1    0    0  502    0  0.00000000000E+00  0.00000000000E+00  0.15171077458E+04  0.15171077458E+04  0.00000000000E+00 0. -1.
          1   -1    0    0  501    0 -0.00000000000E+00 -0.00000000000E+00 -0.59662365761E+03  0.59662365761E+03  0.00000000000E+00 0. -1.
         25    2    1    2    0    0  0.19470595052E+02  0.40182628803E+02  0.82387065844E+03  0.83449363526E+03  0.12499207067E+03 0.  0.
          2    1    1    2  501    0 -0.25384395689E+02 -0.61573448980E+01 -0.59058987699E+03  0.59116722105E+03  0.00000000000E+00 0. -1.
          1    1    1    2  502    0  0.59138006376E+01 -0.34025283905E+02  0.68720330674E+03  0.68807054709E+03  0.00000000000E+00 0. -1.
         22    1    3    3    0    0 -0.13069668179E+02  0.18283523746E+02  0.75424766412E+03  0.75458242910E+03  0.00000000000E+00 0.  1.
         22    1    3    3    0    0  0.32540263231E+02  0.21899105057E+02  0.69622994315E+02  0.79911206166E+02  0.00000000000E+00 0.  1.
</event>
<event>
 7    1  0.5667373E-006  0.1399408E+03  0.7818608E-02  0.1363391E+00
          2   -1    0    0  502    0  0.00000000000E+00  0.00000000000E+00  0.46203691578E+03  0.46203691578E+03  0.00000000000E+00 0. -1.
          1   -1    0    0  501    0 -0.00000000000E+00 -0.00000000000E+00 -0.60234202882E+03  0.60234202882E+03  0.00000000000E+00 0. -1.
         25    2    1    2    0    0  0.58904651022E+02 -0.93798280744E+02 -0.43111351531E+02  0.17248677270E+03  0.12500089096E+03 0.  0.
          2    1    1    2  501    0 -0.74518156688E+02  0.12406916317E+03 -0.48318834569E+03  0.50439775013E+03  0.00000000000E+00 0. -1.
          1    1    1    2  502    0  0.15613505666E+02 -0.30270882430E+02  0.38599458418E+03  0.38749442177E+03  0.00000000000E+00 0. -1.
         22    1    3    3    0    0  0.70864842075E+02 -0.37023821575E+02 -0.72069528705E+02  0.10764109891E+03  0.00000000000E+00 0. -1.
         22    1    3    3    0    0 -0.11960191053E+02 -0.56774459169E+02  0.28958177174E+02  0.64845673789E+02  0.00000000000E+00 0. -1.
</event>
<event>
 7    1  0.5667373E-006  0.6424114E+02  0.7818608E-02  0.1429688E+00
          2   -1    0    0  502    0  0.00000000000E+00  0.00000000000E+00  0.44846106213E+03  0.44846106213E+03  0.00000000000E+00 0. -1.
          1   -1    0    0  501    0 -0.00000000000E+00 -0.00000000000E+00 -0.18811458208E+03  0.18811458208E+03  0.00000000000E+00 0. -1.
         25    2    1    2    0    0 -0.35980097442E+02 -0.92312852412E+02  0.12947795795E+03  0.20544054737E+03  0.12500018711E+03 0.  0.
          2    1    1    2  501    0  0.39978123856E+02  0.48732646118E+02 -0.14169397289E+03  0.15508160154E+03  0.00000000000E+00 0. -1.
          1    1    1    2  502    0 -0.39980264146E+01  0.43580206295E+02  0.27256249498E+03  0.27605349530E+03  0.00000000000E+00 0. -1.
         22    1    3    3    0    0  0.19030435278E+02 -0.85607912620E+02  0.32081017607E+02  0.93381282175E+02  0.00000000000E+00 0. -1.
         22    1    3    3    0    0 -0.55010532720E+02 -0.67049397923E+01  0.97396940346E+02  0.11205926520E+03  0.00000000000E+00 0. -1.
</event>
<event>
 7    1  0.5667373E-006  0.5118914E+02  0.7818608E-02  0.1446693E+00
          2   -1    0    0  502    0  0.00000000000E+00  0.00000000000E+00  0.15489747664E+04  0.15489747664E+04  0.00000000000E+00 0. -1.
          1   -1    0    0  501    0 -0.00000000000E+00 -0.00000000000E+00 -0.15180794619E+04  0.15180794619E+04  0.00000000000E+00 0. -1.
         25    2    1    2    0    0 -0.52346636181E+02  0.65726749609E+02  0.50547148568E+03  0.52743437201E+03  0.12500167203E+03 0.  0.
          2    1    1    2  501    0  0.63648926633E+01 -0.50774459050E+02 -0.15060971828E+04  0.15069662510E+04  0.00000000000E+00 0. -1.
          1    1    1    2  502    0  0.45981743518E+02 -0.14952290559E+02  0.10315210016E+04  0.10326536053E+04  0.00000000000E+00 0. -1.
         22    1    3    3    0    0 -0.86881288525E+02  0.71569830657E+02  0.33512165837E+03  0.35352103879E+03  0.00000000000E+00 0.  1.
         22    1    3    3    0    0  0.34534652344E+02 -0.58430810481E+01  0.17034982731E+03  0.17391333323E+03  0.00000000000E+00 0.  1.
</event>
<event>
 7    1  0.5667373E-006  0.1088195E+03  0.7818608E-02  0.1385670E+00
          2   -1    0    0  502    0  0.00000000000E+00  0.00000000000E+00  0.21933278243E+04  0.21933278243E+04  0.00000000000E+00 0. -1.
          1   -1    0    0  501    0 -0.00000000000E+00 -0.00000000000E+00 -0.20325664000E+03  0.20325664000E+03  0.00000000000E+00 0. -1.
         25    2    1    2    0    0 -0.12128241097E+03 -0.39089394157E+01  0.45440679178E+02  0.18004232607E+03  0.12500272331E+03 0.  0.
          2    1    1    2  501    0  0.10357481868E+03 -0.27972890430E+02 -0.11460381586E+03  0.15698490461E+03  0.00000000000E+00 0. -1.
          1    1    1    2  502    0  0.17707592283E+02  0.31881829846E+02  0.20592343209E+04  0.20595572336E+04  0.00000000000E+00 0. -1.
         22    1    3    3    0    0 -0.10131160258E+03  0.48810324183E+02  0.50829183208E+02  0.12341026874E+03  0.00000000000E+00 0. -1.
         22    1    3    3    0    0 -0.19970808385E+02 -0.52719263599E+02 -0.53885040299E+01  0.56632057332E+02  0.00000000000E+00 0. -1.
</event>
<event>
 7    1  0.5667373E-006  0.5406193E+02  0.7818608E-02  0.1455096E+00
          2   -1    0    0  502    0  0.00000000000E+00  0.00000000000E+00  0.49502166951E+03  0.49502166951E+03  0.00000000000E+00 0. -1.
          1   -1    0    0  501    0 -0.00000000000E+00 -0.00000000000E+00 -0.52682903147E+03  0.52682903147E+03  0.00000000000E+00 0. -1.
         25    2    1    2    0    0  0.26492544560E+01 -0.53518638079E+02 -0.19439073564E+03  0.23724146508E+03  0.12499796591E+03 0.  0.
          2    1    1    2  501    0  0.38404884610E+02  0.40603545035E+02 -0.30751117440E+03  0.31254872486E+03  0.00000000000E+00 0. -1.
          1    1    1    2  502    0 -0.41054139066E+02  0.12915093044E+02  0.47009454807E+03  0.47206051105E+03  0.00000000000E+00 0. -1.
         22    1    3    3    0    0 -0.55468862218E+02 -0.32192076814E+02 -0.54121101210E+02  0.83917924674E+02  0.00000000000E+00 0.  1.
         22    1    3    3    0    0  0.58118116674E+02 -0.21326561265E+02 -0.14026963443E+03  0.15332354041E+03  0.00000000000E+00 0.  1.
</event>
<event>
 7    1  0.5667373E-006  0.1087276E+03  0.7818608E-02  0.1387752E+00
          2   -1    0    0  502    0  0.00000000000E+00  0.00000000000E+00  0.14593768765E+04  0.14593768765E+04  0.00000000000E+00 0. -1.
          1   -1    0    0  501    0 -0.00000000000E+00 -0.00000000000E+00 -0.18793505301E+03  0.18793505301E+03  0.00000000000E+00 0. -1.
         25    2    1    2    0    0 -0.94497697022E+02  0.10789537226E+03  0.44166263378E+02  0.19531285898E+03  0.12500091186E+03 0.  0.
          2    1    1    2  501    0  0.26002104170E+02 -0.24740745529E+02 -0.10726838945E+03  0.11311375374E+03  0.00000000000E+00 0. -1.
          1    1    1    2  502    0  0.68495592852E+02 -0.83154626733E+02  0.13345439496E+04  0.13388853168E+04  0.00000000000E+00 0. -1.
         22    1    3    3    0    0  0.22177850642E+01  0.43782887829E+01 -0.33428556259E+02  0.33786925827E+02  0.00000000000E+00 0.  1.
         22    1    3    3    0    0 -0.96715482086E+02  0.10351708348E+03  0.77594819637E+02  0.16152593315E+03  0.00000000000E+00 0.  1.
</event>
<event>
 7    1  0.5667373E-006  0.1356108E+03  0.7818608E-02  0.1280596E+00
          2   -1    0    0  502    0  0.00000000000E+00  0.00000000000E+00  0.79449769134E+03  0.79449769134E+03  0.00000000000E+00 0. -1.
          1   -1    0    0  501    0 -0.00000000000E+00 -0.00000000000E+00 -0.18853261101E+03  0.18853261101E+03  0.00000000000E+00 0. -1.
         25    2    1    2    0    0 -0.59769587189E+02  0.17183589595E+03  0.14587626485E+02  0.22122645550E+03  0.12501346758E+03 0.  0.
          2    1    1    2  501    0  0.68311914193E+02 -0.98803479520E+02 -0.39659678305E+02  0.12649717495E+03  0.00000000000E+00 0. -1.
          1    1    1    2  502    0 -0.85423270040E+01 -0.73032416433E+02  0.63103713215E+03  0.63530667190E+03  0.00000000000E+00 0. -1.
         22    1    3    3    0    0 -0.85349843159E+02  0.57658120188E+02  0.15842714813E+02  0.10421154525E+03  0.00000000000E+00 0. -1.
         22    1    3    3    0    0  0.25580255970E+02  0.11417777577E+03 -0.12550883284E+01  0.11701491025E+03  0.00000000000E+00 0. -1.
</event>
<event>
 7    1  0.5667373E-006  0.6943141E+02  0.7818608E-02  0.1387529E+00
          2   -1    0    0  502    0  0.00000000000E+00  0.00000000000E+00  0.63575466284E+03  0.63575466284E+03  0.00000000000E+00 0. -1.
          1   -1    0    0  501    0 -0.00000000000E+00 -0.00000000000E+00 -0.14715000882E+03  0.14715000882E+03  0.00000000000E+00 0. -1.
         25    2    1    2    0    0  0.67795792473E+02 -0.10216287839E+03  0.17013438532E+03  0.24413968634E+03  0.12499981672E+03 0.  0.
          2    1    1    2  501    0 -0.32212570498E+02  0.58525080225E+02 -0.97946050665E+02  0.11855911418E+03  0.00000000000E+00 0. -1.
          1    1    1    2  502    0 -0.35583221975E+02  0.43637798168E+02  0.41641631936E+03  0.42020587115E+03  0.00000000000E+00 0. -1.
         22    1    3    3    0    0  0.78724359462E+02 -0.11548183816E+03  0.17705712410E+03  0.22557217229E+03  0.00000000000E+00 0.  1.
         22    1    3    3    0    0 -0.10928566989E+02  0.13318959766E+02 -0.69227387844E+01  0.18567514048E+02  0.00000000000E+00 0.  1.
</event>
<event>
 7    1  0.5667373E-006  0.1317927E+03  0.7818608E-02  0.1335462E+00
          2   -1    0    0  502    0  0.00000000000E+00  0.00000000000E+00  0.61485341222E+03  0.61485341222E+03  0.00000000000E+00 0. -1.
          1   -1    0    0  501    0 -0.00000000000E+00 -0.00000000000E+00 -0.56581603218E+03  0.56581603218E+03  0.00000000000E+00 0. -1.
         25    2    1    2    0    0 -0.16357931432E+02 -0.11312820086E+03 -0.15407066340E+03  0.22897200332E+03  0.12499934894E+03 0.  0.
          2    1    1    2  501    0  0.42647563751E+02 -0.16990990950E+02 -0.36520872194E+03  0.36808276114E+03  0.00000000000E+00 0. -1.
          1    1    1    2  502    0 -0.26289632319E+02  0.13011919181E+03  0.56831676537E+03  0.58361467994E+03  0.00000000000E+00 0. -1.
         22    1    3    3    0    0 -0.97908569407E+01 -0.34844172989E+01  0.20348335504E+02  0.22848562347E+02  0.00000000000E+00 0. -1.
         22    1    3    3    0    0 -0.65670744915E+01 -0.10964378356E+03 -0.17441899890E+03  0.20612344097E+03  0.00000000000E+00 0. -1.
</event>
<event>
 7    1  0.5667373E-006  0.8021474E+02  0.7818608E-02  0.1344242E+00
          2   -1    0    0  502    0  0.00000000000E+00  0.00000000000E+00  0.27963315434E+04  0.27963315434E+04  0.00000000000E+00 0. -1.
          1   -1    0    0  501    0 -0.00000000000E+00 -0.00000000000E+00 -0.11821348582E+04  0.11821348582E+04  0.00000000000E+00 0. -1.
         25    2    1    2    0    0 -0.19907638163E+02 -0.59414042793E+02 -0.88069096988E+03  0.89172208971E+03  0.12500143321E+03 0.  0.
          2    1    1    2  501    0  0.17619827003E+01  0.12691857999E+03 -0.28185729995E+03  0.30911966625E+03  0.00000000000E+00 0. -1.
          1    1    1    2  502    0  0.18145655463E+02 -0.67504537196E+02  0.27767449550E+04  0.27776246457E+04  0.00000000000E+00 0. -1.
         22    1    3    3    0    0 -0.48649503976E+02  0.19811268153E+02 -0.43229236329E+03  0.43547209778E+03  0.00000000000E+00 0.  1.
         22    1    3    3    0    0  0.28741865813E+02 -0.79225310946E+02 -0.44839860659E+03  0.45624999193E+03  0.00000000000E+00 0.  1.
</event>
<event>
 7    1  0.5667373E-006  0.6887720E+02  0.7818608E-02  0.1428118E+00
          2   -1    0    0  502    0  0.00000000000E+00  0.00000000000E+00  0.18876997062E+03  0.18876997062E+03  0.00000000000E+00 0. -1.
          1   -1    0    0  501    0 -0.00000000000E+00 -0.00000000000E+00 -0.14976105775E+03  0.14976105775E+03  0.00000000000E+00 0. -1.
         25    2    1    2    0    0 -0.26977275242E+02 -0.44739405023E+02 -0.47476764588E+02  0.14356227620E+03  0.12500678474E+03 0.  0.
          2    1    1    2  501    0  0.10047475848E+02  0.82417785167E+02 -0.15924895702E+02  0.84541382682E+02  0.00000000000E+00 0. -1.
          1    1    1    2  502    0  0.16929799394E+02 -0.37678380144E+02  0.10241057315E+03  0.11042736948E+03  0.00000000000E+00 0. -1.
         22    1    3    3    0    0  0.22729112466E+02 -0.73799504983E+02 -0.20022412254E+02  0.79773908528E+02  0.00000000000E+00 0.  1.
         22    1    3    3    0    0 -0.49706387708E+02  0.29060099961E+02 -0.27454352334E+02  0.63788367676E+02  0.00000000000E+00 0.  1.
</event>
<event>
 7    1  0.5667373E-006  0.1205336E+03  0.7818608E-02  0.1302198E+00
          2   -1    0    0  502    0  0.00000000000E+00  0.00000000000E+00  0.56216050909E+03  0.56216050909E+03  0.00000000000E+00 0. -1.
          1   -1    0    0  501    0 -0.00000000000E+00 -0.00000000000E+00 -0.73408883295E+03  0.73408883295E+03  0.00000000000E+00 0. -1.
         25    2    1    2    0    0 -0.40840705178E+02  0.11078997371E+03 -0.47303166777E+03  0.50331480897E+03  0.12499782696E+03 0.  0.
          2    1    1    2  501    0  0.67230261188E+02  0.71175606866E+01 -0.23440769455E+03  0.24396215886E+03  0.00000000000E+00 0. -1.
          1    1    1    2  502    0 -0.26389556010E+02 -0.11790753439E+03  0.53551103846E+03  0.54897237421E+03  0.00000000000E+00 0. -1.
         22    1    3    3    0    0 -0.33337861928E+02  0.90882140520E+01 -0.30360551131E+03  0.30556556608E+03  0.00000000000E+00 0. -1.
         22    1    3    3    0    0 -0.75028432507E+01  0.10170175965E+03 -0.16942615646E+03  0.19774924290E+03  0.00000000000E+00 0. -1.
</event>
<event>
 7    1  0.5667373E-006  0.7014632E+02  0.7818608E-02  0.1457048E+00
          2   -1    0    0  502    0  0.00000000000E+00  0.00000000000E+00  0.38490440516E+03  0.38490440516E+03  0.00000000000E+00 0. -1.
          1   -1    0    0  501    0 -0.00000000000E+00 -0.00000000000E+00 -0.22800641600E+04  0.22800641600E+04  0.00000000000E+00 0. -1.
         25    2    1    2    0    0 -0.95283329872E+02 -0.78503877034E+01 -0.10690252198E+04  0.10805463401E+04  0.12499972444E+03 0.  0.
          2    1    1    2  501    0  0.64001561094E+02  0.17374596790E+02 -0.12036588412E+04  0.12054844182E+04  0.00000000000E+00 0. -1.
          1    1    1    2  502    0  0.31281768778E+02 -0.95242090863E+01  0.37752430622E+03  0.37893780678E+03  0.00000000000E+00 0. -1.
         22    1    3    3    0    0 -0.46666998164E+02  0.45733648317E+02 -0.77501718226E+03  0.77776667974E+03  0.00000000000E+00 0. -1.
         22    1    3    3    0    0 -0.48616331708E+02 -0.53584036020E+02 -0.29400803752E+03  0.30277966040E+03  0.00000000000E+00 0. -1.
</event>
<event>
 7    1  0.5667373E-006  0.3423545E+02  0.7818608E-02  0.1624863E+00
          2   -1    0    0  502    0  0.00000000000E+00  0.00000000000E+00  0.16322461279E+03  0.16322461279E+03  0.00000000000E+00 0. -1.
          1   -1    0    0  501    0 -0.00000000000E+00 -0.00000000000E+00 -0.10364343216E+04  0.10364343216E+04  0.00000000000E+00 0. -1.
         25    2    1    2    0    0  0.64881687886E+01 -0.40579724566E+02 -0.90540973032E+02  0.15971091758E+03  0.12498439509E+03 0.  0.
          2    1    1    2  501    0  0.16487565826E+02  0.15207120999E+02 -0.90889055675E+03  0.90916727861E+03  0.00000000000E+00 0. -1.
          1    1    1    2  502    0 -0.22975734615E+02  0.25372603567E+02  0.12622182098E+03  0.13078073820E+03  0.00000000000E+00 0. -1.
         22    1    3    3    0    0  0.58552062722E+02  0.31449902696E+01 -0.63798831127E+02  0.86651750507E+02  0.00000000000E+00 0.  1.
         22    1    3    3    0    0 -0.52063893934E+02 -0.43724714835E+02 -0.26742141905E+02  0.73059167068E+02  0.00000000000E+00 0.  1.
</event>
<event>
 7    1  0.5667373E-006  0.1373265E+03  0.7818608E-02  0.1249208E+00
          2   -1    0    0  502    0  0.00000000000E+00  0.00000000000E+00  0.11338688430E+04  0.11338688430E+04  0.00000000000E+00 0. -1.
          1   -1    0    0  501    0 -0.00000000000E+00 -0.00000000000E+00 -0.23464811767E+03  0.23464811767E+03  0.00000000000E+00 0. -1.
         25    2    1    2    0    0  0.15436329741E+03 -0.50669213308E+02  0.70818721622E+03  0.73725805408E+03  0.12499963329E+03 0.  0.
          2    1    1    2  501    0 -0.78114407085E+02  0.11320252542E+03 -0.19175067379E+03  0.23597667947E+03  0.00000000000E+00 0. -1.
          1    1    1    2  502    0 -0.76248890324E+02 -0.62533312116E+02  0.38278418290E+03  0.39528222712E+03  0.00000000000E+00 0. -1.
         22    1    3    3    0    0  0.48916945117E+02  0.36623169141E+02  0.31633999525E+03  0.32218801442E+03  0.00000000000E+00 0.  1.
         22    1    3    3    0    0  0.10544635229E+03 -0.87292382449E+02  0.39184722096E+03  0.41507003966E+03  0.00000000000E+00 0.  1.
</event>
<event>
 7    1  0.5667373E-006  0.8662655E+02  0.7818608E-02  0.1366718E+00
          2   -1    0    0  502    0  0.00000000000E+00  0.00000000000E+00  0.22321648376E+04  0.22321648376E+04  0.00000000000E+00 0. -1.
          1   -1    0    0  501    0 -0.00000000000E+00 -0.00000000000E+00 -0.70180075538E+03  0.70180075538E+03  0.00000000000E+00 0. -1.
         25    2    1    2    0    0  0.11569586255E+02 -0.13273635179E+03  0.53538184567E+03  0.56569793240E+03  0.12501054208E+03 0.  0.
          2    1    1    2  501    0 -0.27923635198E+02  0.81779389362E+02 -0.68349566318E+03  0.68893680371E+03  0.00000000000E+00 0. -1.
          1    1    1    2  502    0  0.16354048943E+02  0.50956962429E+02  0.16784778997E+04  0.16793308568E+04  0.00000000000E+00 0. -1.
         22    1    3    3    0    0 -0.25632950599E+02 -0.43722469843E+02  0.51365441342E+02  0.72160315201E+02  0.00000000000E+00 0.  1.
         22    1    3    3    0    0  0.37202536855E+02 -0.89013881948E+02  0.48401640433E+03  0.49353761720E+03  0.00000000000E+00 0.  1.
</event>
<event>
 7    1  0.5667373E-006  0.1214908E+03  0.7818608E-02  0.1337956E+00
          2   -1    0    0  502    0  0.00000000000E+00  0.00000000000E+00  0.69923624717E+03  0.69923624717E+03  0.00000000000E+00 0. -1.
          1   -1    0    0  501    0 -0.00000000000E+00 -0.00000000000E+00 -0.45713814697E+03  0.45713814697E+03  0.00000000000E+00 0. -1.
         25    2    1    2    0    0  0.50280820594E+02 -0.11230549746E+03  0.18856639803E+03  0.25753334660E+03  0.12500180985E+03 0.  0.
          2    1    1    2  501    0 -0.24791732871E+01  0.12177430630E+03 -0.41258307042E+03  0.43018591094E+03  0.00000000000E+00 0. -1.
          1    1    1    2  502    0 -0.47801647307E+02 -0.94688088349E+01  0.46611477260E+03  0.46865513660E+03  0.00000000000E+00 0. -1.
         22    1    3    3    0    0  0.55897775170E+02 -0.97917500817E+02  0.20563308673E+03  0.23451516922E+03  0.00000000000E+00 0.  1.
         22    1    3    3    0    0 -0.56169545766E+01 -0.14387996643E+02 -0.17066688709E+02  0.23018177374E+02  0.00000000000E+00 0.  1.
</event>
<event>
 7    1  0.5667373E-006  0.6742207E+02  0.7818608E-02  0.1420936E+00
          2   -1    0    0  502    0  0.00000000000E+00  0.00000000000E+00  0.81965844542E+03  0.81965844542E+03  0.00000000000E+00 0. -1.
          1   -1    0    0  501    0 -0.00000000000E+00 -0.00000000000E+00 -0.16467256413E+03  0.16467256413E+03  0.00000000000E+00 0. -1.
         25    2    1    2    0    0 -0.83698325989E+01 -0.10847763745E+03  0.22207236593E+03  0.27708622785E+03  0.12499275991E+03 0.  0.
          2    1    1    2  501    0 -0.14051215682E+01  0.44556625104E+02 -0.13164861354E+03  0.13899145532E+03  0.00000000000E+00 0. -1.
          1    1    1    2  502    0  0.97749541671E+01  0.63921012350E+02  0.56456212890E+03  0.56825332638E+03  0.00000000000E+00 0. -1.
         22    1    3    3    0    0  0.17934092921E+01 -0.10324400080E+03  0.23686323089E+03  0.25839258923E+03  0.00000000000E+00 0.  1.
         22    1    3    3    0    0 -0.10163241891E+02 -0.52336366501E+01 -0.14790864968E+02  0.18693638619E+02  0.00000000000E+00 0.  1.
</event>
<event>
 7    1  0.5667373E-006  0.9294367E+02  0.7818608E-02  0.1433779E+00
          2   -1    0    0  502    0  0.00000000000E+00  0.00000000000E+00  0.15018803965E+04  0.15018803965E+04  0.00000000000E+00 0. -1.
          1   -1    0    0  501    0 -0.00000000000E+00 -0.00000000000E+00 -0.24928558341E+02  0.24928558341E+02  0.00000000000E+00 0. -1.
         25    2    1    2    0    0  0.27785110847E+02  0.66712264391E+02  0.76294376416E+03  0.77648584735E+03  0.12499818103E+03 0.  0.
          2    1    1    2  501    0 -0.53741031717E+02 -0.80363701407E+02  0.11347261273E+03  0.14907198540E+03  0.00000000000E+00 0. -1.
          1    1    1    2  502    0  0.25955920870E+02  0.13651437016E+02  0.60053546129E+03  0.60125112210E+03  0.00000000000E+00 0. -1.
         22    1    3    3    0    0  0.71409680141E+02  0.18225393371E+02  0.29741302389E+03  0.30640824754E+03  0.00000000000E+00 0. -1.
         22    1    3    3    0    0 -0.43624569293E+02  0.48486871020E+02  0.46553074028E+03  0.47007759982E+03  0.00000000000E+00 0. -1.
</event>
<event>
 7    1  0.5667373E-006  0.5982731E+02  0.7818608E-02  0.1416693E+00
          2   -1    0    0  502    0  0.00000000000E+00  0.00000000000E+00  0.74209478999E+03  0.74209478999E+03  0.00000000000E+00 0. -1.
          1   -1    0    0  501    0 -0.00000000000E+00 -0.00000000000E+00 -0.76051450943E+02  0.76051450943E+02  0.00000000000E+00 0. -1.
         25    2    1    2    0    0 -0.75084294334E+02  0.76493977263E+02  0.12553585370E+03  0.20705867408E+03  0.12500025653E+03 0.  0.
          2    1    1    2  501    0  0.26406608044E+02 -0.44688241679E+02 -0.13822644188E+02  0.53716044020E+02  0.00000000000E+00 0. -1.
          1    1    1    2  502    0  0.48677686290E+02 -0.31805735584E+02  0.55433012953E+03  0.55737152284E+03  0.00000000000E+00 0. -1.
         22    1    3    3    0    0 -0.86673734608E+02  0.75383814186E+02  0.14462892441E+03  0.18469591627E+03  0.00000000000E+00 0.  1.
         22    1    3    3    0    0  0.11589440274E+02  0.11101630770E+01 -0.19093070704E+02  0.22362757809E+02  0.00000000000E+00 0.  1.
</event>
<event>
 7    1  0.5667373E-006  0.7079000E+02  0.7818608E-02  0.1369919E+00
          2   -1    0    0  502    0  0.00000000000E+00  0.00000000000E+00  0.75089624496E+02  0.75089624496E+02  0.00000000000E+00 0. -1.
          1   -1    0    0  501    0 -0.00000000000E+00 -0.00000000000E+00 -0.20326653992E+04  0.20326653992E+04  0.00000000000E+00 0. -1.
         25    2    1    2    0    0  0.11301721290E+03  0.14261861475E+02 -0.30819036083E+03  0.35154483533E+03  0.12500472645E+03 0.  0.
          2    1    1    2  501    0 -0.55670245609E+02 -0.42159579497E+02 -0.16827763412E+04  0.16842246943E+04  0.00000000000E+00 0. -1.
          1    1    1    2  502    0 -0.57346967293E+02  0.27897718022E+02  0.33390927322E+02  0.71985494067E+02  0.00000000000E+00 0. -1.
         22    1    3    3    0    0  0.68267769392E+02  0.63564310386E+02 -0.23373648068E+03  0.25166178155E+03  0.00000000000E+00 0. -1.
         22    1    3    3    0    0  0.44749443510E+02 -0.49302448911E+02 -0.74453880144E+02  0.99883053776E+02  0.00000000000E+00 0. -1.
</event>
<event>
 7    1  0.5667373E-006  0.5070741E+02  0.7818608E-02  0.1578345E+00
          2   -1    0    0  502    0  0.00000000000E+00  0.00000000000E+00  0.46276623199E+02  0.46276623199E+02  0.00000000000E+00 0. -1.
          1   -1    0    0  501    0 -0.00000000000E+00 -0.00000000000E+00 -0.57184532576E+03  0.57184532576E+03  0.00000000000E+00 0. -1.
         25    2    1    2    0    0 -0.39671772360E+02  0.54306076492E+02 -0.33381527378E+03  0.36273987348E+03  0.12499831736E+03 0.  0.
          2    1    1    2  501    0  0.38914116183E+01 -0.19642304956E+02 -0.20326717563E+03  0.20425109037E+03  0.00000000000E+00 0. -1.
          1    1    1    2  502    0  0.35780360742E+02 -0.34663771537E+02  0.11513746842E+02  0.51130985110E+02  0.00000000000E+00 0. -1.
         22    1    3    3    0    0 -0.61754086441E+02  0.22100963745E+02 -0.31030231132E+03  0.31715854742E+03  0.00000000000E+00 0. -1.
         22    1    3    3    0    0  0.22082314081E+02  0.32205112747E+02 -0.23512962455E+02  0.45581326063E+02  0.00000000000E+00 0. -1.
</event>
<event>
 7    1  0.5667373E-006  0.9907058E+02  0.7818608E-02  0.1362267E+00
          2   -1    0    0  502    0  0.00000000000E+00  0.00000000000E+00  0.10618836889E+04  0.10618836889E+04  0.00000000000E+00 0. -1.
          1   -1    0    0  501    0 -0.00000000000E+00 -0.00000000000E+00 -0.11622148947E+04  0.11622148947E+04  0.00000000000E+00 0. -1.
         25    2    1    2    0    0 -0.69417298049E+02 -0.17402247794E+02  0.11441056618E+03  0.18394750568E+03  0.12500123078E+03 0.  0.
          2    1    1    2  501    0  0.97000332927E+02 -0.22570701264E+02 -0.11245982073E+04  0.11289993928E+04  0.00000000000E+00 0. -1.
          1    1    1    2  502    0 -0.27583034877E+02  0.39972949058E+02  0.90985643530E+03  0.91115168514E+03  0.00000000000E+00 0. -1.
         22    1    3    3    0    0 -0.96785908198E+02  0.22641503026E+00  0.11633967810E+03  0.15133566662E+03  0.00000000000E+00 0. -1.
         22    1    3    3    0    0  0.27368610149E+02 -0.17628662824E+02 -0.19291119202E+01  0.32611839066E+02  0.00000000000E+00 0. -1.
</event>
<event>
 7    1  0.5866961E-006  0.8089642E+02  0.7818608E-02  0.1406849E+00
          2   -1    0    0  502    0  0.00000000000E+00  0.00000000000E+00  0.12838361660E+04  0.12838361660E+04  0.00000000000E+00 0. -1.
          1   -1    0    0  501    0 -0.00000000000E+00 -0.00000000000E+00 -0.72915346623E+03  0.72915346623E+03  0.00000000000E+00 0. -1.
         25    2    1    2    0    0 -0.77823804290E+02 -0.81942478587E+02 -0.12642778161E+03  0.21066387397E+03  0.12499667805E+03 0.  0.
          2    1    1    2  501    0  0.66923736810E+02  0.41956451872E+02 -0.55747700290E+03  0.56304505962E+03  0.00000000000E+00 0. -1.
          1    1    1    2  502    0  0.10900067480E+02  0.39986026716E+02  0.12385874843E+04  0.12392806986E+04  0.00000000000E+00 0. -1.
         22    1    3    3    0    0 -0.59564450478E+02 -0.11566782858E+03 -0.99864413168E+02  0.16401180246E+03  0.00000000000E+00 0.  1.
         22    1    3    3    0    0 -0.18259353811E+02  0.33725349991E+02 -0.26563368440E+02  0.46652071514E+02  0.00000000000E+00 0.  1.
</event>
<event>
 7    1  0.5667373E-006  0.2118188E+03  0.7818608E-02  0.1249621E+00
          2   -1    0    0  502    0  0.00000000000E+00  0.00000000000E+00  0.12727115001E+04  0.12727115001E+04  0.00000000000E+00 0. -1.
          1   -1    0    0  501    0 -0.00000000000E+00 -0.00000000000E+00 -0.15886727776E+04  0.15886727776E+04  0.00000000000E+00 0. -1.
         25    2    1    2    0    0  0.18260909327E+03 -0.19976402802E+03 -0.21282752394E+02  0.29887956760E+03  0.12499717014E+03 0.  0.
          2    1    1    2  501    0 -0.33851096229E+02  0.53923842584E+02 -0.14183031576E+04  0.14197314973E+04  0.00000000000E+00 0. -1.
          1    1    1    2  502    0 -0.14875799704E+03  0.14584018544E+03  0.11236246324E+04  0.11427732128E+04  0.00000000000E+00 0. -1.
         22    1    3    3    0    0  0.17439474704E+03 -0.16522390913E+03  0.23896174963E+02  0.24141974882E+03  0.00000000000E+00 0.  1.
         22    1    3    3    0    0  0.82143462297E+01 -0.34540118890E+02 -0.45178927357E+02  0.57459818778E+02  0.00000000000E+00 0.  1.
</event>
<event>
 7    1  0.5667373E-006  0.7773874E+02  0.7818608E-02  0.1358972E+00
          2   -1    0    0  502    0  0.00000000000E+00  0.00000000000E+00  0.33545146453E+04  0.33545146453E+04  0.00000000000E+00 0. -1.
          1   -1    0    0  501    0 -0.00000000000E+00 -0.00000000000E+00 -0.12248818249E+04  0.12248818249E+04  0.00000000000E+00 0. -1.
         25    2    1    2    0    0  0.12254071581E+02 -0.10550475155E+02  0.22484864824E+03  0.25776661011E+03  0.12500094351E+03 0.  0.
          2    1    1    2  501    0  0.53973126290E+02 -0.33697206028E+02 -0.12070753397E+04  0.12087512051E+04  0.00000000000E+00 0. -1.
          1    1    1    2  502    0 -0.66227197871E+02  0.44247681183E+02  0.31118595119E+04  0.31128786550E+04  0.00000000000E+00 0. -1.
         22    1    3    3    0    0 -0.49644973330E+02  0.14295554600E+02  0.14381615434E+03  0.15281384920E+03  0.00000000000E+00 0. -1.
         22    1    3    3    0    0  0.61899044912E+02 -0.24846029755E+02  0.81032493895E+02  0.10495276091E+03  0.00000000000E+00 0. -1.
</event>
<event>
 7    1  0.5667373E-006  0.7500930E+02  0.7818608E-02  0.1374987E+00
          2   -1    0    0  502    0  0.00000000000E+00  0.00000000000E+00  0.43793486324E+04  0.43793486324E+04  0.00000000000E+00 0. -1.
          1   -1    0    0  501    0 -0.00000000000E+00 -0.00000000000E+00 -0.18324640549E+04  0.18324640549E+04  0.00000000000E+00 0. -1.
         25    2    1    2    0    0  0.32612349741E+02  0.33243711654E+01 -0.10989765403E+04  0.11065481753E+04  0.12499924508E+03 0.  0.
          2    1    1    2  501    0 -0.43362681911E+02  0.70910563159E+02 -0.72701207583E+03  0.73174803625E+03  0.00000000000E+00 0. -1.
          1    1    1    2  502    0  0.10750332170E+02 -0.74234934324E+02  0.43728731937E+04  0.43735164757E+04  0.00000000000E+00 0. -1.
         22    1    3    3    0    0  0.72410247687E+02  0.58239623573E+01 -0.93400132944E+03  0.93682209939E+03  0.00000000000E+00 0. -1.
         22    1    3    3    0    0 -0.39797897946E+02 -0.24995911919E+01 -0.16497521090E+03  0.16972607593E+03  0.00000000000E+00 0. -1.
</event>
<event>
 7    1  0.5667373E-006  0.6940504E+02  0.7818608E-02  0.1389244E+00
          2   -1    0    0  502    0  0.00000000000E+00  0.00000000000E+00  0.93267800421E+03  0.93267800421E+03  0.00000000000E+00 0. -1.
          1   -1    0    0  501    0 -0.00000000000E+00 -0.00000000000E+00 -0.59362821787E+02  0.59362821787E+02  0.00000000000E+00 0. -1.
         25    2    1    2    0    0  0.33836859179E+02 -0.59752535408E+02  0.46175544883E+03  0.48327991083E+03  0.12500431656E+03 0.  0.
          2    1    1    2  501    0 -0.54282129442E+02 -0.11824362102E+02 -0.28507392564E+02  0.62442265708E+02  0.00000000000E+00 0. -1.
          1    1    1    2  502    0  0.20445270263E+02  0.71576897510E+02  0.44006712616E+03  0.44631864946E+03  0.00000000000E+00 0. -1.
         22    1    3    3    0    0 -0.20120396988E+02 -0.19009572886E+02  0.36028670741E+03  0.36134845478E+03  0.00000000000E+00 0. -1.
         22    1    3    3    0    0  0.53957256167E+02 -0.40742962522E+02  0.10146874142E+03  0.12193145605E+03  0.00000000000E+00 0. -1.
</event>
<event>
 7    1  0.5667373E-006  0.1973933E+03  0.7818608E-02  0.1336247E+00
          2   -1    0    0  502    0  0.00000000000E+00  0.00000000000E+00  0.12717416921E+04  0.12717416921E+04  0.00000000000E+00 0. -1.
          1   -1    0    0  501    0 -0.00000000000E+00 -0.00000000000E+00 -0.60311160871E+03  0.60311160871E+03  0.00000000000E+00 0. -1.
         25    2    1    2    0    0  0.32280694774E+02 -0.22024169568E+03  0.82135636192E+01  0.25542280909E+03  0.12499960402E+03 0.  0.
          2    1    1    2  501    0 -0.19267678723E+02  0.19272150558E+03 -0.45973374485E+03  0.49886665383E+03  0.00000000000E+00 0. -1.
          1    1    1    2  502    0 -0.13013016051E+02  0.27520190093E+02  0.11201502646E+04  0.11205638379E+04  0.00000000000E+00 0. -1.
         22    1    3    3    0    0  0.59040665065E+02 -0.11543638788E+03  0.50688480252E+02  0.13921451724E+03  0.00000000000E+00 0. -1.
         22    1    3    3    0    0 -0.26759970291E+02 -0.10480530779E+03 -0.42474916633E+02  0.11620829185E+03  0.00000000000E+00 0. -1.
</event>
<event>
 7    1  0.5667373E-006  0.1072412E+03  0.7818608E-02  0.1342470E+00
          2   -1    0    0  502    0  0.00000000000E+00  0.00000000000E+00  0.25168765503E+02  0.25168765503E+02  0.00000000000E+00 0. -1.
          1   -1    0    0  501    0 -0.00000000000E+00 -0.00000000000E+00 -0.16126168809E+04  0.16126168809E+04  0.00000000000E+00 0. -1.
         25    2    1    2    0    0 -0.16140912445E+02  0.69405307257E+02 -0.35093957611E+03  0.37928681401E+03  0.12498910141E+03 0.  0.
          2    1    1    2  501    0  0.61090886638E+02 -0.97653867716E+02 -0.11580607605E+04  0.11637753647E+04  0.00000000000E+00 0. -1.
          1    1    1    2  502    0 -0.44949974193E+02  0.28248560459E+02 -0.78447778760E+02  0.94723467738E+02  0.00000000000E+00 0. -1.
         22    1    3    3    0    0  0.37420433307E+01 -0.35593628726E+02 -0.68095011238E+02  0.76927497357E+02  0.00000000000E+00 0. -1.
         22    1    3    3    0    0 -0.19882955776E+02  0.10499893598E+03 -0.28284456487E+03  0.30235931665E+03  0.00000000000E+00 0. -1.
</event>
<event>
 7    1  0.5667373E-006  0.6137978E+02  0.7818608E-02  0.1459916E+00
          2   -1    0    0  502    0  0.00000000000E+00  0.00000000000E+00  0.14177681542E+04  0.14177681542E+04  0.00000000000E+00 0. -1.
          1   -1    0    0  501    0 -0.00000000000E+00 -0.00000000000E+00 -0.14026803949E+03  0.14026803949E+03  0.00000000000E+00 0. -1.
         25    2    1    2    0    0  0.64204482231E+02  0.39902339097E+02  0.53977764125E+03  0.55919552231E+03  0.12500127190E+03 0.  0.
          2    1    1    2  501    0 -0.30176000806E+02 -0.53372980083E+02 -0.12295031569E+03  0.13739012394E+03  0.00000000000E+00 0. -1.
          1    1    1    2  502    0 -0.34028481425E+02  0.13470640986E+02  0.86067278919E+03  0.86145054749E+03  0.00000000000E+00 0. -1.
         22    1    3    3    0    0 -0.92083125995E+01  0.66876631706E+02  0.26978220618E+03  0.27810018997E+03  0.00000000000E+00 0.  1.
         22    1    3    3    0    0  0.73412794831E+02 -0.26974292609E+02  0.26999543507E+03  0.28109533234E+03  0.00000000000E+00 0.  1.
</event>
<event>
 7    1  0.5667373E-006  0.7150638E+02  0.7818608E-02  0.1365109E+00
          2   -1    0    0  502    0  0.00000000000E+00  0.00000000000E+00  0.77641156655E+03  0.77641156655E+03  0.00000000000E+00 0. -1.
          1   -1    0    0  501    0 -0.00000000000E+00 -0.00000000000E+00 -0.14926107585E+04  0.14926107585E+04  0.00000000000E+00 0. -1.
         25    2    1    2    0    0  0.33790419649E+02 -0.13000026307E+03  0.10355967462E+03  0.21069116950E+03  0.12499720732E+03 0.  0.
          2    1    1    2  501    0 -0.10089714833E+02  0.64928361826E+02 -0.14363554551E+04  0.14378576035E+04  0.00000000000E+00 0. -1.
          1    1    1    2  502    0 -0.23700704816E+02  0.65071901244E+02  0.61659658856E+03  0.62047355203E+03  0.00000000000E+00 0. -1.
         22    1    3    3    0    0  0.58375332903E+02 -0.81914381289E+02  0.79719709922E+01  0.10090192107E+03  0.00000000000E+00 0.  1.
         22    1    3    3    0    0 -0.24584913254E+02 -0.48085881782E+02  0.95587703628E+02  0.10978924843E+03  0.00000000000E+00 0.  1.
</event>
<event>
 7    1  0.5667373E-006  0.7534793E+02  0.7818608E-02  0.1364804E+00
          2   -1    0    0  502    0  0.00000000000E+00  0.00000000000E+00  0.37072034687E+03  0.37072034687E+03  0.00000000000E+00 0. -1.
          1   -1    0    0  501    0 -0.00000000000E+00 -0.00000000000E+00 -0.62823672789E+03  0.62823672789E+03  0.00000000000E+00 0. -1.
         25    2    1    2    0    0  0.13692147944E+02  0.13544637124E+03  0.80082391881E+02  0.20142324790E+03  0.12499976363E+03 0.  0.
          2    1    1    2  501    0 -0.14191251906E+02 -0.72931486809E+02 -0.56082158033E+03  0.56572187369E+03  0.00000000000E+00 0. -1.
          1    1    1    2  502    0  0.49910396264E+00 -0.62514884432E+02  0.22322280743E+03  0.23181195318E+03  0.00000000000E+00 0. -1.
         22    1    3    3    0    0 -0.22450606992E+02  0.13237700478E+03  0.92542497177E+02  0.16306996944E+03  0.00000000000E+00 0.  1.
         22    1    3    3    0    0  0.36142754935E+02  0.30693664634E+01 -0.12460105296E+02  0.38353278462E+02  0.00000000000E+00 0.  1.
</event>
<event>
 7    1  0.5667373E-006  0.9198929E+02  0.7818608E-02  0.1472354E+00
          2   -1    0    0  502    0  0.00000000000E+00  0.00000000000E+00  0.55619510220E+03  0.55619510220E+03  0.00000000000E+00 0. -1.
          1   -1    0    0  501    0 -0.00000000000E+00 -0.00000000000E+00 -0.86077460555E+03  0.86077460555E+03  0.00000000000E+00 0. -1.
         25    2    1    2    0    0 -0.10427882045E+03  0.44228389305E+02 -0.13874573306E+03  0.21841595910E+03  0.12499971973E+03 0.  0.
          2    1    1    2  501    0  0.18382821875E+02 -0.12672549431E+02 -0.67795424220E+03  0.67832180870E+03  0.00000000000E+00 0. -1.
          1    1    1    2  502    0  0.85895998576E+02 -0.31555839874E+02  0.51212047190E+03  0.52023193995E+03  0.00000000000E+00 0. -1.
         22    1    3    3    0    0 -0.76224001258E+02  0.14591967148E+02 -0.15589924841E+03  0.17414821139E+03  0.00000000000E+00 0. -1.
         22    1    3    3    0    0 -0.28054819193E+02  0.29636422157E+02  0.17153515357E+02  0.44267747710E+02  0.00000000000E+00 0. -1.
</event>
<event>
 7    1  0.5667373E-006  0.1184182E+03  0.7818608E-02  0.1424238E+00
          2   -1    0    0  502    0  0.00000000000E+00  0.00000000000E+00  0.58876923845E+03  0.58876923845E+03  0.00000000000E+00 0. -1.
          1   -1    0    0  501    0 -0.00000000000E+00 -0.00000000000E+00 -0.78359351509E+03  0.78359351509E+03  0.00000000000E+00 0. -1.
         25    2    1    2    0    0 -0.12920912973E+03  0.26825566687E+01 -0.40134098069E+03  0.43977374250E+03  0.12499666593E+03 0.  0.
          2    1    1    2  501    0  0.13288851459E+02  0.20876468294E+02 -0.35646062888E+03  0.35731862594E+03  0.00000000000E+00 0. -1.
          1    1    1    2  502    0  0.11592027827E+03 -0.23559024963E+02  0.56297733294E+03  0.57527038510E+03  0.00000000000E+00 0. -1.
         22    1    3    3    0    0 -0.96446745979E+02  0.15295051869E+02 -0.11319005525E+03  0.14949214705E+03  0.00000000000E+00 0.  1.
         22    1    3    3    0    0 -0.32762383747E+02 -0.12612495201E+02 -0.28815092544E+03  0.29028159545E+03  0.00000000000E+00 0.  1.
</event>
<event>
 7    1  0.5667373E-006  0.1234598E+03  0.7818608E-02  0.1327967E+00
          2   -1    0    0  502    0  0.00000000000E+00  0.00000000000E+00  0.76408133247E+03  0.76408133247E+03  0.00000000000E+00 0. -1.
          1   -1    0    0  501    0 -0.00000000000E+00 -0.00000000000E+00 -0.10713483303E+04  0.10713483303E+04  0.00000000000E+00 0. -1.
         25    2    1    2    0    0 -0.16779474119E+03 -0.48707312903E+02  0.38205252380E+03  0.43831101612E+03  0.12499975364E+03 0.  0.
          2    1    1    2  501    0  0.11606981998E+03  0.40728215812E+02 -0.10376312082E+04  0.10448968920E+04  0.00000000000E+00 0. -1.
          1    1    1    2  502    0  0.51724921212E+02  0.79790970909E+01  0.34831168656E+03  0.35222175466E+03  0.00000000000E+00 0. -1.
         22    1    3    3    0    0 -0.16358321548E+03  0.11156285105E+00  0.26510066505E+03  0.31150897811E+03  0.00000000000E+00 0.  1.
         22    1    3    3    0    0 -0.42115257115E+01 -0.48818875754E+02  0.11695185876E+03  0.12680203802E+03  0.00000000000E+00 0.  1.
</event>
<event>
 7    1  0.5667373E-006  0.3059401E+02  0.7818608E-02  0.1613019E+00
          2   -1    0    0  502    0  0.00000000000E+00  0.00000000000E+00  0.21335294042E+04  0.21335294042E+04  0.00000000000E+00 0. -1.
          1   -1    0    0  501    0 -0.00000000000E+00 -0.00000000000E+00 -0.22513959097E+02  0.22513959097E+02  0.00000000000E+00 0. -1.
         25    2    1    2    0    0  0.15492298246E+02  0.25829022754E+02  0.35481072444E+03  0.37739143557E+03  0.12500598283E+03 0.  0.
          2    1    1    2  501    0 -0.31044926131E+02 -0.38716889298E+01  0.10885178326E+02  0.33124983333E+02  0.00000000000E+00 0. -1.
          1    1    1    2  502    0  0.15552627884E+02 -0.21957333824E+02  0.17453195423E+04  0.17455269444E+04  0.00000000000E+00 0. -1.
         22    1    3    3    0    0 -0.25085798963E+02  0.62648027939E+02  0.25214283645E+03  0.26101739920E+03  0.00000000000E+00 0.  1.
         22    1    3    3    0    0  0.40578097209E+02 -0.36819005185E+02  0.10266788799E+03  0.11637403637E+03  0.00000000000E+00 0.  1.
</event>
<event>
 7    1  0.5667373E-006  0.3622223E+02  0.7818608E-02  0.1550979E+00
          2   -1    0    0  502    0  0.00000000000E+00  0.00000000000E+00  0.16634539013E+03  0.16634539013E+03  0.00000000000E+00 0. -1.
          1   -1    0    0  501    0 -0.00000000000E+00 -0.00000000000E+00 -0.67236825451E+03  0.67236825451E+03  0.00000000000E+00 0. -1.
         25    2    1    2    0    0 -0.22717652991E+02 -0.36691460826E+02 -0.16601656723E+02  0.13327102267E+03  0.12499278148E+03 0.  0.
          2    1    1    2  501    0  0.35785211370E+02  0.60559597975E+01 -0.59429752165E+03  0.59540473649E+03  0.00000000000E+00 0. -1.
          1    1    1    2  502    0 -0.13067558378E+02  0.30635501029E+02  0.10487631398E+03  0.11003788548E+03  0.00000000000E+00 0. -1.
         22    1    3    3    0    0 -0.23834954306E+02  0.41954385859E+02  0.11752021455E+02  0.49662717886E+02  0.00000000000E+00 0. -1.
         22    1    3    3    0    0  0.11173013149E+01 -0.78645846685E+02 -0.28353678177E+02  0.83608304786E+02  0.00000000000E+00 0. -1.
</event>
<event>
 7    1  0.5667373E-006  0.3592049E+02  0.7818608E-02  0.1620224E+00
          2   -1    0    0  502    0  0.00000000000E+00  0.00000000000E+00  0.75249317833E+03  0.75249317833E+03  0.00000000000E+00 0. -1.
          1   -1    0    0  501    0 -0.00000000000E+00 -0.00000000000E+00 -0.33817559093E+02  0.33817559093E+02  0.00000000000E+00 0. -1.
         25    2    1    2    0    0  0.51746884627E+02 -0.10653296170E+02  0.32316446364E+03  0.35050215344E+03  0.12500102485E+03 0.  0.
          2    1    1    2  501    0 -0.30772550919E+02  0.17176537235E+02 -0.42028480417E+01  0.35491509592E+02  0.00000000000E+00 0. -1.
          1    1    1    2  502    0 -0.20974333708E+02 -0.65232410648E+01  0.39971400364E+03  0.40031707439E+03  0.00000000000E+00 0. -1.
         22    1    3    3    0    0  0.57411869089E+02 -0.18792340419E+02  0.53614901312E+02  0.80770244604E+02  0.00000000000E+00 0.  1.
         22    1    3    3    0    0 -0.56649844617E+01  0.81390442492E+01  0.26954956233E+03  0.26973190883E+03  0.00000000000E+00 0.  1.
</event>
<event>
 7    1  0.5667373E-006  0.1870647E+03  0.7818608E-02  0.1302202E+00
          2   -1    0    0  502    0  0.00000000000E+00  0.00000000000E+00  0.10261165819E+03  0.10261165819E+03  0.00000000000E+00 0. -1.
          1   -1    0    0  501    0 -0.00000000000E+00 -0.00000000000E+00 -0.18212205717E+04  0.18212205717E+04  0.00000000000E+00 0. -1.
         25    2    1    2    0    0  0.15521317462E+03  0.56462990689E+02 -0.32643246133E+03  0.38660389352E+03  0.12500087911E+03 0.  0.
          2    1    1    2  501    0 -0.16479030200E+03 -0.98956760534E+02 -0.14511981234E+04  0.14638730400E+04  0.00000000000E+00 0. -1.
          1    1    1    2  502    0  0.95771273792E+01  0.42493769845E+02  0.59021671132E+02  0.73355296385E+02  0.00000000000E+00 0. -1.
         22    1    3    3    0    0  0.11571093472E+03  0.63345768660E+02 -0.31982987035E+03  0.34596654866E+03  0.00000000000E+00 0. -1.
         22    1    3    3    0    0  0.39502239899E+02 -0.68827779710E+01 -0.66025909824E+01  0.40637344860E+02  0.00000000000E+00 0. -1.
</event>
<event>
 7    1  0.5667373E-006  0.9873426E+02  0.7818608E-02  0.1306599E+00
          2   -1    0    0  502    0  0.00000000000E+00  0.00000000000E+00  0.53010415664E+03  0.53010415664E+03  0.00000000000E+00 0. -1.
          1   -1    0    0  501    0 -0.00000000000E+00 -0.00000000000E+00 -0.41574397594E+03  0.41574397594E+03  0.00000000000E+00 0. -1.
         25    2    1    2    0    0  0.78668004492E+02 -0.10774183947E+02 -0.13850785694E+03  0.20276813995E+03  0.12500301666E+03 0.  0.
          2    1    1    2  501    0 -0.92312482322E+02 -0.67315837737E+02 -0.22837107611E+03  0.25535536964E+03  0.00000000000E+00 0. -1.
          1    1    1    2  502    0  0.13644477830E+02  0.78090021685E+02  0.48123911375E+03  0.48772462299E+03  0.00000000000E+00 0. -1.
         22    1    3    3    0    0  0.33770158780E+02 -0.64649771334E+02 -0.44353987142E+02  0.85365641408E+02  0.00000000000E+00 0. -1.
         22    1    3    3    0    0  0.44897845712E+02  0.53875587387E+02 -0.94153869795E+02  0.11740249854E+03  0.00000000000E+00 0. -1.
</event>
<event>
 7    1  0.5667373E-006  0.1822433E+03  0.7818608E-02  0.1380570E+00
          2   -1    0    0  502    0  0.00000000000E+00  0.00000000000E+00  0.72338823225E+03  0.72338823225E+03  0.00000000000E+00 0. -1.
          1   -1    0    0  501    0 -0.00000000000E+00 -0.00000000000E+00 -0.27941346232E+03  0.27941346232E+03  0.00000000000E+00 0. -1.
         25    2    1    2    0    0 -0.14747454469E+03  0.85495653815E+02  0.22416360410E+03  0.30811077219E+03  0.12499871353E+03 0.  0.
          2    1    1    2  501    0  0.16778267518E+03 -0.75360608786E+02 -0.20146871152E+03  0.27280009011E+03  0.00000000000E+00 0. -1.
          1    1    1    2  502    0 -0.20308130490E+02 -0.10135045029E+02  0.42127987733E+03  0.42189083226E+03  0.00000000000E+00 0. -1.
         22    1    3    3    0    0 -0.13394820496E+03  0.78191352014E+02  0.24018283663E+03  0.28590873396E+03  0.00000000000E+00 0. -1.
         22    1    3    3    0    0 -0.13526339723E+02  0.73043018009E+01 -0.16019232524E+02  0.22202038234E+02  0.00000000000E+00 0. -1.
</event>
<event>
 7    1  0.5667373E-006  0.1214263E+03  0.7818608E-02  0.1383824E+00
          2   -1    0    0  502    0  0.00000000000E+00  0.00000000000E+00  0.71923138019E+02  0.71923138019E+02  0.00000000000E+00 0. -1.
          1   -1    0    0  501    0 -0.00000000000E+00 -0.00000000000E+00 -0.90175321933E+03  0.90175321933E+03  0.00000000000E+00 0. -1.
         25    2    1    2    0    0  0.40347164828E+02 -0.10491222089E+03 -0.39781208825E+03  0.43187227571E+03  0.12499894866E+03 0.  0.
          2    1    1    2  501    0 -0.73498801249E+02  0.10365999626E+03 -0.47260111190E+03  0.48938663609E+03  0.00000000000E+00 0. -1.
          1    1    1    2  502    0  0.33151636421E+02  0.12522246291E+01  0.40583118839E+02  0.52417445556E+02  0.00000000000E+00 0. -1.
         22    1    3    3    0    0  0.29218474066E+02  0.48796554475E+01 -0.14481784912E+02  0.32973509948E+02  0.00000000000E+00 0.  1.
         22    1    3    3    0    0  0.11128690762E+02 -0.10979187634E+03 -0.38333030334E+03  0.39889876576E+03  0.00000000000E+00 0.  1.
</event>
<event>
 7    1  0.5667373E-006  0.7299636E+02  0.7818608E-02  0.1434631E+00
          2   -1    0    0  502    0  0.00000000000E+00  0.00000000000E+00  0.13081289468E+04  0.13081289468E+04  0.00000000000E+00 0. -1.
          1   -1    0    0  501    0 -0.00000000000E+00 -0.00000000000E+00 -0.12823881502E+03  0.12823881502E+03  0.00000000000E+00 0. -1.
         25    2    1    2    0    0 -0.22319084058E+02 -0.38956438962E+02  0.34631647246E+02  0.13726038782E+03  0.12500126969E+03 0.  0.
          2    1    1    2  501    0  0.52777161136E+02  0.60143133469E+02 -0.55752025042E+02  0.97523912644E+02  0.00000000000E+00 0. -1.
          1    1    1    2  502    0 -0.30458077078E+02 -0.21186694507E+02  0.12010105096E+04  0.12015834613E+04  0.00000000000E+00 0. -1.
         22    1    3    3    0    0 -0.94924926997E+00  0.80155561063E+01 -0.43160118333E+02  0.43908382211E+02  0.00000000000E+00 0. -1.
         22    1    3    3    0    0 -0.21369834788E+02 -0.46971995069E+02  0.77791765579E+02  0.93352005610E+02  0.00000000000E+00 0. -1.
</event>
<event>
 7    1  0.5667373E-006  0.1038585E+03  0.7818608E-02  0.1379342E+00
          2   -1    0    0  502    0  0.00000000000E+00  0.00000000000E+00  0.19018674336E+04  0.19018674336E+04  0.00000000000E+00 0. -1.
          1   -1    0    0  501    0 -0.00000000000E+00 -0.00000000000E+00 -0.12352351673E+03  0.12352351673E+03  0.00000000000E+00 0. -1.
         25    2    1    2    0    0 -0.16814344087E+02 -0.12886410530E+03  0.24653593363E+02  0.18199375788E+03  0.12500099376E+03 0.  0.
          2    1    1    2  501    0  0.41763552155E+00  0.92130065994E+02  0.29329088642E+01  0.92177684034E+02  0.00000000000E+00 0. -1.
          1    1    1    2  502    0  0.16396708566E+02  0.36734039303E+02  0.17507574146E+04  0.17512195084E+04  0.00000000000E+00 0. -1.
         22    1    3    3    0    0 -0.19471812074E+02  0.22008209301E+02  0.53441614910E+01  0.29867587853E+02  0.00000000000E+00 0.  1.
         22    1    3    3    0    0  0.26574679866E+01 -0.15087231460E+03  0.19309431872E+02  0.15212617003E+03  0.00000000000E+00 0.  1.
</event>
<event>
 7    1  0.5667373E-006  0.4848582E+02  0.7818608E-02  0.1507095E+00
          2   -1    0    0  502    0  0.00000000000E+00  0.00000000000E+00  0.56720376697E+03  0.56720376697E+03  0.00000000000E+00 0. -1.
          1   -1    0    0  501    0 -0.00000000000E+00 -0.00000000000E+00 -0.46415081323E+03  0.46415081323E+03  0.00000000000E+00 0. -1.
         25    2    1    2    0    0 -0.44864892028E+02  0.20120066269E+02  0.79657830804E+01  0.13457209282E+03  0.12501407466E+03 0.  0.
          2    1    1    2  501    0  0.23431678245E+02  0.23591931428E+02 -0.39895959791E+03  0.40034283251E+03  0.00000000000E+00 0. -1.
          1    1    1    2  502    0  0.21433213783E+02 -0.43711997697E+02  0.49404676857E+03  0.49643965487E+03  0.00000000000E+00 0. -1.
         22    1    3    3    0    0  0.81838394019E+01  0.50708231289E+02 -0.32858932446E+02  0.60975481870E+02  0.00000000000E+00 0. -1.
         22    1    3    3    0    0 -0.53048731429E+02 -0.30588165020E+02  0.40824715526E+02  0.73596610950E+02  0.00000000000E+00 0. -1.
</event>
<event>
 7    1  0.5667373E-006  0.8017775E+02  0.7818608E-02  0.1341121E+00
          2   -1    0    0  502    0  0.00000000000E+00  0.00000000000E+00  0.93593026415E+02  0.93593026415E+02  0.00000000000E+00 0. -1.
          1   -1    0    0  501    0 -0.00000000000E+00 -0.00000000000E+00 -0.13091801160E+04  0.13091801160E+04  0.00000000000E+00 0. -1.
         25    2    1    2    0    0  0.62169017023E+02 -0.13053183066E+03 -0.52844848697E+03  0.56194871863E+03  0.12500005400E+03 0.  0.
          2    1    1    2  501    0 -0.37202948873E+02  0.63168281635E+02 -0.74498857127E+03  0.74858684368E+03  0.00000000000E+00 0. -1.
          1    1    1    2  502    0 -0.24966068150E+02  0.67363549027E+02  0.57849968699E+02  0.92237580058E+02  0.00000000000E+00 0. -1.
         22    1    3    3    0    0  0.90843793651E+01 -0.13324908811E+03 -0.31836195130E+03  0.34524220117E+03  0.00000000000E+00 0. -1.
         22    1    3    3    0    0  0.53084637658E+02  0.27172574453E+01 -0.21008653567E+03  0.21670651747E+03  0.00000000000E+00 0. -1.
</event>
<event>
 7    1  0.5667373E-006  0.1982859E+03  0.7818608E-02  0.1267842E+00
          2   -1    0    0  502    0  0.00000000000E+00  0.00000000000E+00  0.32250312595E+04  0.32250312595E+04  0.00000000000E+00 0. -1.
          1   -1    0    0  501    0 -0.00000000000E+00 -0.00000000000E+00 -0.74849589153E+03  0.74849589153E+03  0.00000000000E+00 0. -1.
         25    2    1    2    0    0 -0.12705599657E+03  0.71522282253E+02  0.17129977619E+03  0.25734154626E+03  0.12498957950E+03 0.  0.
          2    1    1    2  501    0  0.17010069852E+03 -0.10864575241E+03 -0.69076347791E+03  0.71964736474E+03  0.00000000000E+00 0. -1.
          1    1    1    2  502    0 -0.43044701958E+02  0.37123470161E+02  0.29959990697E+04  0.29965382400E+04  0.00000000000E+00 0. -1.
         22    1    3    3    0    0  0.25259541646E+02  0.14495687215E+02  0.31183351048E+02  0.42668147073E+02  0.00000000000E+00 0.  1.
         22    1    3    3    0    0 -0.15231553821E+03  0.57026595038E+02  0.14011642514E+03  0.21467339918E+03  0.00000000000E+00 0.  1.
</event>
<event>
 7    1  0.5667373E-006  0.3849572E+02  0.7818608E-02  0.1553199E+00
          2   -1    0    0  502    0  0.00000000000E+00  0.00000000000E+00  0.33188719472E+02  0.33188719472E+02  0.00000000000E+00 0. -1.
          1   -1    0    0  501    0 -0.00000000000E+00 -0.00000000000E+00 -0.13514174163E+04  0.13514174163E+04  0.00000000000E+00 0. -1.
         25    2    1    2    0    0  0.54023878745E+02 -0.41582236092E+02 -0.45555760415E+03  0.47728962343E+03  0.12499996839E+03 0.  0.
          2    1    1    2  501    0 -0.30871746357E+02  0.21122780566E+02 -0.87370742604E+03  0.87450780608E+03  0.00000000000E+00 0. -1.
          1    1    1    2  502    0 -0.23152132388E+02  0.20459455526E+02  0.11036333340E+02  0.32808706286E+02  0.00000000000E+00 0. -1.
         22    1    3    3    0    0  0.78596327798E+02 -0.69002076863E+02 -0.35996832421E+03  0.37485445681E+03  0.00000000000E+00 0. -1.
         22    1    3    3    0    0 -0.24572449053E+02  0.27419840771E+02 -0.95589279944E+02  0.10243516662E+03  0.00000000000E+00 0. -1.
</event>
<event>
 7    1  0.5667373E-006  0.4063193E+02  0.7818608E-02  0.1577116E+00
          2   -1    0    0  502    0  0.00000000000E+00  0.00000000000E+00  0.96909613947E+03  0.96909613947E+03  0.00000000000E+00 0. -1.
          1   -1    0    0  501    0 -0.00000000000E+00 -0.00000000000E+00 -0.58313682557E+03  0.58313682557E+03  0.00000000000E+00 0. -1.
         25    2    1    2    0    0  0.36486156293E+02 -0.29942192610E+02 -0.28497674213E+03  0.31474672922E+03  0.12500394195E+03 0.  0.
          2    1    1    2  501    0 -0.40317073138E+02  0.50549389169E+01 -0.28165077936E+03  0.28456665354E+03  0.00000000000E+00 0. -1.
          1    1    1    2  502    0  0.38309168446E+01  0.24887253694E+02  0.95258683539E+03  0.95291958228E+03  0.00000000000E+00 0. -1.
         22    1    3    3    0    0  0.63134676551E+02 -0.30575354079E+02 -0.27865812472E+03  0.28735203172E+03  0.00000000000E+00 0.  1.
         22    1    3    3    0    0 -0.26648520258E+02  0.63316146842E+00 -0.63186174072E+01  0.27394697504E+02  0.00000000000E+00 0.  1.
</event>
<event>
 7    1  0.5667373E-006  0.2070104E+03  0.7818608E-02  0.1375272E+00
          2   -1    0    0  502    0  0.00000000000E+00  0.00000000000E+00  0.25731319630E+03  0.25731319630E+03  0.00000000000E+00 0. -1.
          1   -1    0    0  501    0 -0.00000000000E+00 -0.00000000000E+00 -0.16160557369E+04  0.16160557369E+04  0.00000000000E+00 0. -1.
         25    2    1    2    0    0 -0.39760858109E+02  0.22297271797E+03 -0.24463495671E+02  0.25985404869E+03  0.12501162028E+03 0.  0.
          2    1    1    2  501    0  0.38818281949E+02 -0.20212784434E+03 -0.14658855450E+04  0.14802644884E+04  0.00000000000E+00 0. -1.
          1    1    1    2  502    0  0.94257615947E+00 -0.20844873625E+02  0.13160650008E+03  0.13325039613E+03  0.00000000000E+00 0. -1.
         22    1    3    3    0    0  0.41009063934E+02  0.37029143489E+02 -0.13228728117E+02  0.56814611148E+02  0.00000000000E+00 0. -1.
         22    1    3    3    0    0 -0.80769922043E+02  0.18594357448E+03 -0.11234767554E+02  0.20303943754E+03  0.00000000000E+00 0. -1.
</event>
<event>
 7    1  0.5667373E-006  0.1760540E+03  0.7818608E-02  0.1278095E+00
          2   -1    0    0  502    0  0.00000000000E+00  0.00000000000E+00  0.17700767148E+04  0.17700767148E+04  0.00000000000E+00 0. -1.
          1   -1    0    0  501    0 -0.00000000000E+00 -0.00000000000E+00 -0.10032365498E+04  0.10032365498E+04  0.00000000000E+00 0. -1.
         25    2    1    2    0    0  0.11233818748E+03 -0.88305290796E+02 -0.15059522099E+03  0.24232431264E+03  0.12499783663E+03 0.  0.
          2    1    1    2  501    0 -0.11206387466E+02 -0.56911866045E+02 -0.80118495182E+03  0.80328193721E+03  0.00000000000E+00 0. -1.
          1    1    1    2  502    0 -0.10113180001E+03  0.14521715684E+03  0.17186203378E+04  0.17277070148E+04  0.00000000000E+00 0. -1.
         22    1    3    3    0    0  0.19847199600E+02 -0.94825750188E+02 -0.70772731823E+02  0.11997755540E+03  0.00000000000E+00 0. -1.
         22    1    3    3    0    0  0.92490987876E+02  0.65204593914E+01 -0.79822489168E+02  0.12234675723E+03  0.00000000000E+00 0. -1.
</event>
<event>
 7    1  0.5667373E-006  0.3823126E+02  0.7818608E-02  0.1528730E+00
          2   -1    0    0  502    0  0.00000000000E+00  0.00000000000E+00  0.18268545149E+03  0.18268545149E+03  0.00000000000E+00 0. -1.
          1   -1    0    0  501    0 -0.00000000000E+00 -0.00000000000E+00 -0.23080324570E+03  0.23080324570E+03  0.00000000000E+00 0. -1.
         25    2    1    2    0    0  0.49641121653E+02  0.50516829907E+01  0.17182211816E+02  0.13568347288E+03  0.12500006380E+03 0.  0.
          2    1    1    2  501    0 -0.23385161431E+02 -0.30370004327E+02 -0.16617505378E+03  0.17053841630E+03  0.00000000000E+00 0. -1.
          1    1    1    2  502    0 -0.26255960223E+02  0.25318321336E+02  0.10087504775E+03  0.10726680801E+03  0.00000000000E+00 0. -1.
         22    1    3    3    0    0  0.79300414035E+02 -0.37026998876E+01 -0.25135207638E+02  0.83270909179E+02  0.00000000000E+00 0. -1.
         22    1    3    3    0    0 -0.29659292381E+02  0.87543828783E+01  0.42317419455E+02  0.52412563698E+02  0.00000000000E+00 0. -1.
</event>
<event>
 7    1  0.5667373E-006  0.9979347E+02  0.7818608E-02  0.1351718E+00
          2   -1    0    0  502    0  0.00000000000E+00  0.00000000000E+00  0.28492625263E+03  0.28492625263E+03  0.00000000000E+00 0. -1.
          1   -1    0    0  501    0 -0.00000000000E+00 -0.00000000000E+00 -0.21515976764E+03  0.21515976764E+03  0.00000000000E+00 0. -1.
         25    2    1    2    0    0  0.64539579266E+02  0.36850887967E+02 -0.58118959610E+02  0.15660543782E+03  0.12499641776E+03 0.  0.
          2    1    1    2  501    0  0.38973176924E+02 -0.35480245757E+02 -0.88841643971E+02  0.10329856757E+03  0.00000000000E+00 0. -1.
          1    1    1    2  502    0 -0.10351275619E+03 -0.13706422097E+01  0.21672708857E+03  0.24018201489E+03  0.00000000000E+00 0. -1.
         22    1    3    3    0    0  0.40994717841E+02  0.83488660026E+02 -0.33592870925E+02  0.98890870260E+02  0.00000000000E+00 0. -1.
         22    1    3    3    0    0  0.23544861424E+02 -0.46637772059E+02 -0.24526088685E+02  0.57714567557E+02  0.00000000000E+00 0. -1.
</event>
<event>
 7    1  0.5667373E-006  0.2034649E+03  0.7818608E-02  0.1268684E+00
          2   -1    0    0  502    0  0.00000000000E+00  0.00000000000E+00  0.66767775975E+03  0.66767775975E+03  0.00000000000E+00 0. -1.
          1   -1    0    0  501    0 -0.00000000000E+00 -0.00000000000E+00 -0.26554095796E+03  0.26554095796E+03  0.00000000000E+00 0. -1.
         25    2    1    2    0    0 -0.51021001985E+02 -0.19434583055E+03  0.21791984024E+03  0.32169761312E+03  0.12500741186E+03 0.  0.
          2    1    1    2  501    0 -0.28694692094E+01  0.20505671378E+03 -0.16176841145E+03  0.26120013144E+03  0.00000000000E+00 0. -1.
          1    1    1    2  502    0  0.53890471194E+02 -0.10710883224E+02  0.34598537300E+03  0.35032097316E+03  0.00000000000E+00 0. -1.
         22    1    3    3    0    0 -0.89522399044E+02 -0.12880895097E+03  0.11871402196E+03  0.19672067708E+03  0.00000000000E+00 0. -1.
         22    1    3    3    0    0  0.38501397059E+02 -0.65536879585E+02  0.99205818281E+02  0.12497693604E+03  0.00000000000E+00 0. -1.
</event>
<event>
 7    1  0.5667373E-006  0.1362203E+03  0.7818608E-02  0.1395114E+00
          2   -1    0    0  502    0  0.00000000000E+00  0.00000000000E+00  0.45348107013E+03  0.45348107013E+03  0.00000000000E+00 0. -1.
          1   -1    0    0  501    0 -0.00000000000E+00 -0.00000000000E+00 -0.16492755410E+03  0.16492755410E+03  0.00000000000E+00 0. -1.
         25    2    1    2    0    0  0.86192175295E+02 -0.12916014507E+03 -0.13984742305E+02  0.19982598762E+03  0.12499367245E+03 0.  0.
          2    1    1    2  501    0 -0.25178219248E+02  0.97653518016E+01 -0.41402122683E+02  0.49431170156E+02  0.00000000000E+00 0. -1.
          1    1    1    2  502    0 -0.61013956047E+02  0.11939479327E+03  0.34394038102E+03  0.36915146646E+03  0.00000000000E+00 0. -1.
         22    1    3    3    0    0  0.69987616630E+02 -0.19064287806E+02  0.32171127745E+02  0.79351717130E+02  0.00000000000E+00 0.  1.
         22    1    3    3    0    0  0.16204558665E+02 -0.11009585727E+03 -0.46155870050E+02  0.12047427049E+03  0.00000000000E+00 0.  1.
</event>
<event>
 7    1  0.5667373E-006  0.1181515E+03  0.7818608E-02  0.1298268E+00
          2   -1    0    0  502    0  0.00000000000E+00  0.00000000000E+00  0.11283123882E+04  0.11283123882E+04  0.00000000000E+00 0. -1.
          1   -1    0    0  501    0 -0.00000000000E+00 -0.00000000000E+00 -0.52725075844E+03  0.52725075844E+03  0.00000000000E+00 0. -1.
         25    2    1    2    0    0 -0.77820822422E+01 -0.80307998929E+02 -0.17158916463E+02  0.14976539566E+03  0.12500123930E+03 0.  0.
          2    1    1    2  501    0  0.67288689474E+02 -0.24212405169E+02 -0.43747081716E+03  0.44327725428E+03  0.00000000000E+00 0. -1.
          1    1    1    2  502    0 -0.59506607232E+02  0.10452040410E+03  0.10556913634E+04  0.10625204967E+04  0.00000000000E+00 0. -1.
         22    1    3    3    0    0 -0.43520938634E+02 -0.39479870744E+02 -0.57452704958E+02  0.82179958631E+02  0.00000000000E+00 0.  1.
         22    1    3    3    0    0  0.35738856392E+02 -0.40828128185E+02  0.40293788495E+02  0.67585437031E+02  0.00000000000E+00 0.  1.
</event>
<event>
 7    1  0.5667373E-006  0.1462409E+03  0.7818608E-02  0.1277059E+00
          2   -1    0    0  502    0  0.00000000000E+00  0.00000000000E+00  0.48492848475E+03  0.48492848475E+03  0.00000000000E+00 0. -1.
          1   -1    0    0  501    0 -0.00000000000E+00 -0.00000000000E+00 -0.13887754601E+03  0.13887754601E+03  0.00000000000E+00 0. -1.
         25    2    1    2    0    0 -0.39915359024E+02  0.13566384216E+03  0.30527554368E+03  0.35891691716E+03  0.12502112582E+03 0.  0.
          2    1    1    2  501    0 -0.29774208316E+02 -0.14648065538E+03 -0.42849406682E+02  0.15549648720E+03  0.00000000000E+00 0. -1.
          1    1    1    2  502    0  0.69689567341E+02  0.10816813215E+02  0.83624801745E+02  0.10939262640E+03  0.00000000000E+00 0. -1.
         22    1    3    3    0    0 -0.40410781160E+02  0.15963831382E+03  0.27026444588E+03  0.31648111030E+03  0.00000000000E+00 0.  1.
         22    1    3    3    0    0  0.49542213604E+00 -0.23974471659E+02  0.35011097801E+02  0.42435806858E+02  0.00000000000E+00 0.  1.
</event>
<event>
 7    1  0.5667373E-006  0.1244094E+03  0.7818608E-02  0.1382582E+00
          2   -1    0    0  502    0  0.00000000000E+00  0.00000000000E+00  0.49139936067E+03  0.49139936067E+03  0.00000000000E+00 0. -1.
          1   -1    0    0  501    0 -0.00000000000E+00 -0.00000000000E+00 -0.40696314126E+03  0.40696314126E+03  0.00000000000E+00 0. -1.
         25    2    1    2    0    0 -0.11275729131E+03  0.60556297595E+02 -0.18841927010E+03  0.25982481028E+03  0.12500335503E+03 0.  0.
          2    1    1    2  501    0  0.21816522094E+02  0.24368947409E+02 -0.17278426181E+03  0.17585280028E+03  0.00000000000E+00 0. -1.
          1    1    1    2  502    0  0.90940769215E+02 -0.84925245004E+02  0.44563975132E+03  0.46268489137E+03  0.00000000000E+00 0. -1.
         22    1    3    3    0    0 -0.37468064608E+02  0.72001172863E+02 -0.15836706222E+03  0.17795547520E+03  0.00000000000E+00 0. -1.
         22    1    3    3    0    0 -0.75289226701E+02 -0.11444875268E+02 -0.30052207884E+02  0.81869335077E+02  0.00000000000E+00 0. -1.
</event>
<event>
 7    1  0.5667373E-006  0.1250270E+03  0.7818608E-02  0.1292089E+00
          2   -1    0    0  502    0  0.00000000000E+00  0.00000000000E+00  0.53392080283E+03  0.53392080283E+03  0.00000000000E+00 0. -1.
          1   -1    0    0  501    0 -0.00000000000E+00 -0.00000000000E+00 -0.23308092350E+03  0.23308092350E+03  0.00000000000E+00 0. -1.
         25    2    1    2    0    0 -0.68984642054E+02  0.48654647941E+01  0.75133810032E+02  0.16140794405E+03  0.12499952562E+03 0.  0.
          2    1    1    2  501    0 -0.71427141461E+02  0.45457573273E+01 -0.17062063343E+03  0.18502405519E+03  0.00000000000E+00 0. -1.
          1    1    1    2  502    0  0.14041178352E+03 -0.94112221215E+01  0.39632670273E+03  0.42056972709E+03  0.00000000000E+00 0. -1.
         22    1    3    3    0    0 -0.77316114727E+02 -0.41895292609E+02  0.23027945676E+02  0.90902604040E+02  0.00000000000E+00 0.  1.
         22    1    3    3    0    0  0.83314726727E+01  0.46760757403E+02  0.52105864356E+02  0.70505340011E+02  0.00000000000E+00 0.  1.
</event>
<event>
 7    1  0.5667373E-006  0.3943711E+02  0.7818608E-02  0.1592367E+00
          2   -1    0    0  502    0  0.00000000000E+00  0.00000000000E+00  0.78704006690E+02  0.78704006690E+02  0.00000000000E+00 0. -1.
          1   -1    0    0  501    0 -0.00000000000E+00 -0.00000000000E+00 -0.24271680752E+03  0.24271680752E+03  0.00000000000E+00 0. -1.
         25    2    1    2    0    0  0.12458238107E+02 -0.25942394720E+02 -0.19093453056E+03  0.23002329514E+03  0.12500602308E+03 0.  0.
          2    1    1    2  501    0 -0.19423422663E+02 -0.13449638011E+02 -0.19128648270E+02  0.30398475212E+02  0.00000000000E+00 0. -1.
          1    1    1    2  502    0  0.69651845554E+01  0.39392032731E+02  0.46050377995E+02  0.60999043862E+02  0.00000000000E+00 0. -1.
         22    1    3    3    0    0 -0.65783801693E+01 -0.49006373142E+02 -0.19377411619E+03  0.19998326880E+03  0.00000000000E+00 0. -1.
         22    1    3    3    0    0  0.19036618276E+02  0.23063978423E+02  0.28395856294E+01  0.30040026342E+02  0.00000000000E+00 0. -1.
</event>
<event>
 7    1  0.5667373E-006  0.7565035E+02  0.7818608E-02  0.1366735E+00
          2   -1    0    0  502    0  0.00000000000E+00  0.00000000000E+00  0.51544564336E+03  0.51544564336E+03  0.00000000000E+00 0. -1.
          1   -1    0    0  501    0 -0.00000000000E+00 -0.00000000000E+00 -0.94000680601E+03  0.94000680601E+03  0.00000000000E+00 0. -1.
         25    2    1    2    0    0  0.81147719736E+02 -0.98421098523E+02  0.27953982603E+02  0.18077021647E+03  0.12499912386E+03 0.  0.
          2    1    1    2  501    0 -0.26891555978E+02  0.69948517209E+02 -0.85967628568E+03  0.86293642119E+03  0.00000000000E+00 0. -1.
          1    1    1    2  502    0 -0.54256163758E+02  0.28472581314E+02  0.40716114043E+03  0.41174581172E+03  0.00000000000E+00 0. -1.
         22    1    3    3    0    0  0.40406731582E+02 -0.41288681509E+02 -0.49629100532E+02  0.76161058274E+02  0.00000000000E+00 0.  1.
         22    1    3    3    0    0  0.40740988154E+02 -0.57132417014E+02  0.77583083135E+02  0.10460915820E+03  0.00000000000E+00 0.  1.
</event>
<event>
 7    1  0.5667373E-006  0.3946205E+02  0.7818608E-02  0.1563677E+00
          2   -1    0    0  502    0  0.00000000000E+00  0.00000000000E+00  0.16839510513E+04  0.16839510513E+04  0.00000000000E+00 0. -1.
          1   -1    0    0  501    0 -0.00000000000E+00 -0.00000000000E+00 -0.13104661846E+02  0.13104661846E+02  0.00000000000E+00 0. -1.
         25    2    1    2    0    0  0.23771987975E+01 -0.12854478448E+02  0.12077109067E+04  0.12142328796E+04  0.12499985227E+03 0.  0.
          2    1    1    2  501    0 -0.18710468973E+02  0.35842208658E+02  0.34185966868E+02  0.52947388050E+02  0.00000000000E+00 0. -1.
          1    1    1    2  502    0  0.16333270175E+02 -0.22987730209E+02  0.42894951593E+03  0.42987544553E+03  0.00000000000E+00 0. -1.
         22    1    3    3    0    0  0.57905678438E+02 -0.33019110371E+01  0.35911999010E+03  0.36377347003E+03  0.00000000000E+00 0. -1.
         22    1    3    3    0    0 -0.55528479640E+02 -0.95525674111E+01  0.84859091656E+03  0.85045940953E+03  0.00000000000E+00 0. -1.
</event>
<event>
 7    1  0.5667373E-006  0.4358908E+02  0.7818608E-02  0.1600950E+00
          2   -1    0    0  502    0  0.00000000000E+00  0.00000000000E+00  0.13700049822E+04  0.13700049822E+04  0.00000000000E+00 0. -1.
          1   -1    0    0  501    0 -0.00000000000E+00 -0.00000000000E+00 -0.54459957945E+03  0.54459957945E+03  0.00000000000E+00 0. -1.
         25    2    1    2    0    0  0.43184009730E+02 -0.47007977238E+02  0.35052745715E+03  0.37758529053E+03  0.12500617899E+03 0.  0.
          2    1    1    2  501    0 -0.29300583364E+02  0.32204960933E+02 -0.53007565118E+03  0.53186077094E+03  0.00000000000E+00 0. -1.
          1    1    1    2  502    0 -0.13883426365E+02  0.14803016305E+02  0.10049535968E+04  0.10051585002E+04  0.00000000000E+00 0. -1.
         22    1    3    3    0    0  0.62064214881E+02 -0.40019258344E+02  0.34972532816E+03  0.35743714547E+03  0.00000000000E+00 0.  1.
         22    1    3    3    0    0 -0.18880205151E+02 -0.69887188938E+01  0.80212899285E+00  0.20148145057E+02  0.00000000000E+00 0.  1.
</event>
<event>
 7    1  0.5667373E-006  0.6365822E+02  0.7818608E-02  0.1392185E+00
          2   -1    0    0  502    0  0.00000000000E+00  0.00000000000E+00  0.48709576906E+02  0.48709576906E+02  0.00000000000E+00 0. -1.
          1   -1    0    0  501    0 -0.00000000000E+00 -0.00000000000E+00 -0.15798173408E+04  0.15798173408E+04  0.00000000000E+00 0. -1.
         25    2    1    2    0    0  0.39503036023E+02 -0.35241911106E+02 -0.34859387606E+03  0.37409410373E+03  0.12500490336E+03 0.  0.
          2    1    1    2  501    0  0.11540349953E+02  0.65144728714E+02 -0.11925897326E+04  0.11944234113E+04  0.00000000000E+00 0. -1.
          1    1    1    2  502    0 -0.51043385976E+02 -0.29902817608E+02  0.10075844760E+02  0.60009402600E+02  0.00000000000E+00 0. -1.
         22    1    3    3    0    0  0.28218728023E+02  0.30790982843E+02 -0.38355863236E+02  0.56705850494E+02  0.00000000000E+00 0. -1.
         22    1    3    3    0    0  0.11284308001E+02 -0.66032893949E+02 -0.31023801282E+03  0.31738825323E+03  0.00000000000E+00 0. -1.
</event>
<event>
 7    1  0.5667373E-006  0.5254690E+02  0.7818608E-02  0.1481881E+00
          2   -1    0    0  502    0  0.00000000000E+00  0.00000000000E+00  0.41816682421E+03  0.41816682421E+03  0.00000000000E+00 0. -1.
          1   -1    0    0  501    0 -0.00000000000E+00 -0.00000000000E+00 -0.64643502736E+03  0.64643502736E+03  0.00000000000E+00 0. -1.
         25    2    1    2    0    0  0.11127001361E+02  0.56736981051E+02  0.19606727554E+02  0.13911116372E+03  0.12499838770E+03 0.  0.
          2    1    1    2  501    0 -0.35202801680E+02 -0.97694817972E+01 -0.58405316302E+03  0.58519464903E+03  0.00000000000E+00 0. -1.
          1    1    1    2  502    0  0.24075800319E+02 -0.46967499254E+02  0.33617823232E+03  0.34029603881E+03  0.00000000000E+00 0. -1.
         22    1    3    3    0    0  0.11507937870E+02  0.93845550019E+02 -0.48395994997E+01  0.94672285362E+02  0.00000000000E+00 0.  1.
         22    1    3    3    0    0 -0.38093650917E+00 -0.37108568968E+02  0.24446327053E+02  0.44438878359E+02  0.00000000000E+00 0.  1.
</event>
<event>
 7    1  0.5667373E-006  0.7534727E+02  0.7818608E-02  0.1370977E+00
          2   -1    0    0  502    0  0.00000000000E+00  0.00000000000E+00  0.32006894072E+03  0.32006894072E+03  0.00000000000E+00 0. -1.
          1   -1    0    0  501    0 -0.00000000000E+00 -0.00000000000E+00 -0.28126291327E+03  0.28126291327E+03  0.00000000000E+00 0. -1.
         25    2    1    2    0    0  0.10606579827E+03 -0.48199453647E+02 -0.60199198769E+02  0.18116863315E+03  0.12499995684E+03 0.  0.
          2    1    1    2  501    0 -0.58753672814E+02 -0.86942466811E+01 -0.14950503479E+03  0.16087056730E+03  0.00000000000E+00 0. -1.
          1    1    1    2  502    0 -0.47312125452E+02  0.56893700328E+02  0.24851026102E+03  0.25929265354E+03  0.00000000000E+00 0. -1.
         22    1    3    3    0    0  0.32351559703E+02 -0.69108150309E+02  0.10361997202E+02  0.77006044181E+02  0.00000000000E+00 0.  1.
         22    1    3    3    0    0  0.73714238563E+02  0.20908696663E+02 -0.70561195972E+02  0.10416258897E+03  0.00000000000E+00 0.  1.
</event>
<event>
 7    1  0.5667373E-006  0.8371826E+02  0.7818608E-02  0.1330933E+00
          2   -1    0    0  502    0  0.00000000000E+00  0.00000000000E+00  0.15794521849E+04  0.15794521849E+04  0.00000000000E+00 0. -1.
          1   -1    0    0  501    0 -0.00000000000E+00 -0.00000000000E+00 -0.49790241933E+03  0.49790241933E+03  0.00000000000E+00 0. -1.
         25    2    1    2    0    0  0.70107319878E+02 -0.98639964622E+02  0.23688353086E+02  0.17558702771E+03  0.12499914923E+03 0.  0.
          2    1    1    2  501    0 -0.79619647652E+02  0.24052031386E+02 -0.41688726547E+03  0.42510325877E+03  0.00000000000E+00 0. -1.
          1    1    1    2  502    0  0.95123277746E+01  0.74587933236E+02  0.14747486779E+04  0.14766643177E+04  0.00000000000E+00 0. -1.
         22    1    3    3    0    0 -0.32554161353E+02 -0.23946565179E+02 -0.14617672953E+02  0.42975432142E+02  0.00000000000E+00 0.  1.
         22    1    3    3    0    0  0.10266148123E+03 -0.74693399442E+02  0.38306026039E+02  0.13261159557E+03  0.00000000000E+00 0.  1.
</event>
<event>
 7    1  0.5667373E-006  0.9571071E+02  0.7818608E-02  0.1354671E+00
          2   -1    0    0  502    0  0.00000000000E+00  0.00000000000E+00  0.34247765465E+03  0.34247765465E+03  0.00000000000E+00 0. -1.
          1   -1    0    0  501    0 -0.00000000000E+00 -0.00000000000E+00 -0.48527665959E+03  0.48527665959E+03  0.00000000000E+00 0. -1.
         25    2    1    2    0    0  0.24408241862E+02 -0.43032632933E+02 -0.19420023943E+03  0.23619378603E+03  0.12500480709E+03 0.  0.
          2    1    1    2  501    0  0.49594519942E+02 -0.20310037842E+02 -0.25990354115E+03  0.26537137138E+03  0.00000000000E+00 0. -1.
          1    1    1    2  502    0 -0.74002761804E+02  0.63342670775E+02  0.31130477564E+03  0.32618915683E+03  0.00000000000E+00 0. -1.
         22    1    3    3    0    0 -0.39732722774E+02 -0.64284140834E+01 -0.13697606410E+03  0.14276713874E+03  0.00000000000E+00 0.  1.
         22    1    3    3    0    0  0.64140964636E+02 -0.36604218850E+02 -0.57224175333E+02  0.93426647294E+02  0.00000000000E+00 0.  1.
</event>
<event>
 7    1  0.1174256E-005  0.7021948E+02  0.7818608E-02  0.1416300E+00
          2   -1    0    0  502    0  0.00000000000E+00  0.00000000000E+00  0.17281976449E+04  0.17281976449E+04  0.00000000000E+00 0. -1.
          1   -1    0    0  501    0 -0.00000000000E+00 -0.00000000000E+00 -0.10497417109E+04  0.10497417109E+04  0.00000000000E+00 0. -1.
         25    2    1    2    0    0  0.23334428294E+02  0.29552813382E+02 -0.76007295685E+02  0.15106072760E+03  0.12499748038E+03 0.  0.
          2    1    1    2  501    0 -0.17666720077E+02  0.40689841254E+02 -0.93494724701E+03  0.93599900153E+03  0.00000000000E+00 0. -1.
          1    1    1    2  502    0 -0.56677082176E+01 -0.70242654636E+02  0.16894104766E+04  0.16908796267E+04  0.00000000000E+00 0. -1.
         22    1    3    3    0    0  0.44340609764E+02  0.12025516383E+02 -0.10290487084E+03  0.11269478764E+03  0.00000000000E+00 0.  1.
         22    1    3    3    0    0 -0.21006181470E+02  0.17527296999E+02  0.26897575151E+02  0.38365939960E+02  0.00000000000E+00 0.  1.
</event>
<event>
 7    1  0.5667373E-006  0.3105453E+02  0.7818608E-02  0.1598446E+00
          2   -1    0    0  502    0  0.00000000000E+00  0.00000000000E+00  0.85688205229E+03  0.85688205229E+03  0.00000000000E+00 0. -1.
          1   -1    0    0  501    0 -0.00000000000E+00 -0.00000000000E+00 -0.25724622772E+03  0.25724622772E+03  0.00000000000E+00 0. -1.
         25    2    1    2    0    0  0.80977522740E+01  0.13529350541E+02  0.62076286629E+03  0.63341951839E+03  0.12500053278E+03 0.  0.
          2    1    1    2  501    0  0.24673271609E+02 -0.18857716936E+02 -0.24874807458E+03  0.25067905463E+03  0.00000000000E+00 0. -1.
          1    1    1    2  502    0 -0.32771023883E+02  0.53283663954E+01  0.22762103287E+03  0.23002970700E+03  0.00000000000E+00 0. -1.
         22    1    3    3    0    0 -0.50668169161E+02 -0.24121967191E+02  0.28799964883E+03  0.29341596819E+03  0.00000000000E+00 0.  1.
         22    1    3    3    0    0  0.58765921435E+02  0.37651317731E+02  0.33276321746E+03  0.34000355019E+03  0.00000000000E+00 0.  1.
</event>
<event>
 7    1  0.5667373E-006  0.4703325E+02  0.7818608E-02  0.1490827E+00
          2   -1    0    0  502    0  0.00000000000E+00  0.00000000000E+00  0.60608734063E+03  0.60608734063E+03  0.00000000000E+00 0. -1.
          1   -1    0    0  501    0 -0.00000000000E+00 -0.00000000000E+00 -0.76356269910E+03  0.76356269910E+03  0.00000000000E+00 0. -1.
         25    2    1    2    0    0 -0.83380490968E+02 -0.15472294863E+02 -0.42823380275E+02  0.15700418216E+03  0.12499909253E+03 0.  0.
          2    1    1    2  501    0  0.38110234035E+02  0.41707157024E+01 -0.66210200181E+03  0.66321101138E+03  0.00000000000E+00 0. -1.
          1    1    1    2  502    0  0.45270256933E+02  0.11301579161E+02  0.54745002361E+03  0.54943484619E+03  0.00000000000E+00 0. -1.
         22    1    3    3    0    0 -0.73736348739E+02 -0.23156677426E+02 -0.83926136014E+02  0.11409152966E+03  0.00000000000E+00 0.  1.
         22    1    3    3    0    0 -0.96441422289E+01  0.76843825634E+01  0.41102755739E+02  0.42912652494E+02  0.00000000000E+00 0.  1.
</event>
<event>
 7    1  0.5667373E-006  0.5548588E+02  0.7818608E-02  0.1420131E+00
          2   -1    0    0  502    0  0.00000000000E+00  0.00000000000E+00  0.69655330669E+03  0.69655330669E+03  0.00000000000E+00 0. -1.
          1   -1    0    0  501    0 -0.00000000000E+00 -0.00000000000E+00 -0.19281424357E+03  0.19281424357E+03  0.00000000000E+00 0. -1.
         25    2    1    2    0    0 -0.25052069891E+02 -0.22882755729E+02 -0.28250608977E+02  0.13256967993E+03  0.12500158565E+03 0.  0.
          2    1    1    2  501    0 -0.24935484295E+02  0.48466708764E+02 -0.10448704159E+03  0.11784881032E+03  0.00000000000E+00 0. -1.
          1    1    1    2  502    0  0.49987554186E+02 -0.25583953035E+02  0.63647671368E+03  0.63894906001E+03  0.00000000000E+00 0. -1.
         22    1    3    3    0    0  0.76490103659E+00 -0.49948745246E+02 -0.63757100716E+02  0.80996482127E+02  0.00000000000E+00 0.  1.
         22    1    3    3    0    0 -0.25816970927E+02  0.27065989517E+02  0.35506491739E+02  0.51573197806E+02  0.00000000000E+00 0.  1.
</event>
<event>
 7    1  0.5667373E-006  0.9511325E+02  0.7818608E-02  0.1305752E+00
          2   -1    0    0  502    0  0.00000000000E+00  0.00000000000E+00  0.13312555835E+04  0.13312555835E+04  0.00000000000E+00 0. -1.
          1   -1    0    0  501    0 -0.00000000000E+00 -0.00000000000E+00 -0.31437637419E+03  0.31437637419E+03  0.00000000000E+00 0. -1.
         25    2    1    2    0    0  0.34378493474E+02 -0.16899184178E+03  0.58069732681E+03  0.61852631287E+03  0.12500116379E+03 0.  0.
          2    1    1    2  501    0  0.13984887092E+01  0.94176092128E+02 -0.28552040868E+03  0.30065427965E+03  0.00000000000E+00 0. -1.
          1    1    1    2  502    0 -0.35776982183E+02  0.74815749653E+02  0.72170229123E+03  0.72645136521E+03  0.00000000000E+00 0. -1.
         22    1    3    3    0    0  0.54665212697E+02 -0.12575858826E+03  0.25671462099E+03  0.29104278832E+03  0.00000000000E+00 0.  1.
         22    1    3    3    0    0 -0.20286719222E+02 -0.43233253524E+02  0.32398270581E+03  0.32748352455E+03  0.00000000000E+00 0.  1.
</event>
<event>
 7    1  0.5667373E-006  0.1033631E+03  0.7818608E-02  0.1365434E+00
          2   -1    0    0  502    0  0.00000000000E+00  0.00000000000E+00  0.11584642816E+04  0.11584642816E+04  0.00000000000E+00 0. -1.
          1   -1    0    0  501    0 -0.00000000000E+00 -0.00000000000E+00 -0.14441172480E+04  0.14441172480E+04  0.00000000000E+00 0. -1.
         25    2    1    2    0    0 -0.72064038133E+02  0.90306281640E+02  0.95174658843E+02  0.19501693747E+03  0.12499976048E+03 0.  0.
          2    1    1    2  501    0 -0.18728372482E+02 -0.41284066121E+02 -0.13911994435E+04  0.13919378642E+04  0.00000000000E+00 0. -1.
          1    1    1    2  502    0  0.90792410615E+02 -0.49022215520E+02  0.10103718182E+04  0.10156267279E+04  0.00000000000E+00 0. -1.
         22    1    3    3    0    0  0.15827547444E+02 -0.19514498032E+02 -0.99965906548E-01  0.25126418064E+02  0.00000000000E+00 0.  1.
         22    1    3    3    0    0 -0.87891585577E+02  0.10982077967E+03  0.95274624749E+02  0.16989051941E+03  0.00000000000E+00 0.  1.
</event>
<event>
 7    1  0.5667373E-006  0.7506557E+02  0.7818608E-02  0.1380797E+00
          2   -1    0    0  502    0  0.00000000000E+00  0.00000000000E+00  0.22263041379E+04  0.22263041379E+04  0.00000000000E+00 0. -1.
          1   -1    0    0  501    0 -0.00000000000E+00 -0.00000000000E+00 -0.14613504593E+02  0.14613504593E+02  0.00000000000E+00 0. -1.
         25    2    1    2    0    0 -0.49575462823E+01 -0.47513078273E+02  0.71320718250E+03  0.72565228490E+03  0.12499873414E+03 0.  0.
          2    1    1    2  501    0 -0.54114177705E+02 -0.98367698293E+01  0.98121729479E+02  0.11248546602E+03  0.00000000000E+00 0. -1.
          1    1    1    2  502    0  0.59071723987E+02  0.57349848102E+02  0.14003617213E+04  0.14027798916E+04  0.00000000000E+00 0. -1.
         22    1    3    3    0    0  0.90721582583E+01 -0.12982344261E+02  0.52075426737E+01  0.16672246959E+02  0.00000000000E+00 0. -1.
         22    1    3    3    0    0 -0.14029704541E+02 -0.34530734011E+02  0.70799963983E+03  0.70898003794E+03  0.00000000000E+00 0. -1.
</event>
<event>
 7    1  0.5667373E-006  0.2209267E+03  0.7818608E-02  0.1194156E+00
          2   -1    0    0  502    0  0.00000000000E+00  0.00000000000E+00  0.74150795152E+03  0.74150795152E+03  0.00000000000E+00 0. -1.
          1   -1    0    0  501    0 -0.00000000000E+00 -0.00000000000E+00 -0.84043192942E+03  0.84043192942E+03  0.00000000000E+00 0. -1.
         25    2    1    2    0    0  0.19795633678E+03 -0.12279961840E+03  0.87751094553E+02  0.27855325213E+03  0.12500080849E+03 0.  0.
          2    1    1    2  501    0  0.24575099490E+02  0.10630576358E+03 -0.71845208862E+03  0.72668993011E+03  0.00000000000E+00 0. -1.
          1    1    1    2  502    0 -0.22253143627E+03  0.16493854817E+02  0.53177701616E+03  0.57669669870E+03  0.00000000000E+00 0. -1.
         22    1    3    3    0    0  0.31180940716E+02 -0.83421641575E+02  0.76248060359E+01  0.89384333158E+02  0.00000000000E+00 0. -1.
         22    1    3    3    0    0  0.16677539607E+03 -0.39377976824E+02  0.80126288517E+02  0.18916891897E+03  0.00000000000E+00 0. -1.
</event>
<event>
 7    1  0.5667373E-006  0.1404579E+03  0.7818608E-02  0.1227943E+00
          2   -1    0    0  502    0  0.00000000000E+00  0.00000000000E+00  0.62727229938E+03  0.62727229938E+03  0.00000000000E+00 0. -1.
          1   -1    0    0  501    0 -0.00000000000E+00 -0.00000000000E+00 -0.17773368320E+03  0.17773368320E+03  0.00000000000E+00 0. -1.
         25    2    1    2    0    0 -0.12956574044E+03 -0.61841335399E+02  0.55805724866E+02  0.19836881278E+03  0.12499710035E+03 0.  0.
          2    1    1    2  501    0 -0.55901268186E+01  0.11958403340E+03 -0.56967551364E+02  0.13257787323E+03  0.00000000000E+00 0. -1.
          1    1    1    2  502    0  0.13515586725E+03 -0.57742698005E+02  0.45070044268E+03  0.47405929656E+03  0.00000000000E+00 0. -1.
         22    1    3    3    0    0 -0.10158201413E+03  0.18130554865E+02  0.14808083962E+02  0.10424443373E+03  0.00000000000E+00 0.  1.
         22    1    3    3    0    0 -0.27983726310E+02 -0.79971890263E+02  0.40997640904E+02  0.94124379043E+02  0.00000000000E+00 0.  1.
</event>
<event>
 7    1  0.5667373E-006  0.5547346E+02  0.7818608E-02  0.1531989E+00
          2   -1    0    0  502    0  0.00000000000E+00  0.00000000000E+00  0.14246300347E+03  0.14246300347E+03  0.00000000000E+00 0. -1.
          1   -1    0    0  501    0 -0.00000000000E+00 -0.00000000000E+00 -0.20906099026E+03  0.20906099026E+03  0.00000000000E+00 0. -1.
         25    2    1    2    0    0  0.28399421012E+02  0.58112941769E+02 -0.43704273695E+02  0.14737624282E+03  0.12500420910E+03 0.  0.
          2    1    1    2  501    0 -0.40406591628E+01 -0.54653541366E+02 -0.10499633203E+03  0.11843802704E+03  0.00000000000E+00 0. -1.
          1    1    1    2  502    0 -0.24358761849E+02 -0.34594004029E+01  0.82102618932E+02  0.85709723868E+02  0.00000000000E+00 0. -1.
         22    1    3    3    0    0 -0.24724714375E+02 -0.10905058834E+02  0.24714906740E+02  0.36620464555E+02  0.00000000000E+00 0.  1.
         22    1    3    3    0    0  0.53124135387E+02  0.69018000603E+02 -0.68419180435E+02  0.11075577827E+03  0.00000000000E+00 0.  1.
</event>
<event>
 7    1  0.5667373E-006  0.7343379E+02  0.7818608E-02  0.1402630E+00
          2   -1    0    0  502    0  0.00000000000E+00  0.00000000000E+00  0.34869966236E+04  0.34869966236E+04  0.00000000000E+00 0. -1.
          1   -1    0    0  501    0 -0.00000000000E+00 -0.00000000000E+00 -0.74888518032E+03  0.74888518032E+03  0.00000000000E+00 0. -1.
         25    2    1    2    0    0  0.52383124899E+02  0.96387808982E+00  0.10106023804E+04  0.10196504696E+04  0.12499995246E+03 0.  0.
          2    1    1    2  501    0  0.90751513273E+01  0.46315999032E+02 -0.74300411184E+03  0.74450160534E+03  0.00000000000E+00 0. -1.
          1    1    1    2  502    0 -0.61458276226E+02 -0.47279877122E+02  0.24705131748E+04  0.24717297290E+04  0.00000000000E+00 0. -1.
         22    1    3    3    0    0 -0.37165741705E+02  0.78350330876E+01  0.48002971413E+03  0.48153006816E+03  0.00000000000E+00 0.  1.
         22    1    3    3    0    0  0.89548866604E+02 -0.68711549978E+01  0.53057266624E+03  0.53812040143E+03  0.00000000000E+00 0.  1.
</event>
<event>
 7    1  0.5667373E-006  0.5400854E+02  0.7818608E-02  0.1469520E+00
          2   -1    0    0  502    0  0.00000000000E+00  0.00000000000E+00  0.15959634836E+04  0.15959634836E+04  0.00000000000E+00 0. -1.
          1   -1    0    0  501    0 -0.00000000000E+00 -0.00000000000E+00 -0.60161547056E+03  0.60161547056E+03  0.00000000000E+00 0. -1.
         25    2    1    2    0    0  0.26252829004E+02  0.49701857308E+02  0.22592600761E+03  0.26424642144E+03  0.12499649866E+03 0.  0.
          2    1    1    2  501    0  0.24436684600E+02 -0.30148220023E+02 -0.58126169515E+03  0.58255576984E+03  0.00000000000E+00 0. -1.
          1    1    1    2  502    0 -0.50689513604E+02 -0.19553637285E+02  0.13496837006E+04  0.13507767629E+04  0.00000000000E+00 0. -1.
         22    1    3    3    0    0  0.63179711755E+01  0.84607856670E+01  0.21739635305E+03  0.21765264982E+03  0.00000000000E+00 0.  1.
         22    1    3    3    0    0  0.19934857829E+02  0.41241071641E+02  0.85296545643E+01  0.46593771620E+02  0.00000000000E+00 0.  1.
</event>
<event>
 7    1  0.5667373E-006  0.5162802E+02  0.7818608E-02  0.1547561E+00
          2   -1    0    0  502    0  0.00000000000E+00  0.00000000000E+00  0.13580373246E+04  0.13580373246E+04  0.00000000000E+00 0. -1.
          1   -1    0    0  501    0 -0.00000000000E+00 -0.00000000000E+00 -0.12603936596E+04  0.12603936596E+04  0.00000000000E+00 0. -1.
         25    2    1    2    0    0 -0.74075750561E+02  0.99232809530E+00  0.50042732476E+02  0.15367976436E+03  0.12499997345E+03 0.  0.
          2    1    1    2  501    0  0.51006272908E+02 -0.71874750714E+01 -0.12079126386E+04  0.12090104393E+04  0.00000000000E+00 0. -1.
          1    1    1    2  502    0  0.23069477653E+02  0.61951469761E+01  0.12555135712E+04  0.12557407806E+04  0.00000000000E+00 0. -1.
         22    1    3    3    0    0 -0.94510530563E+02 -0.33621308710E+02  0.17208080044E+02  0.10177794852E+03  0.00000000000E+00 0. -1.
         22    1    3    3    0    0  0.20434780002E+02  0.34613636805E+02  0.32834652431E+02  0.51901815834E+02  0.00000000000E+00 0. -1.
</event>
<event>
 7    1  0.5667373E-006  0.6744252E+02  0.7818608E-02  0.1486585E+00
          2   -1    0    0  502    0  0.00000000000E+00  0.00000000000E+00  0.20794269803E+04  0.20794269803E+04  0.00000000000E+00 0. -1.
          1   -1    0    0  501    0 -0.00000000000E+00 -0.00000000000E+00 -0.17481863455E+02  0.17481863455E+02  0.00000000000E+00 0. -1.
         25    2    1    2    0    0  0.48029390882E+02 -0.28526809296E+02  0.59065310045E+03  0.60631376126E+03  0.12499876315E+03 0.  0.
          2    1    1    2  501    0  0.20311770320E+02  0.18597200603E+02  0.12627099826E+02  0.30296328718E+02  0.00000000000E+00 0. -1.
          1    1    1    2  502    0 -0.68341161202E+02  0.99296086933E+01  0.14586649165E+04  0.14602987537E+04  0.00000000000E+00 0. -1.
         22    1    3    3    0    0  0.54792909424E+02  0.31089808473E+02  0.43427105131E+03  0.43881680132E+03  0.00000000000E+00 0. -1.
         22    1    3    3    0    0 -0.67635185423E+01 -0.59616617769E+02  0.15638204914E+03  0.16749695994E+03  0.00000000000E+00 0. -1.
</event>
<event>
 7    1  0.5667373E-006  0.6410127E+02  0.7818608E-02  0.1460776E+00
          2   -1    0    0  502    0  0.00000000000E+00  0.00000000000E+00  0.12059265134E+04  0.12059265134E+04  0.00000000000E+00 0. -1.
          1   -1    0    0  501    0 -0.00000000000E+00 -0.00000000000E+00 -0.23737066067E+02  0.23737066067E+02  0.00000000000E+00 0. -1.
         25    2    1    2    0    0  0.48902018491E+02 -0.15085193169E+02  0.69525973207E+03  0.70825845792E+03  0.12499991084E+03 0.  0.
          2    1    1    2  501    0  0.21073711925E+02  0.27726227678E+02  0.61125720364E+01  0.35358288597E+02  0.00000000000E+00 0. -1.
          1    1    1    2  502    0 -0.69975730417E+02 -0.12641034509E+02  0.48081714325E+03  0.48604683297E+03  0.00000000000E+00 0. -1.
         22    1    3    3    0    0 -0.24938559218E+02 -0.52725936422E+01  0.47617130081E+03  0.47685305880E+03  0.00000000000E+00 0.  1.
         22    1    3    3    0    0  0.73840577710E+02 -0.98125995271E+01  0.21908843127E+03  0.23140539912E+03  0.00000000000E+00 0.  1.
</event>
<event>
 7    1  0.5667373E-006  0.5508601E+02  0.7818608E-02  0.1490455E+00
          2   -1    0    0  502    0  0.00000000000E+00  0.00000000000E+00  0.13900513548E+04  0.13900513548E+04  0.00000000000E+00 0. -1.
          1   -1    0    0  501    0 -0.00000000000E+00 -0.00000000000E+00 -0.89346800254E+03  0.89346800254E+03  0.00000000000E+00 0. -1.
         25    2    1    2    0    0 -0.80551207675E+02  0.29756654740E+02  0.13073990661E+03  0.20023164591E+03  0.12500333310E+03 0.  0.
          2    1    1    2  501    0  0.27187697851E+02 -0.18381287384E+02 -0.85780041581E+03  0.85842797951E+03  0.00000000000E+00 0. -1.
          1    1    1    2  502    0  0.53363509824E+02 -0.11375367356E+02  0.12236438615E+04  0.12248597319E+04  0.00000000000E+00 0. -1.
         22    1    3    3    0    0  0.30976558718E+02  0.24512938775E+02  0.27204244426E+02  0.47963551496E+02  0.00000000000E+00 0.  1.
         22    1    3    3    0    0 -0.11152776639E+03  0.52437159643E+01  0.10353566218E+03  0.15226809442E+03  0.00000000000E+00 0.  1.
</event>
<event>
 7    1  0.5667373E-006  0.2508835E+03  0.7818608E-02  0.1281045E+00
          2   -1    0    0  502    0  0.00000000000E+00  0.00000000000E+00  0.20872774886E+04  0.20872774886E+04  0.00000000000E+00 0. -1.
          1   -1    0    0  501    0 -0.00000000000E+00 -0.00000000000E+00 -0.41040032508E+03  0.41040032508E+03  0.00000000000E+00 0. -1.
         25    2    1    2    0    0  0.15259613196E+02  0.22385828744E+03  0.60988894200E+03  0.66176423680E+03  0.12498797895E+03 0.  0.
          2    1    1    2  501    0 -0.61100937396E+01  0.39101685729E+02 -0.37147836642E+03  0.37358058273E+03  0.00000000000E+00 0. -1.
          1    1    1    2  502    0 -0.91495194567E+01 -0.26295997317E+03  0.14384665879E+04  0.14623329942E+04  0.00000000000E+00 0. -1.
         22    1    3    3    0    0  0.42594132124E+02  0.19598962898E+03  0.39118961052E+03  0.43960835540E+03  0.00000000000E+00 0.  1.
         22    1    3    3    0    0 -0.27334518928E+02  0.27868658457E+02  0.21869933149E+03  0.22215588140E+03  0.00000000000E+00 0.  1.
</event>
<event>
 7    1  0.5667373E-006  0.2334498E+03  0.7818608E-02  0.1260216E+00
          2   -1    0    0  502    0  0.00000000000E+00  0.00000000000E+00  0.19919384244E+04  0.19919384244E+04  0.00000000000E+00 0. -1.
          1   -1    0    0  501    0 -0.00000000000E+00 -0.00000000000E+00 -0.12780440798E+04  0.12780440798E+04  0.00000000000E+00 0. -1.
         25    2    1    2    0    0  0.16192943288E+03  0.22743218626E+03  0.16700117664E+04  0.16977951018E+04  0.12498946876E+03 0.  0.
          2    1    1    2  501    0 -0.11660906375E+03 -0.20191178177E+03 -0.12511064432E+04  0.12726481735E+04  0.00000000000E+00 0. -1.
          1    1    1    2  502    0 -0.45320369127E+02 -0.25520404498E+02  0.29498902134E+03  0.29953922884E+03  0.00000000000E+00 0. -1.
         22    1    3    3    0    0 -0.51420181264E+01  0.17097320872E+02  0.23482679993E+02  0.29499067630E+02  0.00000000000E+00 0. -1.
         22    1    3    3    0    0  0.16707145100E+03  0.21033486539E+03  0.16465290864E+04  0.16682960342E+04  0.00000000000E+00 0. -1.
</event>
<event>
 7    1  0.5667373E-006  0.1280770E+03  0.7818608E-02  0.1332347E+00
          2   -1    0    0  502    0  0.00000000000E+00  0.00000000000E+00  0.52834535924E+03  0.52834535924E+03  0.00000000000E+00 0. -1.
          1   -1    0    0  501    0 -0.00000000000E+00 -0.00000000000E+00 -0.11795800974E+04  0.11795800974E+04  0.00000000000E+00 0. -1.
         25    2    1    2    0    0  0.12591900696E+03 -0.74445441114E+02  0.33015229641E+03  0.38213685151E+03  0.12502125596E+03 0.  0.
          2    1    1    2  501    0 -0.47132583607E+02 -0.11618563077E+02 -0.11332432122E+04  0.11342824382E+04  0.00000000000E+00 0. -1.
          1    1    1    2  502    0 -0.78786423353E+02  0.86064004191E+02  0.15185617762E+03  0.19150616701E+03  0.00000000000E+00 0. -1.
         22    1    3    3    0    0  0.92930490450E+02 -0.58906420008E+02  0.32759916018E+03  0.34558248238E+03  0.00000000000E+00 0.  1.
         22    1    3    3    0    0  0.32988516510E+02 -0.15539021107E+02  0.25531362307E+01  0.36554369138E+02  0.00000000000E+00 0.  1.
</event>
<event>
 7    1  0.5667373E-006  0.4085223E+02  0.7818608E-02  0.1601596E+00
          2   -1    0    0  502    0  0.00000000000E+00  0.00000000000E+00  0.22117638629E+04  0.22117638629E+04  0.00000000000E+00 0. -1.
          1   -1    0    0  501    0 -0.00000000000E+00 -0.00000000000E+00 -0.15000670150E+04  0.15000670150E+04  0.00000000000E+00 0. -1.
         25    2    1    2    0    0 -0.28712324154E+02  0.55172885869E+02  0.10762309317E+04  0.10852500160E+04  0.12500453579E+03 0.  0.
          2    1    1    2  501    0  0.16611129050E+02 -0.37316587568E+02 -0.14951756797E+04  0.14957335226E+04  0.00000000000E+00 0. -1.
          1    1    1    2  502    0  0.12101195103E+02 -0.17856298301E+02  0.11306415959E+04  0.11308473393E+04  0.00000000000E+00 0. -1.
         22    1    3    3    0    0  0.34075516649E+02  0.32432261707E+02  0.78722246313E+03  0.78862678048E+03  0.00000000000E+00 0. -1.
         22    1    3    3    0    0 -0.62787840803E+02  0.22740624162E+02  0.28900846856E+03  0.29662323550E+03  0.00000000000E+00 0. -1.
</event>
<event>
 7    1  0.5667373E-006  0.5547539E+02  0.7818608E-02  0.1457472E+00
          2   -1    0    0  502    0  0.00000000000E+00  0.00000000000E+00  0.24197610443E+02  0.24197610443E+02  0.00000000000E+00 0. -1.
          1   -1    0    0  501    0 -0.00000000000E+00 -0.00000000000E+00 -0.91311168479E+03  0.91311168479E+03  0.00000000000E+00 0. -1.
         25    2    1    2    0    0  0.34748035259E+02 -0.62355526844E+02 -0.28332247506E+03  0.31779307805E+03  0.12500071159E+03 0.  0.
          2    1    1    2  501    0 -0.49676818287E+02  0.23934162011E+02 -0.53451711046E+03  0.53735386084E+03  0.00000000000E+00 0. -1.
          1    1    1    2  502    0  0.14928783028E+02  0.38421364833E+02 -0.71074488831E+02  0.82162356350E+02  0.00000000000E+00 0. -1.
         22    1    3    3    0    0 -0.24483363536E+02 -0.53566857241E+02 -0.51100140441E+02  0.77974788476E+02  0.00000000000E+00 0. -1.
         22    1    3    3    0    0  0.59231398795E+02 -0.87886696028E+01 -0.23222233462E+03  0.23981828957E+03  0.00000000000E+00 0. -1.
</event>
<event>
 7    1  0.5667373E-006  0.4913833E+02  0.7818608E-02  0.1516322E+00
          2   -1    0    0  502    0  0.00000000000E+00  0.00000000000E+00  0.16625398894E+03  0.16625398894E+03  0.00000000000E+00 0. -1.
          1   -1    0    0  501    0 -0.00000000000E+00 -0.00000000000E+00 -0.10111479751E+04  0.10111479751E+04  0.00000000000E+00 0. -1.
         25    2    1    2    0    0  0.37485310818E+02 -0.66516532825E+02 -0.72099717755E+02  0.16325813659E+03  0.12500100878E+03 0.  0.
          2    1    1    2  501    0 -0.59010614523E+01  0.30254661435E+02 -0.88840036713E+03  0.88893496916E+03  0.00000000000E+00 0. -1.
          1    1    1    2  502    0 -0.31584249366E+02  0.36261871390E+02  0.11560609874E+03  0.12520885828E+03  0.00000000000E+00 0. -1.
         22    1    3    3    0    0 -0.36766667184E+02 -0.41996179842E+02 -0.63572492058E+02  0.84598632871E+02  0.00000000000E+00 0.  1.
         22    1    3    3    0    0  0.74251978002E+02 -0.24520352983E+02 -0.85272256972E+01  0.78659503722E+02  0.00000000000E+00 0.  1.
</event>
<event>
 7    1  0.5667373E-006  0.5857273E+02  0.7818608E-02  0.1458865E+00
          2   -1    0    0  502    0  0.00000000000E+00  0.00000000000E+00  0.32852424464E+03  0.32852424464E+03  0.00000000000E+00 0. -1.
          1   -1    0    0  501    0 -0.00000000000E+00 -0.00000000000E+00 -0.42673234132E+03  0.42673234132E+03  0.00000000000E+00 0. -1.
         25    2    1    2    0    0  0.38439778532E+02 -0.83231806925E+02  0.15355888869E+03  0.21819875007E+03  0.12500084791E+03 0.  0.
          2    1    1    2  501    0 -0.20003489943E+02  0.33065952123E+02 -0.38841330386E+03  0.39033113047E+03  0.00000000000E+00 0. -1.
          1    1    1    2  502    0 -0.18436288589E+02  0.50165854803E+02  0.13664631848E+03  0.14672670541E+03  0.00000000000E+00 0. -1.
         22    1    3    3    0    0 -0.15807449815E+02 -0.47121610805E+02 -0.17906207274E+01  0.49734575469E+02  0.00000000000E+00 0. -1.
         22    1    3    3    0    0  0.54247228347E+02 -0.36110196120E+02  0.15534950942E+03  0.16846417460E+03  0.00000000000E+00 0. -1.
</event>
<event>
 7    1  0.5667373E-006  0.5276437E+02  0.7818608E-02  0.1440191E+00
          2   -1    0    0  502    0  0.00000000000E+00  0.00000000000E+00  0.22722849444E+03  0.22722849444E+03  0.00000000000E+00 0. -1.
          1   -1    0    0  501    0 -0.00000000000E+00 -0.00000000000E+00 -0.35290243056E+03  0.35290243056E+03  0.00000000000E+00 0. -1.
         25    2    1    2    0    0  0.71832673610E+02 -0.18098143143E+02 -0.14529807426E+02  0.14603644496E+03  0.12501220808E+03 0.  0.
          2    1    1    2  501    0 -0.46710559715E+02 -0.24241916681E+02 -0.26623009592E+03  0.27138167014E+03  0.00000000000E+00 0. -1.
          1    1    1    2  502    0 -0.25122113895E+02  0.42340059824E+02  0.15508596723E+03  0.16271280990E+03  0.00000000000E+00 0. -1.
         22    1    3    3    0    0  0.68834930885E+02 -0.62251478908E+02  0.13301893537E+02  0.93757318157E+02  0.00000000000E+00 0.  1.
         22    1    3    3    0    0  0.29977427247E+01  0.44153335765E+02 -0.27831700963E+02  0.52279126802E+02  0.00000000000E+00 0.  1.
</event>
<event>
 7    1  0.5667373E-006  0.1585061E+03  0.7818608E-02  0.1337894E+00
          2   -1    0    0  502    0  0.00000000000E+00  0.00000000000E+00  0.12826809643E+04  0.12826809643E+04  0.00000000000E+00 0. -1.
          1   -1    0    0  501    0 -0.00000000000E+00 -0.00000000000E+00 -0.51215417341E+03  0.51215417341E+03  0.00000000000E+00 0. -1.
         25    2    1    2    0    0  0.14374530796E+03  0.13048143536E+03  0.86971112181E+03  0.89983974762E+03  0.12500406981E+03 0.  0.
          2    1    1    2  501    0 -0.12260574186E+03 -0.99664369839E+02 -0.48360518158E+03  0.50876234747E+03  0.00000000000E+00 0. -1.
          1    1    1    2  502    0 -0.21139566101E+02 -0.30817065518E+02  0.38442085063E+03  0.38623304258E+03  0.00000000000E+00 0. -1.
         22    1    3    3    0    0  0.48818693219E+02 -0.19706130685E+02  0.22678878225E+03  0.23281913184E+03  0.00000000000E+00 0. -1.
         22    1    3    3    0    0  0.94926614743E+02  0.15018756604E+03  0.64292233956E+03  0.66702061578E+03  0.00000000000E+00 0. -1.
</event>
<event>
 7    1  0.5667373E-006  0.7135414E+02  0.7818608E-02  0.1385952E+00
          2   -1    0    0  502    0  0.00000000000E+00  0.00000000000E+00  0.10241234946E+03  0.10241234946E+03  0.00000000000E+00 0. -1.
          1   -1    0    0  501    0 -0.00000000000E+00 -0.00000000000E+00 -0.29950041326E+04  0.29950041326E+04  0.00000000000E+00 0. -1.
         25    2    1    2    0    0 -0.37798250763E+02  0.32070776778E+02 -0.38305657214E+03  0.40597352031E+03  0.12499967700E+03 0.  0.
          2    1    1    2  501    0  0.37694993988E+02  0.40723145390E+02 -0.25855785738E+04  0.25861739788E+04  0.00000000000E+00 0. -1.
          1    1    1    2  502    0  0.10325677499E+00 -0.72793922169E+02  0.76043362760E+02  0.10526898302E+03  0.00000000000E+00 0. -1.
         22    1    3    3    0    0 -0.53021871924E+02  0.53422053305E+02 -0.36824145804E+03  0.37585503336E+03  0.00000000000E+00 0. -1.
         22    1    3    3    0    0  0.15223621161E+02 -0.21351276527E+02 -0.14815114102E+02  0.30118486955E+02  0.00000000000E+00 0. -1.
</event>
<event>
 7    1  0.5667373E-006  0.9622012E+02  0.7818608E-02  0.1430776E+00
          2   -1    0    0  502    0  0.00000000000E+00  0.00000000000E+00  0.65737634444E+03  0.65737634444E+03  0.00000000000E+00 0. -1.
          1   -1    0    0  501    0 -0.00000000000E+00 -0.00000000000E+00 -0.10598053007E+03  0.10598053007E+03  0.00000000000E+00 0. -1.
         25    2    1    2    0    0 -0.79323351659E+02 -0.22717176431E+02  0.33721262732E+03  0.36897941072E+03  0.12500074114E+03 0.  0.
          2    1    1    2  501    0 -0.25072686912E+02  0.14529886896E+02 -0.78418807854E+02  0.83601834116E+02  0.00000000000E+00 0. -1.
          1    1    1    2  502    0  0.10439603857E+03  0.81872895354E+01  0.29260199491E+03  0.31077562968E+03  0.00000000000E+00 0. -1.
         22    1    3    3    0    0 -0.32222941550E+02  0.91813615243E+01  0.29802470483E+03  0.29990221748E+03  0.00000000000E+00 0.  1.
         22    1    3    3    0    0 -0.47100410109E+02 -0.31898537955E+02  0.39187922489E+02  0.69077193234E+02  0.00000000000E+00 0.  1.
</event>
<event>
 7    1  0.5667373E-006  0.1198715E+03  0.7818608E-02  0.1368834E+00
          2   -1    0    0  502    0  0.00000000000E+00  0.00000000000E+00  0.49677663814E+03  0.49677663814E+03  0.00000000000E+00 0. -1.
          1   -1    0    0  501    0 -0.00000000000E+00 -0.00000000000E+00 -0.72446966431E+03  0.72446966431E+03  0.00000000000E+00 0. -1.
         25    2    1    2    0    0 -0.30593579967E+02  0.12064292325E+03 -0.38878906673E+03  0.42693538274E+03  0.12500480213E+03 0.  0.
          2    1    1    2  501    0  0.63247190445E+02 -0.10120538120E+03 -0.30455950384E+03  0.32710736413E+03  0.00000000000E+00 0. -1.
          1    1    1    2  502    0 -0.32653610478E+02 -0.19437542048E+02  0.46565554441E+03  0.46720355559E+03  0.00000000000E+00 0. -1.
         22    1    3    3    0    0  0.31185722402E+02  0.83520967254E+02 -0.29780149667E+03  0.31086014970E+03  0.00000000000E+00 0. -1.
         22    1    3    3    0    0 -0.61779302369E+02  0.37121955999E+02 -0.90987570065E+02  0.11607523304E+03  0.00000000000E+00 0. -1.
</event>
<event>
 7    1  0.5667373E-006  0.1203649E+03  0.7818608E-02  0.1306652E+00
          2   -1    0    0  502    0  0.00000000000E+00  0.00000000000E+00  0.31922904957E+03  0.31922904957E+03  0.00000000000E+00 0. -1.
          1   -1    0    0  501    0 -0.00000000000E+00 -0.00000000000E+00 -0.89728592859E+03  0.89728592859E+03  0.00000000000E+00 0. -1.
         25    2    1    2    0    0  0.42385821453E+02 -0.76204371097E+02 -0.16047370641E+03  0.22132037963E+03  0.12500894350E+03 0.  0.
          2    1    1    2  501    0  0.63676762382E+02  0.13028865882E+02 -0.69160258812E+03  0.69464999914E+03  0.00000000000E+00 0. -1.
          1    1    1    2  502    0 -0.10606258384E+03  0.63175505215E+02  0.27401941551E+03  0.30054459939E+03  0.00000000000E+00 0. -1.
         22    1    3    3    0    0 -0.10845879104E+02  0.87807567351E+01 -0.10655296078E+03  0.10746286909E+03  0.00000000000E+00 0. -1.
         22    1    3    3    0    0  0.53231700557E+02 -0.84985127832E+02 -0.53920745630E+02  0.11385751054E+03  0.00000000000E+00 0. -1.
</event>
<event>
 7    1  0.5667373E-006  0.9057974E+02  0.7818608E-02  0.1372695E+00
          2   -1    0    0  502    0  0.00000000000E+00  0.00000000000E+00  0.21981160189E+04  0.21981160189E+04  0.00000000000E+00 0. -1.
          1   -1    0    0  501    0 -0.00000000000E+00 -0.00000000000E+00 -0.10127788786E+03  0.10127788786E+03  0.00000000000E+00 0. -1.
         25    2    1    2    0    0  0.54685481767E+02  0.45840406330E+02  0.44909467222E+03  0.47158781210E+03  0.12496877665E+03 0.  0.
          2    1    1    2  501    0 -0.91096553110E+02 -0.13485044692E+02 -0.66045867753E+02  0.11332468869E+03  0.00000000000E+00 0. -1.
          1    1    1    2  502    0  0.36411071343E+02 -0.32355361638E+02  0.17137893265E+04  0.17144814059E+04  0.00000000000E+00 0. -1.
         22    1    3    3    0    0  0.47582346911E+02 -0.26964111542E+02  0.91592962799E+02  0.10667902270E+03  0.00000000000E+00 0.  1.
         22    1    3    3    0    0  0.71031348560E+01  0.72804517872E+02  0.35750170942E+03  0.36490878941E+03  0.00000000000E+00 0.  1.
</event>
<event>
 7    1  0.5667373E-006  0.4213662E+02  0.7818608E-02  0.1586919E+00
          2   -1    0    0  502    0  0.00000000000E+00  0.00000000000E+00  0.12934237635E+03  0.12934237635E+03  0.00000000000E+00 0. -1.
          1   -1    0    0  501    0 -0.00000000000E+00 -0.00000000000E+00 -0.10894962137E+04  0.10894962137E+04  0.00000000000E+00 0. -1.
         25    2    1    2    0    0  0.43314054687E+02  0.12737994551E+02 -0.29993187430E+03  0.32805839474E+03  0.12499926919E+03 0.  0.
          2    1    1    2  501    0 -0.14279606531E+02  0.17849780389E+02 -0.77146893253E+03  0.77180751207E+03  0.00000000000E+00 0. -1.
          1    1    1    2  502    0 -0.29034448156E+02 -0.30587774940E+02  0.11124696944E+03  0.11897268328E+03  0.00000000000E+00 0. -1.
         22    1    3    3    0    0  0.31450620615E+02 -0.50697378373E+02 -0.86469615094E+02  0.10505408153E+03  0.00000000000E+00 0. -1.
         22    1    3    3    0    0  0.11863434072E+02  0.63435372924E+02 -0.21346225921E+03  0.22300431321E+03  0.00000000000E+00 0. -1.
</event>
<event>
 7    1  0.5667373E-006  0.1988498E+03  0.7818608E-02  0.1180467E+00
          2   -1    0    0  502    0  0.00000000000E+00  0.00000000000E+00  0.80613055408E+03  0.80613055408E+03  0.00000000000E+00 0. -1.
          1   -1    0    0  501    0 -0.00000000000E+00 -0.00000000000E+00 -0.47459109173E+03  0.47459109173E+03  0.00000000000E+00 0. -1.
         25    2    1    2    0    0 -0.58579272620E+02 -0.27086286494E+03  0.19365770101E+03  0.36045115208E+03  0.12499402023E+03 0.  0.
          2    1    1    2  501    0 -0.61961039019E+02  0.12678343107E+03 -0.36078158756E+03  0.38739716400E+03  0.00000000000E+00 0. -1.
          1    1    1    2  502    0  0.12054031164E+03  0.14407943387E+03  0.49866334891E+03  0.53287332973E+03  0.00000000000E+00 0. -1.
         22    1    3    3    0    0 -0.84831065462E+02 -0.20001078780E+03  0.18316794201E+03  0.28416741524E+03  0.00000000000E+00 0.  1.
         22    1    3    3    0    0  0.26251792842E+02 -0.70852077143E+02  0.10489758998E+02  0.76283736843E+02  0.00000000000E+00 0.  1.
</event>
<event>
 7    1  0.5667373E-006  0.8709450E+02  0.7818608E-02  0.1435929E+00
          2   -1    0    0  502    0  0.00000000000E+00  0.00000000000E+00  0.66826962378E+03  0.66826962378E+03  0.00000000000E+00 0. -1.
          1   -1    0    0  501    0 -0.00000000000E+00 -0.00000000000E+00 -0.42518258005E+02  0.42518258005E+02  0.00000000000E+00 0. -1.
         25    2    1    2    0    0 -0.10446545504E+03 -0.34122137452E+02  0.24951878053E+03  0.29993720217E+03  0.12500140737E+03 0.  0.
          2    1    1    2  501    0  0.74566224258E+02  0.26752159231E+02  0.78486860268E+02  0.11151675685E+03  0.00000000000E+00 0. -1.
          1    1    1    2  502    0  0.29899230777E+02  0.73699782204E+01  0.29774572497E+03  0.29933392277E+03  0.00000000000E+00 0. -1.
         22    1    3    3    0    0 -0.33415845477E+02  0.14611036586E+00 -0.47149307882E+01  0.33747157651E+02  0.00000000000E+00 0. -1.
         22    1    3    3    0    0 -0.71049609558E+02 -0.34268247818E+02  0.25423371132E+03  0.26619004452E+03  0.00000000000E+00 0. -1.
</event>
<event>
 7    1  0.5667373E-006  0.1039288E+03  0.7818608E-02  0.1336294E+00
          2   -1    0    0  502    0  0.00000000000E+00  0.00000000000E+00  0.15230522762E+03  0.15230522762E+03  0.00000000000E+00 0. -1.
          1   -1    0    0  501    0 -0.00000000000E+00 -0.00000000000E+00 -0.84581208338E+03  0.84581208338E+03  0.00000000000E+00 0. -1.
         25    2    1    2    0    0 -0.21588999971E+02 -0.49875979894E+02 -0.89347001596E+02  0.16297637605E+03  0.12499885666E+03 0.  0.
          2    1    1    2  501    0  0.63919804866E+02  0.89224978617E+02 -0.70791594172E+03  0.71637407742E+03  0.00000000000E+00 0. -1.
          1    1    1    2  502    0 -0.42330804895E+02 -0.39348998723E+02  0.10375608755E+03  0.11876685753E+03  0.00000000000E+00 0. -1.
         22    1    3    3    0    0 -0.65286637441E+02  0.55761886550E+01 -0.47170395080E+02  0.80737135695E+02  0.00000000000E+00 0.  1.
         22    1    3    3    0    0  0.43697637470E+02 -0.55452168549E+02 -0.42176606516E+02  0.82239240357E+02  0.00000000000E+00 0.  1.
</event>
<event>
 7    1  0.5667373E-006  0.4724408E+02  0.7818608E-02  0.1535168E+00
          2   -1    0    0  502    0  0.00000000000E+00  0.00000000000E+00  0.77789371605E+03  0.77789371605E+03  0.00000000000E+00 0. -1.
          1   -1    0    0  501    0 -0.00000000000E+00 -0.00000000000E+00 -0.85221740837E+02  0.85221740837E+02  0.00000000000E+00 0. -1.
         25    2    1    2    0    0  0.59701660117E+02 -0.66746461587E+01  0.18872229964E+02  0.13996474136E+03  0.12500051455E+03 0.  0.
          2    1    1    2  501    0 -0.42326903373E+02 -0.15653867517E+02 -0.34962661320E+01  0.45264049689E+02  0.00000000000E+00 0. -1.
          1    1    1    2  502    0 -0.17374756744E+02  0.22328513675E+02  0.67729601138E+03  0.67788666584E+03  0.00000000000E+00 0. -1.
         22    1    3    3    0    0  0.16114753466E+02 -0.36926033535E+02  0.60389315215E+02  0.72595362277E+02  0.00000000000E+00 0. -1.
         22    1    3    3    0    0  0.43586906652E+02  0.30251387376E+02 -0.41517085252E+02  0.67369379079E+02  0.00000000000E+00 0. -1.
</event>
<event>
 7    1  0.5667373E-006  0.9104808E+02  0.7818608E-02  0.1341899E+00
          2   -1    0    0  502    0  0.00000000000E+00  0.00000000000E+00  0.34587689453E+02  0.34587689453E+02  0.00000000000E+00 0. -1.
          1   -1    0    0  501    0 -0.00000000000E+00 -0.00000000000E+00 -0.15621211433E+04  0.15621211433E+04  0.00000000000E+00 0. -1.
         25    2    1    2    0    0  0.31244057673E+02  0.14378766390E+02 -0.77520220679E+03  0.78596855897E+03  0.12500069684E+03 0.  0.
          2    1    1    2  501    0  0.57946876449E+02  0.24311001532E+02 -0.69507964429E+03  0.69791444833E+03  0.00000000000E+00 0. -1.
          1    1    1    2  502    0 -0.89190934122E+02 -0.38689767922E+02 -0.57251602783E+02  0.11282582547E+03  0.00000000000E+00 0. -1.
         22    1    3    3    0    0 -0.48569794609E+02  0.68718348964E+00 -0.27647477213E+03  0.28070945262E+03  0.00000000000E+00 0. -1.
         22    1    3    3    0    0  0.79813852282E+02  0.13691582900E+02 -0.49872743466E+03  0.50525910635E+03  0.00000000000E+00 0. -1.
</event>
<event>
 7    1  0.5667373E-006  0.2205541E+03  0.7818608E-02  0.1165959E+00
          2   -1    0    0  502    0  0.00000000000E+00  0.00000000000E+00  0.12450494548E+04  0.12450494548E+04  0.00000000000E+00 0. -1.
          1   -1    0    0  501    0 -0.00000000000E+00 -0.00000000000E+00 -0.47421142272E+03  0.47421142272E+03  0.00000000000E+00 0. -1.
         25    2    1    2    0    0 -0.23442505794E+03  0.10010618087E+03  0.79234646798E+02  0.29475346682E+03  0.12500048683E+03 0.  0.
          2    1    1    2  501    0  0.21622542545E+03  0.48836510075E+02 -0.32692165903E+03  0.39498887386E+03  0.00000000000E+00 0. -1.
          1    1    1    2  502    0  0.18199632494E+02 -0.14894269094E+03  0.10185250443E+04  0.10295185369E+04  0.00000000000E+00 0. -1.
         22    1    3    3    0    0 -0.10088534280E+03  0.10894101018E+03  0.57221365528E+02  0.15912347647E+03  0.00000000000E+00 0. -1.
         22    1    3    3    0    0 -0.13353971514E+03 -0.88348293111E+01  0.22013281270E+02  0.13562999035E+03  0.00000000000E+00 0. -1.
</event>
<event>
 7    1  0.5667373E-006  0.8136181E+02  0.7818608E-02  0.1494321E+00
          2   -1    0    0  502    0  0.00000000000E+00  0.00000000000E+00  0.17036977553E+04  0.17036977553E+04  0.00000000000E+00 0. -1.
          1   -1    0    0  501    0 -0.00000000000E+00 -0.00000000000E+00 -0.12560118283E+04  0.12560118283E+04  0.00000000000E+00 0. -1.
         25    2    1    2    0    0 -0.12137921516E+02 -0.59027116292E+02  0.39925755936E+02  0.14439623349E+03  0.12499870665E+03 0.  0.
          2    1    1    2  501    0 -0.18209389317E+01 -0.21554308249E+02 -0.12026417164E+04  0.12028362324E+04  0.00000000000E+00 0. -1.
          1    1    1    2  502    0  0.13958860448E+02  0.80581424541E+02  0.16104018875E+04  0.16124771177E+04  0.00000000000E+00 0. -1.
         22    1    3    3    0    0  0.11435531932E+02 -0.40844722707E+02  0.82313077468E+02  0.92598625723E+02  0.00000000000E+00 0. -1.
         22    1    3    3    0    0 -0.23573453448E+02 -0.18182393585E+02 -0.42387321532E+02  0.51797607769E+02  0.00000000000E+00 0. -1.
</event>
<event>
 7    1  0.5667373E-006  0.6582760E+02  0.7818608E-02  0.1419885E+00
          2   -1    0    0  502    0  0.00000000000E+00  0.00000000000E+00  0.26074446991E+04  0.26074446991E+04  0.00000000000E+00 0. -1.
          1   -1    0    0  501    0 -0.00000000000E+00 -0.00000000000E+00 -0.54820790068E+03  0.54820790068E+03  0.00000000000E+00 0. -1.
         25    2    1    2    0    0 -0.56860903584E+01 -0.40022557738E+02  0.13322498958E+04  0.13387114702E+04  0.12499791610E+03 0.  0.
          2    1    1    2  501    0  0.33983434713E+02 -0.31044858010E+02 -0.54285221782E+03  0.54480013532E+03  0.00000000000E+00 0. -1.
          1    1    1    2  502    0 -0.28297344355E+02  0.71067415748E+02  0.12698391205E+04  0.12721409943E+04  0.00000000000E+00 0. -1.
         22    1    3    3    0    0  0.34374222557E+01  0.55703074997E+01  0.96670575635E+00  0.66165487548E+01  0.00000000000E+00 0. -1.
         22    1    3    3    0    0 -0.91235126141E+01 -0.45592865237E+02  0.13312831900E+04  0.13320949215E+04  0.00000000000E+00 0. -1.
</event>
<event>
 7    1  0.5667373E-006  0.6845506E+02  0.7818608E-02  0.1419669E+00
          2   -1    0    0  502    0  0.00000000000E+00  0.00000000000E+00  0.15617501796E+04  0.15617501796E+04  0.00000000000E+00 0. -1.
          1   -1    0    0  501    0 -0.00000000000E+00 -0.00000000000E+00 -0.30177904203E+03  0.30177904203E+03  0.00000000000E+00 0. -1.
         25    2    1    2    0    0  0.12338725072E+02 -0.41075646482E+02  0.42278380708E+02  0.13875486697E+03  0.12500399499E+03 0.  0.
          2    1    1    2  501    0 -0.56671859492E+02  0.41572696318E+02 -0.24832822309E+03  0.25808311669E+03  0.00000000000E+00 0. -1.
          1    1    1    2  502    0  0.44333134420E+02 -0.49704983610E+00  0.14660209800E+04  0.14666912380E+04  0.00000000000E+00 0. -1.
         22    1    3    3    0    0  0.36255475409E+02  0.60744092837E+01 -0.31211533601E+02  0.48223622582E+02  0.00000000000E+00 0.  1.
         22    1    3    3    0    0 -0.23916750336E+02 -0.47150055765E+02  0.73489914309E+02  0.90531244388E+02  0.00000000000E+00 0.  1.
</event>
<event>
 7    1  0.5667373E-006  0.5054764E+02  0.7818608E-02  0.1516089E+00
          2   -1    0    0  502    0  0.00000000000E+00  0.00000000000E+00  0.22477096435E+03  0.22477096435E+03  0.00000000000E+00 0. -1.
          1   -1    0    0  501    0 -0.00000000000E+00 -0.00000000000E+00 -0.13047945581E+04  0.13047945581E+04  0.00000000000E+00 0. -1.
         25    2    1    2    0    0  0.26019260199E+02  0.44591419664E+02 -0.69449343714E+03  0.70753930908E+03  0.12500137223E+03 0.  0.
          2    1    1    2  501    0 -0.29431799991E+02  0.58735470011E+01 -0.60046780343E+03  0.60121735866E+03  0.00000000000E+00 0. -1.
          1    1    1    2  502    0  0.34125397919E+01 -0.50464966665E+02  0.21493764683E+03  0.22080885470E+03  0.00000000000E+00 0. -1.
         22    1    3    3    0    0  0.32072031377E+02  0.81320815160E+02 -0.59351427120E+03  0.59991739456E+03  0.00000000000E+00 0.  1.
         22    1    3    3    0    0 -0.60527711780E+01 -0.36729395495E+02 -0.10097916594E+03  0.10762191452E+03  0.00000000000E+00 0.  1.
</event>
<event>
 7    1  0.5667373E-006  0.4870641E+02  0.7818608E-02  0.1460846E+00
          2   -1    0    0  502    0  0.00000000000E+00  0.00000000000E+00  0.75211205677E+02  0.75211205677E+02  0.00000000000E+00 0. -1.
          1   -1    0    0  501    0 -0.00000000000E+00 -0.00000000000E+00 -0.46619873747E+03  0.46619873747E+03  0.00000000000E+00 0. -1.
         25    2    1    2    0    0 -0.72226891344E+01  0.58592867329E+01 -0.89891611992E+02  0.15424544521E+03  0.12499862792E+03 0.  0.
          2    1    1    2  501    0 -0.43663326814E+02  0.13859239632E+02 -0.32454848640E+03  0.32776559407E+03  0.00000000000E+00 0. -1.
          1    1    1    2  502    0  0.50886015949E+02 -0.19718526365E+02  0.23452566598E+02  0.59398903872E+02  0.00000000000E+00 0. -1.
         22    1    3    3    0    0 -0.40822516044E+00 -0.57844768640E+02 -0.60673565141E+02  0.83829979207E+02  0.00000000000E+00 0. -1.
         22    1    3    3    0    0 -0.68144639739E+01  0.63704055373E+02 -0.29218046851E+02  0.70415466000E+02  0.00000000000E+00 0. -1.
</event>
<event>
 7    1  0.5667373E-006  0.5840788E+02  0.7818608E-02  0.1541946E+00
          2   -1    0    0  502    0  0.00000000000E+00  0.00000000000E+00  0.34529904591E+03  0.34529904591E+03  0.00000000000E+00 0. -1.
          1   -1    0    0  501    0 -0.00000000000E+00 -0.00000000000E+00 -0.43456793280E+03  0.43456793280E+03  0.00000000000E+00 0. -1.
         25    2    1    2    0    0 -0.23134224878E+02  0.72580322369E+02 -0.98944406856E+02  0.17668584370E+03  0.12499918463E+03 0.  0.
          2    1    1    2  501    0  0.16004237376E+02 -0.14941604402E+02 -0.29358958101E+03  0.29440487298E+03  0.00000000000E+00 0. -1.
          1    1    1    2  502    0  0.71299875027E+01 -0.57638717967E+02  0.30326510097E+03  0.30877626203E+03  0.00000000000E+00 0. -1.
         22    1    3    3    0    0  0.47250118140E+02  0.52409785855E+02 -0.65167107163E+02  0.96052647926E+02  0.00000000000E+00 0.  1.
         22    1    3    3    0    0 -0.70384343018E+02  0.20170536514E+02 -0.33777299693E+02  0.80633195769E+02  0.00000000000E+00 0.  1.
</event>
<event>
 7    1  0.5667373E-006  0.1049580E+03  0.7818608E-02  0.1391964E+00
          2   -1    0    0  502    0  0.00000000000E+00  0.00000000000E+00  0.25301494477E+03  0.25301494477E+03  0.00000000000E+00 0. -1.
          1   -1    0    0  501    0 -0.00000000000E+00 -0.00000000000E+00 -0.37361277939E+03  0.37361277939E+03  0.00000000000E+00 0. -1.
         25    2    1    2    0    0 -0.24036194486E+02  0.11876435148E+03 -0.34336389660E+02  0.17744506103E+03  0.12500020881E+03 0.  0.
          2    1    1    2  501    0 -0.23570856184E+02 -0.27135365864E+02 -0.25165143919E+03  0.25420535043E+03  0.00000000000E+00 0. -1.
          1    1    1    2  502    0  0.47607050670E+02 -0.91628985612E+02  0.16538999422E+03  0.19497731270E+03  0.00000000000E+00 0. -1.
         22    1    3    3    0    0 -0.50257499585E+02  0.13244012054E+03 -0.15778702408E+02  0.14253129216E+03  0.00000000000E+00 0.  1.
         22    1    3    3    0    0  0.26221305099E+02 -0.13675769068E+02 -0.18557687252E+02  0.34913768872E+02  0.00000000000E+00 0.  1.
</event>
<event>
 7    1  0.5667373E-006  0.1277681E+03  0.7818608E-02  0.1290636E+00
          2   -1    0    0  502    0  0.00000000000E+00  0.00000000000E+00  0.11502234188E+04  0.11502234188E+04  0.00000000000E+00 0. -1.
          1   -1    0    0  501    0 -0.00000000000E+00 -0.00000000000E+00 -0.19850618054E+03  0.19850618054E+03  0.00000000000E+00 0. -1.
         25    2    1    2    0    0  0.41201793916E+02 -0.56622438325E+02  0.10364342509E+03  0.17683474622E+03  0.12499951825E+03 0.  0.
          2    1    1    2  501    0 -0.72207174140E+02  0.12048749811E+03 -0.12991370546E+03  0.19133395952E+03  0.00000000000E+00 0. -1.
          1    1    1    2  502    0  0.31005380224E+02 -0.63865059789E+02  0.97798751860E+03  0.98056089357E+03  0.00000000000E+00 0. -1.
         22    1    3    3    0    0  0.53059700426E+01  0.53137962307E+01  0.10496787055E+03  0.10523613256E+03  0.00000000000E+00 0. -1.
         22    1    3    3    0    0  0.35895823873E+02 -0.61936234555E+02 -0.13244454587E+01  0.71598613661E+02  0.00000000000E+00 0. -1.
</event>
<event>
 7    1  0.5667373E-006  0.1252442E+03  0.7818608E-02  0.1400420E+00
          2   -1    0    0  502    0  0.00000000000E+00  0.00000000000E+00  0.29215553263E+03  0.29215553263E+03  0.00000000000E+00 0. -1.
          1   -1    0    0  501    0 -0.00000000000E+00 -0.00000000000E+00 -0.30605946415E+03  0.30605946415E+03  0.00000000000E+00 0. -1.
         25    2    1    2    0    0  0.11011506377E+03 -0.28807910141E+02 -0.57629159347E+02  0.17859965764E+03  0.12498597821E+03 0.  0.
          2    1    1    2  501    0  0.38101314562E+01 -0.27901125633E+02 -0.16921708256E+03  0.17154419531E+03  0.00000000000E+00 0. -1.
          1    1    1    2  502    0 -0.11392519523E+03  0.56709035774E+02  0.21294231039E+03  0.24807114382E+03  0.00000000000E+00 0. -1.
         22    1    3    3    0    0 -0.17398693513E+02 -0.30271328260E+02  0.70389477600E+01  0.35617616935E+02  0.00000000000E+00 0.  1.
         22    1    3    3    0    0  0.12751375728E+03  0.14634181183E+01 -0.64668107107E+02  0.14298204071E+03  0.00000000000E+00 0.  1.
</event>
<event>
 7    1  0.5667373E-006  0.1008724E+03  0.7818608E-02  0.1335596E+00
          2   -1    0    0  502    0  0.00000000000E+00  0.00000000000E+00  0.12114932953E+03  0.12114932953E+03  0.00000000000E+00 0. -1.
          1   -1    0    0  501    0 -0.00000000000E+00 -0.00000000000E+00 -0.21041022535E+04  0.21041022535E+04  0.00000000000E+00 0. -1.
         25    2    1    2    0    0 -0.57150952138E+02 -0.10728331828E+02 -0.94439042760E+02  0.16710242582E+03  0.12499263771E+03 0.  0.
          2    1    1    2  501    0 -0.45328310836E+02 -0.39172483353E+02 -0.19343630444E+04  0.19352905536E+04  0.00000000000E+00 0. -1.
          1    1    1    2  502    0  0.10247926297E+03  0.49900815181E+02  0.45849163278E+02  0.12285860356E+03  0.00000000000E+00 0. -1.
         22    1    3    3    0    0  0.11717540975E+02  0.38586413490E+02 -0.11339848195E+00  0.40326479288E+02  0.00000000000E+00 0.  1.
         22    1    3    3    0    0 -0.68868493113E+02 -0.49314745318E+02 -0.94325644278E+02  0.12677594653E+03  0.00000000000E+00 0.  1.
</event>
<event>
 7    1  0.5667373E-006  0.1469094E+03  0.7818608E-02  0.1251453E+00
          2   -1    0    0  502    0  0.00000000000E+00  0.00000000000E+00  0.19651994000E+04  0.19651994000E+04  0.00000000000E+00 0. -1.
          1   -1    0    0  501    0 -0.00000000000E+00 -0.00000000000E+00 -0.24872584350E+03  0.24872584350E+03  0.00000000000E+00 0. -1.
         25    2    1    2    0    0  0.39280113356E+02  0.78376440327E+02  0.61188447324E+03  0.63064490274E+03  0.12499836421E+03 0.  0.
          2    1    1    2  501    0  0.17095626604E+02 -0.14870703548E+03 -0.21425248932E+03  0.26136214728E+03  0.00000000000E+00 0. -1.
          1    1    1    2  502    0 -0.56375739959E+02  0.70330595154E+02  0.13188415726E+04  0.13219181935E+04  0.00000000000E+00 0. -1.
         22    1    3    3    0    0  0.59264714086E+02 -0.57397067302E+01  0.34515751868E+03  0.35025556851E+03  0.00000000000E+00 0. -1.
         22    1    3    3    0    0 -0.19984600731E+02  0.84116147057E+02  0.26672695456E+03  0.28038933423E+03  0.00000000000E+00 0. -1.
</event>
<event>
 7    1  0.5667373E-006  0.1629001E+03  0.7818608E-02  0.1267607E+00
          2   -1    0    0  502    0  0.00000000000E+00  0.00000000000E+00  0.38484348814E+02  0.38484348814E+02  0.00000000000E+00 0. -1.
          1   -1    0    0  501    0 -0.00000000000E+00 -0.00000000000E+00 -0.16620939363E+04  0.16620939363E+04  0.00000000000E+00 0. -1.
         25    2    1    2    0    0  0.21565355824E+03  0.29103926706E+02 -0.62151276406E+03  0.67026635776E+03  0.12500151487E+03 0.  0.
          2    1    1    2  501    0 -0.14778462277E+03 -0.14862463510E+02 -0.85353263195E+03  0.86635970668E+03  0.00000000000E+00 0. -1.
          1    1    1    2  502    0 -0.67868935473E+02 -0.14241463195E+02 -0.14856419144E+03  0.16395222065E+03  0.00000000000E+00 0. -1.
         22    1    3    3    0    0  0.71557115403E+01 -0.74179940199E+01  0.30990499839E+01  0.10762664806E+02  0.00000000000E+00 0. -1.
         22    1    3    3    0    0  0.20849784670E+03  0.36521920726E+02 -0.62461181404E+03  0.65950369295E+03  0.00000000000E+00 0. -1.
</event>
<event>
 7    1  0.5667373E-006  0.5662893E+02  0.7818608E-02  0.1470830E+00
          2   -1    0    0  502    0  0.00000000000E+00  0.00000000000E+00  0.17656500712E+04  0.17656500712E+04  0.00000000000E+00 0. -1.
          1   -1    0    0  501    0 -0.00000000000E+00 -0.00000000000E+00 -0.58863588723E+03  0.58863588723E+03  0.00000000000E+00 0. -1.
         25    2    1    2    0    0  0.83263160490E+01  0.84995038392E+02  0.20451881866E+03  0.25445244304E+03  0.12499845797E+03 0.  0.
          2    1    1    2  501    0 -0.20714515677E+02 -0.30254868892E+02 -0.56255940664E+03  0.56375307915E+03  0.00000000000E+00 0. -1.
          1    1    1    2  502    0  0.12388199628E+02 -0.54740169500E+02  0.15350547719E+04  0.15360804362E+04  0.00000000000E+00 0. -1.
         22    1    3    3    0    0 -0.46178639137E+02 -0.42126991811E+01  0.53783538893E+02  0.71013256528E+02  0.00000000000E+00 0.  1.
         22    1    3    3    0    0  0.54504955186E+02  0.89207737573E+02  0.15073527977E+03  0.18343918652E+03  0.00000000000E+00 0.  1.
</event>
<event>
 7    1  0.5667373E-006  0.9554348E+02  0.7818608E-02  0.1387216E+00
          2   -1    0    0  502    0  0.00000000000E+00  0.00000000000E+00  0.10388130036E+03  0.10388130036E+03  0.00000000000E+00 0. -1.
          1   -1    0    0  501    0 -0.00000000000E+00 -0.00000000000E+00 -0.45255690968E+03  0.45255690968E+03  0.00000000000E+00 0. -1.
         25    2    1    2    0    0 -0.18760554328E+02 -0.62605435879E+02 -0.87224791455E+02  0.16584642366E+03  0.12500189197E+03 0.  0.
          2    1    1    2  501    0 -0.74757810606E+01 -0.40334459980E+02 -0.27979732805E+03  0.28278843815E+03  0.00000000000E+00 0. -1.
          1    1    1    2  502    0  0.26236335389E+02  0.10293989586E+03  0.18346510189E+02  0.10780334823E+03  0.00000000000E+00 0. -1.
         22    1    3    3    0    0 -0.52225748804E+02 -0.42310694315E+02  0.32257572647E+01  0.67291375387E+02  0.00000000000E+00 0.  1.
         22    1    3    3    0    0  0.33465194475E+02 -0.20294741564E+02 -0.90450548719E+02  0.98555048273E+02  0.00000000000E+00 0.  1.
</event>
<event>
 7    1  0.5667373E-006  0.4050138E+02  0.7818608E-02  0.1516523E+00
          2   -1    0    0  502    0  0.00000000000E+00  0.00000000000E+00  0.29938353146E+03  0.29938353146E+03  0.00000000000E+00 0. -1.
          1   -1    0    0  501    0 -0.00000000000E+00 -0.00000000000E+00 -0.38233607342E+02  0.38233607342E+02  0.00000000000E+00 0. -1.
         25    2    1    2    0    0 -0.13534046592E+01  0.31880575777E+02  0.16157109874E+03  0.20675713017E+03  0.12500035244E+03 0.  0.
          2    1    1    2  501    0  0.39146774934E+02 -0.17319560669E+02  0.38501912522E+02  0.57574598889E+02  0.00000000000E+00 0. -1.
          1    1    1    2  502    0 -0.37793370274E+02 -0.14561015108E+02  0.61076912859E+02  0.73285409749E+02  0.00000000000E+00 0. -1.
         22    1    3    3    0    0 -0.20318076750E+02 -0.45084543238E+02  0.55413327255E+02  0.74270297692E+02  0.00000000000E+00 0.  1.
         22    1    3    3    0    0  0.18964672091E+02  0.76965119015E+02  0.10615777148E+03  0.13248683247E+03  0.00000000000E+00 0.  1.
</event>
<event>
 7    1  0.5667373E-006  0.1188805E+03  0.7818608E-02  0.1299926E+00
          2   -1    0    0  502    0  0.00000000000E+00  0.00000000000E+00  0.42612692625E+03  0.42612692625E+03  0.00000000000E+00 0. -1.
          1   -1    0    0  501    0 -0.00000000000E+00 -0.00000000000E+00 -0.31020746583E+04  0.31020746583E+04  0.00000000000E+00 0. -1.
         25    2    1    2    0    0  0.14335261773E+03  0.69547391982E+01  0.11614054261E+03  0.22296193028E+03  0.12500022123E+03 0.  0.
          2    1    1    2  501    0 -0.10097222529E+03 -0.62659686517E+02 -0.30427088652E+04  0.30450285492E+04  0.00000000000E+00 0. -1.
          1    1    1    2  502    0 -0.42380392443E+02  0.55704947319E+02  0.25062059056E+03  0.26021110513E+03  0.00000000000E+00 0. -1.
         22    1    3    3    0    0  0.11663914115E+03 -0.35605766600E+02  0.12184342709E+03  0.17238990860E+03  0.00000000000E+00 0. -1.
         22    1    3    3    0    0  0.26713476587E+02  0.42560505798E+02 -0.57028844759E+01  0.50572021677E+02  0.00000000000E+00 0. -1.
</event>
<event>
 7    1  0.5667373E-006  0.3606856E+02  0.7818608E-02  0.1542203E+00
          2   -1    0    0  502    0  0.00000000000E+00  0.00000000000E+00  0.25618282894E+03  0.25618282894E+03  0.00000000000E+00 0. -1.
          1   -1    0    0  501    0 -0.00000000000E+00 -0.00000000000E+00 -0.58234755118E+02  0.58234755118E+02  0.00000000000E+00 0. -1.
         25    2    1    2    0    0 -0.25926659815E+02  0.79279348325E+01  0.76992688878E+02  0.14929122676E+03  0.12499980963E+03 0.  0.
          2    1    1    2  501    0  0.21444149536E+02  0.29001545618E+02 -0.25319900977E+01  0.36157325280E+02  0.00000000000E+00 0. -1.
          1    1    1    2  502    0  0.44825102787E+01 -0.36929480450E+02  0.12348737504E+03  0.12896903201E+03  0.00000000000E+00 0. -1.
         22    1    3    3    0    0 -0.68816068621E+02  0.24531907350E+02  0.19402825018E+02  0.75590577438E+02  0.00000000000E+00 0. -1.
         22    1    3    3    0    0  0.42889408806E+02 -0.16603972518E+02  0.57589863860E+02  0.73700649322E+02  0.00000000000E+00 0. -1.
</event>
<event>
 7    1  0.5667373E-006  0.1385285E+03  0.7818608E-02  0.1271501E+00
          2   -1    0    0  502    0  0.00000000000E+00  0.00000000000E+00  0.33718909178E+04  0.33718909178E+04  0.00000000000E+00 0. -1.
          1   -1    0    0  501    0 -0.00000000000E+00 -0.00000000000E+00 -0.15602659759E+03  0.15602659759E+03  0.00000000000E+00 0. -1.
         25    2    1    2    0    0 -0.76459271232E+02 -0.10196775173E+03  0.11134231634E+03  0.21039223493E+03  0.12499735421E+03 0.  0.
          2    1    1    2  501    0  0.69080248230E+02 -0.37352777239E+02 -0.90292239119E+02  0.11966619869E+03  0.00000000000E+00 0. -1.
          1    1    1    2  502    0  0.73790230013E+01  0.13932052896E+03  0.31948142430E+04  0.31978590818E+04  0.00000000000E+00 0. -1.
         22    1    3    3    0    0 -0.34154044890E+02 -0.12548283419E+03  0.78574349967E+02  0.15194199199E+03  0.00000000000E+00 0.  1.
         22    1    3    3    0    0 -0.42305226342E+02  0.23515082459E+02  0.32767966377E+02  0.58450242937E+02  0.00000000000E+00 0.  1.
</event>
<event>
 7    1  0.5667373E-006  0.4981642E+02  0.7818608E-02  0.1495327E+00
          2   -1    0    0  502    0  0.00000000000E+00  0.00000000000E+00  0.31073968692E+03  0.31073968692E+03  0.00000000000E+00 0. -1.
          1   -1    0    0  501    0 -0.00000000000E+00 -0.00000000000E+00 -0.20769370736E+04  0.20769370736E+04  0.00000000000E+00 0. -1.
         25    2    1    2    0    0  0.37234467372E+02 -0.13904670300E+02 -0.23178555863E+03  0.26632669650E+03  0.12500247464E+03 0.  0.
          2    1    1    2  501    0 -0.21646630671E+02  0.45335070055E+02 -0.18264857898E+04  0.18271765611E+04  0.00000000000E+00 0. -1.
          1    1    1    2  502    0 -0.15587836700E+02 -0.31430399755E+02  0.29207396174E+03  0.29417350290E+03  0.00000000000E+00 0. -1.
         22    1    3    3    0    0 -0.21631877090E+02  0.31475004654E+00 -0.19344455975E+03  0.19465054552E+03  0.00000000000E+00 0. -1.
         22    1    3    3    0    0  0.58866344461E+02 -0.14219420347E+02 -0.38340998880E+02  0.71676150988E+02  0.00000000000E+00 0. -1.
</event>
<event>
 7    1  0.5667373E-006  0.2526081E+02  0.7818608E-02  0.1661352E+00
          2   -1    0    0  502    0  0.00000000000E+00  0.00000000000E+00  0.17859398442E+04  0.17859398442E+04  0.00000000000E+00 0. -1.
          1   -1    0    0  501    0 -0.00000000000E+00 -0.00000000000E+00 -0.13859163239E+02  0.13859163239E+02  0.00000000000E+00 0. -1.
         25    2    1    2    0    0  0.29487229450E+01 -0.26613468192E+01  0.59446991901E+03  0.60748233739E+03  0.12499811157E+03 0.  0.
          2    1    1    2  501    0  0.19882866615E+02  0.14644090377E+02  0.13932946220E+02  0.28353214247E+02  0.00000000000E+00 0. -1.
          1    1    1    2  502    0 -0.22831589560E+02 -0.11982743557E+02  0.11636778158E+04  0.11639634558E+04  0.00000000000E+00 0. -1.
         22    1    3    3    0    0  0.14295038223E+01  0.56816780699E+02  0.40280973076E+03  0.40679954430E+03  0.00000000000E+00 0.  1.
         22    1    3    3    0    0  0.15192191227E+01 -0.59478127518E+02  0.19166018825E+03  0.20068279309E+03  0.00000000000E+00 0.  1.
</event>
<event>
 7    1  0.5667373E-006  0.2907735E+03  0.7818608E-02  0.1145745E+00
          2   -1    0    0  502    0  0.00000000000E+00  0.00000000000E+00  0.79859952996E+03  0.79859952996E+03  0.00000000000E+00 0. -1.
          1   -1    0    0  501    0 -0.00000000000E+00 -0.00000000000E+00 -0.27108239115E+04  0.27108239115E+04  0.00000000000E+00 0. -1.
         25    2    1    2    0    0 -0.35582262936E+03 -0.73833382937E+02 -0.42961369441E+03  0.57641465573E+03  0.12499926766E+03 0.  0.
          2    1    1    2  501    0  0.28020114845E+03 -0.49013743212E+02 -0.21913511137E+04  0.22097363495E+04  0.00000000000E+00 0. -1.
          1    1    1    2  502    0  0.75621480912E+02  0.12284712615E+03  0.70874042658E+03  0.72327243625E+03  0.00000000000E+00 0. -1.
         22    1    3    3    0    0 -0.33790083987E+03 -0.10017484106E+03 -0.39347916227E+03  0.52824031227E+03  0.00000000000E+00 0.  1.
         22    1    3    3    0    0 -0.17921789489E+02  0.26341458128E+02 -0.36134532139E+02  0.48174343459E+02  0.00000000000E+00 0.  1.
</event>
<event>
 7    1  0.5667373E-006  0.4732345E+02  0.7818608E-02  0.1538060E+00
          2   -1    0    0  502    0  0.00000000000E+00  0.00000000000E+00  0.15143861469E+04  0.15143861469E+04  0.00000000000E+00 0. -1.
          1   -1    0    0  501    0 -0.00000000000E+00 -0.00000000000E+00 -0.13919910374E+02  0.13919910374E+02  0.00000000000E+00 0. -1.
         25    2    1    2    0    0  0.23031450499E+02 -0.56743732238E+01  0.64555383882E+03  0.65797209204E+03  0.12499947545E+03 0.  0.
          2    1    1    2  501    0 -0.50451495566E+02  0.16371043865E+01  0.77883630416E+02  0.92811062931E+02  0.00000000000E+00 0. -1.
          1    1    1    2  502    0  0.27420045067E+02  0.40372688373E+01  0.77702876731E+03  0.77752290232E+03  0.00000000000E+00 0. -1.
         22    1    3    3    0    0 -0.13613700032E+02 -0.22578851058E+02  0.25743135287E+02  0.36848966852E+02  0.00000000000E+00 0. -1.
         22    1    3    3    0    0  0.36645150530E+02  0.16904477834E+02  0.61981070354E+03  0.62112312519E+03  0.00000000000E+00 0. -1.
</event>
<event>
 7    1  0.5667373E-006  0.9878802E+02  0.7818608E-02  0.1426027E+00
          2   -1    0    0  502    0  0.00000000000E+00  0.00000000000E+00  0.76417408692E+02  0.76417408692E+02  0.00000000000E+00 0. -1.
          1   -1    0    0  501    0 -0.00000000000E+00 -0.00000000000E+00 -0.81192668834E+03  0.81192668834E+03  0.00000000000E+00 0. -1.
         25    2    1    2    0    0 -0.33030353184E+02  0.72375618312E+02 -0.52493199214E+03  0.54544193674E+03  0.12499630241E+03 0.  0.
          2    1    1    2  501    0 -0.28435754155E+02  0.69060230107E+01 -0.23729098310E+03  0.23908846883E+03  0.00000000000E+00 0. -1.
          1    1    1    2  502    0  0.61466107339E+02 -0.79281641323E+02  0.26713695598E+02  0.10381369146E+03  0.00000000000E+00 0. -1.
         22    1    3    3    0    0  0.35902532000E+02 -0.13179787147E+02 -0.12936730518E+03  0.13490218028E+03  0.00000000000E+00 0. -1.
         22    1    3    3    0    0 -0.68932885184E+02  0.85555405459E+02 -0.39556468696E+03  0.41053975646E+03  0.00000000000E+00 0. -1.
</event>
<event>
 7    1  0.5667373E-006  0.5941130E+02  0.7818608E-02  0.1416565E+00
          2   -1    0    0  502    0  0.00000000000E+00  0.00000000000E+00  0.55315546583E+03  0.55315546583E+03  0.00000000000E+00 0. -1.
          1   -1    0    0  501    0 -0.00000000000E+00 -0.00000000000E+00 -0.92902267971E+02  0.92902267971E+02  0.00000000000E+00 0. -1.
         25    2    1    2    0    0  0.30142077565E+02  0.31500832942E+02  0.45878930023E+01  0.13248418159E+03  0.12502064747E+03 0.  0.
          2    1    1    2  501    0 -0.77405829559E+02 -0.90558846826E+01  0.28140121669E+02  0.82858541773E+02  0.00000000000E+00 0. -1.
          1    1    1    2  502    0  0.47263751994E+02 -0.22444948260E+02  0.42752518319E+03  0.43071501044E+03  0.00000000000E+00 0. -1.
         22    1    3    3    0    0  0.34151412595E+02  0.76713672076E+02 -0.10559022385E+02  0.84633323339E+02  0.00000000000E+00 0. -1.
         22    1    3    3    0    0 -0.40093350296E+01 -0.45212839134E+02  0.15146915387E+02  0.47850858254E+02  0.00000000000E+00 0. -1.
</event>
<event>
 7    1  0.5667373E-006  0.1955426E+03  0.7818608E-02  0.1254090E+00
          2   -1    0    0  502    0  0.00000000000E+00  0.00000000000E+00  0.12882288225E+04  0.12882288225E+04  0.00000000000E+00 0. -1.
          1   -1    0    0  501    0 -0.00000000000E+00 -0.00000000000E+00 -0.39430812205E+03  0.39430812205E+03  0.00000000000E+00 0. -1.
         25    2    1    2    0    0  0.14097374792E+03  0.31114818037E+02  0.14859097412E+03  0.24196373001E+03  0.12500175818E+03 0.  0.
          2    1    1    2  501    0  0.53276277528E+02  0.38899232876E+02 -0.33462056272E+03  0.34106074688E+03  0.00000000000E+00 0. -1.
          1    1    1    2  502    0 -0.19425002545E+03 -0.70014050913E+02  0.10799502891E+04  0.10995124677E+04  0.00000000000E+00 0. -1.
         22    1    3    3    0    0  0.56830175617E+02 -0.41875844418E+02  0.23349781564E+02  0.74353665044E+02  0.00000000000E+00 0. -1.
         22    1    3    3    0    0  0.84143572306E+02  0.72990662456E+02  0.12524119255E+03  0.16761006497E+03  0.00000000000E+00 0. -1.
</event>
<event>
 7    1  0.7228506E-006  0.7735146E+02  0.7818608E-02  0.1376200E+00
          2   -1    0    0  502    0  0.00000000000E+00  0.00000000000E+00  0.67366919982E+03  0.67366919982E+03  0.00000000000E+00 0. -1.
          1   -1    0    0  501    0 -0.00000000000E+00 -0.00000000000E+00 -0.11105347318E+04  0.11105347318E+04  0.00000000000E+00 0. -1.
         25    2    1    2    0    0 -0.34401150744E+02  0.84612331377E+02 -0.40605875996E+03  0.43456776373E+03  0.12499095541E+03 0.  0.
          2    1    1    2  501    0 -0.20175401476E+02 -0.74984898552E+02 -0.68686548944E+03  0.69124090042E+03  0.00000000000E+00 0. -1.
          1    1    1    2  502    0  0.54576552220E+02 -0.96274328258E+01  0.65605871743E+03  0.65839526747E+03  0.00000000000E+00 0. -1.
         22    1    3    3    0    0 -0.67477531172E+02  0.58120402214E+02 -0.36446693190E+03  0.37518974242E+03  0.00000000000E+00 0.  1.
         22    1    3    3    0    0  0.33076380429E+02  0.26491929163E+02 -0.41591828062E+02  0.59378021309E+02  0.00000000000E+00 0.  1.
</event>
<event>
 7    1  0.5667373E-006  0.5304456E+02  0.7818608E-02  0.1449240E+00
          2   -1    0    0  502    0  0.00000000000E+00  0.00000000000E+00  0.21842260463E+04  0.21842260463E+04  0.00000000000E+00 0. -1.
          1   -1    0    0  501    0 -0.00000000000E+00 -0.00000000000E+00 -0.65807531870E+03  0.65807531870E+03  0.00000000000E+00 0. -1.
         25    2    1    2    0    0  0.14056446723E+02  0.29060628084E+02  0.10433161766E+04  0.10512736592E+04  0.12500223336E+03 0.  0.
          2    1    1    2  501    0  0.29087428159E+02 -0.44402983571E+02 -0.65255737311E+03  0.65471278330E+03  0.00000000000E+00 0. -1.
          1    1    1    2  502    0 -0.43143874882E+02  0.15342355487E+02  0.11353919241E+04  0.11363149225E+04  0.00000000000E+00 0. -1.
         22    1    3    3    0    0  0.45089569116E+02  0.63062279759E+01  0.93871824660E+03  0.93982167684E+03  0.00000000000E+00 0. -1.
         22    1    3    3    0    0 -0.31033122393E+02  0.22754400108E+02  0.10459793004E+03  0.11145198239E+03  0.00000000000E+00 0. -1.
</event>
<event>
 7    1  0.5667373E-006  0.1224908E+03  0.7818608E-02  0.1301096E+00
          2   -1    0    0  502    0  0.00000000000E+00  0.00000000000E+00  0.92273522999E+03  0.92273522999E+03  0.00000000000E+00 0. -1.
          1   -1    0    0  501    0 -0.00000000000E+00 -0.00000000000E+00 -0.56360777185E+03  0.56360777185E+03  0.00000000000E+00 0. -1.
         25    2    1    2    0    0  0.14347563305E+03  0.52295986771E+01 -0.15444410345E+03  0.24513357713E+03  0.12499953425E+03 0.  0.
          2    1    1    2  501    0 -0.37407718701E+02  0.55828958325E+02 -0.35639536815E+03  0.36267598273E+03  0.00000000000E+00 0. -1.
          1    1    1    2  502    0 -0.10606791435E+03 -0.61058557002E+02  0.86996692974E+03  0.87853344198E+03  0.00000000000E+00 0. -1.
         22    1    3    3    0    0  0.10959958910E+03  0.59803923177E+02 -0.11506699921E+03  0.16979102881E+03  0.00000000000E+00 0. -1.
         22    1    3    3    0    0  0.33876043949E+02 -0.54574324500E+02 -0.39377104240E+02  0.75342548314E+02  0.00000000000E+00 0. -1.
</event>
<event>
 7    1  0.7793807E-006  0.5151511E+02  0.7818608E-02  0.1487739E+00
          2   -1    0    0  502    0  0.00000000000E+00  0.00000000000E+00  0.23966622800E+04  0.23966622800E+04  0.00000000000E+00 0. -1.
          1   -1    0    0  501    0 -0.00000000000E+00 -0.00000000000E+00 -0.54483342237E+03  0.54483342237E+03  0.00000000000E+00 0. -1.
         25    2    1    2    0    0 -0.52800665205E+02 -0.36418550359E+02 -0.10673254140E+03  0.17644018633E+03  0.12500033161E+03 0.  0.
          2    1    1    2  501    0  0.18897847824E+02  0.47806386418E+02 -0.40147270866E+03  0.40475043549E+03  0.00000000000E+00 0. -1.
          1    1    1    2  502    0  0.33902817381E+02 -0.11387836059E+02  0.23600341077E+04  0.23603050806E+04  0.00000000000E+00 0. -1.
         22    1    3    3    0    0 -0.31870312570E+02 -0.81954611430E+02 -0.83269830847E+02  0.12110383928E+03  0.00000000000E+00 0.  1.
         22    1    3    3    0    0 -0.20930352635E+02  0.45536061071E+02 -0.23462710551E+02  0.55336347058E+02  0.00000000000E+00 0.  1.
</event>
<event>
 7    1  0.5667373E-006  0.3163819E+02  0.7818608E-02  0.1589123E+00
          2   -1    0    0  502    0  0.00000000000E+00  0.00000000000E+00  0.21566322370E+04  0.21566322370E+04  0.00000000000E+00 0. -1.
          1   -1    0    0  501    0 -0.00000000000E+00 -0.00000000000E+00 -0.12495688121E+02  0.12495688121E+02  0.00000000000E+00 0. -1.
         25    2    1    2    0    0 -0.56591107481E+02  0.23092610357E+02  0.14742496228E+04  0.14808015055E+04  0.12500130499E+03 0.  0.
          2    1    1    2  501    0  0.28995240558E+02 -0.11232208386E+02  0.18366366231E+02  0.36113846220E+02  0.00000000000E+00 0. -1.
          1    1    1    2  502    0  0.27595866922E+02 -0.11860401971E+02  0.65152055976E+03  0.65221257332E+03  0.00000000000E+00 0. -1.
         22    1    3    3    0    0 -0.33630032078E+02  0.69194232624E+02  0.11415012784E+04  0.11440909009E+04  0.00000000000E+00 0.  1.
         22    1    3    3    0    0 -0.22961075403E+02 -0.46101622268E+02  0.33274834440E+03  0.33671060461E+03  0.00000000000E+00 0.  1.
</event>
<event>
 7    1  0.5667373E-006  0.2558652E+02  0.7818608E-02  0.1671524E+00
          2   -1    0    0  502    0  0.00000000000E+00  0.00000000000E+00  0.36871651755E+02  0.36871651755E+02  0.00000000000E+00 0. -1.
          1   -1    0    0  501    0 -0.00000000000E+00 -0.00000000000E+00 -0.36062687696E+03  0.36062687696E+03  0.00000000000E+00 0. -1.
         25    2    1    2    0    0 -0.22129541786E+02 -0.21909105270E+02 -0.25532233323E+03  0.28598027602E+03  0.12500199566E+03 0.  0.
          2    1    1    2  501    0  0.22731450136E+02 -0.37900031925E+01 -0.80055678708E+02  0.83306630246E+02  0.00000000000E+00 0. -1.
          1    1    1    2  502    0 -0.60190835012E+00  0.25699108462E+02  0.11622786731E+02  0.28211622442E+02  0.00000000000E+00 0. -1.
         22    1    3    3    0    0 -0.95043609838E+01  0.52059420998E+02 -0.89598880539E+02  0.10405996149E+03  0.00000000000E+00 0. -1.
         22    1    3    3    0    0 -0.12625180802E+02 -0.73968526268E+02 -0.16572345269E+03  0.18192031453E+03  0.00000000000E+00 0. -1.
</event>
<event>
 7    1  0.5667373E-006  0.6084920E+02  0.7818608E-02  0.1424269E+00
          2   -1    0    0  502    0  0.00000000000E+00  0.00000000000E+00  0.85541388824E+03  0.85541388824E+03  0.00000000000E+00 0. -1.
          1   -1    0    0  501    0 -0.00000000000E+00 -0.00000000000E+00 -0.30906315399E+03  0.30906315399E+03  0.00000000000E+00 0. -1.
         25    2    1    2    0    0 -0.17300150433E+01 -0.18221467336E+02  0.45769875661E+02  0.13436654713E+03  0.12499789056E+03 0.  0.
          2    1    1    2  501    0  0.37971109637E+02  0.49921825108E+02 -0.26027851346E+03  0.26772915112E+03  0.00000000000E+00 0. -1.
          1    1    1    2  502    0 -0.36241094594E+02 -0.31700357772E+02  0.76085937205E+03  0.76238134399E+03  0.00000000000E+00 0. -1.
         22    1    3    3    0    0 -0.18127858732E+02 -0.68665191077E+02  0.13530235418E+02  0.72295193466E+02  0.00000000000E+00 0.  1.
         22    1    3    3    0    0  0.16397843689E+02  0.50443723741E+02  0.32239640242E+02  0.62071353662E+02  0.00000000000E+00 0.  1.
</event>
<event>
 7    1  0.5667373E-006  0.5002563E+02  0.7818608E-02  0.1446061E+00
          2   -1    0    0  502    0  0.00000000000E+00  0.00000000000E+00  0.16323971908E+03  0.16323971908E+03  0.00000000000E+00 0. -1.
          1   -1    0    0  501    0 -0.00000000000E+00 -0.00000000000E+00 -0.61517125143E+03  0.61517125143E+03  0.00000000000E+00 0. -1.
         25    2    1    2    0    0 -0.36738628365E+02  0.63806639863E+02 -0.60889990360E+02  0.15733357093E+03  0.12500099004E+03 0.  0.
          2    1    1    2  501    0 -0.10611665292E+02 -0.48562858933E+02 -0.49938886014E+03  0.50185674484E+03  0.00000000000E+00 0. -1.
          1    1    1    2  502    0  0.47350293657E+02 -0.15243780929E+02  0.10834731815E+03  0.11922065474E+03  0.00000000000E+00 0. -1.
         22    1    3    3    0    0 -0.52262471823E+02  0.61523860800E+02 -0.92058076776E+02  0.12243872308E+03  0.00000000000E+00 0. -1.
         22    1    3    3    0    0  0.15523843458E+02  0.22827790627E+01  0.31168086416E+02  0.34894847855E+02  0.00000000000E+00 0. -1.
</event>
<event>
 7    1  0.5667373E-006  0.6436632E+02  0.7818608E-02  0.1449271E+00
          2   -1    0    0  502    0  0.00000000000E+00  0.00000000000E+00  0.87390101459E+02  0.87390101459E+02  0.00000000000E+00 0. -1.
          1   -1    0    0  501    0 -0.00000000000E+00 -0.00000000000E+00 -0.14043862808E+04  0.14043862808E+04  0.00000000000E+00 0. -1.
         25    2    1    2    0    0 -0.46561246466E+02 -0.29031783147E+01 -0.73993952637E+02  0.15256805086E+03  0.12500210798E+03 0.  0.
          2    1    1    2  501    0  0.50811474012E+02  0.40390806404E+02 -0.12827587010E+04  0.12843999020E+04  0.00000000000E+00 0. -1.
          1    1    1    2  502    0 -0.42502275458E+01 -0.37487628089E+02  0.39756474277E+02  0.54808429469E+02  0.00000000000E+00 0. -1.
         22    1    3    3    0    0  0.23263817046E+02 -0.60987948735E+01  0.22823206822E+02  0.33155682048E+02  0.00000000000E+00 0.  1.
         22    1    3    3    0    0 -0.69825063512E+02  0.31956165588E+01 -0.96817159459E+02  0.11941236881E+03  0.00000000000E+00 0.  1.
</event>
<event>
 7    1  0.5667373E-006  0.1344087E+03  0.7818608E-02  0.1289424E+00
          2   -1    0    0  502    0  0.00000000000E+00  0.00000000000E+00  0.18129013597E+04  0.18129013597E+04  0.00000000000E+00 0. -1.
          1   -1    0    0  501    0 -0.00000000000E+00 -0.00000000000E+00 -0.10894725905E+03  0.10894725905E+03  0.00000000000E+00 0. -1.
         25    2    1    2    0    0  0.26339303408E+02  0.14251463450E+03  0.53130957876E+03  0.56472857910E+03  0.12499727848E+03 0.  0.
          2    1    1    2  501    0  0.57600003179E+02 -0.36622162542E+02 -0.75443680545E+02  0.10173835113E+03  0.00000000000E+00 0. -1.
          1    1    1    2  502    0 -0.83939306588E+02 -0.10589247195E+03  0.12480882025E+04  0.12553816886E+04  0.00000000000E+00 0. -1.
         22    1    3    3    0    0  0.47593387830E+02  0.13877675186E+03  0.52012861573E+03  0.54042380991E+03  0.00000000000E+00 0.  1.
         22    1    3    3    0    0 -0.21254084422E+02  0.37378826392E+01  0.11180963031E+02  0.24304769193E+02  0.00000000000E+00 0.  1.
</event>
<event>
 7    1  0.5667373E-006  0.5697824E+02  0.7818608E-02  0.1413512E+00
          2   -1    0    0  502    0  0.00000000000E+00  0.00000000000E+00  0.33202158624E+03  0.33202158624E+03  0.00000000000E+00 0. -1.
          1   -1    0    0  501    0 -0.00000000000E+00 -0.00000000000E+00 -0.13546861952E+03  0.13546861952E+03  0.00000000000E+00 0. -1.
         25    2    1    2    0    0  0.46862642965E+02  0.44383257930E+02  0.60290531846E+02  0.15307020675E+03  0.12501823497E+03 0.  0.
          2    1    1    2  501    0  0.91759019367E+01 -0.56234534770E+02 -0.75761087520E+02  0.94795898959E+02  0.00000000000E+00 0. -1.
          1    1    1    2  502    0 -0.56038544902E+02  0.11851276839E+02  0.21202352240E+03  0.21962410006E+03  0.00000000000E+00 0. -1.
         22    1    3    3    0    0 -0.29733958544E+02  0.18933290194E+02 -0.18898458190E+02  0.39996618485E+02  0.00000000000E+00 0. -1.
         22    1    3    3    0    0  0.76596601509E+02  0.25449967736E+02  0.79188990036E+02  0.11307358827E+03  0.00000000000E+00 0. -1.
</event>
<event>
 7    1  0.5667373E-006  0.4615497E+02  0.7818608E-02  0.1557711E+00
          2   -1    0    0  502    0  0.00000000000E+00  0.00000000000E+00  0.40356004655E+03  0.40356004655E+03  0.00000000000E+00 0. -1.
          1   -1    0    0  501    0 -0.00000000000E+00 -0.00000000000E+00 -0.74019486390E+02  0.74019486390E+02  0.00000000000E+00 0. -1.
         25    2    1    2    0    0  0.62537303582E+02  0.18972260751E+02  0.11007012805E+03  0.17891673269E+03  0.12499961252E+03 0.  0.
          2    1    1    2  501    0 -0.24464185623E+02  0.53325974813E+01 -0.33426117134E+02  0.41764078833E+02  0.00000000000E+00 0. -1.
          1    1    1    2  502    0 -0.38073117959E+02 -0.24304858232E+02  0.25289654925E+03  0.25689872142E+03  0.00000000000E+00 0. -1.
         22    1    3    3    0    0  0.92813122728E+02  0.93721883867E+01  0.11356185945E+03  0.14696397377E+03  0.00000000000E+00 0. -1.
         22    1    3    3    0    0 -0.30275819145E+02  0.96000723644E+01 -0.34917313993E+01  0.31952758918E+02  0.00000000000E+00 0. -1.
</event>
<event>
 7    1  0.5667373E-006  0.1684379E+03  0.7818608E-02  0.1235745E+00
          2   -1    0    0  502    0  0.00000000000E+00  0.00000000000E+00  0.15862905036E+04  0.15862905036E+04  0.00000000000E+00 0. -1.
          1   -1    0    0  501    0 -0.00000000000E+00 -0.00000000000E+00 -0.62728917553E+03  0.62728917553E+03  0.00000000000E+00 0. -1.
         25    2    1    2    0    0 -0.85919908888E+02 -0.12043012810E+03 -0.17978314049E+03  0.26426120842E+03  0.12500544858E+03 0.  0.
          2    1    1    2  501    0  0.16815294513E+03  0.78899593560E+02 -0.38251753568E+03  0.42522961318E+03  0.00000000000E+00 0. -1.
          1    1    1    2  502    0 -0.82233036247E+02  0.41530534542E+02  0.15213020043E+04  0.15240888576E+04  0.00000000000E+00 0. -1.
         22    1    3    3    0    0  0.16588219336E+02 -0.60951777136E+02 -0.10966780827E+03  0.12655953669E+03  0.00000000000E+00 0.  1.
         22    1    3    3    0    0 -0.10250812822E+03 -0.59478350966E+02 -0.70115332221E+02  0.13770167173E+03  0.00000000000E+00 0.  1.
</event>
<event>
 7    1  0.5667373E-006  0.6319607E+02  0.7818608E-02  0.1443281E+00
          2   -1    0    0  502    0  0.00000000000E+00  0.00000000000E+00  0.98814618400E+03  0.98814618400E+03  0.00000000000E+00 0. -1.
          1   -1    0    0  501    0 -0.00000000000E+00 -0.00000000000E+00 -0.27669261292E+03  0.27669261292E+03  0.00000000000E+00 0. -1.
         25    2    1    2    0    0 -0.11808413788E+02 -0.59426252530E+02  0.39301685109E+02  0.14436205661E+03  0.12499945124E+03 0.  0.
          2    1    1    2  501    0 -0.36067642476E+02  0.17683409443E+02 -0.22122616495E+03  0.22484348748E+03  0.00000000000E+00 0. -1.
          1    1    1    2  502    0  0.47876056263E+02  0.41742843087E+02  0.89337805092E+03  0.89563325283E+03  0.00000000000E+00 0. -1.
         22    1    3    3    0    0  0.55369103398E+02 -0.22508525019E+02  0.30800599392E+02  0.67238740564E+02  0.00000000000E+00 0.  1.
         22    1    3    3    0    0 -0.67177517186E+02 -0.36917727510E+02  0.85010857167E+01  0.77123316048E+02  0.00000000000E+00 0.  1.
</event>
<event>
 7    1  0.5667373E-006  0.6958068E+02  0.7818608E-02  0.1413327E+00
          2   -1    0    0  502    0  0.00000000000E+00  0.00000000000E+00  0.11804776970E+03  0.11804776970E+03  0.00000000000E+00 0. -1.
          1   -1    0    0  501    0 -0.00000000000E+00 -0.00000000000E+00 -0.29212320078E+04  0.29212320078E+04  0.00000000000E+00 0. -1.
         25    2    1    2    0    0 -0.73455755289E+01  0.96285442032E+02 -0.52813157616E+03  0.55124561343E+03  0.12499568296E+03 0.  0.
          2    1    1    2  501    0 -0.27617154870E+02 -0.36549522137E+02 -0.23700517223E+04  0.23704944086E+04  0.00000000000E+00 0. -1.
          1    1    1    2  502    0  0.34962730399E+02 -0.59735919895E+02  0.94999060371E+02  0.11753975546E+03  0.00000000000E+00 0. -1.
         22    1    3    3    0    0 -0.50021286071E+02  0.10118169494E+03 -0.33897313269E+03  0.35727111433E+03  0.00000000000E+00 0. -1.
         22    1    3    3    0    0  0.42675710542E+02 -0.48962529116E+01 -0.18915844347E+03  0.19397449910E+03  0.00000000000E+00 0. -1.
</event>
<event>
 7    1  0.5667373E-006  0.1172343E+03  0.7818608E-02  0.1268902E+00
          2   -1    0    0  502    0  0.00000000000E+00  0.00000000000E+00  0.85668968459E+03  0.85668968459E+03  0.00000000000E+00 0. -1.
          1   -1    0    0  501    0 -0.00000000000E+00 -0.00000000000E+00 -0.11755757823E+03  0.11755757823E+03  0.00000000000E+00 0. -1.
         25    2    1    2    0    0 -0.58918840966E+02  0.12239546532E+03  0.33763494657E+02  0.18765949443E+03  0.12499613005E+03 0.  0.
          2    1    1    2  501    0 -0.35712460129E+02 -0.11240782959E+03  0.56500254707E+02  0.13077912197E+03  0.00000000000E+00 0. -1.
          1    1    1    2  502    0  0.94631301094E+02 -0.99876357305E+01  0.64886835699E+03  0.65580864642E+03  0.00000000000E+00 0. -1.
         22    1    3    3    0    0 -0.11760873929E+02  0.96482960214E+02  0.72584702900E+02  0.12130877488E+03  0.00000000000E+00 0. -1.
         22    1    3    3    0    0 -0.47157967037E+02  0.25912505103E+02 -0.38821208243E+02  0.66350719553E+02  0.00000000000E+00 0. -1.
</event>
<event>
 7    1  0.5667373E-006  0.1369384E+03  0.7818608E-02  0.1391275E+00
          2   -1    0    0  502    0  0.00000000000E+00  0.00000000000E+00  0.40704248929E+04  0.40704248929E+04  0.00000000000E+00 0. -1.
          1   -1    0    0  501    0 -0.00000000000E+00 -0.00000000000E+00 -0.47889701480E+02  0.47889701480E+02  0.00000000000E+00 0. -1.
         25    2    1    2    0    0  0.63021592406E+02 -0.13220855281E+03  0.22513311284E+03  0.29624896374E+03  0.12501082943E+03 0.  0.
          2    1    1    2  501    0  0.17318900500E+02  0.21620344514E+02  0.61831698653E+01  0.28383361341E+02  0.00000000000E+00 0. -1.
          1    1    1    2  502    0 -0.80340492906E+02  0.11058820830E+03  0.37912189088E+04  0.37936822693E+04  0.00000000000E+00 0. -1.
         22    1    3    3    0    0  0.30469657012E+02  0.16882826507E+02  0.18706538787E+02  0.39539403418E+02  0.00000000000E+00 0. -1.
         22    1    3    3    0    0  0.32551935395E+02 -0.14909137932E+03  0.20642657406E+03  0.25670956032E+03  0.00000000000E+00 0. -1.
</event>
<event>
 7    1  0.9500971E-006  0.6830630E+02  0.7818608E-02  0.1387801E+00
          2   -1    0    0  502    0  0.00000000000E+00  0.00000000000E+00  0.20477366133E+04  0.20477366133E+04  0.00000000000E+00 0. -1.
          1   -1    0    0  501    0 -0.00000000000E+00 -0.00000000000E+00 -0.87417053843E+03  0.87417053843E+03  0.00000000000E+00 0. -1.
         25    2    1    2    0    0  0.26172214174E+02 -0.16462114035E+02 -0.46639665595E+02  0.13695243510E+03  0.12499890031E+03 0.  0.
          2    1    1    2  501    0  0.36856066465E+02  0.43623338206E+02 -0.78074323212E+03  0.78282907443E+03  0.00000000000E+00 0. -1.
          1    1    1    2  502    0 -0.63028280640E+02 -0.27161224171E+02  0.20009489726E+04  0.20021256422E+04  0.00000000000E+00 0. -1.
         22    1    3    3    0    0 -0.16994767441E+02  0.41114944037E+02 -0.47371234283E+02  0.64986880069E+02  0.00000000000E+00 0. -1.
         22    1    3    3    0    0  0.43166981616E+02 -0.57577058071E+02  0.73156868830E+00  0.71965555030E+02  0.00000000000E+00 0. -1.
</event>
<event>
 7    1  0.5667373E-006  0.3857773E+02  0.7818608E-02  0.1521830E+00
          2   -1    0    0  502    0  0.00000000000E+00  0.00000000000E+00  0.26323883019E+04  0.26323883019E+04  0.00000000000E+00 0. -1.
          1   -1    0    0  501    0 -0.00000000000E+00 -0.00000000000E+00 -0.19328091646E+04  0.19328091646E+04  0.00000000000E+00 0. -1.
         25    2    1    2    0    0 -0.73689845104E+02 -0.77083751000E+01 -0.12766950975E+03  0.19342818381E+03  0.12500138502E+03 0.  0.
          2    1    1    2  501    0  0.38040814923E+02 -0.49853251425E+01 -0.17719149356E+04  0.17723302446E+04  0.00000000000E+00 0. -1.
          1    1    1    2  502    0  0.35649030181E+02  0.12693700243E+02  0.25991635826E+04  0.25994390381E+04  0.00000000000E+00 0. -1.
         22    1    3    3    0    0  0.16669822235E+02  0.25562636842E+02 -0.80730855503E+02  0.86306444753E+02  0.00000000000E+00 0.  1.
         22    1    3    3    0    0 -0.90359667339E+02 -0.33271011942E+02 -0.46938654244E+02  0.10712173906E+03  0.00000000000E+00 0.  1.
</event>
<event>
 7    1  0.5667373E-006  0.6862129E+02  0.7818608E-02  0.1455436E+00
          2   -1    0    0  502    0  0.00000000000E+00  0.00000000000E+00  0.25559861801E+04  0.25559861801E+04  0.00000000000E+00 0. -1.
          1   -1    0    0  501    0 -0.00000000000E+00 -0.00000000000E+00 -0.31187619754E+03  0.31187619754E+03  0.00000000000E+00 0. -1.
         25    2    1    2    0    0  0.82065062615E+01  0.45634537346E+02  0.24656115826E+03  0.28029815043E+03  0.12499916253E+03 0.  0.
          2    1    1    2  501    0  0.18381086897E+02 -0.66539775621E+02 -0.29084265173E+03  0.29892282308E+03  0.00000000000E+00 0. -1.
          1    1    1    2  502    0 -0.26587593159E+02  0.20905238274E+02  0.22883914760E+04  0.22886414041E+04  0.00000000000E+00 0. -1.
         22    1    3    3    0    0  0.51624737805E+02 -0.12804408886E+02  0.15147216901E+03  0.16053935475E+03  0.00000000000E+00 0.  1.
         22    1    3    3    0    0 -0.43418231544E+02  0.58438946232E+02  0.95088989247E+02  0.11975879568E+03  0.00000000000E+00 0.  1.
</event>
<event>
 7    1  0.5667373E-006  0.1255520E+03  0.7818608E-02  0.1289311E+00
          2   -1    0    0  502    0  0.00000000000E+00  0.00000000000E+00  0.30018647395E+04  0.30018647395E+04  0.00000000000E+00 0. -1.
          1   -1    0    0  501    0 -0.00000000000E+00 -0.00000000000E+00 -0.21445925055E+04  0.21445925055E+04  0.00000000000E+00 0. -1.
         25    2    1    2    0    0 -0.23909379237E+02  0.15410143032E+03  0.83663483579E+03  0.86017855700E+03  0.12502156700E+03 0.  0.
          2    1    1    2  501    0  0.74356243074E+02 -0.10113084328E+03 -0.21303515046E+04  0.21340463518E+04  0.00000000000E+00 0. -1.
          1    1    1    2  502    0 -0.50446863838E+02 -0.52970587039E+02  0.21509889028E+04  0.21522323362E+04  0.00000000000E+00 0. -1.
         22    1    3    3    0    0 -0.25349936660E+02  0.17381453457E+03  0.68079630754E+03  0.70309154743E+03  0.00000000000E+00 0.  1.
         22    1    3    3    0    0  0.14405574227E+01 -0.19713104251E+02  0.15583852826E+03  0.15708700957E+03  0.00000000000E+00 0.  1.
</event>
<event>
 7    1  0.5667373E-006  0.1120679E+03  0.7818608E-02  0.1412880E+00
          2   -1    0    0  502    0  0.00000000000E+00  0.00000000000E+00  0.21164260392E+04  0.21164260392E+04  0.00000000000E+00 0. -1.
          1   -1    0    0  501    0 -0.00000000000E+00 -0.00000000000E+00 -0.36111577346E+03  0.36111577346E+03  0.00000000000E+00 0. -1.
         25    2    1    2    0    0 -0.16480741234E+02 -0.10300556817E+03 -0.43192960065E+02  0.16844403150E+03  0.12500399212E+03 0.  0.
          2    1    1    2  501    0  0.27179590520E+02 -0.87115333273E+01 -0.25296098413E+03  0.25456606303E+03  0.00000000000E+00 0. -1.
          1    1    1    2  502    0 -0.10698849286E+02  0.11171710149E+03  0.20514642099E+04  0.20545317181E+04  0.00000000000E+00 0. -1.
         22    1    3    3    0    0  0.39975119605E+02 -0.54176623358E+02  0.20435999036E+02  0.70361543208E+02  0.00000000000E+00 0. -1.
         22    1    3    3    0    0 -0.56455860839E+02 -0.48828944807E+02 -0.63628959101E+02  0.98082488296E+02  0.00000000000E+00 0. -1.
</event>
<event>
 7    1  0.5667373E-006  0.1313429E+03  0.7818608E-02  0.1266968E+00
          2   -1    0    0  502    0  0.00000000000E+00  0.00000000000E+00  0.23905814596E+04  0.23905814596E+04  0.00000000000E+00 0. -1.
          1   -1    0    0  501    0 -0.00000000000E+00 -0.00000000000E+00 -0.65013116469E+02  0.65013116469E+02  0.00000000000E+00 0. -1.
         25    2    1    2    0    0 -0.20716951730E+02  0.45483822550E+02  0.82931789049E+02  0.15811753584E+03  0.12500201319E+03 0.  0.
          2    1    1    2  501    0 -0.50528268597E+02  0.70262198765E+02  0.48642804204E+02  0.99277413864E+02  0.00000000000E+00 0. -1.
          1    1    1    2  502    0  0.71245220327E+02 -0.11574602132E+03  0.21939937498E+04  0.21981996263E+04  0.00000000000E+00 0. -1.
         22    1    3    3    0    0  0.30368578813E+02  0.69930879787E+02  0.34858274547E+02  0.83831246152E+02  0.00000000000E+00 0.  1.
         22    1    3    3    0    0 -0.51085530543E+02 -0.24447057237E+02  0.48073514502E+02  0.74286289684E+02  0.00000000000E+00 0.  1.
</event>
<event>
 7    1  0.5667373E-006  0.2340142E+03  0.7818608E-02  0.1270251E+00
          2   -1    0    0  502    0  0.00000000000E+00  0.00000000000E+00  0.76207887376E+03  0.76207887376E+03  0.00000000000E+00 0. -1.
          1   -1    0    0  501    0 -0.00000000000E+00 -0.00000000000E+00 -0.86358307052E+03  0.86358307052E+03  0.00000000000E+00 0. -1.
         25    2    1    2    0    0  0.19980087416E+03  0.10937483777E+03 -0.51821719158E+03  0.57970463032E+03  0.12500062526E+03 0.  0.
          2    1    1    2  501    0  0.24189269270E+02 -0.40358710725E+02 -0.29392386124E+03  0.29766622665E+03  0.00000000000E+00 0. -1.
          1    1    1    2  502    0 -0.22399014343E+03 -0.69016127047E+02  0.71063685606E+03  0.74829108730E+03  0.00000000000E+00 0. -1.
         22    1    3    3    0    0  0.19605891639E+02  0.57163611153E+02 -0.62777352038E+02  0.87138196883E+02  0.00000000000E+00 0.  1.
         22    1    3    3    0    0  0.18019498252E+03  0.52211226620E+02 -0.45543983954E+03  0.49256643344E+03  0.00000000000E+00 0.  1.
</event>
<event>
 7    1  0.5667373E-006  0.9995237E+02  0.7818608E-02  0.1356404E+00
          2   -1    0    0  502    0  0.00000000000E+00  0.00000000000E+00  0.13772929050E+04  0.13772929050E+04  0.00000000000E+00 0. -1.
          1   -1    0    0  501    0 -0.00000000000E+00 -0.00000000000E+00 -0.16490328599E+03  0.16490328599E+03  0.00000000000E+00 0. -1.
         25    2    1    2    0    0 -0.53020999268E+02 -0.18566171699E+02  0.28172700992E+03  0.31329050045E+03  0.12499960184E+03 0.  0.
          2    1    1    2  501    0  0.84774724667E+02  0.57925234261E+02 -0.13077424313E+03  0.16626481700E+03  0.00000000000E+00 0. -1.
          1    1    1    2  502    0 -0.31753725399E+02 -0.39359062562E+02  0.10614368522E+04  0.10626408736E+04  0.00000000000E+00 0. -1.
         22    1    3    3    0    0  0.36177828076E+00 -0.29826954341E+02  0.38128502997E+01  0.30071845906E+02  0.00000000000E+00 0.  1.
         22    1    3    3    0    0 -0.53382777549E+02  0.11260782642E+02  0.27791415962E+03  0.28321865455E+03  0.00000000000E+00 0.  1.
</event>
<event>
 7    1  0.5667373E-006  0.3546095E+03  0.7818608E-02  0.1248023E+00
          2   -1    0    0  502    0  0.00000000000E+00  0.00000000000E+00  0.40402097428E+03  0.40402097428E+03  0.00000000000E+00 0. -1.
          1   -1    0    0  501    0 -0.00000000000E+00 -0.00000000000E+00 -0.22653820008E+04  0.22653820008E+04  0.00000000000E+00 0. -1.
         25    2    1    2    0    0  0.22789229791E+02 -0.34341052624E+03 -0.38593990732E+03  0.53200233605E+03  0.12500693973E+03 0.  0.
          2    1    1    2  501    0 -0.60381458823E+02  0.35236622672E+03 -0.17875194146E+04  0.18229189603E+04  0.00000000000E+00 0. -1.
          1    1    1    2  502    0  0.37592229032E+02 -0.89557004817E+01  0.31209829540E+03  0.31448167871E+03  0.00000000000E+00 0. -1.
         22    1    3    3    0    0  0.49004991204E+00 -0.31882275124E+03 -0.29186174472E+03  0.43224005470E+03  0.00000000000E+00 0.  1.
         22    1    3    3    0    0  0.22299179879E+02 -0.24587774997E+02 -0.94078162599E+02  0.99762281352E+02  0.00000000000E+00 0.  1.
</event>
<event>
 7    1  0.5667373E-006  0.7500733E+02  0.7818608E-02  0.1499488E+00
          2   -1    0    0  502    0  0.00000000000E+00  0.00000000000E+00  0.12809318901E+03  0.12809318901E+03  0.00000000000E+00 0. -1.
          1   -1    0    0  501    0 -0.00000000000E+00 -0.00000000000E+00 -0.51184395482E+03  0.51184395482E+03  0.00000000000E+00 0. -1.
         25    2    1    2    0    0 -0.38630431958E+02  0.40005660590E+02 -0.14560088505E+03  0.19979357990E+03  0.12500037475E+03 0.  0.
          2    1    1    2  501    0  0.54692530585E+02 -0.55963711173E+02 -0.33328669662E+03  0.34234957575E+03  0.00000000000E+00 0. -1.
          1    1    1    2  502    0 -0.16062098627E+02  0.15958050584E+02  0.95136815863E+02  0.97793988175E+02  0.00000000000E+00 0. -1.
         22    1    3    3    0    0 -0.35494101143E+02  0.70104161805E+02 -0.36624511064E+02  0.86693595663E+02  0.00000000000E+00 0. -1.
         22    1    3    3    0    0 -0.31363308150E+01 -0.30098501215E+02 -0.10897637399E+03  0.11309998424E+03  0.00000000000E+00 0. -1.
</event>
<event>
 7    1  0.5667373E-006  0.1597686E+03  0.7818608E-02  0.1280294E+00
          2   -1    0    0  502    0  0.00000000000E+00  0.00000000000E+00  0.10759926587E+04  0.10759926587E+04  0.00000000000E+00 0. -1.
          1   -1    0    0  501    0 -0.00000000000E+00 -0.00000000000E+00 -0.13019011392E+03  0.13019011392E+03  0.00000000000E+00 0. -1.
         25    2    1    2    0    0  0.17429965068E+03 -0.10541451059E+03  0.55514587046E+03  0.60440362519E+03  0.12499686953E+03 0.  0.
          2    1    1    2  501    0 -0.14800653476E+03  0.48612877810E+02 -0.44600667721E+02  0.16204433276E+03  0.00000000000E+00 0. -1.
          1    1    1    2  502    0 -0.26293115921E+02  0.56801632778E+02  0.43525734208E+03  0.43973481471E+03  0.00000000000E+00 0. -1.
         22    1    3    3    0    0  0.76995358770E+02  0.20665816622E+02  0.18763066495E+03  0.20386423835E+03  0.00000000000E+00 0. -1.
         22    1    3    3    0    0  0.97304291907E+02 -0.12608032721E+03  0.36751520550E+03  0.40053938684E+03  0.00000000000E+00 0. -1.
</event>
<event>
 7    1  0.5667373E-006  0.1346068E+03  0.7818608E-02  0.1394871E+00
          2   -1    0    0  502    0  0.00000000000E+00  0.00000000000E+00  0.74723620261E+02  0.74723620261E+02  0.00000000000E+00 0. -1.
          1   -1    0    0  501    0 -0.00000000000E+00 -0.00000000000E+00 -0.11013694097E+04  0.11013694097E+04  0.00000000000E+00 0. -1.
         25    2    1    2    0    0 -0.71332454494E+02  0.12550234004E+03 -0.42090612057E+03  0.46219632436E+03  0.12499729396E+03 0.  0.
          2    1    1    2  501    0  0.27381759725E+02  0.18519832659E+00 -0.57703887549E+03  0.57768820214E+03  0.00000000000E+00 0. -1.
          1    1    1    2  502    0  0.43950694770E+02 -0.12568753837E+03 -0.28700793368E+02  0.13620850345E+03  0.00000000000E+00 0. -1.
         22    1    3    3    0    0  0.20897842930E+02  0.45600717203E+02 -0.23159131475E+03  0.23696135195E+03  0.00000000000E+00 0. -1.
         22    1    3    3    0    0 -0.92230297424E+02  0.79901622841E+02 -0.18931480582E+03  0.22523497241E+03  0.00000000000E+00 0. -1.
</event>
<event>
 7    1  0.5667373E-006  0.6270288E+02  0.7818608E-02  0.1397188E+00
          2   -1    0    0  502    0  0.00000000000E+00  0.00000000000E+00  0.15329123526E+03  0.15329123526E+03  0.00000000000E+00 0. -1.
          1   -1    0    0  501    0 -0.00000000000E+00 -0.00000000000E+00 -0.28369522047E+03  0.28369522047E+03  0.00000000000E+00 0. -1.
         25    2    1    2    0    0 -0.27285793157E+02  0.17210426777E+02 -0.10492277243E+03  0.16635915283E+03  0.12500346498E+03 0.  0.
          2    1    1    2  501    0 -0.30436194939E+02 -0.49029115770E+02 -0.13273665923E+03  0.14473851201E+03  0.00000000000E+00 0. -1.
          1    1    1    2  502    0  0.57721988096E+02  0.31818688993E+02  0.10725544645E+03  0.12588879090E+03  0.00000000000E+00 0. -1.
         22    1    3    3    0    0 -0.44615925964E+02  0.51841473811E+02 -0.10764701414E+03  0.12753822529E+03  0.00000000000E+00 0. -1.
         22    1    3    3    0    0  0.17330132806E+02 -0.34631047035E+02  0.27242417119E+01  0.38820927535E+02  0.00000000000E+00 0. -1.
</event>
<event>
 7    1  0.5667373E-006  0.2635244E+02  0.7818608E-02  0.1668444E+00
          2   -1    0    0  502    0  0.00000000000E+00  0.00000000000E+00  0.10556445547E+04  0.10556445547E+04  0.00000000000E+00 0. -1.
          1   -1    0    0  501    0 -0.00000000000E+00 -0.00000000000E+00 -0.29683154156E+02  0.29683154156E+02  0.00000000000E+00 0. -1.
         25    2    1    2    0    0  0.14134959879E+02  0.18485182754E+02  0.56654038285E+03  0.58063247035E+03  0.12499824460E+03 0.  0.
          2    1    1    2  501    0  0.75374867214E+01 -0.25431084881E+02 -0.14499260110E+02  0.30228832727E+02  0.00000000000E+00 0. -1.
          1    1    1    2  502    0 -0.21672446600E+02  0.69459021278E+01  0.47392027784E+03  0.47446640582E+03  0.00000000000E+00 0. -1.
         22    1    3    3    0    0  0.91252289028E+01 -0.53410987095E+02  0.27765888029E+03  0.28289654849E+03  0.00000000000E+00 0. -1.
         22    1    3    3    0    0  0.50097309763E+01  0.71896169849E+02  0.28888150256E+03  0.29773592186E+03  0.00000000000E+00 0. -1.
</event>
<event>
 7    1  0.5667373E-006  0.1176422E+03  0.7818608E-02  0.1297212E+00
          2   -1    0    0  502    0  0.00000000000E+00  0.00000000000E+00  0.15908412891E+04  0.15908412891E+04  0.00000000000E+00 0. -1.
          1   -1    0    0  501    0 -0.00000000000E+00 -0.00000000000E+00 -0.86546385558E+03  0.86546385558E+03  0.00000000000E+00 0. -1.
         25    2    1    2    0    0  0.55040414215E+01  0.67099248207E+02  0.32505262797E+02  0.14564920201E+03  0.12499797740E+03 0.  0.
          2    1    1    2  501    0 -0.60703239260E+02  0.39688905327E+02 -0.80485309289E+03  0.80811422064E+03  0.00000000000E+00 0. -1.
          1    1    1    2  502    0  0.55199197839E+02 -0.10678815353E+03  0.14977252636E+04  0.15025417220E+04  0.00000000000E+00 0. -1.
         22    1    3    3    0    0 -0.53825099053E+02  0.50483495978E+02 -0.42312409341E+01  0.73916358501E+02  0.00000000000E+00 0. -1.
         22    1    3    3    0    0  0.59329140474E+02  0.16615752229E+02  0.36736503731E+02  0.71732843509E+02  0.00000000000E+00 0. -1.
</event>
<event>
 7    1  0.5667373E-006  0.6141637E+02  0.7818608E-02  0.1411450E+00
          2   -1    0    0  502    0  0.00000000000E+00  0.00000000000E+00  0.55249490125E+03  0.55249490125E+03  0.00000000000E+00 0. -1.
          1   -1    0    0  501    0 -0.00000000000E+00 -0.00000000000E+00 -0.72425318105E+03  0.72425318105E+03  0.00000000000E+00 0. -1.
         25    2    1    2    0    0  0.80981390568E+01 -0.42815520096E+01 -0.30630106002E+03  0.33094947002E+03  0.12499320299E+03 0.  0.
          2    1    1    2  501    0  0.50096417969E+02 -0.16239912806E+02 -0.40214321407E+03  0.40557681206E+03  0.00000000000E+00 0. -1.
          1    1    1    2  502    0 -0.58194557025E+02  0.20521464816E+02  0.53668599427E+03  0.54022180022E+03  0.00000000000E+00 0. -1.
         22    1    3    3    0    0  0.48773589671E+02  0.40157528923E+02 -0.18542536723E+03  0.19589297331E+03  0.00000000000E+00 0. -1.
         22    1    3    3    0    0 -0.40675450614E+02 -0.44439080933E+02 -0.12087569278E+03  0.13505649671E+03  0.00000000000E+00 0. -1.
</event>
<event>
 7    1  0.5667373E-006  0.8946776E+02  0.7818608E-02  0.1371116E+00
          2   -1    0    0  502    0  0.00000000000E+00  0.00000000000E+00  0.13367781867E+04  0.13367781867E+04  0.00000000000E+00 0. -1.
          1   -1    0    0  501    0 -0.00000000000E+00 -0.00000000000E+00 -0.55158958375E+02  0.55158958375E+02  0.00000000000E+00 0. -1.
         25    2    1    2    0    0  0.30172041501E+02 -0.84518822089E+02  0.39198880067E+03  0.42111048973E+03  0.12500016533E+03 0.  0.
          2    1    1    2  501    0 -0.49744886016E+02 -0.46529004095E+01 -0.22032242657E+02  0.54604238695E+02  0.00000000000E+00 0. -1.
          1    1    1    2  502    0  0.19572844516E+02  0.89171722499E+02  0.91166267027E+03  0.91622241661E+03  0.00000000000E+00 0. -1.
         22    1    3    3    0    0  0.48245084060E+02  0.15086747087E+02  0.99600614612E+02  0.11169369053E+03  0.00000000000E+00 0.  1.
         22    1    3    3    0    0 -0.18073042559E+02 -0.99605569176E+02  0.29238818606E+03  0.30941679920E+03  0.00000000000E+00 0.  1.
</event>
<event>
 7    1  0.5667373E-006  0.5316362E+02  0.7818608E-02  0.1479675E+00
          2   -1    0    0  502    0  0.00000000000E+00  0.00000000000E+00  0.29467657180E+03  0.29467657180E+03  0.00000000000E+00 0. -1.
          1   -1    0    0  501    0 -0.00000000000E+00 -0.00000000000E+00 -0.18258022601E+03  0.18258022601E+03  0.00000000000E+00 0. -1.
         25    2    1    2    0    0  0.46192768601E+02 -0.13784414156E+00 -0.29383243217E+02  0.13646055813E+03  0.12499727225E+03 0.  0.
          2    1    1    2  501    0 -0.61631070368E+01  0.36154443121E+02 -0.93127278893E+02  0.10008904895E+03  0.00000000000E+00 0. -1.
          1    1    1    2  502    0 -0.40029661564E+02 -0.36016598979E+02  0.23460686789E+03  0.24070719073E+03  0.00000000000E+00 0. -1.
         22    1    3    3    0    0 -0.88266271145E+01 -0.22724829160E+02  0.38899562099E+02  0.45907549902E+02  0.00000000000E+00 0. -1.
         22    1    3    3    0    0  0.55019395716E+02  0.22586985019E+02 -0.68282805315E+02  0.90553008226E+02  0.00000000000E+00 0. -1.
</event>
<event>
 7    1  0.5667373E-006  0.7435844E+02  0.7818608E-02  0.1376942E+00
          2   -1    0    0  502    0  0.00000000000E+00  0.00000000000E+00  0.79134000174E+03  0.79134000174E+03  0.00000000000E+00 0. -1.
          1   -1    0    0  501    0 -0.00000000000E+00 -0.00000000000E+00 -0.17617179235E+03  0.17617179235E+03  0.00000000000E+00 0. -1.
         25    2    1    2    0    0 -0.35933800637E+02 -0.60840475997E+01 -0.16288503329E+02  0.13121307041E+03  0.12499320318E+03 0.  0.
          2    1    1    2  501    0  0.72029718594E+02  0.50585997405E+02 -0.82147907942E+02  0.12039726855E+03  0.00000000000E+00 0. -1.
          1    1    1    2  502    0 -0.36095917957E+02 -0.44501949805E+02  0.71360462067E+03  0.71590145514E+03  0.00000000000E+00 0. -1.
         22    1    3    3    0    0 -0.69365234271E+02 -0.40626410012E+02  0.21732166792E+00  0.80387114295E+02  0.00000000000E+00 0. -1.
         22    1    3    3    0    0  0.33431433634E+02  0.34542362412E+02 -0.16505824997E+02  0.50825956112E+02  0.00000000000E+00 0. -1.
</event>
<event>
 7    1  0.5667373E-006  0.1224596E+03  0.7818608E-02  0.1367218E+00
          2   -1    0    0  502    0  0.00000000000E+00  0.00000000000E+00  0.51127560156E+02  0.51127560156E+02  0.00000000000E+00 0. -1.
          1   -1    0    0  501    0 -0.00000000000E+00 -0.00000000000E+00 -0.24926872151E+04  0.24926872151E+04  0.00000000000E+00 0. -1.
         25    2    1    2    0    0  0.87360821894E+02 -0.24203513520E+02 -0.19304747754E+04  0.19366404203E+04  0.12500214315E+03 0.  0.
          2    1    1    2  501    0  0.24733051417E+02 -0.28453022905E+02 -0.47732258729E+03  0.47880909628E+03  0.00000000000E+00 0. -1.
          1    1    1    2  502    0 -0.11209387331E+03  0.52656536425E+02 -0.33762292279E+02  0.12836525870E+03  0.00000000000E+00 0. -1.
         22    1    3    3    0    0  0.10709151769E+03  0.90754869065E+01 -0.10926956059E+04  0.10979684170E+04  0.00000000000E+00 0. -1.
         22    1    3    3    0    0 -0.19730695792E+02 -0.33279000427E+02 -0.83777916944E+03  0.83867200321E+03  0.00000000000E+00 0. -1.
</event>
<event>
 7    1  0.5667373E-006  0.7005659E+02  0.7818608E-02  0.1384232E+00
          2   -1    0    0  502    0  0.00000000000E+00  0.00000000000E+00  0.16509268160E+04  0.16509268160E+04  0.00000000000E+00 0. -1.
          1   -1    0    0  501    0 -0.00000000000E+00 -0.00000000000E+00 -0.27859217414E+04  0.27859217414E+04  0.00000000000E+00 0. -1.
         25    2    1    2    0    0  0.66862525133E+02  0.13342539337E+02 -0.31128501006E+01  0.14240770890E+03  0.12498657966E+03 0.  0.
          2    1    1    2  501    0 -0.55625818177E+02  0.42856492954E+02 -0.27121875808E+04  0.27130964568E+04  0.00000000000E+00 0. -1.
          1    1    1    2  502    0 -0.11236706957E+02 -0.56199032291E+02  0.15803055055E+04  0.15813443918E+04  0.00000000000E+00 0. -1.
         22    1    3    3    0    0  0.11820461600E+02 -0.21817554155E+02  0.51567278831E+02  0.57226857574E+02  0.00000000000E+00 0. -1.
         22    1    3    3    0    0  0.55042063533E+02  0.35160093492E+02 -0.54680128931E+02  0.85180851324E+02  0.00000000000E+00 0. -1.
</event>
<event>
 7    1  0.5667373E-006  0.5140347E+02  0.7818608E-02  0.1452919E+00
          2   -1    0    0  502    0  0.00000000000E+00  0.00000000000E+00  0.57586400365E+03  0.57586400365E+03  0.00000000000E+00 0. -1.
          1   -1    0    0  501    0 -0.00000000000E+00 -0.00000000000E+00 -0.10267442699E+03  0.10267442699E+03  0.00000000000E+00 0. -1.
         25    2    1    2    0    0 -0.22051737075E+02 -0.58976794297E+02  0.93864667980E+02  0.16852241687E+03  0.12499875087E+03 0.  0.
          2    1    1    2  501    0  0.44307987635E+02  0.12328421527E+02 -0.55528739739E+02  0.72101516507E+02  0.00000000000E+00 0. -1.
          1    1    1    2  502    0 -0.22256250561E+02  0.46648372770E+02  0.43485364842E+03  0.43791449726E+03  0.00000000000E+00 0. -1.
         22    1    3    3    0    0 -0.27357762781E+02 -0.36978120952E+02 -0.21631204746E+02  0.50830479363E+02  0.00000000000E+00 0. -1.
         22    1    3    3    0    0  0.53060257062E+01 -0.21998673345E+02  0.11549587273E+03  0.11769193751E+03  0.00000000000E+00 0. -1.
</event>
<event>
 7    1  0.5667373E-006  0.6639053E+02  0.7818608E-02  0.1527612E+00
          2   -1    0    0  502    0  0.00000000000E+00  0.00000000000E+00  0.19960272928E+04  0.19960272928E+04  0.00000000000E+00 0. -1.
          1   -1    0    0  501    0 -0.00000000000E+00 -0.00000000000E+00 -0.10037018890E+03  0.10037018890E+03  0.00000000000E+00 0. -1.
         25    2    1    2    0    0 -0.48855513730E+02  0.82965991269E+01  0.14092760621E+03  0.19478873689E+03  0.12500546807E+03 0.  0.
          2    1    1    2  501    0 -0.17873134675E+02 -0.11326626651E+02 -0.71291989092E+02  0.74365913718E+02  0.00000000000E+00 0. -1.
          1    1    1    2  502    0  0.66728648404E+02  0.30300275242E+01  0.18260214867E+04  0.18272428311E+04  0.00000000000E+00 0. -1.
         22    1    3    3    0    0 -0.37756830112E+02  0.56155730818E+02  0.12670444667E+03  0.14364212868E+03  0.00000000000E+00 0. -1.
         22    1    3    3    0    0 -0.11098683617E+02 -0.47859131691E+02  0.14223159533E+02  0.51146608210E+02  0.00000000000E+00 0. -1.
</event>
<event>
 7    1  0.5667373E-006  0.1222128E+03  0.7818608E-02  0.1247992E+00
          2   -1    0    0  502    0  0.00000000000E+00  0.00000000000E+00  0.20097720808E+04  0.20097720808E+04  0.00000000000E+00 0. -1.
          1   -1    0    0  501    0 -0.00000000000E+00 -0.00000000000E+00 -0.20657847263E+04  0.20657847263E+04  0.00000000000E+00 0. -1.
         25    2    1    2    0    0 -0.53210881619E+02  0.83857515439E+02  0.26637524072E+03  0.31055399041E+03  0.12499812506E+03 0.  0.
          2    1    1    2  501    0 -0.56075322859E+02 -0.10910440623E+03 -0.20400237079E+04  0.20437086245E+04  0.00000000000E+00 0. -1.
          1    1    1    2  502    0  0.10928620448E+03  0.25246890792E+02  0.17176358217E+04  0.17212941922E+04  0.00000000000E+00 0. -1.
         22    1    3    3    0    0 -0.10961187224E+02  0.10722625041E+03  0.15135975161E+03  0.18581547516E+03  0.00000000000E+00 0. -1.
         22    1    3    3    0    0 -0.42249694395E+02 -0.23368734967E+02  0.11501548911E+03  0.12473851525E+03  0.00000000000E+00 0. -1.
</event>
<event>
 7    1  0.5667373E-006  0.6488746E+02  0.7818608E-02  0.1499765E+00
          2   -1    0    0  502    0  0.00000000000E+00  0.00000000000E+00  0.24225814277E+02  0.24225814277E+02  0.00000000000E+00 0. -1.
          1   -1    0    0  501    0 -0.00000000000E+00 -0.00000000000E+00 -0.21311961622E+04  0.21311961622E+04  0.00000000000E+00 0. -1.
         25    2    1    2    0    0 -0.17521581912E+02 -0.39424020110E+02 -0.51562483530E+03  0.53231177943E+03  0.12500240218E+03 0.  0.
          2    1    1    2  501    0 -0.19009738746E+02 -0.17917915336E+02 -0.15338397501E+04  0.15340621894E+04  0.00000000000E+00 0. -1.
          1    1    1    2  502    0  0.36531320658E+02  0.57341935447E+02 -0.57505762552E+02  0.89048007707E+02  0.00000000000E+00 0. -1.
         22    1    3    3    0    0 -0.84421036023E+01 -0.62084768823E+02 -0.49866685264E+03  0.50258772126E+03  0.00000000000E+00 0.  1.
         22    1    3    3    0    0 -0.90794783095E+01  0.22660748712E+02 -0.16957982654E+02  0.29724058173E+02  0.00000000000E+00 0.  1.
</event>
<event>
 7    1  0.5667373E-006  0.1045004E+03  0.7818608E-02  0.1360746E+00
          2   -1    0    0  502    0  0.00000000000E+00  0.00000000000E+00  0.79624867800E+03  0.79624867800E+03  0.00000000000E+00 0. -1.
          1   -1    0    0  501    0 -0.00000000000E+00 -0.00000000000E+00 -0.22465058000E+03  0.22465058000E+03  0.00000000000E+00 0. -1.
         25    2    1    2    0    0 -0.65743657911E+01  0.14842147211E+03  0.69229270446E+02  0.20613182433E+03  0.12500192577E+03 0.  0.
          2    1    1    2  501    0  0.29848415892E+01 -0.46537742435E+02 -0.14866112137E+03  0.15580372190E+03  0.00000000000E+00 0. -1.
          1    1    1    2  502    0  0.35895242019E+01 -0.10188372967E+03  0.65102994892E+03  0.65896371178E+03  0.00000000000E+00 0. -1.
         22    1    3    3    0    0  0.49767128411E+02  0.31118302832E+02 -0.75657986188E-01  0.58695157939E+02  0.00000000000E+00 0.  1.
         22    1    3    3    0    0 -0.56341494202E+02  0.11730316928E+03  0.69304928433E+02  0.14743666639E+03  0.00000000000E+00 0.  1.
</event>
<event>
 7    1  0.5667373E-006  0.6926167E+02  0.7818608E-02  0.1445791E+00
          2   -1    0    0  502    0  0.00000000000E+00  0.00000000000E+00  0.64544389695E+03  0.64544389695E+03  0.00000000000E+00 0. -1.
          1   -1    0    0  501    0 -0.00000000000E+00 -0.00000000000E+00 -0.11185265997E+04  0.11185265997E+04  0.00000000000E+00 0. -1.
         25    2    1    2    0    0  0.11938544951E+02  0.40807451531E+02  0.38905333817E+01  0.13209066784E+03  0.12500012530E+03 0.  0.
          2    1    1    2  501    0  0.33676388142E+02  0.12653042383E+02 -0.10519797622E+04  0.10525947077E+04  0.00000000000E+00 0. -1.
          1    1    1    2  502    0 -0.45614933093E+02 -0.53460493914E+02  0.57500652606E+03  0.57928512112E+03  0.00000000000E+00 0. -1.
         22    1    3    3    0    0  0.22890292076E+02  0.23644362000E+02  0.62177852428E+02  0.70349887408E+02  0.00000000000E+00 0. -1.
         22    1    3    3    0    0 -0.10951747124E+02  0.17163089531E+02 -0.58287319046E+02  0.61740780437E+02  0.00000000000E+00 0. -1.
</event>
<event>
 7    1  0.5667373E-006  0.9610800E+02  0.7818608E-02  0.1298337E+00
          2   -1    0    0  502    0  0.00000000000E+00  0.00000000000E+00  0.15436306678E+04  0.15436306678E+04  0.00000000000E+00 0. -1.
          1   -1    0    0  501    0 -0.00000000000E+00 -0.00000000000E+00 -0.10548368143E+04  0.10548368143E+04  0.00000000000E+00 0. -1.
         25    2    1    2    0    0  0.28518824977E+02 -0.14233321991E+03  0.35416979972E+02  0.19481317162E+03  0.12500296196E+03 0.  0.
          2    1    1    2  501    0  0.39733946500E+02  0.87010445814E+02 -0.97143662885E+03  0.97613458501E+03  0.00000000000E+00 0. -1.
          1    1    1    2  502    0 -0.68252771477E+02  0.55322774098E+02  0.14248135024E+04  0.14275197255E+04  0.00000000000E+00 0. -1.
         22    1    3    3    0    0  0.13613329148E+02 -0.12962351207E+03  0.75196013261E+02  0.15047264875E+03  0.00000000000E+00 0.  1.
         22    1    3    3    0    0  0.14905495829E+02 -0.12709707846E+02 -0.39779033289E+02  0.44340522875E+02  0.00000000000E+00 0.  1.
</event>
<event>
 7    1  0.5667373E-006  0.4774990E+02  0.7818608E-02  0.1473456E+00
          2   -1    0    0  502    0  0.00000000000E+00  0.00000000000E+00  0.67801884470E+03  0.67801884470E+03  0.00000000000E+00 0. -1.
          1   -1    0    0  501    0 -0.00000000000E+00 -0.00000000000E+00 -0.62762366085E+03  0.62762366085E+03  0.00000000000E+00 0. -1.
         25    2    1    2    0    0 -0.72762247085E+02  0.52441570226E+02  0.59399595591E+01  0.15396299820E+03  0.12499943523E+03 0.  0.
          2    1    1    2  501    0  0.40019136423E+02 -0.25069936361E+02 -0.55184109423E+03  0.55385794774E+03  0.00000000000E+00 0. -1.
          1    1    1    2  502    0  0.32743110662E+02 -0.27371633865E+02  0.59629631853E+03  0.59782155960E+03  0.00000000000E+00 0. -1.
         22    1    3    3    0    0 -0.11633286090E+02  0.82773418615E+01 -0.55113829912E+02  0.56933136056E+02  0.00000000000E+00 0.  1.
         22    1    3    3    0    0 -0.61128960995E+02  0.44164228365E+02  0.61053789471E+02  0.97029862147E+02  0.00000000000E+00 0.  1.
</event>
<event>
 7    1  0.5667373E-006  0.7551841E+02  0.7818608E-02  0.1454031E+00
          2   -1    0    0  502    0  0.00000000000E+00  0.00000000000E+00  0.35327413052E+04  0.35327413052E+04  0.00000000000E+00 0. -1.
          1   -1    0    0  501    0 -0.00000000000E+00 -0.00000000000E+00 -0.63150592016E+02  0.63150592016E+02  0.00000000000E+00 0. -1.
         25    2    1    2    0    0  0.78490089499E+02 -0.66822886899E+02  0.93330572447E+03  0.94726380233E+03  0.12499257387E+03 0.  0.
          2    1    1    2  501    0 -0.28009042118E+02  0.13402976348E+02 -0.51318429934E+02  0.59981059229E+02  0.00000000000E+00 0. -1.
          1    1    1    2  502    0 -0.50481047381E+02  0.53419910552E+02  0.25876034187E+04  0.25886470357E+04  0.00000000000E+00 0. -1.
         22    1    3    3    0    0  0.24789932775E+02 -0.16557194907E+02  0.35098328829E+02  0.46049692255E+02  0.00000000000E+00 0. -1.
         22    1    3    3    0    0  0.53700156724E+02 -0.50265691992E+02  0.89820739564E+03  0.90121411008E+03  0.00000000000E+00 0. -1.
</event>
<event>
 7    1  0.5667373E-006  0.5474370E+02  0.7818608E-02  0.1426504E+00
          2   -1    0    0  502    0  0.00000000000E+00  0.00000000000E+00  0.17894954144E+04  0.17894954144E+04  0.00000000000E+00 0. -1.
          1   -1    0    0  501    0 -0.00000000000E+00 -0.00000000000E+00 -0.68409784991E+03  0.68409784991E+03  0.00000000000E+00 0. -1.
         25    2    1    2    0    0 -0.89683041361E+02 -0.14631419047E+02  0.19078948392E+02  0.15571183076E+03  0.12500016654E+03 0.  0.
          2    1    1    2  501    0  0.50447591881E+02 -0.20422595066E+02 -0.61417118522E+03  0.61657788370E+03  0.00000000000E+00 0. -1.
          1    1    1    2  502    0  0.39235449480E+02  0.35054014113E+02  0.17004898013E+04  0.17013035499E+04  0.00000000000E+00 0. -1.
         22    1    3    3    0    0  0.53635327254E+01 -0.40119638285E+02 -0.25331619801E+02  0.47749804410E+02  0.00000000000E+00 0. -1.
         22    1    3    3    0    0 -0.95046574087E+02  0.25488219239E+02  0.44410568193E+02  0.10796202635E+03  0.00000000000E+00 0. -1.
</event>
<event>
 7    1  0.5667373E-006  0.6267282E+02  0.7818608E-02  0.1438458E+00
          2   -1    0    0  502    0  0.00000000000E+00  0.00000000000E+00  0.71719946845E+03  0.71719946845E+03  0.00000000000E+00 0. -1.
          1   -1    0    0  501    0 -0.00000000000E+00 -0.00000000000E+00 -0.73660456646E+03  0.73660456646E+03  0.00000000000E+00 0. -1.
         25    2    1    2    0    0 -0.24152545307E+02  0.39091981221E+02 -0.19076793915E+03  0.23265872731E+03  0.12500459330E+03 0.  0.
          2    1    1    2  501    0  0.35272711678E+02  0.22780183240E+02 -0.52262853162E+03  0.52431258139E+03  0.00000000000E+00 0. -1.
          1    1    1    2  502    0 -0.11120166370E+02 -0.61872164461E+02  0.69399137277E+03  0.69683272621E+03  0.00000000000E+00 0. -1.
         22    1    3    3    0    0 -0.30644721150E+01 -0.24982954201E+02  0.49411660980E+01  0.25650616218E+02  0.00000000000E+00 0. -1.
         22    1    3    3    0    0 -0.21088073192E+02  0.64074935423E+02 -0.19570910525E+03  0.20700811109E+03  0.00000000000E+00 0. -1.
</event>
<event>
 7    1  0.5667373E-006  0.1810526E+03  0.7818608E-02  0.1190212E+00
          2   -1    0    0  502    0  0.00000000000E+00  0.00000000000E+00  0.11271205897E+04  0.11271205897E+04  0.00000000000E+00 0. -1.
          1   -1    0    0  501    0 -0.00000000000E+00 -0.00000000000E+00 -0.14896195557E+03  0.14896195557E+03  0.00000000000E+00 0. -1.
         25    2    1    2    0    0 -0.68471413507E+02  0.29344328044E+01  0.54720905173E+02  0.15269423874E+03  0.12499683083E+03 0.  0.
          2    1    1    2  501    0 -0.13426073345E+03  0.36165315390E+02 -0.34656094001E+02  0.14330010270E+03  0.00000000000E+00 0. -1.
          1    1    1    2  502    0  0.20273214695E+03 -0.39099748195E+02  0.95809382298E+03  0.98008820386E+03  0.00000000000E+00 0. -1.
         22    1    3    3    0    0 -0.26933497360E+02  0.33443017493E+02 -0.30800250667E+02  0.52844149537E+02  0.00000000000E+00 0. -1.
         22    1    3    3    0    0 -0.41537916147E+02 -0.30508584689E+02  0.85521155840E+02  0.99850089203E+02  0.00000000000E+00 0. -1.
</event>
<event>
 7    1  0.5667373E-006  0.1020674E+03  0.7818608E-02  0.1432281E+00
          2   -1    0    0  502    0  0.00000000000E+00  0.00000000000E+00  0.18447425087E+04  0.18447425087E+04  0.00000000000E+00 0. -1.
          1   -1    0    0  501    0 -0.00000000000E+00 -0.00000000000E+00 -0.63545611936E+03  0.63545611936E+03  0.00000000000E+00 0. -1.
         25    2    1    2    0    0 -0.52766013605E+02 -0.86854663934E+02  0.19786818482E+03  0.25515476230E+03  0.12499659724E+03 0.  0.
          2    1    1    2  501    0  0.24468610050E+02 -0.11435933709E+02 -0.60489494599E+03  0.60549763760E+03  0.00000000000E+00 0. -1.
          1    1    1    2  502    0  0.28297403556E+02  0.98290597643E+02  0.16163131505E+04  0.16195462281E+04  0.00000000000E+00 0. -1.
         22    1    3    3    0    0 -0.19224518533E+02 -0.63322956978E+02  0.20332202660E+03  0.21382054507E+03  0.00000000000E+00 0. -1.
         22    1    3    3    0    0 -0.33541495072E+02 -0.23531706956E+02 -0.54538417804E+01  0.41334217231E+02  0.00000000000E+00 0. -1.
</event>
<event>
 7    1  0.5667373E-006  0.7187118E+02  0.7818608E-02  0.1393624E+00
          2   -1    0    0  502    0  0.00000000000E+00  0.00000000000E+00  0.34978647916E+04  0.34978647916E+04  0.00000000000E+00 0. -1.
          1   -1    0    0  501    0 -0.00000000000E+00 -0.00000000000E+00 -0.74909509608E+02  0.74909509608E+02  0.00000000000E+00 0. -1.
         25    2    1    2    0    0  0.35518446226E+02  0.68902760116E+01  0.20274725263E+03  0.24091631140E+03  0.12500073890E+03 0.  0.
          2    1    1    2  501    0  0.27033099251E+02 -0.44183345855E+02 -0.43315656654E+02  0.67521867698E+02  0.00000000000E+00 0. -1.
          1    1    1    2  502    0 -0.62551545477E+02  0.37293069844E+02  0.32635236861E+04  0.32643361222E+04  0.00000000000E+00 0. -1.
         22    1    3    3    0    0  0.66674158696E+02  0.21068670045E+02  0.54183393991E+02  0.88460004973E+02  0.00000000000E+00 0.  1.
         22    1    3    3    0    0 -0.31155712470E+02 -0.14178394034E+02  0.14856385864E+03  0.15245630643E+03  0.00000000000E+00 0.  1.
</event>
<event>
 7    1  0.5667373E-006  0.3989093E+02  0.7818608E-02  0.1591659E+00
          2   -1    0    0  502    0  0.00000000000E+00  0.00000000000E+00  0.93793121013E+03  0.93793121013E+03  0.00000000000E+00 0. -1.
          1   -1    0    0  501    0 -0.00000000000E+00 -0.00000000000E+00 -0.59777135604E+03  0.59777135604E+03  0.00000000000E+00 0. -1.
         25    2    1    2    0    0  0.15979178824E+02  0.69219805749E+01  0.80066505693E+01  0.12646038355E+03  0.12499949673E+03 0.  0.
          2    1    1    2  501    0 -0.32481663138E+02 -0.23592845724E+02 -0.53763797774E+03  0.53913474746E+03  0.00000000000E+00 0. -1.
          1    1    1    2  502    0  0.16502484313E+02  0.16670865149E+02  0.86979118126E+03  0.87010743517E+03  0.00000000000E+00 0. -1.
         22    1    3    3    0    0  0.42809152020E+01  0.38525002226E+02 -0.47632773218E+02  0.61411587798E+02  0.00000000000E+00 0. -1.
         22    1    3    3    0    0  0.11698263622E+02 -0.31603021651E+02  0.55639423787E+02  0.65048795751E+02  0.00000000000E+00 0. -1.
</event>
<event>
 7    1  0.5667373E-006  0.1506044E+03  0.7818608E-02  0.1385722E+00
          2   -1    0    0  502    0  0.00000000000E+00  0.00000000000E+00  0.49693461697E+03  0.49693461697E+03  0.00000000000E+00 0. -1.
          1   -1    0    0  501    0 -0.00000000000E+00 -0.00000000000E+00 -0.83485588637E+03  0.83485588637E+03  0.00000000000E+00 0. -1.
         25    2    1    2    0    0  0.12355699596E+02 -0.17559280562E+03  0.15052330800E+03  0.26318649620E+03  0.12499747531E+03 0.  0.
          2    1    1    2  501    0 -0.11706654605E+02  0.14926084383E+03 -0.77070727355E+03  0.78511498952E+03  0.00000000000E+00 0. -1.
          1    1    1    2  502    0 -0.64904499176E+00  0.26331961789E+02  0.28226269615E+03  0.28348901762E+03  0.00000000000E+00 0. -1.
         22    1    3    3    0    0 -0.19528841511E+02 -0.72063578665E+02 -0.36599016859E+01  0.74752457492E+02  0.00000000000E+00 0. -1.
         22    1    3    3    0    0  0.31884541108E+02 -0.10352922696E+03  0.15418320969E+03  0.18843403871E+03  0.00000000000E+00 0. -1.
</event>
<event>
 7    1  0.5667373E-006  0.8088939E+02  0.7818608E-02  0.1349464E+00
          2   -1    0    0  502    0  0.00000000000E+00  0.00000000000E+00  0.94951827587E+03  0.94951827587E+03  0.00000000000E+00 0. -1.
          1   -1    0    0  501    0 -0.00000000000E+00 -0.00000000000E+00 -0.10541224183E+03  0.10541224183E+03  0.00000000000E+00 0. -1.
         25    2    1    2    0    0  0.91976300369E+02 -0.81788825699E+02  0.18737280202E+03  0.25667680406E+03  0.12500145187E+03 0.  0.
          2    1    1    2  501    0 -0.14746848954E+02  0.64622001374E+02 -0.52540571146E+02  0.84581228603E+02  0.00000000000E+00 0. -1.
          1    1    1    2  502    0 -0.77229451415E+02  0.17166824325E+02  0.70927380318E+03  0.71367248503E+03  0.00000000000E+00 0. -1.
         22    1    3    3    0    0 -0.13190582112E+02  0.20592447593E+02  0.49935763705E+02  0.55602345734E+02  0.00000000000E+00 0.  1.
         22    1    3    3    0    0  0.10516688248E+03 -0.10238127329E+03  0.13743703831E+03  0.20107445833E+03  0.00000000000E+00 0.  1.
</event>
<event>
 7    1  0.5667373E-006  0.1179906E+03  0.7818608E-02  0.1274887E+00
          2   -1    0    0  502    0  0.00000000000E+00  0.00000000000E+00  0.27889270815E+03  0.27889270815E+03  0.00000000000E+00 0. -1.
          1   -1    0    0  501    0 -0.00000000000E+00 -0.00000000000E+00 -0.32601808965E+04  0.32601808965E+04  0.00000000000E+00 0. -1.
         25    2    1    2    0    0 -0.13153563146E+03 -0.24962116085E+02 -0.31450943511E+02  0.18584763712E+03  0.12500181115E+03 0.  0.
          2    1    1    2  501    0  0.27612104425E+02  0.84867402803E+02 -0.31330049695E+04  0.31342758403E+04  0.00000000000E+00 0. -1.
          1    1    1    2  502    0  0.10392352703E+03 -0.59905286717E+02  0.18316772465E+03  0.21895012720E+03  0.00000000000E+00 0. -1.
         22    1    3    3    0    0 -0.67219832038E+02  0.40769425450E+02  0.19104018525E+02  0.80904977563E+02  0.00000000000E+00 0. -1.
         22    1    3    3    0    0 -0.64315799421E+02 -0.65731541536E+02 -0.50554962036E+02  0.10494265955E+03  0.00000000000E+00 0. -1.
</event>
<event>
 7    1  0.5667373E-006  0.7349975E+02  0.7818608E-02  0.1517502E+00
          2   -1    0    0  502    0  0.00000000000E+00  0.00000000000E+00  0.13700625544E+04  0.13700625544E+04  0.00000000000E+00 0. -1.
          1   -1    0    0  501    0 -0.00000000000E+00 -0.00000000000E+00 -0.42588143780E+02  0.42588143780E+02  0.00000000000E+00 0. -1.
         25    2    1    2    0    0  0.63863512418E+02  0.16498902664E+02  0.65847130385E+03  0.67346883358E+03  0.12500019921E+03 0.  0.
          2    1    1    2  501    0  0.26930210812E+01  0.20267072764E+02 -0.29863188970E+02  0.36191389258E+02  0.00000000000E+00 0. -1.
          1    1    1    2  502    0 -0.66556533499E+02 -0.36765975428E+02  0.69886629571E+03  0.70299047531E+03  0.00000000000E+00 0. -1.
         22    1    3    3    0    0  0.11771104092E+02  0.62788554128E+02  0.42644662914E+03  0.43120492683E+03  0.00000000000E+00 0.  1.
         22    1    3    3    0    0  0.52092408326E+02 -0.46289651464E+02  0.23202467471E+03  0.24226390675E+03  0.00000000000E+00 0.  1.
</event>
<event>
 7    1  0.5667373E-006  0.6315632E+02  0.7818608E-02  0.1452659E+00
          2   -1    0    0  502    0  0.00000000000E+00  0.00000000000E+00  0.51357604168E+02  0.51357604168E+02  0.00000000000E+00 0. -1.
          1   -1    0    0  501    0 -0.00000000000E+00 -0.00000000000E+00 -0.16317224489E+04  0.16317224489E+04  0.00000000000E+00 0. -1.
         25    2    1    2    0    0  0.11788907807E+02  0.94620930714E+02 -0.31369023915E+03  0.35088356705E+03  0.12500245042E+03 0.  0.
          2    1    1    2  501    0 -0.21036395246E+02 -0.58274916257E+02 -0.12877076391E+04  0.12891972152E+04  0.00000000000E+00 0. -1.
          1    1    1    2  502    0  0.92474874384E+01 -0.36346014456E+02  0.21033033550E+02  0.42999270821E+02  0.00000000000E+00 0. -1.
         22    1    3    3    0    0 -0.55140642838E+02  0.25414474540E+02 -0.11224213264E+03  0.12761145069E+03  0.00000000000E+00 0. -1.
         22    1    3    3    0    0  0.66929550645E+02  0.69206456174E+02 -0.20144810651E+03  0.22327211636E+03  0.00000000000E+00 0. -1.
</event>
<event>
 7    1  0.5667373E-006  0.1192719E+03  0.7818608E-02  0.1251220E+00
          2   -1    0    0  502    0  0.00000000000E+00  0.00000000000E+00  0.13519163996E+04  0.13519163996E+04  0.00000000000E+00 0. -1.
          1   -1    0    0  501    0 -0.00000000000E+00 -0.00000000000E+00 -0.19790027224E+03  0.19790027224E+03  0.00000000000E+00 0. -1.
         25    2    1    2    0    0 -0.62530227851E+02  0.56078522986E+02  0.27519853677E+03  0.31371002878E+03  0.12499966951E+03 0.  0.
          2    1    1    2  501    0  0.10093939113E+03  0.63537603482E+02 -0.15449877690E+03  0.19518109489E+03  0.00000000000E+00 0. -1.
          1    1    1    2  502    0 -0.38409163281E+02 -0.11961612647E+03  0.10333163675E+04  0.10409255481E+04  0.00000000000E+00 0. -1.
         22    1    3    3    0    0  0.72497425110E+01  0.76965418899E+02  0.15381956221E+03  0.17215310683E+03  0.00000000000E+00 0. -1.
         22    1    3    3    0    0 -0.69779970362E+02 -0.20886895913E+02  0.12137897456E+03  0.14155692194E+03  0.00000000000E+00 0. -1.
</event>
<event>
 7    1  0.5667373E-006  0.1009193E+03  0.7818608E-02  0.1438538E+00
          2   -1    0    0  502    0  0.00000000000E+00  0.00000000000E+00  0.46947957748E+03  0.46947957748E+03  0.00000000000E+00 0. -1.
          1   -1    0    0  501    0 -0.00000000000E+00 -0.00000000000E+00 -0.19873869214E+03  0.19873869214E+03  0.00000000000E+00 0. -1.
         25    2    1    2    0    0 -0.25491391736E+02 -0.11809287984E+03 -0.19559437529E+02  0.17493795616E+03  0.12499991036E+03 0.  0.
          2    1    1    2  501    0  0.18177514638E+02  0.18674426645E+02 -0.93334875086E+02  0.96904876844E+02  0.00000000000E+00 0. -1.
          1    1    1    2  502    0  0.73138770976E+01  0.99418453194E+02  0.38363519796E+03  0.39637543661E+03  0.00000000000E+00 0. -1.
         22    1    3    3    0    0 -0.43254865691E+02 -0.53551838781E+02  0.44754515541E+02  0.82108157354E+02  0.00000000000E+00 0.  1.
         22    1    3    3    0    0  0.17763473955E+02 -0.64541041058E+02 -0.64313953070E+02  0.92829798811E+02  0.00000000000E+00 0.  1.
</event>
<event>
 7    1  0.5667373E-006  0.1500502E+03  0.7818608E-02  0.1221933E+00
          2   -1    0    0  502    0  0.00000000000E+00  0.00000000000E+00  0.29621083968E+04  0.29621083968E+04  0.00000000000E+00 0. -1.
          1   -1    0    0  501    0 -0.00000000000E+00 -0.00000000000E+00 -0.20678123036E+04  0.20678123036E+04  0.00000000000E+00 0. -1.
         25    2    1    2    0    0 -0.87265464675E+01  0.63725948446E+02  0.77971923818E+02  0.16075229618E+03  0.12499812281E+03 0.  0.
          2    1    1    2  501    0 -0.11557841865E+03  0.29559980475E+02 -0.20225389582E+04  0.20260542936E+04  0.00000000000E+00 0. -1.
          1    1    1    2  502    0  0.12430496511E+03 -0.93285928921E+02  0.28388631275E+04  0.28431141106E+04  0.00000000000E+00 0. -1.
         22    1    3    3    0    0 -0.28883351792E+02  0.41405289568E+02 -0.22941707088E+02  0.55452393447E+02  0.00000000000E+00 0. -1.
         22    1    3    3    0    0  0.20156805325E+02  0.22320658878E+02  0.10091363091E+03  0.10529990274E+03  0.00000000000E+00 0. -1.
</event>
<event>
 7    1  0.5667373E-006  0.1090510E+03  0.7818608E-02  0.1348283E+00
          2   -1    0    0  502    0  0.00000000000E+00  0.00000000000E+00  0.16048856818E+04  0.16048856818E+04  0.00000000000E+00 0. -1.
          1   -1    0    0  501    0 -0.00000000000E+00 -0.00000000000E+00 -0.12460840450E+03  0.12460840450E+03  0.00000000000E+00 0. -1.
         25    2    1    2    0    0  0.72393411664E+02 -0.93590333248E+02  0.89139600957E+03  0.90786120337E+03  0.12500064873E+03 0.  0.
          2    1    1    2  501    0 -0.24389635187E+02  0.10632767996E+03 -0.89702709787E+02  0.14123386978E+03  0.00000000000E+00 0. -1.
          1    1    1    2  502    0 -0.48003776477E+02 -0.12737346708E+02  0.67858397753E+03  0.68039901317E+03  0.00000000000E+00 0. -1.
         22    1    3    3    0    0  0.10203484827E+03 -0.61333151455E+02  0.49793331902E+03  0.51196724106E+03  0.00000000000E+00 0. -1.
         22    1    3    3    0    0 -0.29641436605E+02 -0.32257181793E+02  0.39346269054E+03  0.39589396231E+03  0.00000000000E+00 0. -1.
</event>
<event>
 7    1  0.5667373E-006  0.1612240E+03  0.7818608E-02  0.1227480E+00
          2   -1    0    0  502    0  0.00000000000E+00  0.00000000000E+00  0.24738443356E+03  0.24738443356E+03  0.00000000000E+00 0. -1.
          1   -1    0    0  501    0 -0.00000000000E+00 -0.00000000000E+00 -0.13249661092E+04  0.13249661092E+04  0.00000000000E+00 0. -1.
         25    2    1    2    0    0  0.14265972574E+02  0.75322862887E+02 -0.10155609662E+03  0.17836727251E+03  0.12499676594E+03 0.  0.
          2    1    1    2  501    0 -0.79396989187E+02 -0.15742223154E+03 -0.11648014672E+04  0.11780696494E+04  0.00000000000E+00 0. -1.
          1    1    1    2  502    0  0.65131016613E+02  0.82099368649E+02  0.18877588824E+03  0.21591362078E+03  0.00000000000E+00 0. -1.
         22    1    3    3    0    0 -0.55738574290E+01  0.86960212994E+02 -0.14516129914E+02  0.88339484706E+02  0.00000000000E+00 0.  1.
         22    1    3    3    0    0  0.19839830003E+02 -0.11637350106E+02 -0.87039966711E+02  0.90027787805E+02  0.00000000000E+00 0.  1.
</event>
<event>
 7    1  0.5667373E-006  0.2345212E+03  0.7818608E-02  0.1285255E+00
          2   -1    0    0  502    0  0.00000000000E+00  0.00000000000E+00  0.14270994827E+03  0.14270994827E+03  0.00000000000E+00 0. -1.
          1   -1    0    0  501    0 -0.00000000000E+00 -0.00000000000E+00 -0.17253855928E+04  0.17253855928E+04  0.00000000000E+00 0. -1.
         25    2    1    2    0    0  0.20311382661E+03 -0.55633650212E+02 -0.41477882279E+02  0.24838572337E+03  0.12499889304E+03 0.  0.
          2    1    1    2  501    0 -0.21741443549E+03  0.93720576048E+02 -0.15578594086E+04  0.15757469721E+04  0.00000000000E+00 0. -1.
          1    1    1    2  502    0  0.14300608874E+02 -0.38086925836E+02  0.16661646342E+02  0.43962845593E+02  0.00000000000E+00 0. -1.
         22    1    3    3    0    0  0.60643522892E+02  0.34887891926E+02  0.12704944493E+02  0.71107084643E+02  0.00000000000E+00 0. -1.
         22    1    3    3    0    0  0.14247030372E+03 -0.90521542138E+02 -0.54182826772E+02  0.17727863873E+03  0.00000000000E+00 0. -1.
</event>
<event>
 7    1  0.5667373E-006  0.1008528E+03  0.7818608E-02  0.1376819E+00
          2   -1    0    0  502    0  0.00000000000E+00  0.00000000000E+00  0.15792401642E+04  0.15792401642E+04  0.00000000000E+00 0. -1.
          1   -1    0    0  501    0 -0.00000000000E+00 -0.00000000000E+00 -0.48388636895E+02  0.48388636895E+02  0.00000000000E+00 0. -1.
         25    2    1    2    0    0 -0.91406939391E+02  0.34013008756E+02  0.13176185687E+03  0.20615043369E+03  0.12499880420E+03 0.  0.
          2    1    1    2  501    0  0.82173326432E+02 -0.75282702109E+02  0.27680652506E+03  0.29839871503E+03  0.00000000000E+00 0. -1.
          1    1    1    2  502    0  0.92336129598E+01  0.41269693354E+02  0.11222831454E+04  0.11230796524E+04  0.00000000000E+00 0. -1.
         22    1    3    3    0    0 -0.94710575747E+02  0.12987522838E+00  0.14192250483E+03  0.17062270483E+03  0.00000000000E+00 0. -1.
         22    1    3    3    0    0  0.33036363554E+01  0.33883133528E+02 -0.10160647962E+02  0.35527728858E+02  0.00000000000E+00 0. -1.
</event>
<event>
 7    1  0.5667373E-006  0.1363840E+03  0.7818608E-02  0.1338876E+00
          2   -1    0    0  502    0  0.00000000000E+00  0.00000000000E+00  0.40571455434E+04  0.40571455434E+04  0.00000000000E+00 0. -1.
          1   -1    0    0  501    0 -0.00000000000E+00 -0.00000000000E+00 -0.56311785414E+02  0.56311785414E+02  0.00000000000E+00 0. -1.
         25    2    1    2    0    0  0.19233595634E+02  0.16816861795E+03  0.60886661289E+03  0.64420038433E+03  0.12499987046E+03 0.  0.
          2    1    1    2  501    0 -0.26102177636E+02 -0.34251473485E+02 -0.24910191516E+02  0.49749419641E+02  0.00000000000E+00 0. -1.
          1    1    1    2  502    0  0.68685820023E+01 -0.13391714446E+03  0.34168773366E+04  0.34195075249E+04  0.00000000000E+00 0. -1.
         22    1    3    3    0    0  0.44072810957E+02  0.26243561669E+02  0.28711861569E+03  0.29166459619E+03  0.00000000000E+00 0. -1.
         22    1    3    3    0    0 -0.24839215323E+02  0.14192505628E+03  0.32174799719E+03  0.35253578814E+03  0.00000000000E+00 0. -1.
</event>
<event>
 7    1  0.5667373E-006  0.4183155E+02  0.7818608E-02  0.1586207E+00
          2   -1    0    0  502    0  0.00000000000E+00  0.00000000000E+00  0.20348192533E+03  0.20348192533E+03  0.00000000000E+00 0. -1.
          1   -1    0    0  501    0 -0.00000000000E+00 -0.00000000000E+00 -0.98149159695E+03  0.98149159695E+03  0.00000000000E+00 0. -1.
         25    2    1    2    0    0  0.32613736210E+02 -0.95870271237E+01 -0.12194026867E+02  0.13012862721E+03  0.12501679267E+03 0.  0.
          2    1    1    2  501    0  0.80297633852E+01  0.21687235271E+02 -0.90706876997E+03  0.90736352513E+03  0.00000000000E+00 0. -1.
          1    1    1    2  502    0 -0.40643499595E+02 -0.12100208147E+02  0.14125312522E+03  0.14748136994E+03  0.00000000000E+00 0. -1.
         22    1    3    3    0    0 -0.15228094962E+02 -0.35232242711E+02 -0.50689912904E+02  0.63582018470E+02  0.00000000000E+00 0. -1.
         22    1    3    3    0    0  0.47841831172E+02  0.25645215587E+02  0.38495886037E+02  0.66546608735E+02  0.00000000000E+00 0. -1.
</event>
<event>
 7    1  0.5667373E-006  0.1328961E+03  0.7818608E-02  0.1290807E+00
          2   -1    0    0  502    0  0.00000000000E+00  0.00000000000E+00  0.75815111338E+03  0.75815111338E+03  0.00000000000E+00 0. -1.
          1   -1    0    0  501    0 -0.00000000000E+00 -0.00000000000E+00 -0.59774377673E+03  0.59774377673E+03  0.00000000000E+00 0. -1.
         25    2    1    2    0    0 -0.17277216484E+02 -0.15685493883E+03  0.42264934830E+02  0.20570203140E+03  0.12500010784E+03 0.  0.
          2    1    1    2  501    0 -0.42950334444E+02  0.12497362968E+03 -0.50567878606E+03  0.52266066813E+03  0.00000000000E+00 0. -1.
          1    1    1    2  502    0  0.60227550929E+02  0.31881309150E+02  0.62382118788E+03  0.62753219058E+03  0.00000000000E+00 0. -1.
         22    1    3    3    0    0 -0.15987760027E+02 -0.80956989919E+02  0.85101297732E+02  0.11854059880E+03  0.00000000000E+00 0. -1.
         22    1    3    3    0    0 -0.12894564569E+01 -0.75897948911E+02 -0.42836362901E+02  0.87161432603E+02  0.00000000000E+00 0. -1.
</event>
<event>
 7    1  0.5667373E-006  0.1097409E+03  0.7818608E-02  0.1350531E+00
          2   -1    0    0  502    0  0.00000000000E+00  0.00000000000E+00  0.10840446389E+04  0.10840446389E+04  0.00000000000E+00 0. -1.
          1   -1    0    0  501    0 -0.00000000000E+00 -0.00000000000E+00 -0.14836919790E+03  0.14836919790E+03  0.00000000000E+00 0. -1.
         25    2    1    2    0    0 -0.13925968299E+03  0.54993648827E+02  0.12374958395E+03  0.23098804982E+03  0.12499583559E+03 0.  0.
          2    1    1    2  501    0  0.99940168728E+02 -0.26746528249E+02 -0.65641246027E+02  0.12252423139E+03  0.00000000000E+00 0. -1.
          1    1    1    2  502    0  0.39319514258E+02 -0.28247120578E+02  0.87756710310E+03  0.87890155562E+03  0.00000000000E+00 0. -1.
         22    1    3    3    0    0 -0.46622067703E+02  0.67553802052E+02  0.83945552763E+01  0.82508193090E+02  0.00000000000E+00 0.  1.
         22    1    3    3    0    0 -0.92637615283E+02 -0.12560153225E+02  0.11535502867E+03  0.14847985673E+03  0.00000000000E+00 0.  1.
</event>
<event>
 7    1  0.5667373E-006  0.4364379E+02  0.7818608E-02  0.1536483E+00
          2   -1    0    0  502    0  0.00000000000E+00  0.00000000000E+00  0.30605803734E+03  0.30605803734E+03  0.00000000000E+00 0. -1.
          1   -1    0    0  501    0 -0.00000000000E+00 -0.00000000000E+00 -0.72466935637E+03  0.72466935637E+03  0.00000000000E+00 0. -1.
         25    2    1    2    0    0 -0.50811458911E+02 -0.28898255150E+02  0.39790356157E+02  0.14361534798E+03  0.12500072890E+03 0.  0.
          2    1    1    2  501    0  0.74758598619E+01  0.29428855494E+02 -0.67021903306E+03  0.67090647507E+03  0.00000000000E+00 0. -1.
          1    1    1    2  502    0  0.43335599049E+02 -0.53060034429E+00  0.21181735788E+03  0.21620557065E+03  0.00000000000E+00 0. -1.
         22    1    3    3    0    0 -0.52093180470E+02  0.27850972291E+02 -0.18846024202E+02  0.62004425142E+02  0.00000000000E+00 0. -1.
         22    1    3    3    0    0  0.12817215589E+01 -0.56749227441E+02  0.58636380359E+02  0.81610922841E+02  0.00000000000E+00 0. -1.
</event>
<event>
 7    1  0.5667373E-006  0.5631962E+02  0.7818608E-02  0.1492818E+00
          2   -1    0    0  502    0  0.00000000000E+00  0.00000000000E+00  0.37936705351E+03  0.37936705351E+03  0.00000000000E+00 0. -1.
          1   -1    0    0  501    0 -0.00000000000E+00 -0.00000000000E+00 -0.85903712801E+03  0.85903712801E+03  0.00000000000E+00 0. -1.
         25    2    1    2    0    0 -0.82112717162E+02  0.88137739393E+01 -0.22754190787E+03  0.27243464120E+03  0.12500053183E+03 0.  0.
          2    1    1    2  501    0  0.29607628954E+02  0.10975718864E+02 -0.60643028919E+03  0.60725182070E+03  0.00000000000E+00 0. -1.
          1    1    1    2  502    0  0.52505088208E+02 -0.19789492803E+02  0.35430212256E+03  0.35871771961E+03  0.00000000000E+00 0. -1.
         22    1    3    3    0    0 -0.54465012440E+02 -0.49759379481E+02 -0.17184132423E+03  0.18700768471E+03  0.00000000000E+00 0.  1.
         22    1    3    3    0    0 -0.27647704722E+02  0.58573153420E+02 -0.55700583640E+02  0.85426956494E+02  0.00000000000E+00 0.  1.
</event>
<event>
 7    1  0.5667373E-006  0.5608192E+02  0.7818608E-02  0.1441807E+00
          2   -1    0    0  502    0  0.00000000000E+00  0.00000000000E+00  0.18265905815E+04  0.18265905815E+04  0.00000000000E+00 0. -1.
          1   -1    0    0  501    0 -0.00000000000E+00 -0.00000000000E+00 -0.44779810855E+03  0.44779810855E+03  0.00000000000E+00 0. -1.
         25    2    1    2    0    0  0.12675609676E+02  0.40505542714E+02  0.46648711963E+02  0.14000752941E+03  0.12499854357E+03 0.  0.
          2    1    1    2  501    0 -0.45448192433E+02  0.53718544861E+01 -0.39935301650E+03  0.40196669862E+03  0.00000000000E+00 0. -1.
          1    1    1    2  502    0  0.32772582757E+02 -0.45877397200E+02  0.17314967775E+04  0.17324144620E+04  0.00000000000E+00 0. -1.
         22    1    3    3    0    0  0.45109416166E+02  0.13889933147E+02  0.75534662103E+02  0.89068933128E+02  0.00000000000E+00 0.  1.
         22    1    3    3    0    0 -0.32433806490E+02  0.26615609567E+02 -0.28885950139E+02  0.50938596286E+02  0.00000000000E+00 0.  1.
</event>
<event>
 7    1  0.5667373E-006  0.1658392E+03  0.7818608E-02  0.1269132E+00
          2   -1    0    0  502    0  0.00000000000E+00  0.00000000000E+00  0.20779596687E+04  0.20779596687E+04  0.00000000000E+00 0. -1.
          1   -1    0    0  501    0 -0.00000000000E+00 -0.00000000000E+00 -0.48652556767E+02  0.48652556767E+02  0.00000000000E+00 0. -1.
         25    2    1    2    0    0 -0.11067081482E+03 -0.70294892406E+01  0.23003905114E+03  0.28432509026E+03  0.12500139571E+03 0.  0.
          2    1    1    2  501    0 -0.63546611442E+02  0.21602698504E+02  0.48489347533E+02  0.82801360089E+02  0.00000000000E+00 0. -1.
          1    1    1    2  502    0  0.17421742627E+03 -0.14573209263E+02  0.17507787133E+04  0.17594857751E+04  0.00000000000E+00 0. -1.
         22    1    3    3    0    0 -0.12409935786E+02 -0.49058561766E+02  0.12329484210E+03  0.13327553067E+03  0.00000000000E+00 0.  1.
         22    1    3    3    0    0 -0.98260879037E+02  0.42029072526E+02  0.10674420904E+03  0.15104955958E+03  0.00000000000E+00 0.  1.
</event>
<event>
 7    1  0.5667373E-006  0.1727464E+03  0.7818608E-02  0.1195851E+00
          2   -1    0    0  502    0  0.00000000000E+00  0.00000000000E+00  0.17327390776E+04  0.17327390776E+04  0.00000000000E+00 0. -1.
          1   -1    0    0  501    0 -0.00000000000E+00 -0.00000000000E+00 -0.50667209589E+03  0.50667209589E+03  0.00000000000E+00 0. -1.
         25    2    1    2    0    0 -0.63246471148E+02 -0.22895185573E+02  0.47059362367E+02  0.14954758160E+03  0.12500235974E+03 0.  0.
          2    1    1    2  501    0  0.19652844400E+03 -0.86927344526E+01 -0.43114046389E+03  0.47389987606E+03  0.00000000000E+00 0. -1.
          1    1    1    2  502    0 -0.13328197285E+03  0.31587920026E+02  0.16101480832E+04  0.16159637158E+04  0.00000000000E+00 0. -1.
         22    1    3    3    0    0 -0.19718250372E+02 -0.53337641715E+02  0.71267113773E+02  0.91174091314E+02  0.00000000000E+00 0.  1.
         22    1    3    3    0    0 -0.43528220776E+02  0.30442456142E+02 -0.24207751406E+02  0.58373490285E+02  0.00000000000E+00 0.  1.
</event>
<event>
 7    1  0.5667373E-006  0.8333441E+02  0.7818608E-02  0.1463706E+00
          2   -1    0    0  502    0  0.00000000000E+00  0.00000000000E+00  0.15905223871E+03  0.15905223871E+03  0.00000000000E+00 0. -1.
          1   -1    0    0  501    0 -0.00000000000E+00 -0.00000000000E+00 -0.36744455447E+03  0.36744455447E+03  0.00000000000E+00 0. -1.
         25    2    1    2    0    0 -0.96954513657E+02 -0.31536094956E+02 -0.20741678928E+03  0.26275288939E+03  0.12499061327E+03 0.  0.
          2    1    1    2  501    0  0.15186435782E+02  0.21381508273E+02 -0.11785660296E+03  0.12073928768E+03  0.00000000000E+00 0. -1.
          1    1    1    2  502    0  0.81768077875E+02  0.10154586684E+02  0.11688107648E+03  0.14300461611E+03  0.00000000000E+00 0. -1.
         22    1    3    3    0    0 -0.10452975029E+03 -0.65401202187E+02 -0.13744161852E+03  0.18464556438E+03  0.00000000000E+00 0. -1.
         22    1    3    3    0    0  0.75752366330E+01  0.33865107231E+02 -0.69975170761E+02  0.78107325014E+02  0.00000000000E+00 0. -1.
</event>
<event>
 7    1  0.5667373E-006  0.5165362E+02  0.7818608E-02  0.1502533E+00
          2   -1    0    0  502    0  0.00000000000E+00  0.00000000000E+00  0.24673640607E+02  0.24673640607E+02  0.00000000000E+00 0. -1.
          1   -1    0    0  501    0 -0.00000000000E+00 -0.00000000000E+00 -0.11083842813E+04  0.11083842813E+04  0.00000000000E+00 0. -1.
         25    2    1    2    0    0  0.26324815478E+02  0.17839952288E+01 -0.41716863619E+03  0.43629200715E+03  0.12499946373E+03 0.  0.
          2    1    1    2  501    0  0.22839077701E+02  0.22696662333E+02 -0.62994631741E+03  0.63076867770E+03  0.00000000000E+00 0. -1.
          1    1    1    2  502    0 -0.49163893179E+02 -0.24480657562E+02 -0.36595687126E+02  0.65997237089E+02  0.00000000000E+00 0. -1.
         22    1    3    3    0    0  0.33499597534E+01 -0.58871199810E+01 -0.41131796490E+03  0.41137373356E+03  0.00000000000E+00 0.  1.
         22    1    3    3    0    0  0.22974855725E+02  0.76711152098E+01 -0.58506712872E+01  0.24918273589E+02  0.00000000000E+00 0.  1.
</event>
<event>
 7    1  0.5667373E-006  0.5590720E+02  0.7818608E-02  0.1427439E+00
          2   -1    0    0  502    0  0.00000000000E+00  0.00000000000E+00  0.44818155510E+03  0.44818155510E+03  0.00000000000E+00 0. -1.
          1   -1    0    0  501    0 -0.00000000000E+00 -0.00000000000E+00 -0.34439535304E+03  0.34439535304E+03  0.00000000000E+00 0. -1.
         25    2    1    2    0    0  0.64462065688E+01  0.14194381247E+02  0.38852569108E+02  0.13182277249E+03  0.12499874872E+03 0.  0.
          2    1    1    2  501    0 -0.36706643473E+02  0.35627174249E+02 -0.29334137953E+03  0.29776809460E+03  0.00000000000E+00 0. -1.
          1    1    1    2  502    0  0.30260436904E+02 -0.49821555496E+02  0.35827501247E+03  0.36298604105E+03  0.00000000000E+00 0. -1.
         22    1    3    3    0    0 -0.32868887743E+02  0.54184817382E+02 -0.39097612384E+00  0.63375950316E+02  0.00000000000E+00 0.  1.
         22    1    3    3    0    0  0.39315094312E+02 -0.39990436135E+02  0.39243545232E+02  0.68446822171E+02  0.00000000000E+00 0.  1.
</event>
<event>
 7    1  0.5667373E-006  0.6572670E+02  0.7818608E-02  0.1455489E+00
          2   -1    0    0  502    0  0.00000000000E+00  0.00000000000E+00  0.46528317918E+03  0.46528317918E+03  0.00000000000E+00 0. -1.
          1   -1    0    0  501    0 -0.00000000000E+00 -0.00000000000E+00 -0.34803378777E+03  0.34803378777E+03  0.00000000000E+00 0. -1.
         25    2    1    2    0    0 -0.11413590932E+01  0.86995850775E+02  0.25075591561E+03  0.29338333329E+03  0.12500268111E+03 0.  0.
          2    1    1    2  501    0 -0.23096664994E+02 -0.61335421601E+02 -0.32177649850E+03  0.32838332001E+03  0.00000000000E+00 0. -1.
          1    1    1    2  502    0  0.24238024087E+02 -0.25660429174E+02  0.18826997430E+03  0.19155031365E+03  0.00000000000E+00 0. -1.
         22    1    3    3    0    0  0.49919714950E+02  0.50761954835E+02  0.20153718930E+03  0.21374281899E+03  0.00000000000E+00 0. -1.
         22    1    3    3    0    0 -0.51061074043E+02  0.36233895940E+02  0.49218726309E+02  0.79640514293E+02  0.00000000000E+00 0. -1.
</event>
<event>
 7    1  0.5667373E-006  0.1544065E+03  0.7818608E-02  0.1210043E+00
          2   -1    0    0  502    0  0.00000000000E+00  0.00000000000E+00  0.18605424397E+04  0.18605424397E+04  0.00000000000E+00 0. -1.
          1   -1    0    0  501    0 -0.00000000000E+00 -0.00000000000E+00 -0.36951632973E+02  0.36951632973E+02  0.00000000000E+00 0. -1.
         25    2    1    2    0    0  0.19011536108E+02  0.66993670944E+02  0.90164850704E+03  0.91293203583E+03  0.12500112537E+03 0.  0.
          2    1    1    2  501    0  0.13118087833E+03 -0.10282116655E+03  0.29444453410E+03  0.33834627054E+03  0.00000000000E+00 0. -1.
          1    1    1    2  502    0 -0.15019241444E+03  0.35827495607E+02  0.62749776561E+03  0.64621576632E+03  0.00000000000E+00 0. -1.
         22    1    3    3    0    0  0.38711605706E+01 -0.16883794315E+02  0.17285174152E+02  0.24470914166E+02  0.00000000000E+00 0.  1.
         22    1    3    3    0    0  0.15140375537E+02  0.83877465259E+02  0.88436333289E+03  0.88846112166E+03  0.00000000000E+00 0.  1.
</event>
<event>
 7    1  0.5667373E-006  0.7894019E+02  0.7818608E-02  0.1443592E+00
          2   -1    0    0  502    0  0.00000000000E+00  0.00000000000E+00  0.14467217663E+03  0.14467217663E+03  0.00000000000E+00 0. -1.
          1   -1    0    0  501    0 -0.00000000000E+00 -0.00000000000E+00 -0.59072315478E+03  0.59072315478E+03  0.00000000000E+00 0. -1.
         25    2    1    2    0    0 -0.36699410036E+02 -0.92297558191E+02 -0.19272468965E+03  0.25026145524E+03  0.12498921567E+03 0.  0.
          2    1    1    2  501    0 -0.10526929014E+02  0.30307491816E+02 -0.35532568378E+03  0.35677121779E+03  0.00000000000E+00 0. -1.
          1    1    1    2  502    0  0.47226339050E+02  0.61990066375E+02  0.10199939527E+03  0.12836265838E+03  0.00000000000E+00 0. -1.
         22    1    3    3    0    0  0.33961974304E+02 -0.62941553856E+02 -0.46736628278E+02  0.85436334912E+02  0.00000000000E+00 0. -1.
         22    1    3    3    0    0 -0.70661384340E+02 -0.29356004335E+02 -0.14598806138E+03  0.16482512033E+03  0.00000000000E+00 0. -1.
</event>
<event>
 7    1  0.5667373E-006  0.1858485E+03  0.7818608E-02  0.1274414E+00
          2   -1    0    0  502    0  0.00000000000E+00  0.00000000000E+00  0.10768432261E+04  0.10768432261E+04  0.00000000000E+00 0. -1.
          1   -1    0    0  501    0 -0.00000000000E+00 -0.00000000000E+00 -0.14728541194E+04  0.14728541194E+04  0.00000000000E+00 0. -1.
         25    2    1    2    0    0  0.76161564811E+02 -0.17717635585E+03 -0.43489952422E+03  0.49188871168E+03  0.12499945395E+03 0.  0.
          2    1    1    2  501    0 -0.56402548352E+02 -0.76443372635E+01 -0.10004057654E+04  0.10020236418E+04  0.00000000000E+00 0. -1.
          1    1    1    2  502    0 -0.19759016460E+02  0.18482069311E+03  0.10392943962E+04  0.10557849920E+04  0.00000000000E+00 0. -1.
         22    1    3    3    0    0  0.68679356951E+02 -0.17088096129E+03 -0.44263583915E+03  0.47942011129E+03  0.00000000000E+00 0.  1.
         22    1    3    3    0    0  0.74822078601E+01 -0.62953945572E+01  0.77363149335E+01  0.12468600396E+02  0.00000000000E+00 0.  1.
</event>
<event>
 7    1  0.5667373E-006  0.3475779E+02  0.7818608E-02  0.1585266E+00
          2   -1    0    0  502    0  0.00000000000E+00  0.00000000000E+00  0.11143017742E+04  0.11143017742E+04  0.00000000000E+00 0. -1.
          1   -1    0    0  501    0 -0.00000000000E+00 -0.00000000000E+00 -0.57211935832E+02  0.57211935832E+02  0.00000000000E+00 0. -1.
         25    2    1    2    0    0 -0.19178964219E+02  0.14712728643E+02  0.23237061398E+03  0.26496285331E+03  0.12499965736E+03 0.  0.
          2    1    1    2  501    0  0.34232614319E+02  0.88886218948E+01 -0.33001569401E+02  0.48373371448E+02  0.00000000000E+00 0. -1.
          1    1    1    2  502    0 -0.15053650101E+02 -0.23601350538E+02  0.85772079377E+03  0.85817748526E+03  0.00000000000E+00 0. -1.
         22    1    3    3    0    0  0.28511111963E+02 -0.21086178387E+02  0.18619938910E+03  0.18954609710E+03  0.00000000000E+00 0.  1.
         22    1    3    3    0    0 -0.47690076181E+02  0.35798907030E+02  0.46171224879E+02  0.75416756212E+02  0.00000000000E+00 0.  1.
</event>
<event>
 7    1  0.5667373E-006  0.2145387E+03  0.7818608E-02  0.1167615E+00
          2   -1    0    0  502    0  0.00000000000E+00  0.00000000000E+00  0.74935724635E+03  0.74935724635E+03  0.00000000000E+00 0. -1.
          1   -1    0    0  501    0 -0.00000000000E+00 -0.00000000000E+00 -0.13730781608E+04  0.13730781608E+04  0.00000000000E+00 0. -1.
         25    2    1    2    0    0 -0.15797440359E+03 -0.80084312739E+02 -0.34243422996E+03  0.40528385870E+03  0.12499757972E+03 0.  0.
          2    1    1    2  501    0  0.10612079603E+03  0.22227196901E+03 -0.97576568141E+03  0.10063722555E+04  0.00000000000E+00 0. -1.
          1    1    1    2  502    0  0.51853607565E+02 -0.14218765627E+03  0.69447899690E+03  0.71077929300E+03  0.00000000000E+00 0. -1.
         22    1    3    3    0    0 -0.87772443248E+02 -0.33597490058E+01 -0.65804283291E+02  0.10975196311E+03  0.00000000000E+00 0. -1.
         22    1    3    3    0    0 -0.70201960345E+02 -0.76724563733E+02 -0.27662994667E+03  0.29553189559E+03  0.00000000000E+00 0. -1.
</event>
<event>
 7    1  0.5667373E-006  0.9504865E+02  0.7818608E-02  0.1385558E+00
          2   -1    0    0  502    0  0.00000000000E+00  0.00000000000E+00  0.21207493089E+04  0.21207493089E+04  0.00000000000E+00 0. -1.
          1   -1    0    0  501    0 -0.00000000000E+00 -0.00000000000E+00 -0.36639685562E+03  0.36639685562E+03  0.00000000000E+00 0. -1.
         25    2    1    2    0    0  0.13125974788E+03 -0.70892069653E+01  0.12787990762E+04  0.12916006556E+04  0.12500319108E+03 0.  0.
          2    1    1    2  501    0 -0.92266597455E+02  0.22122874506E+02 -0.35320857377E+03  0.36573056089E+03  0.00000000000E+00 0. -1.
          1    1    1    2  502    0 -0.38993150423E+02 -0.15033667540E+02  0.82876195079E+03  0.82981494805E+03  0.00000000000E+00 0. -1.
         22    1    3    3    0    0  0.13264030123E+03 -0.45825537502E+02  0.90787764467E+03  0.91865948376E+03  0.00000000000E+00 0.  1.
         22    1    3    3    0    0 -0.13805533477E+01  0.38736330536E+02  0.37092143157E+03  0.37294117181E+03  0.00000000000E+00 0.  1.
</event>
<event>
 7    1  0.5667373E-006  0.1947801E+03  0.7818608E-02  0.1330562E+00
          2   -1    0    0  502    0  0.00000000000E+00  0.00000000000E+00  0.20328882200E+04  0.20328882200E+04  0.00000000000E+00 0. -1.
          1   -1    0    0  501    0 -0.00000000000E+00 -0.00000000000E+00 -0.13671401879E+04  0.13671401879E+04  0.00000000000E+00 0. -1.
         25    2    1    2    0    0  0.18582262101E+03 -0.67449629806E+02  0.11016259088E+04  0.11261761697E+04  0.12495448455E+03 0.  0.
          2    1    1    2  501    0 -0.17149482707E+02 -0.27517003646E+02 -0.13444743405E+04  0.13448652507E+04  0.00000000000E+00 0. -1.
          1    1    1    2  502    0 -0.16867313830E+03  0.94966633452E+02  0.90859646374E+03  0.92898698752E+03  0.00000000000E+00 0. -1.
         22    1    3    3    0    0  0.14142518599E+03 -0.81245410191E+02  0.58041590903E+03  0.60289678002E+03  0.00000000000E+00 0.  1.
         22    1    3    3    0    0  0.44397435023E+02  0.13795780386E+02  0.52120999979E+03  0.52327938969E+03  0.00000000000E+00 0.  1.
</event>
<event>
 7    1  0.5667373E-006  0.1070500E+03  0.7818608E-02  0.1437076E+00
          2   -1    0    0  502    0  0.00000000000E+00  0.00000000000E+00  0.20407477155E+04  0.20407477155E+04  0.00000000000E+00 0. -1.
          1   -1    0    0  501    0 -0.00000000000E+00 -0.00000000000E+00 -0.40493961923E+02  0.40493961923E+02  0.00000000000E+00 0. -1.
         25    2    1    2    0    0  0.12212368080E+03  0.11476430045E+02  0.40265788820E+03  0.43909502716E+03  0.12500066434E+03 0.  0.
          2    1    1    2  501    0 -0.19795368816E+02  0.15003711660E+02 -0.13034897531E+02  0.28051319822E+02  0.00000000000E+00 0. -1.
          1    1    1    2  502    0 -0.10232831199E+03 -0.26480141705E+02  0.16106307629E+04  0.16140953304E+04  0.00000000000E+00 0. -1.
         22    1    3    3    0    0  0.80531199346E+02  0.28650674376E+02  0.37848048660E+03  0.38801238891E+03  0.00000000000E+00 0.  1.
         22    1    3    3    0    0  0.41592481456E+02 -0.17174244331E+02  0.24177401599E+02  0.51082638245E+02  0.00000000000E+00 0.  1.
</event>
<event>
 7    1  0.5667373E-006  0.1129509E+03  0.7818608E-02  0.1275738E+00
          2   -1    0    0  502    0  0.00000000000E+00  0.00000000000E+00  0.39851521978E+03  0.39851521978E+03  0.00000000000E+00 0. -1.
          1   -1    0    0  501    0 -0.00000000000E+00 -0.00000000000E+00 -0.90127016904E+03  0.90127016904E+03  0.00000000000E+00 0. -1.
         25    2    1    2    0    0  0.18536242022E+03 -0.60510694903E+02  0.18426886195E+02  0.23235568417E+03  0.12501537026E+03 0.  0.
          2    1    1    2  501    0 -0.91608186242E+02  0.12603031486E+02 -0.78133047627E+03  0.78678345772E+03  0.00000000000E+00 0. -1.
          1    1    1    2  502    0 -0.93754233981E+02  0.47907663416E+02  0.26014864082E+03  0.28064624694E+03  0.00000000000E+00 0. -1.
         22    1    3    3    0    0  0.13334008627E+03 -0.59179819799E+02 -0.42770767646E+02  0.15202357792E+03  0.00000000000E+00 0.  1.
         22    1    3    3    0    0  0.52022333954E+02 -0.13308751032E+01  0.61197653842E+02  0.80332106248E+02  0.00000000000E+00 0.  1.
</event>
<event>
 7    1  0.5667373E-006  0.1841972E+03  0.7818608E-02  0.1350813E+00
          2   -1    0    0  502    0  0.00000000000E+00  0.00000000000E+00  0.32531769971E+03  0.32531769971E+03  0.00000000000E+00 0. -1.
          1   -1    0    0  501    0 -0.00000000000E+00 -0.00000000000E+00 -0.44650320004E+03  0.44650320004E+03  0.00000000000E+00 0. -1.
         25    2    1    2    0    0 -0.14593445431E+03 -0.12986096641E+03 -0.25433891383E+03  0.34420118751E+03  0.12500175536E+03 0.  0.
          2    1    1    2  501    0  0.27113187873E+02 -0.96373133648E+01 -0.11533627810E+03  0.11887161062E+03  0.00000000000E+00 0. -1.
          1    1    1    2  502    0  0.11882126643E+03  0.13949827978E+03  0.24848969161E+03  0.30874810162E+03  0.00000000000E+00 0. -1.
         22    1    3    3    0    0 -0.11359845227E+03 -0.26612006711E+02 -0.89593541902E+02  0.14710475862E+03  0.00000000000E+00 0. -1.
         22    1    3    3    0    0 -0.32336002038E+02 -0.10324895970E+03 -0.16474537192E+03  0.19709642888E+03  0.00000000000E+00 0. -1.
</event>
<event>
 7    1  0.5667373E-006  0.4843051E+02  0.7818608E-02  0.1556904E+00
          2   -1    0    0  502    0  0.00000000000E+00  0.00000000000E+00  0.20908681803E+04  0.20908681803E+04  0.00000000000E+00 0. -1.
          1   -1    0    0  501    0 -0.00000000000E+00 -0.00000000000E+00 -0.47770505799E+02  0.47770505799E+02  0.00000000000E+00 0. -1.
         25    2    1    2    0    0 -0.43361080280E+02  0.23831582922E+02  0.15791079225E+04  0.15848202652E+04  0.12500125722E+03 0.  0.
          2    1    1    2  501    0  0.16103678311E+02  0.17774977139E+02 -0.40399288496E+02  0.46982771081E+02  0.00000000000E+00 0. -1.
          1    1    1    2  502    0  0.27257401968E+02 -0.41606560061E+02  0.50438904048E+03  0.50683564985E+03  0.00000000000E+00 0. -1.
         22    1    3    3    0    0 -0.81470922896E+02 -0.42290432119E+01  0.11999799486E+04  0.12027498797E+04  0.00000000000E+00 0.  1.
         22    1    3    3    0    0  0.38109842617E+02  0.28060626134E+02  0.37912797390E+03  0.38207038545E+03  0.00000000000E+00 0.  1.
</event>
<event>
 7    1  0.5667373E-006  0.1173669E+03  0.7818608E-02  0.1268924E+00
          2   -1    0    0  502    0  0.00000000000E+00  0.00000000000E+00  0.20672178728E+04  0.20672178728E+04  0.00000000000E+00 0. -1.
          1   -1    0    0  501    0 -0.00000000000E+00 -0.00000000000E+00 -0.25268348951E+03  0.25268348951E+03  0.00000000000E+00 0. -1.
         25    2    1    2    0    0 -0.11714533099E+03  0.17341018783E+03  0.78828755720E+03  0.82511582772E+03  0.12499893805E+03 0.  0.
          2    1    1    2  501    0  0.74781213713E+02 -0.88346241926E+02 -0.21804927992E+03  0.24686590866E+03  0.00000000000E+00 0. -1.
          1    1    1    2  502    0  0.42364117273E+02 -0.85063945908E+02  0.12442961060E+04  0.12479196259E+04  0.00000000000E+00 0. -1.
         22    1    3    3    0    0 -0.10826591211E+03  0.19200392973E+03  0.74888512635E+03  0.78065097785E+03  0.00000000000E+00 0. -1.
         22    1    3    3    0    0 -0.88794188723E+01 -0.18593741897E+02  0.39402430847E+02  0.44464849869E+02  0.00000000000E+00 0. -1.
</event>
<event>
 7    1  0.5667373E-006  0.1425018E+03  0.7818608E-02  0.1426881E+00
          2   -1    0    0  502    0  0.00000000000E+00  0.00000000000E+00  0.19652254189E+03  0.19652254189E+03  0.00000000000E+00 0. -1.
          1   -1    0    0  501    0 -0.00000000000E+00 -0.00000000000E+00 -0.17987704057E+03  0.17987704057E+03  0.00000000000E+00 0. -1.
         25    2    1    2    0    0 -0.77131867246E+02  0.11817332182E+03  0.40208438782E+02  0.19275844842E+03  0.12499936782E+03 0.  0.
          2    1    1    2  501    0  0.15790364820E+02  0.12524376723E+02 -0.33313256814E+02  0.38935442890E+02  0.00000000000E+00 0. -1.
          1    1    1    2  502    0  0.61341502426E+02 -0.13069769854E+03  0.97503193489E+01  0.14470569115E+03  0.00000000000E+00 0. -1.
         22    1    3    3    0    0 -0.80422020333E+02  0.96560693091E+02  0.78855056002E+02  0.14835696364E+03  0.00000000000E+00 0. -1.
         22    1    3    3    0    0  0.32901530876E+01  0.21612628729E+02 -0.38646617220E+02  0.44401484778E+02  0.00000000000E+00 0. -1.
</event>
<event>
 7    1  0.5667373E-006  0.7144807E+02  0.7818608E-02  0.1430355E+00
          2   -1    0    0  502    0  0.00000000000E+00  0.00000000000E+00  0.19006150612E+03  0.19006150612E+03  0.00000000000E+00 0. -1.
          1   -1    0    0  501    0 -0.00000000000E+00 -0.00000000000E+00 -0.61736894306E+03  0.61736894306E+03  0.00000000000E+00 0. -1.
         25    2    1    2    0    0  0.87046417396E+02  0.20358591305E+02 -0.15422247830E+03  0.21771654807E+03  0.12499748584E+03 0.  0.
          2    1    1    2  501    0 -0.17551597786E+02 -0.34995829278E+02 -0.42248376608E+03  0.42429388312E+03  0.00000000000E+00 0. -1.
          1    1    1    2  502    0 -0.69494819610E+02  0.14637237974E+02  0.14939880745E+03  0.16542001800E+03  0.00000000000E+00 0. -1.
         22    1    3    3    0    0  0.18307790602E+02 -0.38061411217E+02 -0.39156875579E+01  0.42416728181E+02  0.00000000000E+00 0.  1.
         22    1    3    3    0    0  0.68738626794E+02  0.58420002522E+02 -0.15030679074E+03  0.17529981989E+03  0.00000000000E+00 0.  1.
</event>
<event>
 7    1  0.5667373E-006  0.7141816E+02  0.7818608E-02  0.1393979E+00
          2   -1    0    0  502    0  0.00000000000E+00  0.00000000000E+00  0.13971180571E+03  0.13971180571E+03  0.00000000000E+00 0. -1.
          1   -1    0    0  501    0 -0.00000000000E+00 -0.00000000000E+00 -0.19586742795E+03  0.19586742795E+03  0.00000000000E+00 0. -1.
         25    2    1    2    0    0 -0.55398175178E+01  0.84458143256E+02 -0.40466072840E+02  0.15629485636E+03  0.12500684594E+03 0.  0.
          2    1    1    2  501    0 -0.41930804094E+02 -0.30717525048E+02 -0.71516301296E+02  0.88410067458E+02  0.00000000000E+00 0. -1.
          1    1    1    2  502    0  0.47470621612E+02 -0.53740618209E+02  0.55826751898E+02  0.90874309841E+02  0.00000000000E+00 0. -1.
         22    1    3    3    0    0 -0.61760505565E+02  0.28021685980E+02 -0.35324654014E+02  0.76468334061E+02  0.00000000000E+00 0. -1.
         22    1    3    3    0    0  0.56220688047E+02  0.56436457276E+02 -0.51414188257E+01  0.79826522296E+02  0.00000000000E+00 0. -1.
</event>
<event>
 7    1  0.5667373E-006  0.1679243E+03  0.7818608E-02  0.1390645E+00
          2   -1    0    0  502    0  0.00000000000E+00  0.00000000000E+00  0.33147984875E+04  0.33147984875E+04  0.00000000000E+00 0. -1.
          1   -1    0    0  501    0 -0.00000000000E+00 -0.00000000000E+00 -0.59875824098E+03  0.59875824098E+03  0.00000000000E+00 0. -1.
         25    2    1    2    0    0 -0.13844034411E+03  0.71563472837E+02  0.24964374338E+03  0.31973739349E+03  0.12499177039E+03 0.  0.
          2    1    1    2  501    0 -0.16234721389E+01  0.22646366857E+02 -0.56113081032E+03  0.56158995707E+03  0.00000000000E+00 0. -1.
          1    1    1    2  502    0  0.14006381625E+03 -0.94209839693E+02  0.30275273135E+04  0.30322293779E+04  0.00000000000E+00 0. -1.
         22    1    3    3    0    0 -0.68542400289E+02  0.82709266866E+02  0.21628067283E+03  0.24148750051E+03  0.00000000000E+00 0.  1.
         22    1    3    3    0    0 -0.69897943822E+02 -0.11145794029E+02  0.33363070556E+02  0.78249892984E+02  0.00000000000E+00 0.  1.
</event>
<event>
 7    1  0.5667373E-006  0.7547422E+02  0.7818608E-02  0.1500269E+00
          2   -1    0    0  502    0  0.00000000000E+00  0.00000000000E+00  0.26953488000E+03  0.26953488000E+03  0.00000000000E+00 0. -1.
          1   -1    0    0  501    0 -0.00000000000E+00 -0.00000000000E+00 -0.71797187195E+03  0.71797187195E+03  0.00000000000E+00 0. -1.
         25    2    1    2    0    0 -0.74793130409E+02  0.58120768374E+02 -0.96348739047E+02  0.18406670521E+03  0.12500174550E+03 0.  0.
          2    1    1    2  501    0  0.63567714383E+02 -0.38758111738E+02 -0.57480244904E+03  0.57960408984E+03  0.00000000000E+00 0. -1.
          1    1    1    2  502    0  0.11225416026E+02 -0.19362656636E+02  0.22271419614E+03  0.22383595690E+03  0.00000000000E+00 0. -1.
         22    1    3    3    0    0 -0.10788673158E+03  0.55441395502E+02 -0.87923011078E+02  0.14981238622E+03  0.00000000000E+00 0.  1.
         22    1    3    3    0    0  0.33093601174E+02  0.26793728721E+01 -0.84257279697E+01  0.34254318990E+02  0.00000000000E+00 0.  1.
</event>
<event>
 7    1  0.5667373E-006  0.3305720E+02  0.7818608E-02  0.1616025E+00
          2   -1    0    0  502    0  0.00000000000E+00  0.00000000000E+00  0.21964308642E+04  0.21964308642E+04  0.00000000000E+00 0. -1.
          1   -1    0    0  501    0 -0.00000000000E+00 -0.00000000000E+00 -0.49841127253E+02  0.49841127253E+02  0.00000000000E+00 0. -1.
         25    2    1    2    0    0  0.15348095138E+02  0.52980732789E+02  0.16361684851E+03  0.21316438512E+03  0.12500423951E+03 0.  0.
          2    1    1    2  501    0  0.11064289819E+01 -0.24439233132E+02 -0.18930457551E+02  0.30933194537E+02  0.00000000000E+00 0. -1.
          1    1    1    2  502    0 -0.16454524120E+02 -0.28541499657E+02  0.20019033460E+04  0.20021744118E+04  0.00000000000E+00 0. -1.
         22    1    3    3    0    0  0.10531272964E+02  0.85951761412E+02  0.15684552700E+03  0.17916230725E+03  0.00000000000E+00 0. -1.
         22    1    3    3    0    0  0.48168221746E+01 -0.32971028623E+02  0.67713215082E+01  0.34002077867E+02  0.00000000000E+00 0. -1.
</event>
<event>
 7    1  0.5667373E-006  0.1252235E+03  0.7818608E-02  0.1293020E+00
          2   -1    0    0  502    0  0.00000000000E+00  0.00000000000E+00  0.18344377773E+04  0.18344377773E+04  0.00000000000E+00 0. -1.
          1   -1    0    0  501    0 -0.00000000000E+00 -0.00000000000E+00 -0.13966261447E+03  0.13966261447E+03  0.00000000000E+00 0. -1.
         25    2    1    2    0    0  0.14338372818E+03  0.35196481434E+02  0.19581988970E+03  0.27526007475E+03  0.12499997495E+03 0.  0.
          2    1    1    2  501    0 -0.51159024955E+02  0.49002470399E+02 -0.84614376561E+02  0.11035434138E+03  0.00000000000E+00 0. -1.
          1    1    1    2  502    0 -0.92224703224E+02 -0.84198951833E+02  0.15835696497E+04  0.15884859756E+04  0.00000000000E+00 0. -1.
         22    1    3    3    0    0  0.13173681413E+03  0.75237326077E+02  0.15591522620E+03  0.21754264224E+03  0.00000000000E+00 0. -1.
         22    1    3    3    0    0  0.11646914049E+02 -0.40040844643E+02  0.39904663508E+02  0.57717432516E+02  0.00000000000E+00 0. -1.
</event>
<event>
 7    1  0.5667373E-006  0.4339549E+02  0.7818608E-02  0.1525384E+00
          2   -1    0    0  502    0  0.00000000000E+00  0.00000000000E+00  0.26786867858E+02  0.26786867858E+02  0.00000000000E+00 0. -1.
          1   -1    0    0  501    0 -0.00000000000E+00 -0.00000000000E+00 -0.82919744531E+03  0.82919744531E+03  0.00000000000E+00 0. -1.
         25    2    1    2    0    0  0.51951354648E+02 -0.41257756530E+02 -0.39550736898E+03  0.42006236188E+03  0.12500065290E+03 0.  0.
          2    1    1    2  501    0 -0.11251931530E+02  0.30867259980E+02 -0.38879414918E+03  0.39017981000E+03  0.00000000000E+00 0. -1.
          1    1    1    2  502    0 -0.40699423117E+02  0.10390496550E+02 -0.18109059292E+02  0.45742141282E+02  0.00000000000E+00 0. -1.
         22    1    3    3    0    0  0.24347506160E+01  0.41455086873E+02 -0.79707239960E+02  0.89876005364E+02  0.00000000000E+00 0. -1.
         22    1    3    3    0    0  0.49516604032E+02 -0.82712843403E+02 -0.31580012902E+03  0.33018635652E+03  0.00000000000E+00 0. -1.
</event>
<event>
 7    1  0.5667373E-006  0.1127076E+03  0.7818608E-02  0.1300448E+00
          2   -1    0    0  502    0  0.00000000000E+00  0.00000000000E+00  0.13554461633E+04  0.13554461633E+04  0.00000000000E+00 0. -1.
          1   -1    0    0  501    0 -0.00000000000E+00 -0.00000000000E+00 -0.56725042075E+03  0.56725042075E+03  0.00000000000E+00 0. -1.
         25    2    1    2    0    0  0.58093058808E+02 -0.47817011563E+02 -0.13193787926E+03  0.19669752817E+03  0.12498417311E+03 0.  0.
          2    1    1    2  501    0 -0.42906480604E+02  0.11970338276E+03 -0.39184660367E+03  0.41196313759E+03  0.00000000000E+00 0. -1.
          1    1    1    2  502    0 -0.15186578203E+02 -0.71886371196E+02  0.13119802255E+04  0.13140359183E+04  0.00000000000E+00 0. -1.
         22    1    3    3    0    0 -0.29789284765E+02 -0.23725485674E+02 -0.21881164067E+01  0.38145615877E+02  0.00000000000E+00 0. -1.
         22    1    3    3    0    0  0.87882343572E+02 -0.24091525889E+02 -0.12974976286E+03  0.15855191230E+03  0.00000000000E+00 0. -1.
</event>
<event>
 7    1  0.5667373E-006  0.5197720E+02  0.7818608E-02  0.1539046E+00
          2   -1    0    0  502    0  0.00000000000E+00  0.00000000000E+00  0.76729767468E+03  0.76729767468E+03  0.00000000000E+00 0. -1.
          1   -1    0    0  501    0 -0.00000000000E+00 -0.00000000000E+00 -0.17424180015E+03  0.17424180015E+03  0.00000000000E+00 0. -1.
         25    2    1    2    0    0 -0.26860937627E+02  0.43255591929E+02 -0.43361868769E+02  0.14175621712E+03  0.12498806834E+03 0.  0.
          2    1    1    2  501    0  0.37270199598E+01 -0.52922391247E+02 -0.72823177181E+02  0.90099308031E+02  0.00000000000E+00 0. -1.
          1    1    1    2  502    0  0.23133917667E+02  0.96667993174E+01  0.70924092048E+03  0.70968394968E+03  0.00000000000E+00 0. -1.
         22    1    3    3    0    0  0.25247126469E+02  0.55223127979E+02  0.15062427731E+02  0.62561074063E+02  0.00000000000E+00 0. -1.
         22    1    3    3    0    0 -0.52108064095E+02 -0.11967536050E+02 -0.58424296499E+02  0.79195143060E+02  0.00000000000E+00 0. -1.
</event>
<event>
 7    1  0.5667373E-006  0.2972541E+03  0.7818608E-02  0.1232332E+00
          2   -1    0    0  502    0  0.00000000000E+00  0.00000000000E+00  0.65896383555E+03  0.65896383555E+03  0.00000000000E+00 0. -1.
          1   -1    0    0  501    0 -0.00000000000E+00 -0.00000000000E+00 -0.85204042162E+03  0.85204042162E+03  0.00000000000E+00 0. -1.
         25    2    1    2    0    0  0.32396426179E+03  0.64305689658E+02 -0.17729914465E+03  0.39515601141E+03  0.12500088808E+03 0.  0.
          2    1    1    2  501    0 -0.27386840760E+03 -0.84630309275E+02 -0.52799430829E+03  0.60078630437E+03  0.00000000000E+00 0. -1.
          1    1    1    2  502    0 -0.50095854190E+02  0.20324619617E+02  0.51221686686E+03  0.51506194139E+03  0.00000000000E+00 0. -1.
         22    1    3    3    0    0  0.19259639328E+03  0.98992202339E+02 -0.96497392438E+02  0.23707503786E+03  0.00000000000E+00 0. -1.
         22    1    3    3    0    0  0.13136786851E+03 -0.34686512681E+02 -0.80801752211E+02  0.15808097355E+03  0.00000000000E+00 0. -1.
</event>
<event>
 7    1  0.5667373E-006  0.7361188E+02  0.7818608E-02  0.1351356E+00
          2   -1    0    0  502    0  0.00000000000E+00  0.00000000000E+00  0.90963941389E+03  0.90963941389E+03  0.00000000000E+00 0. -1.
          1   -1    0    0  501    0 -0.00000000000E+00 -0.00000000000E+00 -0.30201315381E+03  0.30201315381E+03  0.00000000000E+00 0. -1.
         25    2    1    2    0    0  0.70296006493E+02  0.65724243226E+02  0.48818322255E+02  0.16513544998E+03  0.12500113430E+03 0.  0.
          2    1    1    2  501    0 -0.71209986229E+02  0.81107251134E+01 -0.23684178648E+03  0.24744833364E+03  0.00000000000E+00 0. -1.
          1    1    1    2  502    0  0.91397973565E+00 -0.73834968340E+02  0.79564972430E+03  0.79906878408E+03  0.00000000000E+00 0. -1.
         22    1    3    3    0    0  0.10303958711E+03  0.70237255316E+02  0.38546755605E+02  0.13052310491E+03  0.00000000000E+00 0. -1.
         22    1    3    3    0    0 -0.32743580621E+02 -0.45130120898E+01  0.10271566650E+02  0.34612345073E+02  0.00000000000E+00 0. -1.
</event>
<event>
 7    1  0.5667373E-006  0.2686368E+03  0.7818608E-02  0.1217419E+00
          2   -1    0    0  502    0  0.00000000000E+00  0.00000000000E+00  0.56395099707E+03  0.56395099707E+03  0.00000000000E+00 0. -1.
          1   -1    0    0  501    0 -0.00000000000E+00 -0.00000000000E+00 -0.73091174590E+03  0.73091174590E+03  0.00000000000E+00 0. -1.
         25    2    1    2    0    0  0.18501823210E+03  0.25104659358E+03 -0.40911089468E+03  0.52938934991E+03  0.12500088518E+03 0.  0.
          2    1    1    2  501    0 -0.68821756293E+02 -0.12063519993E+02 -0.22084761213E+03  0.23163685034E+03  0.00000000000E+00 0. -1.
          1    1    1    2  502    0 -0.11619647581E+03 -0.23898307358E+03  0.46299775798E+03  0.53383654272E+03  0.00000000000E+00 0. -1.
         22    1    3    3    0    0  0.14957415490E+03  0.23830545860E+03 -0.28827948359E+03  0.40282375808E+03  0.00000000000E+00 0.  1.
         22    1    3    3    0    0  0.35444077196E+02  0.12741134974E+02 -0.12083141109E+03  0.12656559183E+03  0.00000000000E+00 0.  1.
</event>
<event>
 7    1  0.5667373E-006  0.1449276E+03  0.7818608E-02  0.1349123E+00
          2   -1    0    0  502    0  0.00000000000E+00  0.00000000000E+00  0.11694077240E+04  0.11694077240E+04  0.00000000000E+00 0. -1.
          1   -1    0    0  501    0 -0.00000000000E+00 -0.00000000000E+00 -0.14925609549E+04  0.14925609549E+04  0.00000000000E+00 0. -1.
         25    2    1    2    0    0  0.94025680897E+02  0.88269335481E+02  0.55654576543E+03  0.58480867614E+03  0.12500277767E+03 0.  0.
          2    1    1    2  501    0  0.37086571542E+02 -0.10962292578E+01 -0.14678401304E+04  0.14683089810E+04  0.00000000000E+00 0. -1.
          1    1    1    2  502    0 -0.13111225244E+03 -0.87173106224E+02  0.58814113397E+03  0.60885102173E+03  0.00000000000E+00 0. -1.
         22    1    3    3    0    0  0.49321286926E+02 -0.26448875429E+02  0.19512314963E+03  0.20299058076E+03  0.00000000000E+00 0. -1.
         22    1    3    3    0    0  0.44704393972E+02  0.11471821091E+03  0.36142261579E+03  0.38181809538E+03  0.00000000000E+00 0. -1.
</event>
<event>
 7    1  0.5667373E-006  0.7962402E+02  0.7818608E-02  0.1465503E+00
          2   -1    0    0  502    0  0.00000000000E+00  0.00000000000E+00  0.16670188254E+03  0.16670188254E+03  0.00000000000E+00 0. -1.
          1   -1    0    0  501    0 -0.00000000000E+00 -0.00000000000E+00 -0.95086256823E+03  0.95086256823E+03  0.00000000000E+00 0. -1.
         25    2    1    2    0    0  0.48720471585E+02 -0.75195645651E+02 -0.45081588046E+03  0.47632938727E+03  0.12500663030E+03 0.  0.
          2    1    1    2  501    0 -0.59481427642E+02  0.50329884862E+02 -0.48295055684E+03  0.48919564378E+03  0.00000000000E+00 0. -1.
          1    1    1    2  502    0  0.10760956056E+02  0.24865760789E+02  0.14960575161E+03  0.15203941972E+03  0.00000000000E+00 0. -1.
         22    1    3    3    0    0  0.32467711520E+02 -0.10948632933E+03 -0.36621589550E+03  0.38360851231E+03  0.00000000000E+00 0.  1.
         22    1    3    3    0    0  0.16252760065E+02  0.34290683676E+02 -0.84599984961E+02  0.92720874953E+02  0.00000000000E+00 0.  1.
</event>
<event>
 7    1  0.5667373E-006  0.7995248E+02  0.7818608E-02  0.1386402E+00
          2   -1    0    0  502    0  0.00000000000E+00  0.00000000000E+00  0.11208650655E+03  0.11208650655E+03  0.00000000000E+00 0. -1.
          1   -1    0    0  501    0 -0.00000000000E+00 -0.00000000000E+00 -0.48294414845E+03  0.48294414845E+03  0.00000000000E+00 0. -1.
         25    2    1    2    0    0  0.35916208826E+02 -0.19784048639E+02 -0.14063231151E+03  0.19257038735E+03  0.12499809761E+03 0.  0.
          2    1    1    2  501    0 -0.83263993369E+02  0.33676249769E+02 -0.30216114038E+03  0.31522743717E+03  0.00000000000E+00 0. -1.
          1    1    1    2  502    0  0.47347784544E+02 -0.13892201129E+02  0.71935809998E+02  0.87232830479E+02  0.00000000000E+00 0. -1.
         22    1    3    3    0    0  0.69887470368E+02 -0.17487553418E+02 -0.32186973460E+02  0.78905476993E+02  0.00000000000E+00 0.  1.
         22    1    3    3    0    0 -0.33971261543E+02 -0.22964952217E+01 -0.10844533805E+03  0.11366491036E+03  0.00000000000E+00 0.  1.
</event>
<event>
 7    1  0.5667373E-006  0.3631885E+02  0.7818608E-02  0.1564084E+00
          2   -1    0    0  502    0  0.00000000000E+00  0.00000000000E+00  0.96553954243E+03  0.96553954243E+03  0.00000000000E+00 0. -1.
          1   -1    0    0  501    0 -0.00000000000E+00 -0.00000000000E+00 -0.24097582808E+04  0.24097582808E+04  0.00000000000E+00 0. -1.
         25    2    1    2    0    0 -0.64253542744E+02  0.13595531680E+02  0.62483323034E+03  0.64058980167E+03  0.12500148807E+03 0.  0.
          2    1    1    2  501    0  0.33692004629E+02 -0.13544768936E+02 -0.24010408464E+04  0.24013154225E+04  0.00000000000E+00 0. -1.
          1    1    1    2  502    0  0.30561538115E+02 -0.50762743977E-01  0.33198887773E+03  0.33339259909E+03  0.00000000000E+00 0. -1.
         22    1    3    3    0    0 -0.34574975031E+02  0.51734483981E+02  0.13819243985E+03  0.15155538975E+03  0.00000000000E+00 0.  1.
         22    1    3    3    0    0 -0.29678567712E+02 -0.38138952301E+02  0.48664079049E+03  0.48903441191E+03  0.00000000000E+00 0.  1.
</event>
<event>
 7    1  0.5667373E-006  0.8204800E+02  0.7818608E-02  0.1367924E+00
          2   -1    0    0  502    0  0.00000000000E+00  0.00000000000E+00  0.18124466556E+04  0.18124466556E+04  0.00000000000E+00 0. -1.
          1   -1    0    0  501    0 -0.00000000000E+00 -0.00000000000E+00 -0.12417501854E+04  0.12417501854E+04  0.00000000000E+00 0. -1.
         25    2    1    2    0    0  0.65448874989E+02  0.32595666550E+02  0.20057231199E+03  0.24738765951E+03  0.12500147609E+03 0.  0.
          2    1    1    2  501    0 -0.79331001511E+02  0.21594427403E+02 -0.12164619451E+04  0.12192372168E+04  0.00000000000E+00 0. -1.
          1    1    1    2  502    0  0.13882126522E+02 -0.54190093953E+02  0.15865861033E+04  0.15875719647E+04  0.00000000000E+00 0. -1.
         22    1    3    3    0    0 -0.57057363732E+01 -0.18696454100E+02  0.13864239074E+03  0.14001366124E+03  0.00000000000E+00 0. -1.
         22    1    3    3    0    0  0.71154611362E+02  0.51292120650E+02  0.61929921255E+02  0.10737399827E+03  0.00000000000E+00 0. -1.
</event>
<event>
 7    1  0.5667373E-006  0.5869507E+02  0.7818608E-02  0.1517425E+00
          2   -1    0    0  502    0  0.00000000000E+00  0.00000000000E+00  0.35643883772E+03  0.35643883772E+03  0.00000000000E+00 0. -1.
          1   -1    0    0  501    0 -0.00000000000E+00 -0.00000000000E+00 -0.80623538631E+03  0.80623538631E+03  0.00000000000E+00 0. -1.
         25    2    1    2    0    0 -0.30050921769E+02  0.71552942808E+02  0.16457463847E+03  0.22075305288E+03  0.12499686878E+03 0.  0.
          2    1    1    2  501    0  0.35602203969E+02 -0.46546259121E+02 -0.77603305512E+03  0.77824249036E+03  0.00000000000E+00 0. -1.
          1    1    1    2  502    0 -0.55512821999E+01 -0.25006683687E+02  0.16166186805E+03  0.16367868079E+03  0.00000000000E+00 0. -1.
         22    1    3    3    0    0 -0.28638022208E+02 -0.29843083734E+02  0.74056912952E+02  0.84824361587E+02  0.00000000000E+00 0.  1.
         22    1    3    3    0    0 -0.14128995610E+01  0.10139602654E+03  0.90517725519E+02  0.13592869129E+03  0.00000000000E+00 0.  1.
</event>
<event>
 7    1  0.5667373E-006  0.8775420E+02  0.7818608E-02  0.1361171E+00
          2   -1    0    0  502    0  0.00000000000E+00  0.00000000000E+00  0.22491398162E+04  0.22491398162E+04  0.00000000000E+00 0. -1.
          1   -1    0    0  501    0 -0.00000000000E+00 -0.00000000000E+00 -0.41963395613E+02  0.41963395613E+02  0.00000000000E+00 0. -1.
         25    2    1    2    0    0  0.95419946831E+02  0.79903938775E+02  0.12350375655E+04  0.12475704958E+04  0.12499899222E+03 0.  0.
          2    1    1    2  501    0 -0.21265214802E+02 -0.51085278090E+02 -0.11637176290E+02  0.56545016315E+02  0.00000000000E+00 0. -1.
          1    1    1    2  502    0 -0.74154732030E+02 -0.28818660685E+02  0.98377603135E+03  0.98698769969E+03  0.00000000000E+00 0. -1.
         22    1    3    3    0    0  0.25476513522E+02  0.85632828558E+02  0.94284894881E+03  0.94707242297E+03  0.00000000000E+00 0.  1.
         22    1    3    3    0    0  0.69943433309E+02 -0.57288897830E+01  0.29218861668E+03  0.30049807280E+03  0.00000000000E+00 0.  1.
</event>
<event>
 7    1  0.5667373E-006  0.7093558E+02  0.7818608E-02  0.1364354E+00
          2   -1    0    0  502    0  0.00000000000E+00  0.00000000000E+00  0.30302141912E+04  0.30302141912E+04  0.00000000000E+00 0. -1.
          1   -1    0    0  501    0 -0.00000000000E+00 -0.00000000000E+00 -0.59042838444E+02  0.59042838444E+02  0.00000000000E+00 0. -1.
         25    2    1    2    0    0 -0.31009748569E+02  0.22859596908E+02  0.78732450443E+03  0.79811586181E+03  0.12499955170E+03 0.  0.
          2    1    1    2  501    0 -0.15005872640E+02 -0.71082467114E+02 -0.28317461250E+02  0.77972892446E+02  0.00000000000E+00 0. -1.
          1    1    1    2  502    0  0.46015621209E+02  0.48222870206E+02  0.22121643096E+04  0.22131682754E+04  0.00000000000E+00 0. -1.
         22    1    3    3    0    0  0.19789835951E+01 -0.50277840639E+02  0.27970750993E+03  0.28419723565E+03  0.00000000000E+00 0.  1.
         22    1    3    3    0    0 -0.32988732164E+02  0.73137437547E+02  0.50761699449E+03  0.51391862617E+03  0.00000000000E+00 0.  1.
</event>
<event>
 7    1  0.5667373E-006  0.8213209E+02  0.7818608E-02  0.1363596E+00
          2   -1    0    0  502    0  0.00000000000E+00  0.00000000000E+00  0.32462903423E+04  0.32462903423E+04  0.00000000000E+00 0. -1.
          1   -1    0    0  501    0 -0.00000000000E+00 -0.00000000000E+00 -0.96356321567E+02  0.96356321567E+02  0.00000000000E+00 0. -1.
         25    2    1    2    0    0  0.23543007853E+02 -0.67204131271E+02  0.46168163635E+03  0.48357682422E+03  0.12500377235E+03 0.  0.
          2    1    1    2  501    0 -0.73932408689E+02  0.38616435826E+02 -0.64666517424E+02  0.10554140726E+03  0.00000000000E+00 0. -1.
          1    1    1    2  502    0  0.50389400836E+02  0.28587695446E+02  0.27529189018E+04  0.27535284324E+04  0.00000000000E+00 0. -1.
         22    1    3    3    0    0  0.37937639569E+02  0.28267484641E+02  0.15074461494E+03  0.15799447495E+03  0.00000000000E+00 0. -1.
         22    1    3    3    0    0 -0.14394631716E+02 -0.95471615912E+02  0.31093702141E+03  0.32558234926E+03  0.00000000000E+00 0. -1.
</event>
<event>
 7    1  0.5667373E-006  0.5595396E+02  0.7818608E-02  0.1434694E+00
          2   -1    0    0  502    0  0.00000000000E+00  0.00000000000E+00  0.16184045081E+03  0.16184045081E+03  0.00000000000E+00 0. -1.
          1   -1    0    0  501    0 -0.00000000000E+00 -0.00000000000E+00 -0.33848640801E+03  0.33848640801E+03  0.00000000000E+00 0. -1.
         25    2    1    2    0    0 -0.22140169109E+02  0.95896508630E+02 -0.20134556290E+02  0.16036438445E+03  0.12500003195E+03 0.  0.
          2    1    1    2  501    0  0.21347125360E+02 -0.43415573833E+02 -0.23809105835E+03  0.24295671195E+03  0.00000000000E+00 0. -1.
          1    1    1    2  502    0  0.79304374942E+00 -0.52480934797E+02  0.81579657437E+02  0.97005762423E+02  0.00000000000E+00 0. -1.
         22    1    3    3    0    0 -0.30157411619E+02 -0.16536639473E+02 -0.32057208503E+02  0.47016960106E+02  0.00000000000E+00 0. -1.
         22    1    3    3    0    0  0.80172425092E+01  0.11243314810E+03  0.11922652213E+02  0.11334742434E+03  0.00000000000E+00 0. -1.
</event>
<event>
 7    1  0.5667373E-006  0.6010719E+02  0.7818608E-02  0.1426187E+00
          2   -1    0    0  502    0  0.00000000000E+00  0.00000000000E+00  0.12806847984E+03  0.12806847984E+03  0.00000000000E+00 0. -1.
          1   -1    0    0  501    0 -0.00000000000E+00 -0.00000000000E+00 -0.86280761417E+03  0.86280761417E+03  0.00000000000E+00 0. -1.
         25    2    1    2    0    0 -0.67332335344E+02 -0.43762484250E+02  0.33448486164E+02  0.15228772337E+03  0.12499580414E+03 0.  0.
          2    1    1    2  501    0  0.59935925574E+02 -0.36996237011E+01 -0.78530277552E+03  0.78759536034E+03  0.00000000000E+00 0. -1.
          1    1    1    2  502    0  0.73964097693E+01  0.47462107951E+02  0.17115155020E+02  0.50993010306E+02  0.00000000000E+00 0. -1.
         22    1    3    3    0    0  0.11998941380E+02 -0.16813862366E+02  0.60751943464E+02  0.64167586807E+02  0.00000000000E+00 0. -1.
         22    1    3    3    0    0 -0.79331276724E+02 -0.26948621884E+02 -0.27303457301E+02  0.88120136567E+02  0.00000000000E+00 0. -1.
</event>
<event>
 7    1  0.5667373E-006  0.6101430E+02  0.7818608E-02  0.1394349E+00
          2   -1    0    0  502    0  0.00000000000E+00  0.00000000000E+00  0.94771811980E+03  0.94771811980E+03  0.00000000000E+00 0. -1.
          1   -1    0    0  501    0 -0.00000000000E+00 -0.00000000000E+00 -0.22210954207E+03  0.22210954207E+03  0.00000000000E+00 0. -1.
         25    2    1    2    0    0 -0.20226984240E+02  0.46696586615E+02  0.39526950229E+02  0.14063539899E+03  0.12500493415E+03 0.  0.
          2    1    1    2  501    0  0.61010858443E+02 -0.64778667855E+00 -0.16498495078E+03  0.17590559531E+03  0.00000000000E+00 0. -1.
          1    1    1    2  502    0 -0.40783874203E+02 -0.46048799936E+02  0.85106657828E+03  0.85328666756E+03  0.00000000000E+00 0. -1.
         22    1    3    3    0    0  0.92118135035E+01  0.10606197282E+02  0.78597703752E+02  0.79843271250E+02  0.00000000000E+00 0.  1.
         22    1    3    3    0    0 -0.29438797744E+02  0.36090389333E+02 -0.39070753523E+02  0.60792127744E+02  0.00000000000E+00 0.  1.
</event>
<event>
 7    1  0.5667373E-006  0.1660161E+03  0.7818608E-02  0.1264842E+00
          2   -1    0    0  502    0  0.00000000000E+00  0.00000000000E+00  0.18003214987E+04  0.18003214987E+04  0.00000000000E+00 0. -1.
          1   -1    0    0  501    0 -0.00000000000E+00 -0.00000000000E+00 -0.35847157468E+02  0.35847157468E+02  0.00000000000E+00 0. -1.
         25    2    1    2    0    0  0.92632919424E+02 -0.78939774140E+02  0.68582350218E+03  0.70766815851E+03  0.12501200232E+03 0.  0.
          2    1    1    2  501    0 -0.15196511100E+03  0.11589699844E+03  0.37031308656E+03  0.41672207919E+03  0.00000000000E+00 0. -1.
          1    1    1    2  502    0  0.59332191579E+02 -0.36957224300E+02  0.70833775245E+03  0.71177841842E+03  0.00000000000E+00 0. -1.
         22    1    3    3    0    0 -0.91907286913E+01 -0.17252953380E+02  0.11014220019E+02  0.22437623243E+02  0.00000000000E+00 0. -1.
         22    1    3    3    0    0  0.10182364812E+03 -0.61686820760E+02  0.67480928217E+03  0.68523053527E+03  0.00000000000E+00 0. -1.
</event>
<event>
 7    1  0.5667373E-006  0.9806421E+02  0.7818608E-02  0.1294331E+00
          2   -1    0    0  502    0  0.00000000000E+00  0.00000000000E+00  0.20889169632E+04  0.20889169632E+04  0.00000000000E+00 0. -1.
          1   -1    0    0  501    0 -0.00000000000E+00 -0.00000000000E+00 -0.26247502984E+02  0.26247502984E+02  0.00000000000E+00 0. -1.
         25    2    1    2    0    0  0.51457952118E+02  0.56075134904E+01  0.14179610025E+04  0.14244007092E+04  0.12499844284E+03 0.  0.
          2    1    1    2  501    0 -0.64845317046E+02  0.82747744674E+02  0.12456084379E+03  0.16299542385E+03  0.00000000000E+00 0. -1.
          1    1    1    2  502    0  0.13387364927E+02 -0.88355258164E+02  0.52014761391E+03  0.52776833312E+03  0.00000000000E+00 0. -1.
         22    1    3    3    0    0 -0.11488703896E+02  0.53741843024E+02  0.67169408445E+03  0.67393851284E+03  0.00000000000E+00 0.  1.
         22    1    3    3    0    0  0.62946656014E+02 -0.48134329534E+02  0.74626691803E+03  0.75046219633E+03  0.00000000000E+00 0.  1.
</event>
<event>
 7    1  0.5667373E-006  0.6698010E+02  0.7818608E-02  0.1425806E+00
          2   -1    0    0  502    0  0.00000000000E+00  0.00000000000E+00  0.19970700712E+03  0.19970700712E+03  0.00000000000E+00 0. -1.
          1   -1    0    0  501    0 -0.00000000000E+00 -0.00000000000E+00 -0.43092635208E+03  0.43092635208E+03  0.00000000000E+00 0. -1.
         25    2    1    2    0    0 -0.89810590163E+02  0.17750797255E+02 -0.35121199782E+03  0.38386752417E+03  0.12499350301E+03 0.  0.
          2    1    1    2  501    0  0.46729279086E+02 -0.21350626660E+02 -0.49803103343E+02  0.71552944630E+02  0.00000000000E+00 0. -1.
          1    1    1    2  502    0  0.43081311078E+02  0.35998294056E+01  0.16979575621E+03  0.17521289040E+03  0.00000000000E+00 0. -1.
         22    1    3    3    0    0  0.18661322115E+02  0.31456070113E+02 -0.15492938405E+03  0.15918807534E+03  0.00000000000E+00 0.  1.
         22    1    3    3    0    0 -0.10847191228E+03 -0.13705272859E+02 -0.19628261377E+03  0.22467944883E+03  0.00000000000E+00 0.  1.
</event>
<event>
 7    1  0.5667373E-006  0.7533170E+02  0.7818608E-02  0.1452225E+00
          2   -1    0    0  502    0  0.00000000000E+00  0.00000000000E+00  0.33749395632E+03  0.33749395632E+03  0.00000000000E+00 0. -1.
          1   -1    0    0  501    0 -0.00000000000E+00 -0.00000000000E+00 -0.28467434913E+03  0.28467434913E+03  0.00000000000E+00 0. -1.
         25    2    1    2    0    0 -0.66350300301E+02  0.70713427369E+02 -0.18934063530E+02  0.15933000581E+03  0.12499920331E+03 0.  0.
          2    1    1    2  501    0  0.31081234731E+02 -0.53765331032E+01 -0.18905422453E+03  0.19166755091E+03  0.00000000000E+00 0. -1.
          1    1    1    2  502    0  0.35269065570E+02 -0.65336894266E+02  0.26080789525E+03  0.27117074873E+03  0.00000000000E+00 0. -1.
         22    1    3    3    0    0 -0.42556758020E+02  0.33094749601E+02  0.52443464277E+02  0.75210750892E+02  0.00000000000E+00 0.  1.
         22    1    3    3    0    0 -0.23793542281E+02  0.37618677767E+02 -0.71377527807E+02  0.84119254913E+02  0.00000000000E+00 0.  1.
</event>
<event>
 7    1  0.5667373E-006  0.1104232E+03  0.7818608E-02  0.1322257E+00
          2   -1    0    0  502    0  0.00000000000E+00  0.00000000000E+00  0.28644846237E+03  0.28644846237E+03  0.00000000000E+00 0. -1.
          1   -1    0    0  501    0 -0.00000000000E+00 -0.00000000000E+00 -0.71467052569E+03  0.71467052569E+03  0.00000000000E+00 0. -1.
         25    2    1    2    0    0  0.12369315480E+03 -0.10586174464E+03 -0.22119782645E+03  0.30176224013E+03  0.12500106247E+03 0.  0.
          2    1    1    2  501    0 -0.84946217447E+02  0.58033939277E+02 -0.44335861712E+03  0.45513806844E+03  0.00000000000E+00 0. -1.
          1    1    1    2  502    0 -0.38746937349E+02  0.47827805359E+02  0.23633438026E+03  0.24421867949E+03  0.00000000000E+00 0. -1.
         22    1    3    3    0    0 -0.24564893212E+02 -0.27658368357E+02 -0.31186837787E+02  0.48384276060E+02  0.00000000000E+00 0. -1.
         22    1    3    3    0    0  0.14825804801E+03 -0.78203376280E+02 -0.19001098867E+03  0.25337796407E+03  0.00000000000E+00 0. -1.
</event>
<event>
 7    1  0.5667373E-006  0.1397837E+03  0.7818608E-02  0.1412138E+00
          2   -1    0    0  502    0  0.00000000000E+00  0.00000000000E+00  0.33537869789E+02  0.33537869789E+02  0.00000000000E+00 0. -1.
          1   -1    0    0  501    0 -0.00000000000E+00 -0.00000000000E+00 -0.20322723797E+04  0.20322723797E+04  0.00000000000E+00 0. -1.
         25    2    1    2    0    0  0.10077198795E+03  0.97703007787E+02 -0.41101619973E+03  0.45195150270E+03  0.12499989227E+03 0.  0.
          2    1    1    2  501    0 -0.17451121392E+02  0.15004738613E+02 -0.12217718060E+04  0.12219885555E+04  0.00000000000E+00 0. -1.
          1    1    1    2  502    0 -0.83320866559E+02 -0.11270774640E+03 -0.36594650417E+03  0.39187019128E+03  0.00000000000E+00 0. -1.
         22    1    3    3    0    0  0.87372675558E+00 -0.11858083751E+02  0.29360198541E+01  0.12247357318E+02  0.00000000000E+00 0. -1.
         22    1    3    3    0    0  0.99898261196E+02  0.10956109154E+03 -0.41395221959E+03  0.43970414538E+03  0.00000000000E+00 0. -1.
</event>
<event>
 7    1  0.5667373E-006  0.1163235E+03  0.7818608E-02  0.1360741E+00
          2   -1    0    0  502    0  0.00000000000E+00  0.00000000000E+00  0.29710807538E+03  0.29710807538E+03  0.00000000000E+00 0. -1.
          1   -1    0    0  501    0 -0.00000000000E+00 -0.00000000000E+00 -0.13153620776E+04  0.13153620776E+04  0.00000000000E+00 0. -1.
         25    2    1    2    0    0 -0.12099760802E+03 -0.97842350016E+02 -0.13330224160E+03  0.24001803563E+03  0.12500249281E+03 0.  0.
          2    1    1    2  501    0  0.92142344173E+02  0.67468266655E+02 -0.11239866711E+04  0.11297735240E+04  0.00000000000E+00 0. -1.
          1    1    1    2  502    0  0.28855263850E+02  0.30374083361E+02  0.23903491056E+03  0.24267859332E+03  0.00000000000E+00 0. -1.
         22    1    3    3    0    0 -0.18230456378E+02  0.29963897500E+02 -0.17072533996E+02  0.39008410762E+02  0.00000000000E+00 0. -1.
         22    1    3    3    0    0 -0.10276715164E+03 -0.12780624752E+03 -0.11622970760E+03  0.20100962487E+03  0.00000000000E+00 0. -1.
</event>
<event>
 7    1  0.5667373E-006  0.1026821E+03  0.7818608E-02  0.1361580E+00
          2   -1    0    0  502    0  0.00000000000E+00  0.00000000000E+00  0.28547779382E+03  0.28547779382E+03  0.00000000000E+00 0. -1.
          1   -1    0    0  501    0 -0.00000000000E+00 -0.00000000000E+00 -0.13510974375E+04  0.13510974375E+04  0.00000000000E+00 0. -1.
         25    2    1    2    0    0 -0.74218784703E+02  0.67550661631E+02 -0.52069096451E+03  0.54481060190E+03  0.12501196558E+03 0.  0.
          2    1    1    2  501    0  0.10157342893E+03 -0.29173855696E+02 -0.81286966542E+03  0.81971053933E+03  0.00000000000E+00 0. -1.
          1    1    1    2  502    0 -0.27354644229E+02 -0.38376805935E+02  0.26794098627E+03  0.27205409006E+03  0.00000000000E+00 0. -1.
         22    1    3    3    0    0 -0.69270490933E+02  0.80751988973E+01 -0.11309629707E+03  0.13286979402E+03  0.00000000000E+00 0.  1.
         22    1    3    3    0    0 -0.49482937704E+01  0.59475462734E+02 -0.40759466744E+03  0.41194080789E+03  0.00000000000E+00 0.  1.
</event>
<event>
 7    1  0.5667373E-006  0.7178233E+02  0.7818608E-02  0.1378057E+00
          2   -1    0    0  502    0  0.00000000000E+00  0.00000000000E+00  0.68155596667E+03  0.68155596667E+03  0.00000000000E+00 0. -1.
          1   -1    0    0  501    0 -0.00000000000E+00 -0.00000000000E+00 -0.37265518591E+03  0.37265518591E+03  0.00000000000E+00 0. -1.
         25    2    1    2    0    0  0.15314934038E+02 -0.27603330227E+02  0.14141297411E+02  0.12969467030E+03  0.12499696063E+03 0.  0.
          2    1    1    2  501    0 -0.73081413820E+02  0.16533563357E+02 -0.30897153146E+03  0.31792712847E+03  0.00000000000E+00 0. -1.
          1    1    1    2  502    0  0.57766479782E+02  0.11069766869E+02  0.60373101481E+03  0.60658935382E+03  0.00000000000E+00 0. -1.
         22    1    3    3    0    0  0.33080489983E+02  0.41367561874E+02  0.23337578014E+02  0.57881227876E+02  0.00000000000E+00 0. -1.
         22    1    3    3    0    0 -0.17765555945E+02 -0.68970892101E+02 -0.91962806031E+01  0.71813442419E+02  0.00000000000E+00 0. -1.
</event>
<event>
 7    1  0.5667373E-006  0.4073006E+02  0.7818608E-02  0.1548833E+00
          2   -1    0    0  502    0  0.00000000000E+00  0.00000000000E+00  0.13895686107E+04  0.13895686107E+04  0.00000000000E+00 0. -1.
          1   -1    0    0  501    0 -0.00000000000E+00 -0.00000000000E+00 -0.10619519346E+03  0.10619519346E+03  0.00000000000E+00 0. -1.
         25    2    1    2    0    0 -0.12101946049E+02 -0.17464106752E+02  0.16613412724E+03  0.20898930097E+03  0.12499811023E+03 0.  0.
          2    1    1    2  501    0 -0.28349824524E+02  0.99075808157E+01 -0.81743648282E+02  0.87085571380E+02  0.00000000000E+00 0. -1.
          1    1    1    2  502    0  0.40451770572E+02  0.75565259364E+01  0.11989829382E+04  0.11996889318E+04  0.00000000000E+00 0. -1.
         22    1    3    3    0    0 -0.10550604698E+02 -0.71391725015E+02  0.84289842502E+02  0.11096337778E+03  0.00000000000E+00 0.  1.
         22    1    3    3    0    0 -0.15513413503E+01  0.53927618263E+02  0.81844284738E+02  0.98025923182E+02  0.00000000000E+00 0.  1.
</event>
<event>
 7    1  0.5667373E-006  0.4631771E+02  0.7818608E-02  0.1517323E+00
          2   -1    0    0  502    0  0.00000000000E+00  0.00000000000E+00  0.24464906296E+03  0.24464906296E+03  0.00000000000E+00 0. -1.
          1   -1    0    0  501    0 -0.00000000000E+00 -0.00000000000E+00 -0.13772714273E+04  0.13772714273E+04  0.00000000000E+00 0. -1.
         25    2    1    2    0    0  0.24377215298E+02 -0.49355813364E+01  0.12566533074E+03  0.17898338274E+03  0.12499866943E+03 0.  0.
          2    1    1    2  501    0  0.27105878679E+02  0.17899829382E+02 -0.13427674613E+04  0.13431602986E+04  0.00000000000E+00 0. -1.
          1    1    1    2  502    0 -0.51483093978E+02 -0.12964248045E+02  0.84479766242E+02  0.99776808915E+02  0.00000000000E+00 0. -1.
         22    1    3    3    0    0 -0.28818570211E+02  0.45680062433E+02  0.54355631824E+02  0.76627102280E+02  0.00000000000E+00 0.  1.
         22    1    3    3    0    0  0.53195785509E+02 -0.50615643769E+02  0.71309698913E+02  0.10235628046E+03  0.00000000000E+00 0.  1.
</event>
<event>
 7    1  0.5667373E-006  0.5848460E+02  0.7818608E-02  0.1470136E+00
          2   -1    0    0  502    0  0.00000000000E+00  0.00000000000E+00  0.34667503724E+03  0.34667503724E+03  0.00000000000E+00 0. -1.
          1   -1    0    0  501    0 -0.00000000000E+00 -0.00000000000E+00 -0.27836509431E+03  0.27836509431E+03  0.00000000000E+00 0. -1.
         25    2    1    2    0    0  0.69311930802E+02 -0.26369556319E+01  0.14490183798E+03  0.20356128502E+03  0.12501822595E+03 0.  0.
          2    1    1    2  501    0 -0.48961128377E+02  0.31944195399E+02 -0.24369497497E+03  0.25060898734E+03  0.00000000000E+00 0. -1.
          1    1    1    2  502    0 -0.20350802425E+02 -0.29307239767E+02  0.16710307992E+03  0.17086985919E+03  0.00000000000E+00 0. -1.
         22    1    3    3    0    0  0.25305134381E+02  0.14293701034E+02 -0.17856710412E+02  0.34110435677E+02  0.00000000000E+00 0.  1.
         22    1    3    3    0    0  0.44006796421E+02 -0.16930656666E+02  0.16275854839E+03  0.16945084934E+03  0.00000000000E+00 0.  1.
</event>
<event>
 7    1  0.5667373E-006  0.1249445E+03  0.7818608E-02  0.1364955E+00
          2   -1    0    0  502    0  0.00000000000E+00  0.00000000000E+00  0.15297393952E+04  0.15297393952E+04  0.00000000000E+00 0. -1.
          1   -1    0    0  501    0 -0.00000000000E+00 -0.00000000000E+00 -0.74668043380E+03  0.74668043380E+03  0.00000000000E+00 0. -1.
         25    2    1    2    0    0  0.64111779524E+02  0.68780945621E+02  0.95362713728E+02  0.18319412248E+03  0.12499960235E+03 0.  0.
          2    1    1    2  501    0 -0.10114675581E+03 -0.75575977633E+02 -0.69683539730E+03  0.70818215562E+03  0.00000000000E+00 0. -1.
          1    1    1    2  502    0  0.37034976284E+02  0.67950320116E+01  0.13845316449E+04  0.13850435509E+04  0.00000000000E+00 0. -1.
         22    1    3    3    0    0  0.47957512612E+02  0.99070151566E+02  0.99805805338E+02  0.14858000110E+03  0.00000000000E+00 0.  1.
         22    1    3    3    0    0  0.16154266912E+02 -0.30289205945E+02 -0.44430916099E+01  0.34614121386E+02  0.00000000000E+00 0.  1.
</event>
<event>
 7    1  0.5667373E-006  0.1113102E+03  0.7818608E-02  0.1286051E+00
          2   -1    0    0  502    0  0.00000000000E+00  0.00000000000E+00  0.13281187124E+03  0.13281187124E+03  0.00000000000E+00 0. -1.
          1   -1    0    0  501    0 -0.00000000000E+00 -0.00000000000E+00 -0.27567734145E+03  0.27567734145E+03  0.00000000000E+00 0. -1.
         25    2    1    2    0    0 -0.27995287741E+02  0.31729935208E+02 -0.50990107497E+02  0.14147964931E+03  0.12500390067E+03 0.  0.
          2    1    1    2  501    0  0.12878682149E+03  0.15503743604E+02 -0.85817367237E+02  0.15553466487E+03  0.00000000000E+00 0. -1.
          1    1    1    2  502    0 -0.10079153375E+03 -0.47233678812E+02 -0.60579954790E+01  0.11147489851E+03  0.00000000000E+00 0. -1.
         22    1    3    3    0    0 -0.54148014446E+02  0.65595785034E+02 -0.16781312134E+02  0.86697329368E+02  0.00000000000E+00 0.  1.
         22    1    3    3    0    0  0.26152726705E+02 -0.33865849826E+02 -0.34208795363E+02  0.54782319947E+02  0.00000000000E+00 0.  1.
</event>
<event>
 7    1  0.5667373E-006  0.9088075E+02  0.7818608E-02  0.1342507E+00
          2   -1    0    0  502    0  0.00000000000E+00  0.00000000000E+00  0.59500750781E+03  0.59500750781E+03  0.00000000000E+00 0. -1.
          1   -1    0    0  501    0 -0.00000000000E+00 -0.00000000000E+00 -0.26955381458E+04  0.26955381458E+04  0.00000000000E+00 0. -1.
         25    2    1    2    0    0  0.13392222128E+03  0.66478302081E+02 -0.30236516334E+03  0.35972832923E+03  0.12500101138E+03 0.  0.
          2    1    1    2  501    0 -0.84828703361E+02 -0.27594948764E+02 -0.23619154872E+04  0.23635994075E+04  0.00000000000E+00 0. -1.
          1    1    1    2  502    0 -0.49093517917E+02 -0.38883353317E+02  0.56375001255E+03  0.56721791696E+03  0.00000000000E+00 0. -1.
         22    1    3    3    0    0  0.93099831892E+02  0.80858239100E+02 -0.28935444152E+03  0.31453398283E+03  0.00000000000E+00 0. -1.
         22    1    3    3    0    0  0.40822389386E+02 -0.14379937020E+02 -0.13010721823E+02  0.45194346397E+02  0.00000000000E+00 0. -1.
</event>
<event>
 7    1  0.5667373E-006  0.2314050E+03  0.7818608E-02  0.1203352E+00
          2   -1    0    0  502    0  0.00000000000E+00  0.00000000000E+00  0.26482933894E+04  0.26482933894E+04  0.00000000000E+00 0. -1.
          1   -1    0    0  501    0 -0.00000000000E+00 -0.00000000000E+00 -0.13881788869E+04  0.13881788869E+04  0.00000000000E+00 0. -1.
         25    2    1    2    0    0 -0.21418504550E+03  0.13266470214E+03  0.65841926164E+03  0.71597235775E+03  0.12500134424E+03 0.  0.
          2    1    1    2  501    0  0.13685938363E+03 -0.18655029434E+03 -0.13484113049E+04  0.13681171552E+04  0.00000000000E+00 0. -1.
          1    1    1    2  502    0  0.77325661875E+02  0.53885592200E+02  0.19501065457E+04  0.19523827634E+04  0.00000000000E+00 0. -1.
         22    1    3    3    0    0 -0.52505877478E+01 -0.14013430404E+02  0.11042841936E+03  0.11143778850E+03  0.00000000000E+00 0. -1.
         22    1    3    3    0    0 -0.20893445775E+03  0.14667813254E+03  0.54799084228E+03  0.60453456926E+03  0.00000000000E+00 0. -1.
</event>
<event>
 7    1  0.5667373E-006  0.6385221E+02  0.7818608E-02  0.1484503E+00
          2   -1    0    0  502    0  0.00000000000E+00  0.00000000000E+00  0.11347176443E+03  0.11347176443E+03  0.00000000000E+00 0. -1.
          1   -1    0    0  501    0 -0.00000000000E+00 -0.00000000000E+00 -0.15399620386E+03  0.15399620386E+03  0.00000000000E+00 0. -1.
         25    2    1    2    0    0 -0.58035407184E+02  0.33134883119E+02  0.22381112636E+02  0.14349899656E+03  0.12500007538E+03 0.  0.
          2    1    1    2  501    0  0.64149607753E+02 -0.42593867102E+01 -0.68481710482E+02  0.93931140846E+02  0.00000000000E+00 0. -1.
          1    1    1    2  502    0 -0.61142005697E+01 -0.28875496409E+02  0.55761584102E+01  0.30037830882E+02  0.00000000000E+00 0. -1.
         22    1    3    3    0    0 -0.68014410299E+02  0.75261652906E+01 -0.37197739566E+02  0.77886295335E+02  0.00000000000E+00 0. -1.
         22    1    3    3    0    0  0.99790031148E+01  0.25608717829E+02  0.59578852202E+02  0.65612701223E+02  0.00000000000E+00 0. -1.
</event>
<event>
 7    1  0.5667373E-006  0.1143680E+03  0.7818608E-02  0.1297530E+00
          2   -1    0    0  502    0  0.00000000000E+00  0.00000000000E+00  0.32468762939E+03  0.32468762939E+03  0.00000000000E+00 0. -1.
          1   -1    0    0  501    0 -0.00000000000E+00 -0.00000000000E+00 -0.97870177783E+03  0.97870177783E+03  0.00000000000E+00 0. -1.
         25    2    1    2    0    0  0.33394730409E+02  0.13910387715E+03 -0.46810930347E+03  0.50518920173E+03  0.12499885154E+03 0.  0.
          2    1    1    2  501    0 -0.67942073944E+02 -0.30278440514E+02 -0.47843214766E+03  0.48417995548E+03  0.00000000000E+00 0. -1.
          1    1    1    2  502    0  0.34547343535E+02 -0.10882543663E+03  0.29252730269E+03  0.31402025002E+03  0.00000000000E+00 0. -1.
         22    1    3    3    0    0 -0.58701730008E+01  0.13231458179E+02  0.39961313537E+01  0.15016640183E+02  0.00000000000E+00 0. -1.
         22    1    3    3    0    0  0.39264903410E+02  0.12587241897E+03 -0.47210543483E+03  0.49017256154E+03  0.00000000000E+00 0. -1.
</event>
<event>
 7    1  0.5667373E-006  0.7296710E+02  0.7818608E-02  0.1368522E+00
          2   -1    0    0  502    0  0.00000000000E+00  0.00000000000E+00  0.22925118150E+04  0.22925118150E+04  0.00000000000E+00 0. -1.
          1   -1    0    0  501    0 -0.00000000000E+00 -0.00000000000E+00 -0.90055020665E+02  0.90055020665E+02  0.00000000000E+00 0. -1.
         25    2    1    2    0    0  0.29946997143E+02  0.68674738713E+02  0.29309778385E+03  0.32733044234E+03  0.12500346079E+03 0.  0.
          2    1    1    2  501    0 -0.62547055844E+02 -0.23243736293E+01 -0.58688218026E+02  0.85801187886E+02  0.00000000000E+00 0. -1.
          1    1    1    2  502    0  0.32600058701E+02 -0.66350365083E+02  0.19680472285E+04  0.19694352055E+04  0.00000000000E+00 0. -1.
         22    1    3    3    0    0  0.30964776006E+02  0.87931627913E+02  0.11430429491E+03  0.14750003517E+03  0.00000000000E+00 0. -1.
         22    1    3    3    0    0 -0.10177788631E+01 -0.19256889200E+02  0.17879348894E+03  0.17983040717E+03  0.00000000000E+00 0. -1.
</event>
<event>
 7    1  0.5667373E-006  0.5848277E+02  0.7818608E-02  0.1477569E+00
          2   -1    0    0  502    0  0.00000000000E+00  0.00000000000E+00  0.35760912983E+04  0.35760912983E+04  0.00000000000E+00 0. -1.
          1   -1    0    0  501    0 -0.00000000000E+00 -0.00000000000E+00 -0.87694903390E+01  0.87694903390E+01  0.00000000000E+00 0. -1.
         25    2    1    2    0    0 -0.49266048213E+02  0.63721734877E+02  0.95278864326E+03  0.96432395815E+03  0.12500757786E+03 0.  0.
          2    1    1    2  501    0  0.32717025707E+02 -0.86483301180E+01  0.10445504853E+03  0.10980006625E+03  0.00000000000E+00 0. -1.
          1    1    1    2  502    0  0.16549022506E+02 -0.55073404759E+02  0.25100781162E+04  0.25107367643E+04  0.00000000000E+00 0. -1.
         22    1    3    3    0    0 -0.38767491334E+02 -0.32247243583E+02  0.40034438502E+03  0.40350765757E+03  0.00000000000E+00 0. -1.
         22    1    3    3    0    0 -0.10498556879E+02  0.95968978460E+02  0.55244425824E+03  0.56081630057E+03  0.00000000000E+00 0. -1.
</event>
<event>
 7    1  0.5667373E-006  0.8189517E+02  0.7818608E-02  0.1367282E+00
          2   -1    0    0  502    0  0.00000000000E+00  0.00000000000E+00  0.10378983983E+04  0.10378983983E+04  0.00000000000E+00 0. -1.
          1   -1    0    0  501    0 -0.00000000000E+00 -0.00000000000E+00 -0.80441299694E+03  0.80441299694E+03  0.00000000000E+00 0. -1.
         25    2    1    2    0    0 -0.48559266678E+02  0.10939914069E+03 -0.12748991973E+03  0.21495285522E+03  0.12499950388E+03 0.  0.
          2    1    1    2  501    0  0.59270914703E+02 -0.54082730223E+02 -0.62984614774E+03  0.63493633765E+03  0.00000000000E+00 0. -1.
          1    1    1    2  502    0 -0.10711648026E+02 -0.55316410469E+02  0.99082146881E+03  0.99242220235E+03  0.00000000000E+00 0. -1.
         22    1    3    3    0    0 -0.38162587921E+02  0.12561732687E+03 -0.59233995455E+02  0.14403042090E+03  0.00000000000E+00 0. -1.
         22    1    3    3    0    0 -0.10396678756E+02 -0.16218186174E+02 -0.68255924274E+02  0.70922434324E+02  0.00000000000E+00 0. -1.
</event>
<event>
 7    1  0.5667373E-006  0.8010900E+02  0.7818608E-02  0.1411497E+00
          2   -1    0    0  502    0  0.00000000000E+00  0.00000000000E+00  0.12874482780E+04  0.12874482780E+04  0.00000000000E+00 0. -1.
          1   -1    0    0  501    0 -0.00000000000E+00 -0.00000000000E+00 -0.99492700771E+03  0.99492700771E+03  0.00000000000E+00 0. -1.
         25    2    1    2    0    0  0.78523996740E+02  0.41355089952E+02  0.21701113364E+03  0.26569826169E+03  0.12500189044E+03 0.  0.
          2    1    1    2  501    0 -0.46165784618E+02 -0.65477187088E+02 -0.96853960524E+03  0.97184747189E+03  0.00000000000E+00 0. -1.
          1    1    1    2  502    0 -0.32358212122E+02  0.24122097136E+02  0.10440497418E+04  0.10448295521E+04  0.00000000000E+00 0. -1.
         22    1    3    3    0    0 -0.87616988819E+01 -0.35140473286E+02  0.39280134871E+02  0.53427981672E+02  0.00000000000E+00 0. -1.
         22    1    3    3    0    0  0.87285695622E+02  0.76495563238E+02  0.17773099877E+03  0.21227028002E+03  0.00000000000E+00 0. -1.
</event>
<event>
 7    1  0.5667373E-006  0.1276440E+03  0.7818608E-02  0.1400486E+00
          2   -1    0    0  502    0  0.00000000000E+00  0.00000000000E+00  0.11302215206E+03  0.11302215206E+03  0.00000000000E+00 0. -1.
          1   -1    0    0  501    0 -0.00000000000E+00 -0.00000000000E+00 -0.13731726194E+04  0.13731726194E+04  0.00000000000E+00 0. -1.
         25    2    1    2    0    0 -0.59006868072E+02  0.13372307169E+03 -0.84523992111E+03  0.86684463640E+03  0.12500171618E+03 0.  0.
          2    1    1    2  501    0 -0.84531629846E+01 -0.26290635060E+02 -0.47721904055E+03  0.47801743286E+03  0.00000000000E+00 0. -1.
          1    1    1    2  502    0  0.67460031057E+02 -0.10743243663E+03  0.62308494351E+02  0.14133270216E+03  0.00000000000E+00 0. -1.
         22    1    3    3    0    0  0.24245103076E+02  0.24355533298E+01 -0.26574824358E+03  0.26686304710E+03  0.00000000000E+00 0.  1.
         22    1    3    3    0    0 -0.83251971149E+02  0.13128751836E+03 -0.57949167753E+03  0.59998158931E+03  0.00000000000E+00 0.  1.
</event>
<event>
 7    1  0.5667373E-006  0.1106506E+03  0.7818608E-02  0.1377273E+00
          2   -1    0    0  502    0  0.00000000000E+00  0.00000000000E+00  0.45155203537E+03  0.45155203537E+03  0.00000000000E+00 0. -1.
          1   -1    0    0  501    0 -0.00000000000E+00 -0.00000000000E+00 -0.18652654853E+04  0.18652654853E+04  0.00000000000E+00 0. -1.
         25    2    1    2    0    0  0.89195444133E+02 -0.34113811132E+02  0.17354811274E+02  0.15826002355E+03  0.12500186485E+03 0.  0.
          2    1    1    2  501    0 -0.11102556844E+03  0.25199602652E+01 -0.17920756486E+04  0.17955133409E+04  0.00000000000E+00 0. -1.
          1    1    1    2  502    0  0.21830124307E+02  0.31593850867E+02  0.36100738731E+03  0.36304415631E+03  0.00000000000E+00 0. -1.
         22    1    3    3    0    0 -0.70162061449E+01 -0.25739138565E+02 -0.38390950278E+02  0.46750352576E+02  0.00000000000E+00 0.  1.
         22    1    3    3    0    0  0.96211650278E+02 -0.83746725676E+01  0.55745761552E+02  0.11150967097E+03  0.00000000000E+00 0.  1.
</event>
<event>
 7    1  0.5667373E-006  0.7580527E+02  0.7818608E-02  0.1361759E+00
          2   -1    0    0  502    0  0.00000000000E+00  0.00000000000E+00  0.39838394088E+03  0.39838394088E+03  0.00000000000E+00 0. -1.
          1   -1    0    0  501    0 -0.00000000000E+00 -0.00000000000E+00 -0.35435861168E+03  0.35435861168E+03  0.00000000000E+00 0. -1.
         25    2    1    2    0    0  0.24724768845E+01  0.22420260658E+02 -0.24585003239E+02  0.12938161915E+03  0.12500559891E+03 0.  0.
          2    1    1    2  501    0 -0.48069190520E+02 -0.66962058930E+02 -0.26819527445E+03  0.28057667339E+03  0.00000000000E+00 0. -1.
          1    1    1    2  502    0  0.45596713636E+02  0.44541798272E+02  0.33680560689E+03  0.34278426002E+03  0.00000000000E+00 0. -1.
         22    1    3    3    0    0 -0.29763001130E+02  0.65007847302E+02 -0.23768787480E+01  0.71536745800E+02  0.00000000000E+00 0.  1.
         22    1    3    3    0    0  0.32235478015E+02 -0.42587586644E+02 -0.22208124491E+02  0.57844873346E+02  0.00000000000E+00 0.  1.
</event>
<event>
 7    1  0.5667373E-006  0.6608507E+02  0.7818608E-02  0.1460834E+00
          2   -1    0    0  502    0  0.00000000000E+00  0.00000000000E+00  0.53633420307E+03  0.53633420307E+03  0.00000000000E+00 0. -1.
          1   -1    0    0  501    0 -0.00000000000E+00 -0.00000000000E+00 -0.98907325120E+02  0.98907325120E+02  0.00000000000E+00 0. -1.
         25    2    1    2    0    0  0.36313022446E+02 -0.29180637289E+01  0.10297437853E+03  0.16600341394E+03  0.12500504034E+03 0.  0.
          2    1    1    2  501    0 -0.70075860362E+02  0.34053446135E+01 -0.48186175066E+02  0.85112455287E+02  0.00000000000E+00 0. -1.
          1    1    1    2  502    0  0.33762837916E+02 -0.48728088463E+00  0.38263867449E+03  0.38412565897E+03  0.00000000000E+00 0. -1.
         22    1    3    3    0    0 -0.36052237461E+02  0.20668117742E+02  0.48768809037E+01  0.41841592756E+02  0.00000000000E+00 0.  1.
         22    1    3    3    0    0  0.72365259907E+02 -0.23586181471E+02  0.98097497629E+02  0.12416182118E+03  0.00000000000E+00 0.  1.
</event>
<event>
 7    1  0.5667373E-006  0.7246900E+02  0.7818608E-02  0.1427580E+00
          2   -1    0    0  502    0  0.00000000000E+00  0.00000000000E+00  0.17162635347E+04  0.17162635347E+04  0.00000000000E+00 0. -1.
          1   -1    0    0  501    0 -0.00000000000E+00 -0.00000000000E+00 -0.63397305779E+02  0.63397305779E+02  0.00000000000E+00 0. -1.
         25    2    1    2    0    0 -0.58954384782E+02 -0.48143475551E+02  0.13605710945E+03  0.19982521193E+03  0.12500065827E+03 0.  0.
          2    1    1    2  501    0  0.72832156520E+02  0.11246421471E+02  0.12185857446E+02  0.74696051709E+02  0.00000000000E+00 0. -1.
          1    1    1    2  502    0 -0.13877771738E+02  0.36897054081E+02  0.15046232620E+04  0.15051395768E+04  0.00000000000E+00 0. -1.
         22    1    3    3    0    0 -0.71025154733E+02  0.11564929461E+02  0.30934227559E+02  0.78327815193E+02  0.00000000000E+00 0.  1.
         22    1    3    3    0    0  0.12070769951E+02 -0.59708405013E+02  0.10512288189E+03  0.12149739674E+03  0.00000000000E+00 0.  1.
</event>
<event>
 7    1  0.5667373E-006  0.5657803E+02  0.7818608E-02  0.1559311E+00
          2   -1    0    0  502    0  0.00000000000E+00  0.00000000000E+00  0.88311180212E+03  0.88311180212E+03  0.00000000000E+00 0. -1.
          1   -1    0    0  501    0 -0.00000000000E+00 -0.00000000000E+00 -0.66622587683E+02  0.66622587683E+02  0.00000000000E+00 0. -1.
         25    2    1    2    0    0 -0.52494055865E+02 -0.39775697576E+02  0.11395293432E+03  0.18151614235E+03  0.12500042670E+03 0.  0.
          2    1    1    2  501    0  0.19361801377E+02 -0.58263230793E+01 -0.28537597393E+02  0.34974560157E+02  0.00000000000E+00 0. -1.
          1    1    1    2  502    0  0.33132254488E+02  0.45602020655E+02  0.73107387751E+03  0.73324368729E+03  0.00000000000E+00 0. -1.
         22    1    3    3    0    0 -0.42624484284E+02 -0.83204518552E+02  0.58058665182E+02  0.11004838559E+03  0.00000000000E+00 0. -1.
         22    1    3    3    0    0 -0.98695715808E+01  0.43428820976E+02  0.55894269138E+02  0.71467756765E+02  0.00000000000E+00 0. -1.
</event>
<event>
 7    1  0.5667373E-006  0.1577174E+03  0.7818608E-02  0.1255835E+00
          2   -1    0    0  502    0  0.00000000000E+00  0.00000000000E+00  0.24412785715E+04  0.24412785715E+04  0.00000000000E+00 0. -1.
          1   -1    0    0  501    0 -0.00000000000E+00 -0.00000000000E+00 -0.10104611191E+03  0.10104611191E+03  0.00000000000E+00 0. -1.
         25    2    1    2    0    0  0.10006841230E+03  0.33751277213E+02  0.37437059902E+03  0.40857285819E+03  0.12500239671E+03 0.  0.
          2    1    1    2  501    0  0.31062042903E+02  0.74140823723E+02 -0.60299187102E+02  0.10048733361E+03  0.00000000000E+00 0. -1.
          1    1    1    2  502    0 -0.13113045521E+03 -0.10789210094E+03  0.20261610477E+04  0.20332644916E+04  0.00000000000E+00 0. -1.
         22    1    3    3    0    0  0.65592106018E+02 -0.29786502418E+02  0.28321237291E+03  0.29223074491E+03  0.00000000000E+00 0. -1.
         22    1    3    3    0    0  0.34476306287E+02  0.63537779631E+02  0.91158226110E+02  0.11634211328E+03  0.00000000000E+00 0. -1.
</event>
<event>
 7    1  0.5667373E-006  0.6607348E+02  0.7818608E-02  0.1502240E+00
          2   -1    0    0  502    0  0.00000000000E+00  0.00000000000E+00  0.14504972390E+04  0.14504972390E+04  0.00000000000E+00 0. -1.
          1   -1    0    0  501    0 -0.00000000000E+00 -0.00000000000E+00 -0.15174630475E+04  0.15174630475E+04  0.00000000000E+00 0. -1.
         25    2    1    2    0    0 -0.53741376934E+02  0.16344392079E+02  0.10707503658E+04  0.10794842762E+04  0.12499872760E+03 0.  0.
          2    1    1    2  501    0 -0.21787888290E+02 -0.12706422269E+02 -0.15091815694E+04  0.15093923197E+04  0.00000000000E+00 0. -1.
          1    1    1    2  502    0  0.75529265223E+02 -0.36379698100E+01  0.37146539508E+03  0.37908369059E+03  0.00000000000E+00 0. -1.
         22    1    3    3    0    0 -0.12534779214E+02 -0.30617048771E+02  0.77438572494E+02  0.84209600850E+02  0.00000000000E+00 0. -1.
         22    1    3    3    0    0 -0.41206597720E+02  0.46961440851E+02  0.99331179336E+03  0.99527467537E+03  0.00000000000E+00 0. -1.
</event>
<event>
 7    1  0.5667373E-006  0.7921587E+02  0.7818608E-02  0.1408120E+00
          2   -1    0    0  502    0  0.00000000000E+00  0.00000000000E+00  0.40943650869E+03  0.40943650869E+03  0.00000000000E+00 0. -1.
          1   -1    0    0  501    0 -0.00000000000E+00 -0.00000000000E+00 -0.12409414491E+04  0.12409414491E+04  0.00000000000E+00 0. -1.
         25    2    1    2    0    0  0.67038147804E+02  0.18321734781E+02 -0.19930711049E+02  0.14440341726E+03  0.12500125778E+03 0.  0.
          2    1    1    2  501    0 -0.11980336136E+02  0.40156004565E+02 -0.11537438868E+04  0.11545046512E+04  0.00000000000E+00 0. -1.
          1    1    1    2  502    0 -0.55057811669E+02 -0.58477739347E+02  0.34216965748E+03  0.35146988936E+03  0.00000000000E+00 0. -1.
         22    1    3    3    0    0 -0.11141948896E+01  0.61449034188E+02 -0.16697037568E+02  0.63686861254E+02  0.00000000000E+00 0. -1.
         22    1    3    3    0    0  0.68152342694E+02 -0.43127299406E+02 -0.32336734816E+01  0.80716556003E+02  0.00000000000E+00 0. -1.
</event>
<event>
 7    1  0.5667373E-006  0.9255864E+02  0.7818608E-02  0.1341084E+00
          2   -1    0    0  502    0  0.00000000000E+00  0.00000000000E+00  0.20165055854E+04  0.20165055854E+04  0.00000000000E+00 0. -1.
          1   -1    0    0  501    0 -0.00000000000E+00 -0.00000000000E+00 -0.16682779239E+03  0.16682779239E+03  0.00000000000E+00 0. -1.
         25    2    1    2    0    0 -0.72588120176E+00  0.10598337761E+03 -0.66694148203E+02  0.17693572086E+03  0.12500054671E+03 0.  0.
          2    1    1    2  501    0  0.54303376233E+02 -0.30437260382E+02 -0.21841838151E+02  0.65972338019E+02  0.00000000000E+00 0. -1.
          1    1    1    2  502    0 -0.53577495031E+02 -0.75546117223E+02  0.19382137793E+04  0.19404253189E+04  0.00000000000E+00 0. -1.
         22    1    3    3    0    0  0.26157124116E+00  0.12660303762E+03 -0.82347975110E+02  0.15102842964E+03  0.00000000000E+00 0.  1.
         22    1    3    3    0    0 -0.98745244292E+00 -0.20619660015E+02  0.15653826907E+02  0.25907291219E+02  0.00000000000E+00 0.  1.
</event>
<event>
 7    1  0.5667373E-006  0.1298415E+03  0.7818608E-02  0.1338026E+00
          2   -1    0    0  502    0  0.00000000000E+00  0.00000000000E+00  0.77741343357E+03  0.77741343357E+03  0.00000000000E+00 0. -1.
          1   -1    0    0  501    0 -0.00000000000E+00 -0.00000000000E+00 -0.17669565199E+04  0.17669565199E+04  0.00000000000E+00 0. -1.
         25    2    1    2    0    0 -0.44679550618E+02 -0.14962270293E+03  0.23012963255E+03  0.30490028703E+03  0.12498528624E+03 0.  0.
          2    1    1    2  501    0  0.37475932369E+01  0.12959589393E+03 -0.17261171147E+04  0.17309793279E+04  0.00000000000E+00 0. -1.
          1    1    1    2  502    0  0.40931957381E+02  0.20026809000E+02  0.50644439585E+03  0.50849033845E+03  0.00000000000E+00 0. -1.
         22    1    3    3    0    0 -0.62385987825E+02 -0.16454486288E+03  0.19337109554E+03  0.26145631369E+03  0.00000000000E+00 0.  1.
         22    1    3    3    0    0  0.17706437207E+02  0.14922159952E+02  0.36758537006E+02  0.43443973334E+02  0.00000000000E+00 0.  1.
</event>
<event>
 7    1  0.5667373E-006  0.1011642E+03  0.7818608E-02  0.1316702E+00
          2   -1    0    0  502    0  0.00000000000E+00  0.00000000000E+00  0.26148768703E+04  0.26148768703E+04  0.00000000000E+00 0. -1.
          1   -1    0    0  501    0 -0.00000000000E+00 -0.00000000000E+00 -0.71824028955E+03  0.71824028955E+03  0.00000000000E+00 0. -1.
         25    2    1    2    0    0 -0.71134876189E+02 -0.13751720239E+03  0.51182040709E+03  0.54914090192E+03  0.12499779793E+03 0.  0.
          2    1    1    2  501    0 -0.93376471190E+00  0.70601994782E+02 -0.69663448487E+03  0.70020362688E+03  0.00000000000E+00 0. -1.
          1    1    1    2  502    0  0.72068640901E+02  0.66915207605E+02  0.20814506585E+04  0.20837726310E+04  0.00000000000E+00 0. -1.
         22    1    3    3    0    0 -0.51986872268E+02 -0.88126483485E+02  0.47175468884E+03  0.48272290024E+03  0.00000000000E+00 0.  1.
         22    1    3    3    0    0 -0.19148003921E+02 -0.49390718901E+02  0.40065718253E+02  0.66418001678E+02  0.00000000000E+00 0.  1.
</event>
<event>
 7    1  0.5667373E-006  0.4476257E+02  0.7818608E-02  0.1524769E+00
          2   -1    0    0  502    0  0.00000000000E+00  0.00000000000E+00  0.59098319116E+03  0.59098319116E+03  0.00000000000E+00 0. -1.
          1   -1    0    0  501    0 -0.00000000000E+00 -0.00000000000E+00 -0.75645487430E+02  0.75645487430E+02  0.00000000000E+00 0. -1.
         25    2    1    2    0    0  0.62685853922E+02 -0.42014335362E+01  0.20528646475E+03  0.24842585731E+03  0.12500282254E+03 0.  0.
          2    1    1    2  501    0 -0.37402595573E+02  0.23785570224E+02 -0.44149598669E+02  0.62561126661E+02  0.00000000000E+00 0. -1.
          1    1    1    2  502    0 -0.25283258348E+02 -0.19584136688E+02  0.35420083765E+03  0.35564169462E+03  0.00000000000E+00 0. -1.
         22    1    3    3    0    0  0.95164497203E+02  0.97161264319E+01  0.18343704562E+03  0.20688120830E+03  0.00000000000E+00 0. -1.
         22    1    3    3    0    0 -0.32478643282E+02 -0.13917559968E+02  0.21849419127E+02  0.41544649006E+02  0.00000000000E+00 0. -1.
</event>
<event>
 7    1  0.5667373E-006  0.7029826E+02  0.7818608E-02  0.1414740E+00
          2   -1    0    0  502    0  0.00000000000E+00  0.00000000000E+00  0.10475849711E+04  0.10475849711E+04  0.00000000000E+00 0. -1.
          1   -1    0    0  501    0 -0.00000000000E+00 -0.00000000000E+00 -0.12563906858E+04  0.12563906858E+04  0.00000000000E+00 0. -1.
         25    2    1    2    0    0 -0.86722679698E+01 -0.42859778064E+02 -0.10500365977E+03  0.16900766243E+03  0.12500261031E+03 0.  0.
          2    1    1    2  501    0 -0.30479474510E+02  0.64734488400E+02 -0.11177454499E+04  0.11200332330E+04  0.00000000000E+00 0. -1.
          1    1    1    2  502    0  0.39151742480E+02 -0.21874710336E+02  0.10139433949E+04  0.10149347615E+04  0.00000000000E+00 0. -1.
         22    1    3    3    0    0 -0.46803880679E+02 -0.12797651013E+02  0.49852568908E+01  0.48777411825E+02  0.00000000000E+00 0.  1.
         22    1    3    3    0    0  0.38131612709E+02 -0.30062127051E+02 -0.10998891666E+03  0.12023025060E+03  0.00000000000E+00 0.  1.
</event>
<event>
 7    1  0.5667373E-006  0.1102727E+03  0.7818608E-02  0.1282750E+00
          2   -1    0    0  502    0  0.00000000000E+00  0.00000000000E+00  0.15313270087E+03  0.15313270087E+03  0.00000000000E+00 0. -1.
          1   -1    0    0  501    0 -0.00000000000E+00 -0.00000000000E+00 -0.19281120730E+04  0.19281120730E+04  0.00000000000E+00 0. -1.
         25    2    1    2    0    0  0.65529998459E+02 -0.16773262057E+03 -0.62492796168E+02  0.22794508845E+03  0.12500080429E+03 0.  0.
          2    1    1    2  501    0 -0.14659113589E+02  0.87374926766E+02 -0.17491344792E+04  0.17513767995E+04  0.00000000000E+00 0. -1.
          1    1    1    2  502    0 -0.50870884870E+02  0.80357693805E+02  0.36647903186E+02  0.10192288599E+03  0.00000000000E+00 0. -1.
         22    1    3    3    0    0  0.33179202081E+01 -0.14704557384E+03 -0.68220369834E+02  0.16213398237E+03  0.00000000000E+00 0.  1.
         22    1    3    3    0    0  0.62212078250E+02 -0.20687046733E+02  0.57275736660E+01  0.65811106076E+02  0.00000000000E+00 0.  1.
</event>
<event>
 7    1  0.5667373E-006  0.1597748E+03  0.7818608E-02  0.1245980E+00
          2   -1    0    0  502    0  0.00000000000E+00  0.00000000000E+00  0.20151228752E+04  0.20151228752E+04  0.00000000000E+00 0. -1.
          1   -1    0    0  501    0 -0.00000000000E+00 -0.00000000000E+00 -0.81337558552E+03  0.81337558552E+03  0.00000000000E+00 0. -1.
         25    2    1    2    0    0 -0.97641106466E+02 -0.39901197917E+02  0.60621653798E+02  0.17444459404E+03  0.12502015923E+03 0.  0.
          2    1    1    2  501    0  0.16394026638E+03 -0.17270732364E+02 -0.74645669159E+03  0.76444246451E+03  0.00000000000E+00 0. -1.
          1    1    1    2  502    0 -0.66299159911E+02  0.57171930281E+02  0.18875823275E+04  0.18896114022E+04  0.00000000000E+00 0. -1.
         22    1    3    3    0    0 -0.63277716453E+02 -0.83225326551E+02  0.56880376859E+02  0.11902059339E+03  0.00000000000E+00 0. -1.
         22    1    3    3    0    0 -0.34363390013E+02  0.43324128635E+02  0.37412769387E+01  0.55424000652E+02  0.00000000000E+00 0. -1.
</event>
<event>
 7    1  0.5667373E-006  0.3595887E+02  0.7818608E-02  0.1607998E+00
          2   -1    0    0  502    0  0.00000000000E+00  0.00000000000E+00  0.17269526601E+04  0.17269526601E+04  0.00000000000E+00 0. -1.
          1   -1    0    0  501    0 -0.00000000000E+00 -0.00000000000E+00 -0.81354469999E+02  0.81354469999E+02  0.00000000000E+00 0. -1.
         25    2    1    2    0    0 -0.92959670169E+01 -0.22171842872E+02  0.38096164811E+02  0.13287851373E+03  0.12500950372E+03 0.  0.
          2    1    1    2  501    0  0.20202886107E+02 -0.12170367378E+02 -0.29646341735E+02  0.37883769974E+02  0.00000000000E+00 0. -1.
          1    1    1    2  502    0 -0.10906919090E+02  0.34342210249E+02  0.16371483671E+04  0.16375448464E+04  0.00000000000E+00 0. -1.
         22    1    3    3    0    0  0.32922945209E+02 -0.11825691201E+02  0.70472804177E+02  0.78677718715E+02  0.00000000000E+00 0.  1.
         22    1    3    3    0    0 -0.42218912226E+02 -0.10346151671E+02 -0.32376639366E+02  0.54200795018E+02  0.00000000000E+00 0.  1.
</event>
<event>
 7    1  0.5667373E-006  0.4817202E+02  0.7818608E-02  0.1559151E+00
          2   -1    0    0  502    0  0.00000000000E+00  0.00000000000E+00  0.43333090974E+03  0.43333090974E+03  0.00000000000E+00 0. -1.
          1   -1    0    0  501    0 -0.00000000000E+00 -0.00000000000E+00 -0.16895342608E+03  0.16895342608E+03  0.00000000000E+00 0. -1.
         25    2    1    2    0    0  0.41390336101E+02  0.39078602388E+02  0.97033066043E+01  0.13768903296E+03  0.12499527411E+03 0.  0.
          2    1    1    2  501    0 -0.18193411547E+02 -0.44274974087E+02 -0.99083374224E+02  0.11003994094E+03  0.00000000000E+00 0. -1.
          1    1    1    2  502    0 -0.23196924554E+02  0.51963716988E+01  0.35375755128E+03  0.35455536193E+03  0.00000000000E+00 0. -1.
         22    1    3    3    0    0  0.75047941957E+02  0.58481776767E+02  0.20582683361E+02  0.97344535852E+02  0.00000000000E+00 0. -1.
         22    1    3    3    0    0 -0.33657605857E+02 -0.19403174379E+02 -0.10879376757E+02  0.40344497104E+02  0.00000000000E+00 0. -1.
</event>
<event>
 7    1  0.5667373E-006  0.9448112E+02  0.7818608E-02  0.1337895E+00
          2   -1    0    0  502    0  0.00000000000E+00  0.00000000000E+00  0.59703747406E+03  0.59703747406E+03  0.00000000000E+00 0. -1.
          1   -1    0    0  501    0 -0.00000000000E+00 -0.00000000000E+00 -0.42382543556E+03  0.42382543556E+03  0.00000000000E+00 0. -1.
         25    2    1    2    0    0 -0.31290628295E+02  0.40998609886E+02 -0.16393464899E+02  0.13621428467E+03  0.12500238487E+03 0.  0.
          2    1    1    2  501    0  0.10291022471E+02 -0.10007155207E+03 -0.33834748715E+03  0.35298617925E+03  0.00000000000E+00 0. -1.
          1    1    1    2  502    0  0.20999605824E+02  0.59072942182E+02  0.52795299055E+03  0.53166244571E+03  0.00000000000E+00 0. -1.
         22    1    3    3    0    0 -0.22046253983E+01  0.79876275875E+02 -0.30692856321E+02  0.85598663833E+02  0.00000000000E+00 0.  1.
         22    1    3    3    0    0 -0.29086002897E+02 -0.38877665990E+02  0.14299391422E+02  0.50615620833E+02  0.00000000000E+00 0.  1.
</event>
<event>
 7    1  0.5667373E-006  0.1630344E+03  0.7818608E-02  0.1248216E+00
          2   -1    0    0  502    0  0.00000000000E+00  0.00000000000E+00  0.60690793589E+03  0.60690793589E+03  0.00000000000E+00 0. -1.
          1   -1    0    0  501    0 -0.00000000000E+00 -0.00000000000E+00 -0.54488881386E+03  0.54488881386E+03  0.00000000000E+00 0. -1.
         25    2    1    2    0    0 -0.23091097958E+03 -0.78674662805E+01 -0.11649061155E+03  0.28736207718E+03  0.12500049322E+03 0.  0.
          2    1    1    2  501    0  0.14834302287E+03  0.22710549031E+02 -0.32289228711E+03  0.35606298677E+03  0.00000000000E+00 0. -1.
          1    1    1    2  502    0  0.82567956712E+02 -0.14843082751E+02  0.50140202069E+03  0.50837168581E+03  0.00000000000E+00 0. -1.
         22    1    3    3    0    0  0.13886277046E+02 -0.73763522168E+01 -0.16894267170E+02  0.23079331131E+02  0.00000000000E+00 0. -1.
         22    1    3    3    0    0 -0.24479725663E+03 -0.49111406372E+00 -0.99596344378E+02  0.26428274605E+03  0.00000000000E+00 0. -1.
</event>
<event>
 7    1  0.5667373E-006  0.8146139E+02  0.7818608E-02  0.1400262E+00
          2   -1    0    0  502    0  0.00000000000E+00  0.00000000000E+00  0.12393830864E+03  0.12393830864E+03  0.00000000000E+00 0. -1.
          1   -1    0    0  501    0 -0.00000000000E+00 -0.00000000000E+00 -0.22464368791E+04  0.22464368791E+04  0.00000000000E+00 0. -1.
         25    2    1    2    0    0  0.10988289836E+03 -0.54294758182E+02 -0.12919529070E+03  0.21757375131E+03  0.12499896801E+03 0.  0.
          2    1    1    2  501    0 -0.76004890371E+02  0.27249283657E+02 -0.20663141748E+04  0.20678910841E+04  0.00000000000E+00 0. -1.
          1    1    1    2  502    0 -0.33878007988E+02  0.27045474525E+02  0.73010895086E+02  0.84910352247E+02  0.00000000000E+00 0. -1.
         22    1    3    3    0    0  0.11938574072E+03 -0.13446126764E+00 -0.79299875850E+02  0.14332286446E+03  0.00000000000E+00 0.  1.
         22    1    3    3    0    0 -0.95028423654E+01 -0.54160296915E+02 -0.49895414845E+02  0.74250886846E+02  0.00000000000E+00 0.  1.
</event>
<event>
 7    1  0.5667373E-006  0.1419230E+03  0.7818608E-02  0.1225781E+00
          2   -1    0    0  502    0  0.00000000000E+00  0.00000000000E+00  0.16632587197E+02  0.16632587197E+02  0.00000000000E+00 0. -1.
          1   -1    0    0  501    0 -0.00000000000E+00 -0.00000000000E+00 -0.35270836610E+04  0.35270836610E+04  0.00000000000E+00 0. -1.
         25    2    1    2    0    0 -0.68072229332E+02 -0.23153634008E+02 -0.13224270501E+04  0.13302662708E+04  0.12500051745E+03 0.  0.
          2    1    1    2  501    0 -0.10302566904E+03 -0.63775962054E+02 -0.12585794545E+04  0.12643986338E+04  0.00000000000E+00 0. -1.
          1    1    1    2  502    0  0.17109789837E+03  0.86929596062E+02 -0.92944456929E+03  0.94905134365E+03  0.00000000000E+00 0. -1.
         22    1    3    3    0    0 -0.65766676743E+02  0.33193549111E+02 -0.10178409072E+04  0.10205033953E+04  0.00000000000E+00 0. -1.
         22    1    3    3    0    0 -0.23055525885E+01 -0.56347183119E+02 -0.30458614292E+03  0.30976287556E+03  0.00000000000E+00 0. -1.
</event>
<event>
 7    1  0.5667373E-006  0.1643450E+03  0.7818608E-02  0.1275974E+00
          2   -1    0    0  502    0  0.00000000000E+00  0.00000000000E+00  0.12302985540E+03  0.12302985540E+03  0.00000000000E+00 0. -1.
          1   -1    0    0  501    0 -0.00000000000E+00 -0.00000000000E+00 -0.43689111698E+03  0.43689111698E+03  0.00000000000E+00 0. -1.
         25    2    1    2    0    0  0.11144600005E+03 -0.16254613859E+03 -0.15876692138E+03  0.28227002872E+03  0.12501190219E+03 0.  0.
          2    1    1    2  501    0 -0.59572030042E+02  0.21725602143E+02 -0.98740489740E+02  0.11734782855E+03  0.00000000000E+00 0. -1.
          1    1    1    2  502    0 -0.51873970006E+02  0.14082053645E+03 -0.56353850458E+02  0.16030311510E+03  0.00000000000E+00 0. -1.
         22    1    3    3    0    0  0.31498142317E+02 -0.77038654463E+02  0.21764416072E+01  0.83257577126E+02  0.00000000000E+00 0. -1.
         22    1    3    3    0    0  0.79947857731E+02 -0.85507484132E+02 -0.16094336299E+03  0.19901245159E+03  0.00000000000E+00 0. -1.
</event>
<event>
 7    1  0.5667373E-006  0.6200587E+02  0.7818608E-02  0.1408446E+00
          2   -1    0    0  502    0  0.00000000000E+00  0.00000000000E+00  0.22728766650E+02  0.22728766650E+02  0.00000000000E+00 0. -1.
          1   -1    0    0  501    0 -0.00000000000E+00 -0.00000000000E+00 -0.76170231307E+03  0.76170231307E+03  0.00000000000E+00 0. -1.
         25    2    1    2    0    0 -0.56325029738E+02 -0.13097491502E+02 -0.44537732654E+03  0.46618674312E+03  0.12500025284E+03 0.  0.
          2    1    1    2  501    0 -0.17836491941E+00  0.53399143873E+02 -0.12813994372E+03  0.13882127199E+03  0.00000000000E+00 0. -1.
          1    1    1    2  502    0  0.56503394657E+02 -0.40301652371E+02 -0.16545627617E+03  0.17942306461E+03  0.00000000000E+00 0. -1.
         22    1    3    3    0    0 -0.21725129732E+02  0.80375875891E+01 -0.46850416373E+01  0.23633317399E+02  0.00000000000E+00 0. -1.
         22    1    3    3    0    0 -0.34599900005E+02 -0.21135079091E+02 -0.44069228490E+03  0.44255342572E+03  0.00000000000E+00 0. -1.
</event>
<event>
 7    1  0.5667373E-006  0.7888338E+02  0.7818608E-02  0.1352121E+00
          2   -1    0    0  502    0  0.00000000000E+00  0.00000000000E+00  0.70881599476E+03  0.70881599476E+03  0.00000000000E+00 0. -1.
          1   -1    0    0  501    0 -0.00000000000E+00 -0.00000000000E+00 -0.18850270601E+04  0.18850270601E+04  0.00000000000E+00 0. -1.
         25    2    1    2    0    0  0.10751681177E+03 -0.62577959457E+02  0.26290477205E+03  0.31657562532E+03  0.12500136622E+03 0.  0.
          2    1    1    2  501    0 -0.41226808049E+02  0.67148592766E+02 -0.18547159543E+04  0.18563889286E+04  0.00000000000E+00 0. -1.
          1    1    1    2  502    0 -0.66290003719E+02 -0.45706333086E+01  0.41560011696E+03  0.42087850087E+03  0.00000000000E+00 0. -1.
         22    1    3    3    0    0 -0.55372771060E+01 -0.27610167897E+02  0.15134478076E+03  0.15394227968E+03  0.00000000000E+00 0. -1.
         22    1    3    3    0    0  0.11305408887E+03 -0.34967791560E+02  0.11155999128E+03  0.16263334564E+03  0.00000000000E+00 0. -1.
</event>
<event>
 7    1  0.5667373E-006  0.2876542E+03  0.7818608E-02  0.1220740E+00
          2   -1    0    0  502    0  0.00000000000E+00  0.00000000000E+00  0.18664539137E+04  0.18664539137E+04  0.00000000000E+00 0. -1.
          1   -1    0    0  501    0 -0.00000000000E+00 -0.00000000000E+00 -0.26144221175E+04  0.26144221175E+04  0.00000000000E+00 0. -1.
         25    2    1    2    0    0  0.92405987127E+02  0.29125313533E+03  0.10688038326E+04  0.11186302230E+04  0.12499875152E+03 0.  0.
          2    1    1    2  501    0 -0.29609316415E+02 -0.28604100653E+03 -0.25802231455E+04  0.25961986922E+04  0.00000000000E+00 0. -1.
          1    1    1    2  502    0 -0.62796670712E+02 -0.52121287991E+01  0.76345110899E+03  0.76604711602E+03  0.00000000000E+00 0. -1.
         22    1    3    3    0    0  0.60766801724E+02  0.14085266256E+03  0.73926900900E+03  0.75501704908E+03  0.00000000000E+00 0.  1.
         22    1    3    3    0    0  0.31639185403E+02  0.15040047278E+03  0.32953482362E+03  0.36361317391E+03  0.00000000000E+00 0.  1.
</event>
<event>
 7    1  0.5667373E-006  0.7128348E+02  0.7818608E-02  0.1425175E+00
          2   -1    0    0  502    0  0.00000000000E+00  0.00000000000E+00  0.12075144846E+04  0.12075144846E+04  0.00000000000E+00 0. -1.
          1   -1    0    0  501    0 -0.00000000000E+00 -0.00000000000E+00 -0.51486837671E+03  0.51486837671E+03  0.00000000000E+00 0. -1.
         25    2    1    2    0    0 -0.45066803098E+02 -0.52731555856E+02  0.22544640406E+03  0.26695025816E+03  0.12499890201E+03 0.  0.
          2    1    1    2  501    0  0.68720585859E+02  0.19466527279E+02 -0.49109862965E+03  0.49626538127E+03  0.00000000000E+00 0. -1.
          1    1    1    2  502    0 -0.23653782761E+02  0.33265028577E+02  0.95829833349E+03  0.95916722188E+03  0.00000000000E+00 0. -1.
         22    1    3    3    0    0  0.37076413081E+02 -0.27618866046E+02  0.13277066193E+03  0.14058986748E+03  0.00000000000E+00 0.  1.
         22    1    3    3    0    0 -0.82143216179E+02 -0.25112689810E+02  0.92675742126E+02  0.12636039068E+03  0.00000000000E+00 0.  1.
</event>
<event>
 7    1  0.5667373E-006  0.9589981E+02  0.7818608E-02  0.1384179E+00
          2   -1    0    0  502    0  0.00000000000E+00  0.00000000000E+00  0.45010943012E+03  0.45010943012E+03  0.00000000000E+00 0. -1.
          1   -1    0    0  501    0 -0.00000000000E+00 -0.00000000000E+00 -0.73000497468E+03  0.73000497468E+03  0.00000000000E+00 0. -1.
         25    2    1    2    0    0  0.66870491306E+02 -0.10524041151E+03  0.11164794251E+03  0.20889476262E+03  0.12499820783E+03 0.  0.
          2    1    1    2  501    0 -0.11615442839E+00  0.41884892032E+02 -0.67340859960E+03  0.67470993745E+03  0.00000000000E+00 0. -1.
          1    1    1    2  502    0 -0.66754336877E+02  0.63355519482E+02  0.28186511253E+03  0.29650970474E+03  0.00000000000E+00 0. -1.
         22    1    3    3    0    0  0.57123563423E+02 -0.13083002762E+03  0.69859638558E+02  0.15893384387E+03  0.00000000000E+00 0.  1.
         22    1    3    3    0    0  0.97469278827E+01  0.25589616110E+02  0.41788303953E+02  0.49960918758E+02  0.00000000000E+00 0.  1.
</event>
<event>
 7    1  0.5667373E-006  0.3382527E+03  0.7818608E-02  0.1196632E+00
          2   -1    0    0  502    0  0.00000000000E+00  0.00000000000E+00  0.13349112567E+04  0.13349112567E+04  0.00000000000E+00 0. -1.
          1   -1    0    0  501    0 -0.00000000000E+00 -0.00000000000E+00 -0.58518933904E+03  0.58518933904E+03  0.00000000000E+00 0. -1.
         25    2    1    2    0    0  0.15330979749E+03  0.32240993510E+03  0.97083862856E+03  0.10419235936E+04  0.12500028759E+03 0.  0.
          2    1    1    2  501    0 -0.60441270452E+02 -0.34021346846E+02 -0.47674888517E+03  0.48176768128E+03  0.00000000000E+00 0. -1.
          1    1    1    2  502    0 -0.92868527041E+02 -0.28838858826E+03  0.25563217424E+03  0.39640932085E+03  0.00000000000E+00 0. -1.
         22    1    3    3    0    0  0.12785807034E+03  0.22353861632E+03  0.52779637518E+03  0.58727013613E+03  0.00000000000E+00 0.  1.
         22    1    3    3    0    0  0.25451727156E+02  0.98871318784E+02  0.44304225338E+03  0.45465345745E+03  0.00000000000E+00 0.  1.
</event>
<event>
 7    1  0.5667373E-006  0.8934234E+02  0.7818608E-02  0.1410196E+00
          2   -1    0    0  502    0  0.00000000000E+00  0.00000000000E+00  0.11881537863E+04  0.11881537863E+04  0.00000000000E+00 0. -1.
          1   -1    0    0  501    0 -0.00000000000E+00 -0.00000000000E+00 -0.33852576991E+03  0.33852576991E+03  0.00000000000E+00 0. -1.
         25    2    1    2    0    0  0.47397166101E+02  0.27244913351E+02  0.13598013663E+03  0.19262645347E+03  0.12500230542E+03 0.  0.
          2    1    1    2  501    0 -0.82174555528E+02 -0.38513314811E+02 -0.30322957313E+03  0.31651873091E+03  0.00000000000E+00 0. -1.
          1    1    1    2  502    0  0.34777389427E+02  0.11268401459E+02  0.10168774529E+04  0.10175343718E+04  0.00000000000E+00 0. -1.
         22    1    3    3    0    0 -0.20006198058E+02  0.28203442390E+01  0.11663239425E+03  0.11836941197E+03  0.00000000000E+00 0. -1.
         22    1    3    3    0    0  0.67403364159E+02  0.24424569113E+02  0.19347742382E+02  0.74257041495E+02  0.00000000000E+00 0. -1.
</event>
<event>
 7    1  0.5667373E-006  0.1075836E+03  0.7818608E-02  0.1420670E+00
          2   -1    0    0  502    0  0.00000000000E+00  0.00000000000E+00  0.89972030476E+03  0.89972030476E+03  0.00000000000E+00 0. -1.
          1   -1    0    0  501    0 -0.00000000000E+00 -0.00000000000E+00 -0.74180548523E+03  0.74180548523E+03  0.00000000000E+00 0. -1.
         25    2    1    2    0    0  0.93064732889E+02  0.13203443797E+02  0.13414379458E+03  0.20604688443E+03  0.12500154208E+03 0.  0.
          2    1    1    2  501    0 -0.10018512454E+03 -0.40277377743E+02 -0.70145279213E+03  0.70971497513E+03  0.00000000000E+00 0. -1.
          1    1    1    2  502    0  0.71203916544E+01  0.27073933946E+02  0.72522381707E+03  0.72576393044E+03  0.00000000000E+00 0. -1.
         22    1    3    3    0    0  0.89606963218E+02 -0.42941077893E+02  0.95370526708E+02  0.13772756221E+03  0.00000000000E+00 0.  1.
         22    1    3    3    0    0  0.34577696713E+01  0.56144521691E+02  0.38773267876E+02  0.68319322221E+02  0.00000000000E+00 0.  1.
</event>
<event>
 7    1  0.5667373E-006  0.2540606E+03  0.7818608E-02  0.1153433E+00
          2   -1    0    0  502    0  0.00000000000E+00  0.00000000000E+00  0.32435075612E+03  0.32435075612E+03  0.00000000000E+00 0. -1.
          1   -1    0    0  501    0 -0.00000000000E+00 -0.00000000000E+00 -0.22788359502E+04  0.22788359502E+04  0.00000000000E+00 0. -1.
         25    2    1    2    0    0  0.10823791590E+03  0.11884163446E+03 -0.39146739810E+03  0.44125902051E+03  0.12499607550E+03 0.  0.
          2    1    1    2  501    0  0.14757818368E+03 -0.30614406468E+02 -0.17975354966E+04  0.18038432370E+04  0.00000000000E+00 0. -1.
          1    1    1    2  502    0 -0.25581609958E+03 -0.88227227991E+02  0.23451770062E+03  0.35808444879E+03  0.00000000000E+00 0. -1.
         22    1    3    3    0    0  0.80889467604E+02  0.79831497954E+02 -0.11859460817E+03  0.16425850091E+03  0.00000000000E+00 0. -1.
         22    1    3    3    0    0  0.27348448294E+02  0.39010136505E+02 -0.27287278993E+03  0.27700051960E+03  0.00000000000E+00 0. -1.
</event>
<event>
 7    1  0.5667373E-006  0.9595147E+02  0.7818608E-02  0.1290983E+00
          2   -1    0    0  502    0  0.00000000000E+00  0.00000000000E+00  0.88169754147E+03  0.88169754147E+03  0.00000000000E+00 0. -1.
          1   -1    0    0  501    0 -0.00000000000E+00 -0.00000000000E+00 -0.19993716232E+03  0.19993716232E+03  0.00000000000E+00 0. -1.
         25    2    1    2    0    0 -0.45139763848E+01  0.31376403930E+02  0.72426555962E+02  0.14790174829E+03  0.12499786571E+03 0.  0.
          2    1    1    2  501    0 -0.85642667140E+02 -0.64216382109E+02 -0.14114511573E+03  0.17714500800E+03  0.00000000000E+00 0. -1.
          1    1    1    2  502    0  0.90156643525E+02  0.32839978179E+02  0.75047893892E+03  0.75658794750E+03  0.00000000000E+00 0. -1.
         22    1    3    3    0    0  0.54453945169E+02 -0.86415539791E+01  0.46305485092E+02  0.72000739922E+02  0.00000000000E+00 0. -1.
         22    1    3    3    0    0 -0.58967921554E+02  0.40017957909E+02  0.26121070869E+02  0.75901008366E+02  0.00000000000E+00 0. -1.
</event>
<event>
 7    1  0.5667373E-006  0.7196002E+02  0.7818608E-02  0.1380421E+00
          2   -1    0    0  502    0  0.00000000000E+00  0.00000000000E+00  0.13695448580E+03  0.13695448580E+03  0.00000000000E+00 0. -1.
          1   -1    0    0  501    0 -0.00000000000E+00 -0.00000000000E+00 -0.20040297945E+04  0.20040297945E+04  0.00000000000E+00 0. -1.
         25    2    1    2    0    0 -0.34584444709E+02 -0.12176313543E+03 -0.21809795119E+03  0.28144724716E+03  0.12499396647E+03 0.  0.
          2    1    1    2  501    0  0.20657323651E+02  0.53715217459E+02 -0.17422738071E+04  0.17432240443E+04  0.00000000000E+00 0. -1.
          1    1    1    2  502    0  0.13927121057E+02  0.68047917972E+02  0.93296449669E+02  0.11631298879E+03  0.00000000000E+00 0. -1.
         22    1    3    3    0    0  0.37626815409E+02 -0.91902395612E+02 -0.11212175182E+03  0.14977688336E+03  0.00000000000E+00 0. -1.
         22    1    3    3    0    0 -0.72211260118E+02 -0.29860739819E+02 -0.10597619936E+03  0.13167036380E+03  0.00000000000E+00 0. -1.
</event>
<event>
 7    1  0.5667373E-006  0.6052905E+02  0.7818608E-02  0.1403703E+00
          2   -1    0    0  502    0  0.00000000000E+00  0.00000000000E+00  0.10091459023E+04  0.10091459023E+04  0.00000000000E+00 0. -1.
          1   -1    0    0  501    0 -0.00000000000E+00 -0.00000000000E+00 -0.82215256249E+03  0.82215256249E+03  0.00000000000E+00 0. -1.
         25    2    1    2    0    0  0.45731931625E+01  0.36482952776E+02  0.11382505903E+03  0.17301233174E+03  0.12500081173E+03 0.  0.
          2    1    1    2  501    0  0.52001696154E+02 -0.31695158180E+02 -0.79045551321E+03  0.79279800568E+03  0.00000000000E+00 0. -1.
          1    1    1    2  502    0 -0.56574889317E+02 -0.47877945951E+01  0.86362379394E+03  0.86548812732E+03  0.00000000000E+00 0. -1.
         22    1    3    3    0    0 -0.99910035707E+01 -0.42034610420E+02  0.69067305828E+02  0.81467916138E+02  0.00000000000E+00 0.  1.
         22    1    3    3    0    0  0.14564196733E+02  0.78517563196E+02  0.44757753203E+02  0.91544415605E+02  0.00000000000E+00 0.  1.
</event>
<event>
 7    1  0.5667373E-006  0.1461167E+03  0.7818608E-02  0.1306737E+00
          2   -1    0    0  502    0  0.00000000000E+00  0.00000000000E+00  0.19738650076E+03  0.19738650076E+03  0.00000000000E+00 0. -1.
          1   -1    0    0  501    0 -0.00000000000E+00 -0.00000000000E+00 -0.14096944024E+04  0.14096944024E+04  0.00000000000E+00 0. -1.
         25    2    1    2    0    0  0.17583946630E+03 -0.12261363594E+02 -0.53594761905E+02  0.22263505305E+03  0.12499643753E+03 0.  0.
          2    1    1    2  501    0 -0.44426663831E+02 -0.29806537156E+02 -0.12286071078E+04  0.12297713541E+04  0.00000000000E+00 0. -1.
          1    1    1    2  502    0 -0.13141280247E+03  0.42067900750E+02  0.69893968077E+02  0.15467449596E+03  0.00000000000E+00 0. -1.
         22    1    3    3    0    0  0.12076400986E+03 -0.63030260727E+02 -0.56964671638E+02  0.14765410140E+03  0.00000000000E+00 0.  1.
         22    1    3    3    0    0  0.55075456439E+02  0.50768897133E+02  0.33699097332E+01  0.74980951645E+02  0.00000000000E+00 0.  1.
</event>
<event>
 7    1  0.5667373E-006  0.4308311E+02  0.7818608E-02  0.1511106E+00
          2   -1    0    0  502    0  0.00000000000E+00  0.00000000000E+00  0.20793350944E+04  0.20793350944E+04  0.00000000000E+00 0. -1.
          1   -1    0    0  501    0 -0.00000000000E+00 -0.00000000000E+00 -0.21555897339E+03  0.21555897339E+03  0.00000000000E+00 0. -1.
         25    2    1    2    0    0 -0.54469017319E+02 -0.13010620899E+02  0.86701516588E+02  0.16210715327E+03  0.12500170423E+03 0.  0.
          2    1    1    2  501    0  0.38349610066E+02 -0.19643254219E+02 -0.17507422581E+03  0.18029845970E+03  0.00000000000E+00 0. -1.
          1    1    1    2  502    0  0.16119407253E+02  0.32653875118E+02  0.19521488302E+04  0.19524884548E+04  0.00000000000E+00 0. -1.
         22    1    3    3    0    0  0.18549934788E+00  0.22974762572E+02  0.93533477745E+02  0.96313994748E+02  0.00000000000E+00 0. -1.
         22    1    3    3    0    0 -0.54654516667E+02 -0.35985383472E+02 -0.68319611564E+01  0.65793158527E+02  0.00000000000E+00 0. -1.
</event>
<event>
 7    1  0.5667373E-006  0.1100791E+03  0.7818608E-02  0.1391771E+00
          2   -1    0    0  502    0  0.00000000000E+00  0.00000000000E+00  0.41507351366E+03  0.41507351366E+03  0.00000000000E+00 0. -1.
          1   -1    0    0  501    0 -0.00000000000E+00 -0.00000000000E+00 -0.53270965571E+03  0.53270965571E+03  0.00000000000E+00 0. -1.
         25    2    1    2    0    0  0.71982058608E+01 -0.78930475013E+02 -0.58991278144E+02  0.15933596711E+03  0.12500458178E+03 0.  0.
          2    1    1    2  501    0  0.12852201544E+02 -0.31827061468E+02 -0.41413921110E+03  0.41555917400E+03  0.00000000000E+00 0. -1.
          1    1    1    2  502    0 -0.20050407405E+02  0.11075753648E+03  0.35549434720E+03  0.37288802825E+03  0.00000000000E+00 0. -1.
         22    1    3    3    0    0 -0.48684676471E+02 -0.38771887814E+02 -0.65328551356E+02  0.90229023213E+02  0.00000000000E+00 0.  1.
         22    1    3    3    0    0  0.55882882332E+02 -0.40158587199E+02  0.63372732119E+01  0.69106943901E+02  0.00000000000E+00 0.  1.
</event>
<event>
 7    1  0.5667373E-006  0.5236638E+02  0.7818608E-02  0.1546318E+00
          2   -1    0    0  502    0  0.00000000000E+00  0.00000000000E+00  0.72162739758E+02  0.72162739758E+02  0.00000000000E+00 0. -1.
          1   -1    0    0  501    0 -0.00000000000E+00 -0.00000000000E+00 -0.21412511705E+04  0.21412511705E+04  0.00000000000E+00 0. -1.
         25    2    1    2    0    0  0.66824312281E+02 -0.33381776889E+02 -0.62753721231E+03  0.64421140918E+03  0.12500222055E+03 0.  0.
          2    1    1    2  501    0 -0.46995717509E+02  0.20328216948E+02 -0.15027181657E+04  0.15035902764E+04  0.00000000000E+00 0. -1.
          1    1    1    2  502    0 -0.19828594773E+02  0.13053559940E+02  0.61166947215E+02  0.65612224695E+02  0.00000000000E+00 0. -1.
         22    1    3    3    0    0  0.22632281389E+01  0.82411362277E+01 -0.45804635169E+03  0.45812607306E+03  0.00000000000E+00 0.  1.
         22    1    3    3    0    0  0.64561084142E+02 -0.41622913116E+02 -0.16949086062E+03  0.18608533611E+03  0.00000000000E+00 0.  1.
</event>
<event>
 7    1  0.5667373E-006  0.9249192E+02  0.7818608E-02  0.1437334E+00
          2   -1    0    0  502    0  0.00000000000E+00  0.00000000000E+00  0.21226503817E+04  0.21226503817E+04  0.00000000000E+00 0. -1.
          1   -1    0    0  501    0 -0.00000000000E+00 -0.00000000000E+00 -0.88648363755E+02  0.88648363755E+02  0.00000000000E+00 0. -1.
         25    2    1    2    0    0 -0.10654864432E+03  0.48781711282E+02  0.16736104027E+04  0.16823580118E+04  0.12499772398E+03 0.  0.
          2    1    1    2  501    0  0.77859743971E+02 -0.49261570002E+02 -0.58454110109E+02  0.10911335848E+03  0.00000000000E+00 0. -1.
          1    1    1    2  502    0  0.28688900351E+02  0.47985871979E+00  0.41884572535E+03  0.41982737513E+03  0.00000000000E+00 0. -1.
         22    1    3    3    0    0  0.26344258666E+02 -0.56400556347E+01  0.32883770001E+03  0.32993948406E+03  0.00000000000E+00 0.  1.
         22    1    3    3    0    0 -0.13289290299E+03  0.54421766917E+02  0.13447727027E+04  0.13524185278E+04  0.00000000000E+00 0.  1.
</event>
<event>
 7    1  0.5667373E-006  0.9051784E+02  0.7818608E-02  0.1415403E+00
          2   -1    0    0  502    0  0.00000000000E+00  0.00000000000E+00  0.33079304128E+03  0.33079304128E+03  0.00000000000E+00 0. -1.
          1   -1    0    0  501    0 -0.00000000000E+00 -0.00000000000E+00 -0.16050760542E+03  0.16050760542E+03  0.00000000000E+00 0. -1.
         25    2    1    2    0    0  0.41417447937E+02 -0.79490314702E+02  0.92527361351E+02  0.17947887937E+03  0.12496895781E+03 0.  0.
          2    1    1    2  501    0  0.28547890510E+02  0.19640761634E+02 -0.10315933912E+03  0.10882366846E+03  0.00000000000E+00 0. -1.
          1    1    1    2  502    0 -0.69965338448E+02  0.59849553067E+02  0.18091741363E+03  0.20299809886E+03  0.00000000000E+00 0. -1.
         22    1    3    3    0    0  0.74029915614E+02 -0.88095741602E+02  0.89183183288E+02  0.14558478037E+03  0.00000000000E+00 0. -1.
         22    1    3    3    0    0 -0.32612467676E+02  0.86054269001E+01  0.33441780633E+01  0.33894098999E+02  0.00000000000E+00 0. -1.
</event>
<event>
 7    1  0.5667373E-006  0.1051542E+03  0.7818608E-02  0.1366085E+00
          2   -1    0    0  502    0  0.00000000000E+00  0.00000000000E+00  0.71420419297E+03  0.71420419297E+03  0.00000000000E+00 0. -1.
          1   -1    0    0  501    0 -0.00000000000E+00 -0.00000000000E+00 -0.96648115843E+03  0.96648115843E+03  0.00000000000E+00 0. -1.
         25    2    1    2    0    0  0.86671455486E+02  0.73031159648E+02  0.10035810286E+03  0.19631780205E+03  0.12499375631E+03 0.  0.
          2    1    1    2  501    0  0.13830158781E+02 -0.42107354955E+02 -0.91307422924E+03  0.91414924970E+03  0.00000000000E+00 0. -1.
          1    1    1    2  502    0 -0.10050161427E+03 -0.30923804693E+02  0.56043916092E+03  0.57021829966E+03  0.00000000000E+00 0. -1.
         22    1    3    3    0    0  0.10369182248E+03  0.18779419227E+02  0.38230667388E+02  0.11209926211E+03  0.00000000000E+00 0. -1.
         22    1    3    3    0    0 -0.17020366995E+02  0.54251740421E+02  0.62127435471E+02  0.84218539940E+02  0.00000000000E+00 0. -1.
</event>
<event>
 7    1  0.5667373E-006  0.1628088E+03  0.7818608E-02  0.1327739E+00
          2   -1    0    0  502    0  0.00000000000E+00  0.00000000000E+00  0.46487186634E+03  0.46487186634E+03  0.00000000000E+00 0. -1.
          1   -1    0    0  501    0 -0.00000000000E+00 -0.00000000000E+00 -0.10670193211E+04  0.10670193211E+04  0.00000000000E+00 0. -1.
         25    2    1    2    0    0  0.11999638847E+03  0.93021752503E+02 -0.22756369093E+03  0.30077045735E+03  0.12500181959E+03 0.  0.
          2    1    1    2  501    0 -0.15137791032E+03 -0.68594972585E+02 -0.79329926969E+03  0.81052098880E+03  0.00000000000E+00 0. -1.
          1    1    1    2  502    0  0.31381521851E+02 -0.24426779918E+02  0.41871550588E+03  0.42059974127E+03  0.00000000000E+00 0. -1.
         22    1    3    3    0    0  0.51485560721E+02  0.71826836206E+02 -0.34589332339E+02  0.94901418713E+02  0.00000000000E+00 0. -1.
         22    1    3    3    0    0  0.68510827750E+02  0.21194916296E+02 -0.19297435859E+03  0.20586903864E+03  0.00000000000E+00 0. -1.
</event>
<event>
 7    1  0.5667373E-006  0.2192927E+03  0.7818608E-02  0.1287809E+00
          2   -1    0    0  502    0  0.00000000000E+00  0.00000000000E+00  0.14987115922E+04  0.14987115922E+04  0.00000000000E+00 0. -1.
          1   -1    0    0  501    0 -0.00000000000E+00 -0.00000000000E+00 -0.85381153094E+03  0.85381153094E+03  0.00000000000E+00 0. -1.
         25    2    1    2    0    0 -0.77211094508E+02  0.20701600228E+03  0.88018653317E+03  0.91606248634E+03  0.12499986956E+03 0.  0.
          2    1    1    2  501    0 -0.37578170538E+02 -0.19798244741E+02 -0.81522721751E+03  0.81633296244E+03  0.00000000000E+00 0. -1.
          1    1    1    2  502    0  0.11478926505E+03 -0.18721775754E+03  0.57994074556E+03  0.62012767433E+03  0.00000000000E+00 0. -1.
         22    1    3    3    0    0  0.22000021199E+02  0.67765501315E+02  0.14909071188E+03  0.16523983924E+03  0.00000000000E+00 0.  1.
         22    1    3    3    0    0 -0.99211115706E+02  0.13925050096E+03  0.73109582129E+03  0.75082264710E+03  0.00000000000E+00 0.  1.
</event>
<event>
 7    1  0.5667373E-006  0.8040098E+02  0.7818608E-02  0.1381070E+00
          2   -1    0    0  502    0  0.00000000000E+00  0.00000000000E+00  0.75421464152E+03  0.75421464152E+03  0.00000000000E+00 0. -1.
          1   -1    0    0  501    0 -0.00000000000E+00 -0.00000000000E+00 -0.10425780906E+04  0.10425780906E+04  0.00000000000E+00 0. -1.
         25    2    1    2    0    0  0.34844146010E+02 -0.10545332553E+03 -0.39013004642E+03  0.42444990019E+03  0.12498698442E+03 0.  0.
          2    1    1    2  501    0  0.20264307174E+02  0.47059371836E+02 -0.63206170452E+03  0.63413502107E+03  0.00000000000E+00 0. -1.
          1    1    1    2  502    0 -0.55108453183E+02  0.58393953696E+02  0.73382830185E+03  0.73820781088E+03  0.00000000000E+00 0. -1.
         22    1    3    3    0    0 -0.36035675712E+02 -0.17604981484E+02 -0.40283235251E+02  0.56844035214E+02  0.00000000000E+00 0.  1.
         22    1    3    3    0    0  0.70879821722E+02 -0.87848344048E+02 -0.34984681117E+03  0.36760586498E+03  0.00000000000E+00 0.  1.
</event>
<event>
 7    1  0.5667373E-006  0.5473962E+02  0.7818608E-02  0.1444285E+00
          2   -1    0    0  502    0  0.00000000000E+00  0.00000000000E+00  0.41512173647E+03  0.41512173647E+03  0.00000000000E+00 0. -1.
          1   -1    0    0  501    0 -0.00000000000E+00 -0.00000000000E+00 -0.25484610260E+04  0.25484610260E+04  0.00000000000E+00 0. -1.
         25    2    1    2    0    0 -0.78122312231E+02  0.17848216939E+02 -0.16776365631E+03  0.22403458926E+03  0.12500079317E+03 0.  0.
          2    1    1    2  501    0  0.37568457139E+02 -0.39623864793E+02 -0.23508749888E+04  0.23515090161E+04  0.00000000000E+00 0. -1.
          1    1    1    2  502    0  0.40553855093E+02  0.21775647854E+02  0.38529935562E+03  0.38803915710E+03  0.00000000000E+00 0. -1.
         22    1    3    3    0    0 -0.31987141100E+02  0.11668068238E+01 -0.17185078162E+03  0.17480626356E+03  0.00000000000E+00 0.  1.
         22    1    3    3    0    0 -0.46135171131E+02  0.16681410115E+02  0.40871253173E+01  0.49228325708E+02  0.00000000000E+00 0.  1.
</event>
<event>
 7    1  0.5667373E-006  0.9007194E+02  0.7818608E-02  0.1464333E+00
          2   -1    0    0  502    0  0.00000000000E+00  0.00000000000E+00  0.10422107950E+04  0.10422107950E+04  0.00000000000E+00 0. -1.
          1   -1    0    0  501    0 -0.00000000000E+00 -0.00000000000E+00 -0.50438549203E+03  0.50438549203E+03  0.00000000000E+00 0. -1.
         25    2    1    2    0    0  0.63893640879E+02  0.40066074562E+02 -0.13985863049E+03  0.20217183815E+03  0.12500131176E+03 0.  0.
          2    1    1    2  501    0 -0.68179980749E+02 -0.63837225451E+02 -0.32668015049E+03  0.33976995431E+03  0.00000000000E+00 0. -1.
          1    1    1    2  502    0  0.42863398698E+01  0.23771150889E+02  0.10043640840E+04  0.10046544946E+04  0.00000000000E+00 0. -1.
         22    1    3    3    0    0  0.58212497174E+02  0.74449825848E+02 -0.52480507641E+02  0.10810030101E+03  0.00000000000E+00 0. -1.
         22    1    3    3    0    0  0.56811437046E+01 -0.34383751286E+02 -0.87378122852E+02  0.94071537138E+02  0.00000000000E+00 0. -1.
</event>
<event>
 7    1  0.5667373E-006  0.2988153E+02  0.7818608E-02  0.1620087E+00
          2   -1    0    0  502    0  0.00000000000E+00  0.00000000000E+00  0.12471164427E+04  0.12471164427E+04  0.00000000000E+00 0. -1.
          1   -1    0    0  501    0 -0.00000000000E+00 -0.00000000000E+00 -0.44221385985E+02  0.44221385985E+02  0.00000000000E+00 0. -1.
         25    2    1    2    0    0  0.40348614855E+02 -0.33123211129E+02  0.59473607951E+03  0.60997160787E+03  0.12501680004E+03 0.  0.
          2    1    1    2  501    0 -0.28047048500E+02  0.97355396622E+01 -0.30264978533E+02  0.42395596324E+02  0.00000000000E+00 0. -1.
          1    1    1    2  502    0 -0.12301566355E+02  0.23387671467E+02  0.63842395571E+03  0.63897062447E+03  0.00000000000E+00 0. -1.
         22    1    3    3    0    0 -0.69222093782E+01 -0.18172783992E+02  0.51953022630E+03  0.51989404988E+03  0.00000000000E+00 0. -1.
         22    1    3    3    0    0  0.47270824233E+02 -0.14950427137E+02  0.75205853211E+02  0.90077557984E+02  0.00000000000E+00 0. -1.
</event>
<event>
 7    1  0.5667373E-006  0.6010391E+02  0.7818608E-02  0.1419735E+00
          2   -1    0    0  502    0  0.00000000000E+00  0.00000000000E+00  0.23455357246E+04  0.23455357246E+04  0.00000000000E+00 0. -1.
          1   -1    0    0  501    0 -0.00000000000E+00 -0.00000000000E+00 -0.20430509020E+03  0.20430509020E+03  0.00000000000E+00 0. -1.
         25    2    1    2    0    0  0.53005938283E+02  0.75321551074E+02  0.16640700617E+03  0.22759488783E+03  0.12500070285E+03 0.  0.
          2    1    1    2  501    0  0.14161801468E+01 -0.50450770368E+02 -0.16961902780E+03  0.17696864239E+03  0.00000000000E+00 0. -1.
          1    1    1    2  502    0 -0.54422118430E+02 -0.24870780706E+02  0.21444426561E+04  0.21452772846E+04  0.00000000000E+00 0. -1.
         22    1    3    3    0    0  0.60647895964E+02  0.29474018671E+02  0.16806255088E+03  0.18108535576E+03  0.00000000000E+00 0. -1.
         22    1    3    3    0    0 -0.76419576807E+01  0.45847532403E+02 -0.16555447175E+01  0.46509532065E+02  0.00000000000E+00 0. -1.
</event>
<event>
 7    1  0.5667373E-006  0.3096542E+02  0.7818608E-02  0.1592411E+00
          2   -1    0    0  502    0  0.00000000000E+00  0.00000000000E+00  0.24189846926E+04  0.24189846926E+04  0.00000000000E+00 0. -1.
          1   -1    0    0  501    0 -0.00000000000E+00 -0.00000000000E+00 -0.69246436390E+03  0.69246436390E+03  0.00000000000E+00 0. -1.
         25    2    1    2    0    0  0.18186368573E+02 -0.10595329054E+02  0.16861932800E+04  0.16909509713E+04  0.12499761857E+03 0.  0.
          2    1    1    2  501    0  0.42041183399E+01  0.30683469377E+02 -0.68942802867E+03  0.69012329089E+03  0.00000000000E+00 0. -1.
          1    1    1    2  502    0 -0.22390486913E+02 -0.20088140323E+02  0.72975507733E+03  0.73037479432E+03  0.00000000000E+00 0. -1.
         22    1    3    3    0    0  0.67582093120E+02  0.17633719244E+02  0.94398807796E+03  0.94656842262E+03  0.00000000000E+00 0. -1.
         22    1    3    3    0    0 -0.49395724546E+02 -0.28229048298E+02  0.74220520209E+03  0.74438254868E+03  0.00000000000E+00 0. -1.
</event>
<event>
 7    1  0.5667373E-006  0.7084930E+02  0.7818608E-02  0.1398825E+00
          2   -1    0    0  502    0  0.00000000000E+00  0.00000000000E+00  0.49365301358E+03  0.49365301358E+03  0.00000000000E+00 0. -1.
          1   -1    0    0  501    0 -0.00000000000E+00 -0.00000000000E+00 -0.79268509297E+02  0.79268509297E+02  0.00000000000E+00 0. -1.
         25    2    1    2    0    0 -0.38051713538E+02 -0.49423964203E+02  0.11224313770E+03  0.17920402481E+03  0.12499959763E+03 0.  0.
          2    1    1    2  501    0 -0.34555640077E+02  0.36706903602E+02 -0.26470187933E+02  0.56939967355E+02  0.00000000000E+00 0. -1.
          1    1    1    2  502    0  0.72607353615E+02  0.12717060601E+02  0.32861155452E+03  0.33677753072E+03  0.00000000000E+00 0. -1.
         22    1    3    3    0    0  0.26372608813E+02 -0.58352932695E+02  0.21478537066E+02  0.67541889256E+02  0.00000000000E+00 0.  1.
         22    1    3    3    0    0 -0.64424322351E+02  0.89289684922E+01  0.90764600630E+02  0.11166213555E+03  0.00000000000E+00 0.  1.
</event>
<event>
 7    1  0.5667373E-006  0.4738165E+02  0.7818608E-02  0.1491284E+00
          2   -1    0    0  502    0  0.00000000000E+00  0.00000000000E+00  0.29833375382E+04  0.29833375382E+04  0.00000000000E+00 0. -1.
          1   -1    0    0  501    0 -0.00000000000E+00 -0.00000000000E+00 -0.30997649147E+02  0.30997649147E+02  0.00000000000E+00 0. -1.
         25    2    1    2    0    0  0.49941801894E+02  0.25227849753E+02  0.17235532399E+04  0.17289855383E+04  0.12499837185E+03 0.  0.
          2    1    1    2  501    0 -0.32538591174E+02  0.19502053248E+02 -0.14885797472E+02  0.40751404428E+02  0.00000000000E+00 0. -1.
          1    1    1    2  502    0 -0.17403210720E+02 -0.44729903001E+02  0.12436724466E+04  0.12445982446E+04  0.00000000000E+00 0. -1.
         22    1    3    3    0    0 -0.84853115419E+01 -0.87629788641E+01  0.16120713584E+02  0.20215531579E+02  0.00000000000E+00 0. -1.
         22    1    3    3    0    0  0.58427113436E+02  0.33990828617E+02  0.17074325263E+04  0.17087700067E+04  0.00000000000E+00 0. -1.
</event>
<event>
 7    1  0.5667373E-006  0.1478811E+03  0.7818608E-02  0.1283501E+00
          2   -1    0    0  502    0  0.00000000000E+00  0.00000000000E+00  0.64744071560E+03  0.64744071560E+03  0.00000000000E+00 0. -1.
          1   -1    0    0  501    0 -0.00000000000E+00 -0.00000000000E+00 -0.64373523303E+03  0.64373523303E+03  0.00000000000E+00 0. -1.
         25    2    1    2    0    0 -0.14688969475E+03 -0.10279727802E+03  0.28242092792E+03  0.35711416712E+03  0.12500034016E+03 0.  0.
          2    1    1    2  501    0  0.14408528346E+02  0.63994691244E+02 -0.58995011173E+03  0.59358576510E+03  0.00000000000E+00 0. -1.
          1    1    1    2  502    0  0.13248116641E+03  0.38802586771E+02  0.31123466637E+03  0.34047601640E+03  0.00000000000E+00 0. -1.
         22    1    3    3    0    0 -0.28787879918E+01 -0.36349199101E+02  0.39913263847E+01  0.36680817628E+02  0.00000000000E+00 0.  1.
         22    1    3    3    0    0 -0.14401090676E+03 -0.66448078914E+02  0.27842960154E+03  0.32043334950E+03  0.00000000000E+00 0.  1.
</event>
<event>
 7    1  0.5667373E-006  0.1908849E+03  0.7818608E-02  0.1266635E+00
          2   -1    0    0  502    0  0.00000000000E+00  0.00000000000E+00  0.31685625250E+04  0.31685625250E+04  0.00000000000E+00 0. -1.
          1   -1    0    0  501    0 -0.00000000000E+00 -0.00000000000E+00 -0.53476445719E+03  0.53476445719E+03  0.00000000000E+00 0. -1.
         25    2    1    2    0    0  0.18184155627E+03  0.10167634183E+03  0.62586113897E+03  0.67136583957E+03  0.12500198077E+03 0.  0.
          2    1    1    2  501    0 -0.49413931363E+02  0.33576198471E+02 -0.50670008797E+03  0.51020983611E+03  0.00000000000E+00 0. -1.
          1    1    1    2  502    0 -0.13242762491E+03 -0.13525254030E+03  0.25146370168E+04  0.25217513065E+04  0.00000000000E+00 0. -1.
         22    1    3    3    0    0  0.24089240345E+02  0.80202373925E+02  0.21885955995E+03  0.23433356410E+03  0.00000000000E+00 0. -1.
         22    1    3    3    0    0  0.15775231593E+03  0.21473967909E+02  0.40700157902E+03  0.43703227547E+03  0.00000000000E+00 0. -1.
</event>
<event>
 7    1  0.5667373E-006  0.7014139E+02  0.7818608E-02  0.1414725E+00
          2   -1    0    0  502    0  0.00000000000E+00  0.00000000000E+00  0.27781864603E+03  0.27781864603E+03  0.00000000000E+00 0. -1.
          1   -1    0    0  501    0 -0.00000000000E+00 -0.00000000000E+00 -0.32434569766E+03  0.32434569766E+03  0.00000000000E+00 0. -1.
         25    2    1    2    0    0 -0.24907764992E+02  0.10471842595E+03 -0.72875347585E+02  0.18033877533E+03  0.12499964845E+03 0.  0.
          2    1    1    2  501    0  0.13918478987E+01 -0.66405917211E+02 -0.18978217508E+03  0.20106953290E+03  0.00000000000E+00 0. -1.
          1    1    1    2  502    0  0.23515917093E+02 -0.38312508740E+02  0.21613047103E+03  0.22075603546E+03  0.00000000000E+00 0. -1.
         22    1    3    3    0    0 -0.44693558944E+02  0.11853327973E+03 -0.85764269438E+02  0.15298092210E+03  0.00000000000E+00 0. -1.
         22    1    3    3    0    0  0.19785793952E+02 -0.13814853776E+02  0.12888921853E+02  0.27357853236E+02  0.00000000000E+00 0. -1.
</event>
<event>
 7    1  0.5667373E-006  0.4607456E+02  0.7818608E-02  0.1486120E+00
          2   -1    0    0  502    0  0.00000000000E+00  0.00000000000E+00  0.12876735405E+04  0.12876735405E+04  0.00000000000E+00 0. -1.
          1   -1    0    0  501    0 -0.00000000000E+00 -0.00000000000E+00 -0.72003267429E+03  0.72003267429E+03  0.00000000000E+00 0. -1.
         25    2    1    2    0    0 -0.35346420301E+02  0.32015398961E+02  0.17910271144E+03  0.22355471858E+03  0.12499830300E+03 0.  0.
          2    1    1    2  501    0 -0.25783770892E+01 -0.46063194224E+02 -0.69666703170E+03  0.69819296684E+03  0.00000000000E+00 0. -1.
          1    1    1    2  502    0  0.37924797390E+02  0.14047795263E+02  0.10852051865E+04  0.10859585294E+04  0.00000000000E+00 0. -1.
         22    1    3    3    0    0 -0.10445617074E+02 -0.45740459386E+02  0.37346014555E+02  0.59966868720E+02  0.00000000000E+00 0.  1.
         22    1    3    3    0    0 -0.24900803228E+02  0.77755858347E+02  0.14175669689E+03  0.16358784986E+03  0.00000000000E+00 0.  1.
</event>
<event>
 7    1  0.5667373E-006  0.4141107E+02  0.7818608E-02  0.1537836E+00
          2   -1    0    0  502    0  0.00000000000E+00  0.00000000000E+00  0.38456319330E+03  0.38456319330E+03  0.00000000000E+00 0. -1.
          1   -1    0    0  501    0 -0.00000000000E+00 -0.00000000000E+00 -0.15458310554E+04  0.15458310554E+04  0.00000000000E+00 0. -1.
         25    2    1    2    0    0 -0.38211975072E+02 -0.12800535798E+02  0.26894743433E+03  0.29930201659E+03  0.12499986379E+03 0.  0.
          2    1    1    2  501    0  0.36866441314E+02 -0.18889809075E+02 -0.15278617782E+04  0.15284232309E+04  0.00000000000E+00 0. -1.
          1    1    1    2  502    0  0.13455337574E+01  0.31690344873E+02  0.97646481755E+02  0.10266900125E+03  0.00000000000E+00 0. -1.
         22    1    3    3    0    0 -0.44624193779E+02  0.14299030876E+02  0.23760985506E+02  0.52539179539E+02  0.00000000000E+00 0.  1.
         22    1    3    3    0    0  0.64122187075E+01 -0.27099566673E+02  0.24518644882E+03  0.24676283705E+03  0.00000000000E+00 0.  1.
</event>
<event>
 7    1  0.5667373E-006  0.2226741E+03  0.7818608E-02  0.1216647E+00
          2   -1    0    0  502    0  0.00000000000E+00  0.00000000000E+00  0.88877870832E+03  0.88877870832E+03  0.00000000000E+00 0. -1.
          1   -1    0    0  501    0 -0.00000000000E+00 -0.00000000000E+00 -0.12592295990E+03  0.12592295990E+03  0.00000000000E+00 0. -1.
         25    2    1    2    0    0  0.58038637127E+02  0.15908974323E+03  0.18284126210E+03  0.27880874628E+03  0.12500144029E+03 0.  0.
          2    1    1    2  501    0  0.13772684249E+01  0.84971651277E+02 -0.18351258655E+02  0.86941630323E+02  0.00000000000E+00 0. -1.
          1    1    1    2  502    0 -0.59415905552E+02 -0.24406139451E+03  0.59836574498E+03  0.64895129161E+03  0.00000000000E+00 0. -1.
         22    1    3    3    0    0 -0.35261668541E+02  0.76578648242E+02  0.91048016735E+02  0.12408632473E+03  0.00000000000E+00 0. -1.
         22    1    3    3    0    0  0.93300305668E+02  0.82511094992E+02  0.91793245363E+02  0.15472242155E+03  0.00000000000E+00 0. -1.
</event>
<event>
 7    1  0.5667373E-006  0.1430300E+03  0.7818608E-02  0.1410445E+00
          2   -1    0    0  502    0  0.00000000000E+00  0.00000000000E+00  0.45573690173E+03  0.45573690173E+03  0.00000000000E+00 0. -1.
          1   -1    0    0  501    0 -0.00000000000E+00 -0.00000000000E+00 -0.33301096135E+03  0.33301096135E+03  0.00000000000E+00 0. -1.
         25    2    1    2    0    0  0.93997725394E+02 -0.88886196867E+02 -0.32780909334E+02  0.18285562331E+03  0.12500105034E+03 0.  0.
          2    1    1    2  501    0 -0.16172884529E+01 -0.22733545091E+02 -0.21077021560E+03  0.21199885254E+03  0.00000000000E+00 0. -1.
          1    1    1    2  502    0 -0.92380436941E+02  0.11161974196E+03  0.36627706532E+03  0.39389338723E+03  0.00000000000E+00 0. -1.
         22    1    3    3    0    0  0.11986265450E+03 -0.49208849162E+02 -0.38447161233E+02  0.13515454482E+03  0.00000000000E+00 0.  1.
         22    1    3    3    0    0 -0.25864929104E+02 -0.39677347705E+02  0.56662518987E+01  0.47701078489E+02  0.00000000000E+00 0.  1.
</event>
<event>
 7    1  0.5667373E-006  0.4688291E+02  0.7818608E-02  0.1484154E+00
          2   -1    0    0  502    0  0.00000000000E+00  0.00000000000E+00  0.28360423096E+03  0.28360423096E+03  0.00000000000E+00 0. -1.
          1   -1    0    0  501    0 -0.00000000000E+00 -0.00000000000E+00 -0.38930252452E+03  0.38930252452E+03  0.00000000000E+00 0. -1.
         25    2    1    2    0    0  0.67596467792E+01 -0.24093407926E+02  0.84660973274E+02  0.15302844552E+03  0.12499615839E+03 0.  0.
          2    1    1    2  501    0 -0.45506615254E+02  0.13022280685E+02 -0.35104239110E+03  0.35421913017E+03  0.00000000000E+00 0. -1.
          1    1    1    2  502    0  0.38746968475E+02  0.11071127242E+02  0.16068312426E+03  0.16565917979E+03  0.00000000000E+00 0. -1.
         22    1    3    3    0    0 -0.21985527942E+02  0.33967711941E+02 -0.67149231461E+01  0.41015351837E+02  0.00000000000E+00 0.  1.
         22    1    3    3    0    0  0.28745174721E+02 -0.58061119868E+02  0.91375896420E+02  0.11201309368E+03  0.00000000000E+00 0.  1.
</event>
<event>
 7    1  0.5667373E-006  0.1111050E+03  0.7818608E-02  0.1275914E+00
          2   -1    0    0  502    0  0.00000000000E+00  0.00000000000E+00  0.38633401553E+03  0.38633401553E+03  0.00000000000E+00 0. -1.
          1   -1    0    0  501    0 -0.00000000000E+00 -0.00000000000E+00 -0.37965253561E+03  0.37965253561E+03  0.00000000000E+00 0. -1.
         25    2    1    2    0    0 -0.19979881728E+01  0.43223452804E+01  0.37207316245E+02  0.13050614226E+03  0.12499917664E+03 0.  0.
          2    1    1    2  501    0 -0.71102036720E+02  0.85374647089E+02 -0.31197746376E+03  0.33117105532E+03  0.00000000000E+00 0. -1.
          1    1    1    2  502    0  0.73100024893E+02 -0.89696992369E+02  0.28145162743E+03  0.30430935356E+03  0.00000000000E+00 0. -1.
         22    1    3    3    0    0  0.22729913102E+02  0.55969697904E+02 -0.30870536574E+01  0.60487899065E+02  0.00000000000E+00 0. -1.
         22    1    3    3    0    0 -0.24727901275E+02 -0.51647352623E+02  0.40294369902E+02  0.70018243196E+02  0.00000000000E+00 0. -1.
</event>
<event>
 7    1  0.5667373E-006  0.1253424E+03  0.7818608E-02  0.1366997E+00
          2   -1    0    0  502    0  0.00000000000E+00  0.00000000000E+00  0.16840627387E+04  0.16840627387E+04  0.00000000000E+00 0. -1.
          1   -1    0    0  501    0 -0.00000000000E+00 -0.00000000000E+00 -0.15115286351E+03  0.15115286351E+03  0.00000000000E+00 0. -1.
         25    2    1    2    0    0  0.10610459033E+03  0.15256293987E+02  0.90498827660E+01  0.16491932807E+03  0.12500218317E+03 0.  0.
          2    1    1    2  501    0  0.91643588901E+01  0.35744636374E+02 -0.65910243911E+02  0.75536909890E+02  0.00000000000E+00 0. -1.
          1    1    1    2  502    0 -0.11526894922E+03 -0.51000930360E+02  0.15897702363E+04  0.15947593643E+04  0.00000000000E+00 0. -1.
         22    1    3    3    0    0 -0.20389118980E+02  0.18149327155E+02 -0.21511129237E+02  0.34754034730E+02  0.00000000000E+00 0. -1.
         22    1    3    3    0    0  0.12649370931E+03 -0.28930331679E+01  0.30561012003E+02  0.13016529334E+03  0.00000000000E+00 0. -1.
</event>
<event>
 7    1  0.5667373E-006  0.5699885E+02  0.7818608E-02  0.1460722E+00
          2   -1    0    0  502    0  0.00000000000E+00  0.00000000000E+00  0.87308423881E+03  0.87308423881E+03  0.00000000000E+00 0. -1.
          1   -1    0    0  501    0 -0.00000000000E+00 -0.00000000000E+00 -0.30872554967E+03  0.30872554967E+03  0.00000000000E+00 0. -1.
         25    2    1    2    0    0 -0.36593229431E+01  0.33112234696E+02 -0.29468785309E+02  0.13267748166E+03  0.12500037640E+03 0.  0.
          2    1    1    2  501    0  0.36649734859E+02  0.13853669319E+02 -0.22495454094E+03  0.22834113232E+03  0.00000000000E+00 0. -1.
          1    1    1    2  502    0 -0.32990411915E+02 -0.46965904015E+02  0.81878201539E+03  0.82079117450E+03  0.00000000000E+00 0. -1.
         22    1    3    3    0    0 -0.43716211530E+02  0.50611529504E+02  0.16871927703E+02  0.68973154297E+02  0.00000000000E+00 0. -1.
         22    1    3    3    0    0  0.40056888587E+02 -0.17499294808E+02 -0.46340713012E+02  0.63704327361E+02  0.00000000000E+00 0. -1.
</event>
<event>
 7    1  0.5667373E-006  0.5055877E+02  0.7818608E-02  0.1458456E+00
          2   -1    0    0  502    0  0.00000000000E+00  0.00000000000E+00  0.11089358064E+04  0.11089358064E+04  0.00000000000E+00 0. -1.
          1   -1    0    0  501    0 -0.00000000000E+00 -0.00000000000E+00 -0.16689957897E+02  0.16689957897E+02  0.00000000000E+00 0. -1.
         25    2    1    2    0    0 -0.10600406623E+02  0.73911161234E+02  0.63902454048E+03  0.65540320189E+03  0.12500306133E+03 0.  0.
          2    1    1    2  501    0  0.33771053415E+02 -0.35445733970E+02  0.76436262397E+02  0.90771065404E+02  0.00000000000E+00 0. -1.
          1    1    1    2  502    0 -0.23170646792E+02 -0.38465427264E+02  0.37678504567E+03  0.37945149705E+03  0.00000000000E+00 0. -1.
         22    1    3    3    0    0  0.48353355720E+02  0.21631022148E+02  0.40545687761E+03  0.40890246726E+03  0.00000000000E+00 0.  1.
         22    1    3    3    0    0 -0.58953762343E+02  0.52280139085E+02  0.23356766286E+03  0.24650073463E+03  0.00000000000E+00 0.  1.
</event>
<event>
 7    1  0.5667373E-006  0.6114198E+02  0.7818608E-02  0.1494102E+00
          2   -1    0    0  502    0  0.00000000000E+00  0.00000000000E+00  0.59742256744E+03  0.59742256744E+03  0.00000000000E+00 0. -1.
          1   -1    0    0  501    0 -0.00000000000E+00 -0.00000000000E+00 -0.53865397030E+03  0.53865397030E+03  0.00000000000E+00 0. -1.
         25    2    1    2    0    0  0.81987882717E+01  0.83702309609E+02  0.37071295381E+03  0.40015963904E+03  0.12500538321E+03 0.  0.
          2    1    1    2  501    0  0.87892146928E+01 -0.60411093772E+02 -0.52116059194E+03  0.52472384464E+03  0.00000000000E+00 0. -1.
          1    1    1    2  502    0 -0.16988002964E+02 -0.23291215837E+02  0.20921623528E+03  0.21119305406E+03  0.00000000000E+00 0. -1.
         22    1    3    3    0    0  0.49141909817E+02  0.73568527437E+02  0.32956803081E+03  0.34123649051E+03  0.00000000000E+00 0. -1.
         22    1    3    3    0    0 -0.40943121546E+02  0.10133782172E+02  0.41144923003E+02  0.58923148523E+02  0.00000000000E+00 0. -1.
</event>
<event>
 7    1  0.5667373E-006  0.6533278E+02  0.7818608E-02  0.1410656E+00
          2   -1    0    0  502    0  0.00000000000E+00  0.00000000000E+00  0.81819506437E+03  0.81819506437E+03  0.00000000000E+00 0. -1.
          1   -1    0    0  501    0 -0.00000000000E+00 -0.00000000000E+00 -0.13513025838E+04  0.13513025838E+04  0.00000000000E+00 0. -1.
         25    2    1    2    0    0  0.17813658744E+02 -0.84100337931E+02  0.37878429071E+02  0.15636453804E+03  0.12499960036E+03 0.  0.
          2    1    1    2  501    0  0.25774459124E+02  0.59986912509E+02 -0.12903728874E+04  0.12920235837E+04  0.00000000000E+00 0. -1.
          1    1    1    2  502    0 -0.43588117868E+02  0.24113425423E+02  0.71938693886E+03  0.72110952643E+03  0.00000000000E+00 0. -1.
         22    1    3    3    0    0 -0.34935494446E+02 -0.71474327564E+02  0.58063894097E+02  0.98491035484E+02  0.00000000000E+00 0.  1.
         22    1    3    3    0    0  0.52749153189E+02 -0.12626010367E+02 -0.20185465026E+02  0.57873502558E+02  0.00000000000E+00 0.  1.
</event>
<event>
 7    1  0.5667373E-006  0.5650460E+02  0.7818608E-02  0.1430672E+00
          2   -1    0    0  502    0  0.00000000000E+00  0.00000000000E+00  0.19570972927E+04  0.19570972927E+04  0.00000000000E+00 0. -1.
          1   -1    0    0  501    0 -0.00000000000E+00 -0.00000000000E+00 -0.91366571181E+03  0.91366571181E+03  0.00000000000E+00 0. -1.
         25    2    1    2    0    0 -0.37776308393E+02 -0.85224980111E+02  0.10068465854E+03  0.18561818998E+03  0.12500546098E+03 0.  0.
          2    1    1    2  501    0 -0.53061873598E+01  0.49099868579E+02 -0.87006287384E+03  0.87146334241E+03  0.00000000000E+00 0. -1.
          1    1    1    2  502    0  0.43082495753E+02  0.36125111532E+02  0.18128097962E+04  0.18136814721E+04  0.00000000000E+00 0. -1.
         22    1    3    3    0    0 -0.32042652822E+02 -0.97564234696E+02  0.21046280325E+02  0.10482584322E+03  0.00000000000E+00 0.  1.
         22    1    3    3    0    0 -0.57336555704E+01  0.12339254584E+02  0.79638378216E+02  0.80792346759E+02  0.00000000000E+00 0.  1.
</event>
<event>
 7    1  0.5667373E-006  0.2182333E+03  0.7818608E-02  0.1250507E+00
          2   -1    0    0  502    0  0.00000000000E+00  0.00000000000E+00  0.12732986146E+04  0.12732986146E+04  0.00000000000E+00 0. -1.
          1   -1    0    0  501    0 -0.00000000000E+00 -0.00000000000E+00 -0.59361458861E+03  0.59361458861E+03  0.00000000000E+00 0. -1.
         25    2    1    2    0    0  0.24708033721E+02 -0.17254649217E+03  0.30900429971E+03  0.37615353186E+03  0.12500017358E+03 0.  0.
          2    1    1    2  501    0  0.12924228743E+02  0.22087556211E+03 -0.53711507874E+03  0.58090072942E+03  0.00000000000E+00 0. -1.
          1    1    1    2  502    0 -0.37632262464E+02 -0.48329069939E+02  0.90779480505E+03  0.90985894195E+03  0.00000000000E+00 0. -1.
         22    1    3    3    0    0 -0.38051645342E+02 -0.12959392340E+03  0.22830906605E+03  0.26526881147E+03  0.00000000000E+00 0.  1.
         22    1    3    3    0    0  0.62759679063E+02 -0.42952568773E+02  0.80695233659E+02  0.11088472039E+03  0.00000000000E+00 0.  1.
</event>
<event>
 7    1  0.5667373E-006  0.5159258E+02  0.7818608E-02  0.1524015E+00
          2   -1    0    0  502    0  0.00000000000E+00  0.00000000000E+00  0.12103998522E+04  0.12103998522E+04  0.00000000000E+00 0. -1.
          1   -1    0    0  501    0 -0.00000000000E+00 -0.00000000000E+00 -0.31562443223E+02  0.31562443223E+02  0.00000000000E+00 0. -1.
         25    2    1    2    0    0 -0.48212396480E+02 -0.42498819502E+02  0.28405665581E+03  0.31692858907E+03  0.12499984811E+03 0.  0.
          2    1    1    2  501    0  0.27533375024E+02 -0.44250910073E+01 -0.88550820703E+00  0.27900757972E+02  0.00000000000E+00 0. -1.
          1    1    1    2  502    0  0.20679021456E+02  0.46923910509E+02  0.89566626141E+03  0.89713294842E+03  0.00000000000E+00 0. -1.
         22    1    3    3    0    0 -0.87022155029E+02 -0.22466353684E+02  0.13973251238E+03  0.16614080633E+03  0.00000000000E+00 0.  1.
         22    1    3    3    0    0  0.38809758549E+02 -0.20032465818E+02  0.14432414344E+03  0.15078778274E+03  0.00000000000E+00 0.  1.
</event>
<event>
 7    1  0.5667373E-006  0.5092286E+02  0.7818608E-02  0.1495639E+00
          2   -1    0    0  502    0  0.00000000000E+00  0.00000000000E+00  0.27695000044E+04  0.27695000044E+04  0.00000000000E+00 0. -1.
          1   -1    0    0  501    0 -0.00000000000E+00 -0.00000000000E+00 -0.18287253216E+03  0.18287253216E+03  0.00000000000E+00 0. -1.
         25    2    1    2    0    0  0.19576193391E+02 -0.66752666318E+02  0.13109142139E+04  0.13186963412E+04  0.12499927331E+03 0.  0.
          2    1    1    2  501    0  0.14755500545E+02  0.30905530473E+02 -0.17691543351E+03  0.18019974258E+03  0.00000000000E+00 0. -1.
          1    1    1    2  502    0 -0.34331693935E+02  0.35847135845E+02  0.14526286918E+04  0.14534764528E+04  0.00000000000E+00 0. -1.
         22    1    3    3    0    0 -0.59581274596E+01 -0.57245504973E+02  0.21882789193E+03  0.22627017790E+03  0.00000000000E+00 0. -1.
         22    1    3    3    0    0  0.25534320850E+02 -0.95071613453E+01  0.10920863220E+04  0.10924261633E+04  0.00000000000E+00 0. -1.
</event>
<event>
 7    1  0.5667373E-006  0.2203490E+03  0.7818608E-02  0.1200343E+00
          2   -1    0    0  502    0  0.00000000000E+00  0.00000000000E+00  0.59131242439E+03  0.59131242439E+03  0.00000000000E+00 0. -1.
          1   -1    0    0  501    0 -0.00000000000E+00 -0.00000000000E+00 -0.12949553623E+04  0.12949553623E+04  0.00000000000E+00 0. -1.
         25    2    1    2    0    0 -0.22034087244E+03  0.57843359303E+00 -0.90998058641E+02  0.26917665078E+03  0.12499995199E+03 0.  0.
          2    1    1    2  501    0  0.20571522603E+02 -0.10016470783E+03 -0.10875483478E+04  0.10923449844E+04  0.00000000000E+00 0. -1.
          1    1    1    2  502    0  0.19976934984E+03  0.99586274232E+02  0.47490346848E+03  0.52474615151E+03  0.00000000000E+00 0. -1.
         22    1    3    3    0    0 -0.89747594213E+01 -0.59466608173E+00  0.26052600451E+02  0.27561529796E+02  0.00000000000E+00 0. -1.
         22    1    3    3    0    0 -0.21136611302E+03  0.11730996748E+01 -0.11705065909E+03  0.24161512099E+03  0.00000000000E+00 0. -1.
</event>
<event>
 7    1  0.5667373E-006  0.1082503E+03  0.7818608E-02  0.1340943E+00
          2   -1    0    0  502    0  0.00000000000E+00  0.00000000000E+00  0.55260287583E+03  0.55260287583E+03  0.00000000000E+00 0. -1.
          1   -1    0    0  501    0 -0.00000000000E+00 -0.00000000000E+00 -0.69862550293E+03  0.69862550293E+03  0.00000000000E+00 0. -1.
         25    2    1    2    0    0 -0.15358470493E+03 -0.27160391467E+02 -0.29418583619E+02  0.20203625369E+03  0.12500898485E+03 0.  0.
          2    1    1    2  501    0  0.10055744080E+03  0.32474102165E+02 -0.57655769504E+03  0.58616136168E+03  0.00000000000E+00 0. -1.
          1    1    1    2  502    0  0.53027264124E+02 -0.53137106979E+01  0.45995365156E+03  0.46303076338E+03  0.00000000000E+00 0. -1.
         22    1    3    3    0    0 -0.11414170751E+03 -0.74809265835E+02 -0.31822313811E+02  0.14013356238E+03  0.00000000000E+00 0. -1.
         22    1    3    3    0    0 -0.39442997416E+02  0.47648874367E+02  0.24037301920E+01  0.61902691319E+02  0.00000000000E+00 0. -1.
</event>
<event>
 7    1  0.5667373E-006  0.1108995E+04  0.7818608E-02  0.1070508E+00
          2   -1    0    0  502    0  0.00000000000E+00  0.00000000000E+00  0.19869306077E+04  0.19869306077E+04  0.00000000000E+00 0. -1.
          1   -1    0    0  501    0 -0.00000000000E+00 -0.00000000000E+00 -0.15383817093E+04  0.15383817093E+04  0.00000000000E+00 0. -1.
         25    2    1    2    0    0 -0.20298108998E+03 -0.11252784501E+04  0.37717647192E+03  0.12105123165E+04  0.12500025662E+03 0.  0.
          2    1    1    2  501    0  0.27925684439E+03  0.10620926400E+04 -0.84962992222E+03  0.13884870060E+04  0.00000000000E+00 0. -1.
          1    1    1    2  502    0 -0.76275754407E+02  0.63185810071E+02  0.92100234874E+03  0.92631299445E+03  0.00000000000E+00 0. -1.
         22    1    3    3    0    0 -0.20616270989E+03 -0.96315142015E+03  0.35427582368E+03  0.10467449930E+04  0.00000000000E+00 0. -1.
         22    1    3    3    0    0  0.31816199061E+01 -0.16212702997E+03  0.22900648236E+02  0.16376732349E+03  0.00000000000E+00 0. -1.
</event>
<event>
 7    1  0.5667373E-006  0.1023613E+03  0.7818608E-02  0.1332816E+00
          2   -1    0    0  502    0  0.00000000000E+00  0.00000000000E+00  0.15011534951E+03  0.15011534951E+03  0.00000000000E+00 0. -1.
          1   -1    0    0  501    0 -0.00000000000E+00 -0.00000000000E+00 -0.25299900567E+04  0.25299900567E+04  0.00000000000E+00 0. -1.
         25    2    1    2    0    0  0.42821369132E+02 -0.51849266658E+01  0.75501930520E+02  0.15226846677E+03  0.12499836536E+03 0.  0.
          2    1    1    2  501    0 -0.10290820238E+03 -0.17874314525E+01 -0.24645126662E+04  0.24666608958E+04  0.00000000000E+00 0. -1.
          1    1    1    2  502    0  0.60086833251E+02  0.69723581183E+01  0.91360284131E+01  0.61176043702E+02  0.00000000000E+00 0. -1.
         22    1    3    3    0    0  0.17058872557E+02  0.51130542605E+02  0.72401412208E+02  0.90262406403E+02  0.00000000000E+00 0. -1.
         22    1    3    3    0    0  0.25762496575E+02 -0.56315469271E+02  0.31005183123E+01  0.62006060371E+02  0.00000000000E+00 0. -1.
</event>
<event>
 7    1  0.5667373E-006  0.1039476E+03  0.7818608E-02  0.1399627E+00
          2   -1    0    0  502    0  0.00000000000E+00  0.00000000000E+00  0.27657022247E+03  0.27657022247E+03  0.00000000000E+00 0. -1.
          1   -1    0    0  501    0 -0.00000000000E+00 -0.00000000000E+00 -0.80770807205E+03  0.80770807205E+03  0.00000000000E+00 0. -1.
         25    2    1    2    0    0 -0.13222086222E+03  0.19191193165E+02 -0.17080145349E+03  0.25029812806E+03  0.12500143238E+03 0.  0.
          2    1    1    2  501    0  0.29822207154E+02 -0.16625088912E+02 -0.58556178023E+03  0.58655635371E+03  0.00000000000E+00 0. -1.
          1    1    1    2  502    0  0.10239865507E+03 -0.25661042530E+01  0.22522538414E+03  0.24742381274E+03  0.00000000000E+00 0. -1.
         22    1    3    3    0    0 -0.50084969949E+02  0.36639570189E+02 -0.15209964373E+03  0.16427192073E+03  0.00000000000E+00 0.  1.
         22    1    3    3    0    0 -0.82135892270E+02 -0.17448377024E+02 -0.18701809763E+02  0.86026207333E+02  0.00000000000E+00 0.  1.
</event>
<event>
 7    1  0.5667373E-006  0.1201874E+03  0.7818608E-02  0.1338401E+00
          2   -1    0    0  502    0  0.00000000000E+00  0.00000000000E+00  0.28429671766E+04  0.28429671766E+04  0.00000000000E+00 0. -1.
          1   -1    0    0  501    0 -0.00000000000E+00 -0.00000000000E+00 -0.18280212996E+02  0.18280212996E+02  0.00000000000E+00 0. -1.
         25    2    1    2    0    0 -0.88861162558E+02 -0.45830318403E+02  0.19756781705E+04  0.19821519541E+04  0.12500164686E+03 0.  0.
          2    1    1    2  501    0  0.80511949279E+02  0.94183905435E+02  0.25966988937E+03  0.28771728044E+03  0.00000000000E+00 0. -1.
          1    1    1    2  502    0  0.83492132796E+01 -0.48353587032E+02  0.58933890372E+03  0.59137815497E+03  0.00000000000E+00 0. -1.
         22    1    3    3    0    0 -0.48144970339E+02  0.26892284132E+02  0.34809118080E+03  0.35243240950E+03  0.00000000000E+00 0.  1.
         22    1    3    3    0    0 -0.40716192219E+02 -0.72722602534E+02  0.16275869897E+04  0.16297195446E+04  0.00000000000E+00 0.  1.
</event>
<event>
 7    1  0.5667373E-006  0.5974947E+02  0.7818608E-02  0.1402810E+00
          2   -1    0    0  502    0  0.00000000000E+00  0.00000000000E+00  0.48463356333E+03  0.48463356333E+03  0.00000000000E+00 0. -1.
          1   -1    0    0  501    0 -0.00000000000E+00 -0.00000000000E+00 -0.61964005670E+03  0.61964005670E+03  0.00000000000E+00 0. -1.
         25    2    1    2    0    0 -0.68209017076E+02  0.27764697108E+02 -0.33865182285E+03  0.36842024611E+03  0.12500028883E+03 0.  0.
          2    1    1    2  501    0  0.19054578279E+02 -0.58407706458E+02 -0.26073448794E+03  0.26787499011E+03  0.00000000000E+00 0. -1.
          1    1    1    2  502    0  0.49154438797E+02  0.30643009350E+02  0.46437981743E+03  0.46797838381E+03  0.00000000000E+00 0. -1.
         22    1    3    3    0    0 -0.45426614490E+02 -0.60266431304E+01 -0.32058077693E+03  0.32383936183E+03  0.00000000000E+00 0.  1.
         22    1    3    3    0    0 -0.22782402585E+02  0.33791340239E+02 -0.18071045921E+02  0.44580884282E+02  0.00000000000E+00 0.  1.
</event>
<event>
 7    1  0.5667373E-006  0.9938712E+02  0.7818608E-02  0.1332589E+00
          2   -1    0    0  502    0  0.00000000000E+00  0.00000000000E+00  0.74947196110E+02  0.74947196110E+02  0.00000000000E+00 0. -1.
          1   -1    0    0  501    0 -0.00000000000E+00 -0.00000000000E+00 -0.18906286564E+04  0.18906286564E+04  0.00000000000E+00 0. -1.
         25    2    1    2    0    0 -0.10969051444E+03 -0.65833597143E+02 -0.59470766270E+03  0.62102227184E+03  0.12500154630E+03 0.  0.
          2    1    1    2  501    0  0.59504476885E+02 -0.18867060707E+02 -0.12422592483E+04  0.12438266715E+04  0.00000000000E+00 0. -1.
          1    1    1    2  502    0  0.50186037558E+02  0.84700657849E+02  0.21285450764E+02  0.10072690912E+03  0.00000000000E+00 0. -1.
         22    1    3    3    0    0  0.21260686700E+02  0.47495356346E+01 -0.30168061127E+02  0.37211379978E+02  0.00000000000E+00 0. -1.
         22    1    3    3    0    0 -0.13095120114E+03 -0.70583132777E+02 -0.56453960157E+03  0.58381089186E+03  0.00000000000E+00 0. -1.
</event>
<event>
 7    1  0.5667373E-006  0.6789389E+02  0.7818608E-02  0.1373352E+00
          2   -1    0    0  502    0  0.00000000000E+00  0.00000000000E+00  0.28517687354E+03  0.28517687354E+03  0.00000000000E+00 0. -1.
          1   -1    0    0  501    0 -0.00000000000E+00 -0.00000000000E+00 -0.39075332213E+03  0.39075332213E+03  0.00000000000E+00 0. -1.
         25    2    1    2    0    0  0.70946836752E+02 -0.19941137039E+02 -0.22491360985E+02  0.14682657301E+03  0.12498431354E+03 0.  0.
          2    1    1    2  501    0 -0.16232219596E+02  0.62562939585E+02 -0.29714232138E+03  0.30409071923E+03  0.00000000000E+00 0. -1.
          1    1    1    2  502    0 -0.54714617156E+02 -0.42621802546E+02  0.21405723378E+03  0.22501290344E+03  0.00000000000E+00 0. -1.
         22    1    3    3    0    0 -0.29705310416E+02 -0.14976290503E+02 -0.31288141916E+02  0.45668835858E+02  0.00000000000E+00 0.  1.
         22    1    3    3    0    0  0.10065214717E+03 -0.49648465351E+01  0.87967809311E+01  0.10115773715E+03  0.00000000000E+00 0.  1.
</event>
<event>
 7    1  0.5667373E-006  0.2947095E+03  0.7818608E-02  0.1171192E+00
          2   -1    0    0  502    0  0.00000000000E+00  0.00000000000E+00  0.26233226059E+04  0.26233226059E+04  0.00000000000E+00 0. -1.
          1   -1    0    0  501    0 -0.00000000000E+00 -0.00000000000E+00 -0.33389033616E+03  0.33389033616E+03  0.00000000000E+00 0. -1.
         25    2    1    2    0    0  0.17583028616E+03  0.12260397917E+03  0.59830854905E+03  0.64772952685E+03  0.12502957588E+03 0.  0.
          2    1    1    2  501    0 -0.20755150878E+03 -0.22349052396E+03 -0.23215235057E+03  0.38330191361E+03  0.00000000000E+00 0. -1.
          1    1    1    2  502    0  0.31721222619E+02  0.10088654480E+03  0.19232760713E+04  0.19261815016E+04  0.00000000000E+00 0. -1.
         22    1    3    3    0    0  0.41319974250E+02  0.53565247526E+02  0.66560215527E+02  0.94904363996E+02  0.00000000000E+00 0. -1.
         22    1    3    3    0    0  0.13451031191E+03  0.69038731641E+02  0.53174833352E+03  0.55282516285E+03  0.00000000000E+00 0. -1.
</event>
<event>
 7    1  0.5667373E-006  0.9427244E+02  0.7818608E-02  0.1342709E+00
          2   -1    0    0  502    0  0.00000000000E+00  0.00000000000E+00  0.22674961024E+04  0.22674961024E+04  0.00000000000E+00 0. -1.
          1   -1    0    0  501    0 -0.00000000000E+00 -0.00000000000E+00 -0.18220467870E+03  0.18220467870E+03  0.00000000000E+00 0. -1.
         25    2    1    2    0    0  0.11649268634E+03 -0.96948712081E+02  0.45140395791E+03  0.49230047407E+03  0.12499849922E+03 0.  0.
          2    1    1    2  501    0 -0.77245962783E+02  0.51211341509E+02 -0.14792957528E+03  0.17456431339E+03  0.00000000000E+00 0. -1.
          1    1    1    2  502    0 -0.39246723559E+02  0.45737370572E+02  0.17818170410E+04  0.17828359936E+04  0.00000000000E+00 0. -1.
         22    1    3    3    0    0  0.12588142353E+03 -0.81298472326E+02  0.44965374078E+03  0.47396630787E+03  0.00000000000E+00 0.  1.
         22    1    3    3    0    0 -0.93887371933E+01 -0.15650239755E+02  0.17502171326E+01  0.18334166206E+02  0.00000000000E+00 0.  1.
</event>
<event>
 7    1  0.5667373E-006  0.1855145E+03  0.7818608E-02  0.1177699E+00
          2   -1    0    0  502    0  0.00000000000E+00  0.00000000000E+00  0.39873598996E+03  0.39873598996E+03  0.00000000000E+00 0. -1.
          1   -1    0    0  501    0 -0.00000000000E+00 -0.00000000000E+00 -0.15830171895E+04  0.15830171895E+04  0.00000000000E+00 0. -1.
         25    2    1    2    0    0 -0.29993405910E+03 -0.68599193602E+02  0.50245127224E+02  0.33588039870E+03  0.12499912102E+03 0.  0.
          2    1    1    2  501    0  0.14029857552E+03  0.68309636726E+02 -0.14042371190E+04  0.14128806684E+04  0.00000000000E+00 0. -1.
          1    1    1    2  502    0  0.15963548358E+03  0.28955687633E+00  0.16971079218E+03  0.23299211241E+03  0.00000000000E+00 0. -1.
         22    1    3    3    0    0 -0.23920171943E+03 -0.28412701451E+02 -0.10405168071E+02  0.24110788395E+03  0.00000000000E+00 0.  1.
         22    1    3    3    0    0 -0.60732339667E+02 -0.40186492151E+02  0.60650295295E+02  0.94772514751E+02  0.00000000000E+00 0.  1.
</event>
<event>
 7    1  0.5667373E-006  0.5248299E+02  0.7818608E-02  0.1471752E+00
          2   -1    0    0  502    0  0.00000000000E+00  0.00000000000E+00  0.33442789946E+03  0.33442789946E+03  0.00000000000E+00 0. -1.
          1   -1    0    0  501    0 -0.00000000000E+00 -0.00000000000E+00 -0.99606071522E+03  0.99606071522E+03  0.00000000000E+00 0. -1.
         25    2    1    2    0    0 -0.19754673682E+02 -0.12759405573E+02 -0.27737435784E+03  0.30514778932E+03  0.12500235749E+03 0.  0.
          2    1    1    2  501    0  0.75828381558E+01 -0.38564890298E+02 -0.70207624884E+03  0.70317551819E+03  0.00000000000E+00 0. -1.
          1    1    1    2  502    0  0.12171835527E+02  0.51324295870E+02  0.31781779092E+03  0.32216530718E+03  0.00000000000E+00 0. -1.
         22    1    3    3    0    0  0.17644198838E+02 -0.61814579998E+02 -0.12036032056E+03  0.13645133499E+03  0.00000000000E+00 0.  1.
         22    1    3    3    0    0 -0.37398872520E+02  0.49055174425E+02 -0.15701403727E+03  0.16869645433E+03  0.00000000000E+00 0.  1.
</event>
<event>
 7    1  0.5667373E-006  0.1514609E+03  0.7818608E-02  0.1322386E+00
          2   -1    0    0  502    0  0.00000000000E+00  0.00000000000E+00  0.34651857579E+03  0.34651857579E+03  0.00000000000E+00 0. -1.
          1   -1    0    0  501    0 -0.00000000000E+00 -0.00000000000E+00 -0.27906502223E+03  0.27906502223E+03  0.00000000000E+00 0. -1.
         25    2    1    2    0    0 -0.56187717403E+02  0.12623194323E+03  0.98138170982E+02  0.21058143561E+03  0.12498750875E+03 0.  0.
          2    1    1    2  501    0  0.20459919379E+02 -0.15330113969E+03 -0.19259164303E+03  0.24700483537E+03  0.00000000000E+00 0. -1.
          1    1    1    2  502    0  0.35727798024E+02  0.27069196458E+02  0.16190702562E+03  0.16799732704E+03  0.00000000000E+00 0. -1.
         22    1    3    3    0    0 -0.95568571771E+02  0.96653410959E+02  0.82050463005E+02  0.15876873823E+03  0.00000000000E+00 0. -1.
         22    1    3    3    0    0  0.39380854367E+02  0.29578532270E+02  0.16087707977E+02  0.51812697381E+02  0.00000000000E+00 0. -1.
</event>
<event>
 7    1  0.5667373E-006  0.1024602E+03  0.7818608E-02  0.1320739E+00
          2   -1    0    0  502    0  0.00000000000E+00  0.00000000000E+00  0.22673941468E+04  0.22673941468E+04  0.00000000000E+00 0. -1.
          1   -1    0    0  501    0 -0.00000000000E+00 -0.00000000000E+00 -0.94980248408E+02  0.94980248408E+02  0.00000000000E+00 0. -1.
         25    2    1    2    0    0 -0.13449448847E+03 -0.10078260872E+03  0.46890369635E+02  0.21463911592E+03  0.12500136667E+03 0.  0.
          2    1    1    2  501    0  0.49167703351E+02  0.45867978885E+02  0.10512468014E+03  0.12478995518E+03  0.00000000000E+00 0. -1.
          1    1    1    2  502    0  0.85326785120E+02  0.54914629835E+02  0.20203988486E+04  0.20229453241E+04  0.00000000000E+00 0. -1.
         22    1    3    3    0    0 -0.11207790407E+03 -0.15605569868E+02  0.55695121273E+02  0.12612270583E+03  0.00000000000E+00 0.  1.
         22    1    3    3    0    0 -0.22416584397E+02 -0.85177038851E+02 -0.88047516377E+01  0.88516410088E+02  0.00000000000E+00 0.  1.
</event>
<event>
 7    1  0.5667373E-006  0.2254007E+03  0.7818608E-02  0.1238601E+00
          2   -1    0    0  502    0  0.00000000000E+00  0.00000000000E+00  0.97599076878E+03  0.97599076878E+03  0.00000000000E+00 0. -1.
          1   -1    0    0  501    0 -0.00000000000E+00 -0.00000000000E+00 -0.13322198533E+04  0.13322198533E+04  0.00000000000E+00 0. -1.
         25    2    1    2    0    0 -0.39219780271E+02 -0.25569324277E+03 -0.11556468768E+03  0.30967491631E+03  0.12500452468E+03 0.  0.
          2    1    1    2  501    0 -0.45692833321E+02  0.48819174995E+02 -0.11043486788E+04  0.11063711634E+04  0.00000000000E+00 0. -1.
          1    1    1    2  502    0  0.84912613592E+02  0.20687406778E+03  0.86368428193E+03  0.89216454240E+03  0.00000000000E+00 0. -1.
         22    1    3    3    0    0 -0.84622675809E+02 -0.16550334677E+03 -0.83085400967E+02  0.20360633317E+03  0.00000000000E+00 0. -1.
         22    1    3    3    0    0  0.45402895539E+02 -0.90189896002E+02 -0.32479286717E+02  0.10606858314E+03  0.00000000000E+00 0. -1.
</event>
<event>
 7    1  0.5667373E-006  0.4312430E+02  0.7818608E-02  0.1521805E+00
          2   -1    0    0  502    0  0.00000000000E+00  0.00000000000E+00  0.81497082163E+03  0.81497082163E+03  0.00000000000E+00 0. -1.
          1   -1    0    0  501    0 -0.00000000000E+00 -0.00000000000E+00 -0.22951293646E+03  0.22951293646E+03  0.00000000000E+00 0. -1.
         25    2    1    2    0    0 -0.18663293998E+02 -0.13877209812E+02  0.21920301022E+03  0.25340906785E+03  0.12500120192E+03 0.  0.
          2    1    1    2  501    0 -0.24909748728E+02  0.22930979871E+02 -0.21019757132E+03  0.21290689141E+03  0.00000000000E+00 0. -1.
          1    1    1    2  502    0  0.43573042726E+02 -0.90537700599E+01  0.57645244626E+03  0.57816779883E+03  0.00000000000E+00 0. -1.
         22    1    3    3    0    0  0.37579077307E+02 -0.58821663911E+01  0.18099259296E+03  0.18494622364E+03  0.00000000000E+00 0. -1.
         22    1    3    3    0    0 -0.56242371306E+02 -0.79950434206E+01  0.38210417264E+02  0.68462844207E+02  0.00000000000E+00 0. -1.
</event>
<event>
 7    1  0.5667373E-006  0.1542289E+03  0.7818608E-02  0.1291433E+00
          2   -1    0    0  502    0  0.00000000000E+00  0.00000000000E+00  0.18457728454E+03  0.18457728454E+03  0.00000000000E+00 0. -1.
          1   -1    0    0  501    0 -0.00000000000E+00 -0.00000000000E+00 -0.76005007761E+03  0.76005007761E+03  0.00000000000E+00 0. -1.
         25    2    1    2    0    0 -0.70085595680E+01  0.13185550781E+03 -0.13721551966E+03  0.22778976990E+03  0.12500034235E+03 0.  0.
          2    1    1    2  501    0 -0.46775220736E+02 -0.15455181881E+03 -0.55946654754E+03  0.58230318889E+03  0.00000000000E+00 0. -1.
          1    1    1    2  502    0  0.53783780304E+02  0.22696310994E+02  0.12120927412E+03  0.13453440337E+03  0.00000000000E+00 0. -1.
         22    1    3    3    0    0  0.56964894876E+02  0.41822367113E+02 -0.63455859100E+02  0.94977658916E+02  0.00000000000E+00 0. -1.
         22    1    3    3    0    0 -0.63973454444E+02  0.90033140700E+02 -0.73759660555E+02  0.13281211098E+03  0.00000000000E+00 0. -1.
</event>
<event>
 7    1  0.5667373E-006  0.6377450E+02  0.7818608E-02  0.1393768E+00
          2   -1    0    0  502    0  0.00000000000E+00  0.00000000000E+00  0.28118700323E+03  0.28118700323E+03  0.00000000000E+00 0. -1.
          1   -1    0    0  501    0 -0.00000000000E+00 -0.00000000000E+00 -0.28071078949E+03  0.28071078949E+03  0.00000000000E+00 0. -1.
         25    2    1    2    0    0  0.20619290937E+02 -0.87195907023E+02 -0.14827514925E+03  0.21362829295E+03  0.12499298501E+03 0.  0.
          2    1    1    2  501    0  0.30718896625E+02  0.49557565096E+02 -0.86634587244E+02  0.10442774811E+03  0.00000000000E+00 0. -1.
          1    1    1    2  502    0 -0.51338187562E+02  0.37638341926E+02  0.23538595024E+03  0.24384175166E+03  0.00000000000E+00 0. -1.
         22    1    3    3    0    0  0.23589138440E+02  0.28958397392E+02 -0.41398620133E+02  0.55757349119E+02  0.00000000000E+00 0.  1.
         22    1    3    3    0    0 -0.29698475030E+01 -0.11615430441E+03 -0.10687652912E+03  0.15787094383E+03  0.00000000000E+00 0.  1.
</event>
<event>
 7    1  0.5667373E-006  0.6956552E+02  0.7818608E-02  0.1421382E+00
          2   -1    0    0  502    0  0.00000000000E+00  0.00000000000E+00  0.10086663229E+04  0.10086663229E+04  0.00000000000E+00 0. -1.
          1   -1    0    0  501    0 -0.00000000000E+00 -0.00000000000E+00 -0.14740679406E+03  0.14740679406E+03  0.00000000000E+00 0. -1.
         25    2    1    2    0    0 -0.10109350210E+03 -0.10921840591E+02  0.31009169242E+03  0.34945918655E+03  0.12500273032E+03 0.  0.
          2    1    1    2  501    0  0.35300905864E+02  0.24653995667E+02 -0.12237348154E+03  0.12972757009E+03  0.00000000000E+00 0. -1.
          1    1    1    2  502    0  0.65792596239E+02 -0.13732155076E+02  0.67354131800E+03  0.67688636037E+03  0.00000000000E+00 0. -1.
         22    1    3    3    0    0 -0.64527787440E+02  0.25677380420E+02  0.28232898843E+03  0.29074528530E+03  0.00000000000E+00 0.  1.
         22    1    3    3    0    0 -0.36565714663E+02 -0.36599221010E+02  0.27762703996E+02  0.58713901255E+02  0.00000000000E+00 0.  1.
</event>
<event>
 7    1  0.5667373E-006  0.7418138E+02  0.7818608E-02  0.1429061E+00
          2   -1    0    0  502    0  0.00000000000E+00  0.00000000000E+00  0.63969399321E+03  0.63969399321E+03  0.00000000000E+00 0. -1.
          1   -1    0    0  501    0 -0.00000000000E+00 -0.00000000000E+00 -0.13795904475E+03  0.13795904475E+03  0.00000000000E+00 0. -1.
         25    2    1    2    0    0 -0.49914504797E+02 -0.76331051956E+02  0.33571271936E+02  0.15833524493E+03  0.12500052883E+03 0.  0.
          2    1    1    2  501    0 -0.11977111809E+02  0.36147302648E+02 -0.68087767112E+02  0.78012965116E+02  0.00000000000E+00 0. -1.
          1    1    1    2  502    0  0.61891616607E+02  0.40183749308E+02  0.53625144363E+03  0.54130482791E+03  0.00000000000E+00 0. -1.
         22    1    3    3    0    0 -0.42217528876E+02  0.39274334282E+01  0.60016061940E+02  0.73482461639E+02  0.00000000000E+00 0.  1.
         22    1    3    3    0    0 -0.76969759214E+01 -0.80258485384E+02 -0.26444790004E+02  0.84852783295E+02  0.00000000000E+00 0.  1.
</event>
<event>
 7    1  0.5667373E-006  0.9084126E+02  0.7818608E-02  0.1341226E+00
          2   -1    0    0  502    0  0.00000000000E+00  0.00000000000E+00  0.31300254103E+04  0.31300254103E+04  0.00000000000E+00 0. -1.
          1   -1    0    0  501    0 -0.00000000000E+00 -0.00000000000E+00 -0.44149679990E+02  0.44149679990E+02  0.00000000000E+00 0. -1.
         25    2    1    2    0    0 -0.42879043296E+02  0.10964234758E+03  0.25127530055E+03  0.30434359706E+03  0.12500276663E+03 0.  0.
          2    1    1    2  501    0  0.59883223919E+02 -0.20671224692E+02  0.42553944947E+02  0.76316042008E+02  0.00000000000E+00 0. -1.
          1    1    1    2  502    0 -0.17004180623E+02 -0.88971122891E+02  0.27920464848E+04  0.27935154512E+04  0.00000000000E+00 0. -1.
         22    1    3    3    0    0  0.35121260195E+02  0.49416451729E+02  0.44238386769E+02  0.75050139794E+02  0.00000000000E+00 0. -1.
         22    1    3    3    0    0 -0.78000303491E+02  0.60225895853E+02  0.20703691378E+03  0.22929345727E+03  0.00000000000E+00 0. -1.
</event>
<event>
 7    1  0.5667373E-006  0.1227740E+03  0.7818608E-02  0.1403630E+00
          2   -1    0    0  502    0  0.00000000000E+00  0.00000000000E+00  0.13129539625E+03  0.13129539625E+03  0.00000000000E+00 0. -1.
          1   -1    0    0  501    0 -0.00000000000E+00 -0.00000000000E+00 -0.76285188770E+03  0.76285188770E+03  0.00000000000E+00 0. -1.
         25    2    1    2    0    0  0.12132575041E+03  0.37770656023E+02  0.21330432072E+01  0.17825821966E+03  0.12499953134E+03 0.  0.
          2    1    1    2  501    0 -0.12229864765E+03 -0.97797182705E+01 -0.66363864671E+03  0.67488432751E+03  0.00000000000E+00 0. -1.
          1    1    1    2  502    0  0.97289723751E+00 -0.27990937752E+02  0.29949112056E+02  0.41004736778E+02  0.00000000000E+00 0. -1.
         22    1    3    3    0    0  0.83765607038E+02 -0.28850729887E+02  0.34680413620E+02  0.95140804213E+02  0.00000000000E+00 0.  1.
         22    1    3    3    0    0  0.37560143372E+02  0.66621385909E+02 -0.32547370413E+02  0.83117415452E+02  0.00000000000E+00 0.  1.
</event>
<event>
 7    1  0.5667373E-006  0.8068777E+02  0.7818608E-02  0.1391574E+00
          2   -1    0    0  502    0  0.00000000000E+00  0.00000000000E+00  0.32530322504E+02  0.32530322504E+02  0.00000000000E+00 0. -1.
          1   -1    0    0  501    0 -0.00000000000E+00 -0.00000000000E+00 -0.13237908066E+04  0.13237908066E+04  0.00000000000E+00 0. -1.
         25    2    1    2    0    0 -0.13760607248E+02  0.37464115663E+02 -0.29615075222E+03  0.32391711943E+03  0.12499647173E+03 0.  0.
          2    1    1    2  501    0  0.20007054039E+02 -0.83947076444E+02 -0.97902591698E+03  0.98282202864E+03  0.00000000000E+00 0. -1.
          1    1    1    2  502    0 -0.62464467913E+01  0.46482960782E+02 -0.16083814873E+02  0.49581981015E+02  0.00000000000E+00 0. -1.
         22    1    3    3    0    0  0.24482255425E+02 -0.38363713648E+01 -0.24973223545E+03  0.25095873764E+03  0.00000000000E+00 0. -1.
         22    1    3    3    0    0 -0.38242862672E+02  0.41300487027E+02 -0.46418516773E+02  0.72958381791E+02  0.00000000000E+00 0. -1.
</event>
<event>
 7    1  0.5667373E-006  0.1080093E+03  0.7818608E-02  0.1400572E+00
          2   -1    0    0  502    0  0.00000000000E+00  0.00000000000E+00  0.99324668385E+03  0.99324668385E+03  0.00000000000E+00 0. -1.
          1   -1    0    0  501    0 -0.00000000000E+00 -0.00000000000E+00 -0.15194663322E+03  0.15194663322E+03  0.00000000000E+00 0. -1.
         25    2    1    2    0    0  0.40258682399E+02 -0.10027466546E+03  0.24122929815E+03  0.29240327575E+03  0.12502932193E+03 0.  0.
          2    1    1    2  501    0 -0.85872840126E+01  0.10805970107E+03 -0.10266324085E+03  0.14929963652E+03  0.00000000000E+00 0. -1.
          1    1    1    2  502    0 -0.31671398386E+02 -0.77850356100E+01  0.70273399333E+03  0.70349040480E+03  0.00000000000E+00 0. -1.
         22    1    3    3    0    0 -0.43369992765E+02 -0.46875257893E+02  0.11819660457E+03  0.13434538849E+03  0.00000000000E+00 0.  1.
         22    1    3    3    0    0  0.83628675163E+02 -0.53399407568E+02  0.12303269357E+03  0.15805788726E+03  0.00000000000E+00 0.  1.
</event>
<event>
 7    1  0.5667373E-006  0.5033781E+02  0.7818608E-02  0.1449134E+00
          2   -1    0    0  502    0  0.00000000000E+00  0.00000000000E+00  0.63169585206E+03  0.63169585206E+03  0.00000000000E+00 0. -1.
          1   -1    0    0  501    0 -0.00000000000E+00 -0.00000000000E+00 -0.41736865269E+03  0.41736865269E+03  0.00000000000E+00 0. -1.
         25    2    1    2    0    0  0.16734989779E+02  0.14604759271E+02  0.16857114359E+03  0.21103360121E+03  0.12500236603E+03 0.  0.
          2    1    1    2  501    0 -0.39344310823E+02  0.31399372153E+02 -0.39304029684E+03  0.39625064076E+03  0.00000000000E+00 0. -1.
          1    1    1    2  502    0  0.22609321044E+02 -0.46004131424E+02  0.43879635262E+03  0.44178026278E+03  0.00000000000E+00 0. -1.
         22    1    3    3    0    0 -0.33512846354E+02 -0.27779801688E+02  0.18693896126E+02  0.47373938035E+02  0.00000000000E+00 0. -1.
         22    1    3    3    0    0  0.50247836133E+02  0.42384560959E+02  0.14987724746E+03  0.16365966318E+03  0.00000000000E+00 0. -1.
</event>
<event>
 7    1  0.5667373E-006  0.1255621E+03  0.7818608E-02  0.1327447E+00
          2   -1    0    0  502    0  0.00000000000E+00  0.00000000000E+00  0.53803085496E+03  0.53803085496E+03  0.00000000000E+00 0. -1.
          1   -1    0    0  501    0 -0.00000000000E+00 -0.00000000000E+00 -0.12025586265E+03  0.12025586265E+03  0.00000000000E+00 0. -1.
         25    2    1    2    0    0  0.37960099348E+02  0.96797718482E+02  0.23123612560E+03  0.28267465587E+03  0.12499619132E+03 0.  0.
          2    1    1    2  501    0 -0.23987826749E+02  0.45794995150E+02 -0.66858304742E+02  0.84514083595E+02  0.00000000000E+00 0. -1.
          1    1    1    2  502    0 -0.13972272599E+02 -0.14259271363E+03  0.25339717145E+03  0.29109797815E+03  0.00000000000E+00 0. -1.
         22    1    3    3    0    0  0.20793583505E+02  0.33621683473E+02 -0.28225253143E+01  0.39632781428E+02  0.00000000000E+00 0. -1.
         22    1    3    3    0    0  0.17166515843E+02  0.63176035009E+02  0.23405865092E+03  0.24304187445E+03  0.00000000000E+00 0. -1.
</event>
<event>
 7    1  0.5667373E-006  0.3935801E+02  0.7818608E-02  0.1572536E+00
          2   -1    0    0  502    0  0.00000000000E+00  0.00000000000E+00  0.94170276617E+02  0.94170276617E+02  0.00000000000E+00 0. -1.
          1   -1    0    0  501    0 -0.00000000000E+00 -0.00000000000E+00 -0.31301662121E+03  0.31301662121E+03  0.00000000000E+00 0. -1.
         25    2    1    2    0    0 -0.84012261737E+01  0.64922696118E+02 -0.19942443034E+03  0.24429614348E+03  0.12499986092E+03 0.  0.
          2    1    1    2  501    0  0.38915406156E+01 -0.26461430904E+02 -0.83688642189E+02  0.87858637853E+02  0.00000000000E+00 0. -1.
          1    1    1    2  502    0  0.45096855581E+01 -0.38461265214E+02  0.64266727937E+02  0.75032116493E+02  0.00000000000E+00 0. -1.
         22    1    3    3    0    0 -0.66737732271E+02  0.35968627843E+02 -0.11313497881E+03  0.13618807043E+03  0.00000000000E+00 0.  1.
         22    1    3    3    0    0  0.58336506097E+02  0.28954068275E+02 -0.86289451527E+02  0.10810807305E+03  0.00000000000E+00 0.  1.
</event>
<event>
 7    1  0.5667373E-006  0.1283816E+03  0.7818608E-02  0.1384667E+00
          2   -1    0    0  502    0  0.00000000000E+00  0.00000000000E+00  0.54648135617E+03  0.54648135617E+03  0.00000000000E+00 0. -1.
          1   -1    0    0  501    0 -0.00000000000E+00 -0.00000000000E+00 -0.17202655311E+03  0.17202655311E+03  0.00000000000E+00 0. -1.
         25    2    1    2    0    0 -0.11293238266E+03  0.33358457772E+01  0.16916793862E+03  0.23876726851E+03  0.12500866424E+03 0.  0.
          2    1    1    2  501    0  0.12899351991E+03  0.23370820680E+02 -0.10495852246E+03  0.16793395986E+03  0.00000000000E+00 0. -1.
          1    1    1    2  502    0 -0.16061137251E+02 -0.26706666457E+02  0.31024538690E+03  0.31180668090E+03  0.00000000000E+00 0. -1.
         22    1    3    3    0    0 -0.43150195152E+02 -0.49137707948E+02  0.24577317378E+02  0.69860562648E+02  0.00000000000E+00 0.  1.
         22    1    3    3    0    0 -0.69782187506E+02  0.52473553725E+02  0.14459062124E+03  0.16890670586E+03  0.00000000000E+00 0.  1.
</event>
<event>
 7    1  0.5667373E-006  0.9634487E+02  0.7818608E-02  0.1295012E+00
          2   -1    0    0  502    0  0.00000000000E+00  0.00000000000E+00  0.15116855520E+03  0.15116855520E+03  0.00000000000E+00 0. -1.
          1   -1    0    0  501    0 -0.00000000000E+00 -0.00000000000E+00 -0.81001092840E+03  0.81001092840E+03  0.00000000000E+00 0. -1.
         25    2    1    2    0    0 -0.12900635892E+02 -0.94947353871E+01 -0.34161230975E+02  0.13057114042E+03  0.12500102640E+03 0.  0.
          2    1    1    2  501    0 -0.49878378469E+02  0.82577767788E+02 -0.70105646730E+03  0.70766313364E+03  0.00000000000E+00 0. -1.
          1    1    1    2  502    0  0.62779014361E+02 -0.73083032401E+02  0.76375325079E+02  0.12294520954E+03  0.00000000000E+00 0. -1.
         22    1    3    3    0    0 -0.11639657276E+02  0.39790237395E+02  0.28891727963E+02  0.50531936022E+02  0.00000000000E+00 0. -1.
         22    1    3    3    0    0 -0.12609786159E+01 -0.49284972782E+02 -0.63052958938E+02  0.80039204394E+02  0.00000000000E+00 0. -1.
</event>
<event>
 7    1  0.5667373E-006  0.1479640E+03  0.7818608E-02  0.1360579E+00
          2   -1    0    0  502    0  0.00000000000E+00  0.00000000000E+00  0.19598242194E+04  0.19598242194E+04  0.00000000000E+00 0. -1.
          1   -1    0    0  501    0 -0.00000000000E+00 -0.00000000000E+00 -0.10295062649E+04  0.10295062649E+04  0.00000000000E+00 0. -1.
         25    2    1    2    0    0  0.68107323893E+01  0.11655842829E+03  0.38615383523E+02  0.17535222231E+03  0.12500000297E+03 0.  0.
          2    1    1    2  501    0  0.76523404351E+01  0.32081120682E+02 -0.95784427652E+03  0.95841192328E+03  0.00000000000E+00 0. -1.
          1    1    1    2  502    0 -0.14463072824E+02 -0.14863954897E+03  0.18495468475E+04  0.18555663387E+04  0.00000000000E+00 0. -1.
         22    1    3    3    0    0  0.38327449381E+02  0.98057476030E+02 -0.19138072808E+02  0.10700713907E+03  0.00000000000E+00 0.  1.
         22    1    3    3    0    0 -0.31516716991E+02  0.18500952259E+02  0.57753456331E+02  0.68345083236E+02  0.00000000000E+00 0.  1.
</event>
<event>
 7    1  0.5667373E-006  0.1771055E+03  0.7818608E-02  0.1248172E+00
          2   -1    0    0  502    0  0.00000000000E+00  0.00000000000E+00  0.14294375183E+04  0.14294375183E+04  0.00000000000E+00 0. -1.
          1   -1    0    0  501    0 -0.00000000000E+00 -0.00000000000E+00 -0.25072808851E+03  0.25072808851E+03  0.00000000000E+00 0. -1.
         25    2    1    2    0    0 -0.75878495348E+02  0.72026910560E+02  0.57466887064E+03  0.59733939954E+03  0.12499850181E+03 0.  0.
          2    1    1    2  501    0  0.13909749202E+03 -0.11643946142E+03 -0.20291657336E+03  0.27217897826E+03  0.00000000000E+00 0. -1.
          1    1    1    2  502    0 -0.63218996671E+02  0.44412550856E+02  0.80695713248E+03  0.81064722899E+03  0.00000000000E+00 0. -1.
         22    1    3    3    0    0 -0.76458050225E+02 -0.40380057697E+01  0.18332066499E+03  0.19866707112E+03  0.00000000000E+00 0.  1.
         22    1    3    3    0    0  0.57955487750E+00  0.76064916330E+02  0.39134820565E+03  0.39867232842E+03  0.00000000000E+00 0.  1.
</event>
<event>
 7    1  0.5667373E-006  0.3024590E+02  0.7818608E-02  0.1608562E+00
          2   -1    0    0  502    0  0.00000000000E+00  0.00000000000E+00  0.51996376425E+02  0.51996376425E+02  0.00000000000E+00 0. -1.
          1   -1    0    0  501    0 -0.00000000000E+00 -0.00000000000E+00 -0.35361866500E+03  0.35361866500E+03  0.00000000000E+00 0. -1.
         25    2    1    2    0    0 -0.20304582702E+02  0.27379252046E+02 -0.15184773078E+03  0.19961023094E+03  0.12499844571E+03 0.  0.
          2    1    1    2  501    0 -0.75391724055E+01 -0.29772589962E+02 -0.16920352404E+03  0.17196824934E+03  0.00000000000E+00 0. -1.
          1    1    1    2  502    0  0.27843755107E+02  0.23933379161E+01  0.19428966251E+02  0.34036561143E+02  0.00000000000E+00 0. -1.
         22    1    3    3    0    0 -0.16363303607E+02 -0.44463788737E+02 -0.10083139115E+03  0.11140805920E+03  0.00000000000E+00 0.  1.
         22    1    3    3    0    0 -0.39412790948E+01  0.71843040783E+02 -0.51016339634E+02  0.88202171739E+02  0.00000000000E+00 0.  1.
</event>
<event>
 7    1  0.5667373E-006  0.1116228E+03  0.7818608E-02  0.1300121E+00
          2   -1    0    0  502    0  0.00000000000E+00  0.00000000000E+00  0.74272761365E+03  0.74272761365E+03  0.00000000000E+00 0. -1.
          1   -1    0    0  501    0 -0.00000000000E+00 -0.00000000000E+00 -0.18398160325E+03  0.18398160325E+03  0.00000000000E+00 0. -1.
         25    2    1    2    0    0  0.33001447652E+02 -0.54312836072E+02  0.78638037870E+02  0.16077214865E+03  0.12499905228E+03 0.  0.
          2    1    1    2  501    0 -0.10687670369E+03  0.63229399095E+02 -0.11316927898E+03  0.16801152462E+03  0.00000000000E+00 0. -1.
          1    1    1    2  502    0  0.73875256034E+02 -0.89165630231E+01  0.59327725151E+03  0.59792554362E+03  0.00000000000E+00 0. -1.
         22    1    3    3    0    0  0.30006651063E+02 -0.70320195590E+02  0.10493966224E+03  0.12983705838E+03  0.00000000000E+00 0.  1.
         22    1    3    3    0    0  0.29947965898E+01  0.16007359518E+02 -0.26301624375E+02  0.30935090272E+02  0.00000000000E+00 0.  1.
</event>
<event>
 7    1  0.5667373E-006  0.4264508E+02  0.7818608E-02  0.1546552E+00
          2   -1    0    0  502    0  0.00000000000E+00  0.00000000000E+00  0.14361185762E+04  0.14361185762E+04  0.00000000000E+00 0. -1.
          1   -1    0    0  501    0 -0.00000000000E+00 -0.00000000000E+00 -0.57434360456E+03  0.57434360456E+03  0.00000000000E+00 0. -1.
         25    2    1    2    0    0  0.62475499481E+01 -0.26709668198E+02  0.36954079310E+03  0.39107249590E+03  0.12499944411E+03 0.  0.
          2    1    1    2  501    0 -0.35237779391E+02  0.24103252820E+02 -0.56256817551E+03  0.56418580272E+03  0.00000000000E+00 0. -1.
          1    1    1    2  502    0  0.28990229443E+02  0.26064153782E+01  0.10548023540E+04  0.10552038821E+04  0.00000000000E+00 0. -1.
         22    1    3    3    0    0  0.23337889347E+02  0.27270647582E+02  0.29817156499E+02  0.46662705884E+02  0.00000000000E+00 0.  1.
         22    1    3    3    0    0 -0.17090339399E+02 -0.53980315781E+02  0.33972363660E+03  0.34440979001E+03  0.00000000000E+00 0.  1.
</event>
<event>
 7    1  0.5667373E-006  0.1830057E+03  0.7818608E-02  0.1319936E+00
          2   -1    0    0  502    0  0.00000000000E+00  0.00000000000E+00  0.21767960720E+04  0.21767960720E+04  0.00000000000E+00 0. -1.
          1   -1    0    0  501    0 -0.00000000000E+00 -0.00000000000E+00 -0.21983344923E+04  0.21983344923E+04  0.00000000000E+00 0. -1.
         25    2    1    2    0    0 -0.15894385346E+03  0.18183380642E+02  0.36038830738E+03  0.41363993145E+03  0.12499790762E+03 0.  0.
          2    1    1    2  501    0  0.18291786688E+03  0.11192693066E+02 -0.21676409598E+04  0.21753738881E+04  0.00000000000E+00 0. -1.
          1    1    1    2  502    0 -0.23974013422E+02 -0.29376073708E+02  0.17857142321E+04  0.17861167447E+04  0.00000000000E+00 0. -1.
         22    1    3    3    0    0 -0.15256157819E+03  0.16489547326E+02  0.37080763026E+03  0.40130442181E+03  0.00000000000E+00 0. -1.
         22    1    3    3    0    0 -0.63822752744E+01  0.16938333153E+01 -0.10419322873E+02  0.12335509641E+02  0.00000000000E+00 0. -1.
</event>
<event>
 7    1  0.5667373E-006  0.2891130E+02  0.7818608E-02  0.1630047E+00
          2   -1    0    0  502    0  0.00000000000E+00  0.00000000000E+00  0.11532701796E+03  0.11532701796E+03  0.00000000000E+00 0. -1.
          1   -1    0    0  501    0 -0.00000000000E+00 -0.00000000000E+00 -0.79023856962E+02  0.79023856962E+02  0.00000000000E+00 0. -1.
         25    2    1    2    0    0  0.15858770239E+02 -0.46134179403E+01  0.49626323156E+02  0.13550123487E+03  0.12500011393E+03 0.  0.
          2    1    1    2  501    0 -0.24218868199E+02 -0.19765496634E+02 -0.10231059004E+02  0.32892293966E+02  0.00000000000E+00 0. -1.
          1    1    1    2  502    0  0.83600979591E+01  0.24378914574E+02 -0.30921031543E+01  0.25957346082E+02  0.00000000000E+00 0. -1.
         22    1    3    3    0    0  0.52845944235E+02  0.28238408133E+02  0.60175609831E+02  0.84918817317E+02  0.00000000000E+00 0.  1.
         22    1    3    3    0    0 -0.36987173995E+02 -0.32851826073E+02 -0.10549286675E+02  0.50582417556E+02  0.00000000000E+00 0.  1.
</event>
<event>
 7    1  0.5667373E-006  0.9837545E+02  0.7818608E-02  0.1353856E+00
          2   -1    0    0  502    0  0.00000000000E+00  0.00000000000E+00  0.20662433152E+03  0.20662433152E+03  0.00000000000E+00 0. -1.
          1   -1    0    0  501    0 -0.00000000000E+00 -0.00000000000E+00 -0.95395408059E+03  0.95395408059E+03  0.00000000000E+00 0. -1.
         25    2    1    2    0    0 -0.13142389595E+03  0.68258260040E+02 -0.28976904902E+03  0.34860092056E+03  0.12500027822E+03 0.  0.
          2    1    1    2  501    0  0.49443387416E+02 -0.17658198492E+02 -0.62048445729E+03  0.62270171212E+03  0.00000000000E+00 0. -1.
          1    1    1    2  502    0  0.81980508533E+02 -0.50600061549E+02  0.16292375724E+03  0.18927577944E+03  0.00000000000E+00 0. -1.
         22    1    3    3    0    0  0.16381710663E+02  0.94467467954E+01 -0.96257333889E+02  0.98097277213E+02  0.00000000000E+00 0.  1.
         22    1    3    3    0    0 -0.14780560661E+03  0.58811513245E+02 -0.19351171513E+03  0.25050364334E+03  0.00000000000E+00 0.  1.
</event>
<event>
 7    1  0.5667373E-006  0.8683863E+02  0.7818608E-02  0.1376223E+00
          2   -1    0    0  502    0  0.00000000000E+00  0.00000000000E+00  0.13749530840E+03  0.13749530840E+03  0.00000000000E+00 0. -1.
          1   -1    0    0  501    0 -0.00000000000E+00 -0.00000000000E+00 -0.10951118574E+04  0.10951118574E+04  0.00000000000E+00 0. -1.
         25    2    1    2    0    0 -0.67546367553E+02  0.38645373824E+02 -0.12351114152E+03  0.19218729354E+03  0.12499990812E+03 0.  0.
          2    1    1    2  501    0  0.87925588494E+02  0.63062283564E+01 -0.92915116403E+03  0.93332339693E+03  0.00000000000E+00 0. -1.
          1    1    1    2  502    0 -0.20379220941E+02 -0.44951602180E+02  0.95045756567E+02  0.10709647532E+03  0.00000000000E+00 0. -1.
         22    1    3    3    0    0 -0.20026492891E+00  0.20412204035E+02 -0.12064289149E+03  0.12235769467E+03  0.00000000000E+00 0.  1.
         22    1    3    3    0    0 -0.67346102624E+02  0.18233169789E+02 -0.28682500313E+01  0.69829598864E+02  0.00000000000E+00 0.  1.
</event>
<event>
 7    1  0.5667373E-006  0.1798930E+03  0.7818608E-02  0.1204517E+00
          2   -1    0    0  502    0  0.00000000000E+00  0.00000000000E+00  0.22794653152E+04  0.22794653152E+04  0.00000000000E+00 0. -1.
          1   -1    0    0  501    0 -0.00000000000E+00 -0.00000000000E+00 -0.37598548455E+04  0.37598548455E+04  0.00000000000E+00 0. -1.
         25    2    1    2    0    0 -0.14172358439E+03  0.12197116683E+03  0.73768251333E+03  0.77120919438E+03  0.12500236444E+03 0.  0.
          2    1    1    2  501    0  0.35149932686E+02 -0.17652065610E+03 -0.37385734079E+04  0.37429034433E+04  0.00000000000E+00 0. -1.
          1    1    1    2  502    0  0.10657365171E+03  0.54549489271E+02  0.15205013642E+04  0.15252075231E+04  0.00000000000E+00 0. -1.
         22    1    3    3    0    0 -0.12004711191E+03  0.77431924460E+02  0.31799221868E+03  0.34860588512E+03  0.00000000000E+00 0.  1.
         22    1    3    3    0    0 -0.21676472483E+02  0.44539242366E+02  0.41969029465E+03  0.42260330926E+03  0.00000000000E+00 0.  1.
</event>
<event>
 7    1  0.5667373E-006  0.8936349E+02  0.7818608E-02  0.1348004E+00
          2   -1    0    0  502    0  0.00000000000E+00  0.00000000000E+00  0.20942090904E+04  0.20942090904E+04  0.00000000000E+00 0. -1.
          1   -1    0    0  501    0 -0.00000000000E+00 -0.00000000000E+00 -0.23482618373E+02  0.23482618373E+02  0.00000000000E+00 0. -1.
         25    2    1    2    0    0  0.75150159427E+02 -0.70091570637E+02  0.87335634652E+03  0.88822064174E+03  0.12499690262E+03 0.  0.
          2    1    1    2  501    0 -0.17173278909E+02  0.88240162827E+02  0.11774917955E+03  0.14814221927E+03  0.00000000000E+00 0. -1.
          1    1    1    2  502    0 -0.57976880518E+02 -0.18148592190E+02  0.10796209459E+04  0.10813288478E+04  0.00000000000E+00 0. -1.
         22    1    3    3    0    0  0.65656125376E+02 -0.10187865946E+03  0.77500158729E+03  0.78442172863E+03  0.00000000000E+00 0.  1.
         22    1    3    3    0    0  0.94940340508E+01  0.31787088818E+02  0.98354759238E+02  0.10379891311E+03  0.00000000000E+00 0.  1.
</event>
<event>
 7    1  0.5667373E-006  0.5767971E+02  0.7818608E-02  0.1452527E+00
          2   -1    0    0  502    0  0.00000000000E+00  0.00000000000E+00  0.62345913879E+02  0.62345913879E+02  0.00000000000E+00 0. -1.
          1   -1    0    0  501    0 -0.00000000000E+00 -0.00000000000E+00 -0.26474811593E+03  0.26474811593E+03  0.00000000000E+00 0. -1.
         25    2    1    2    0    0  0.18978418620E+02  0.73727426657E+02 -0.74457615676E+02  0.16420507015E+03  0.12499381871E+03 0.  0.
          2    1    1    2  501    0  0.71680972111E+01 -0.40474862772E+02 -0.17600139747E+02  0.44714215337E+02  0.00000000000E+00 0. -1.
          1    1    1    2  502    0 -0.26146515831E+02 -0.33252563885E+02 -0.11034444663E+03  0.11817474433E+03  0.00000000000E+00 0. -1.
         22    1    3    3    0    0  0.16116154770E+02  0.10011388655E+03 -0.19621786968E+02  0.10328376082E+03  0.00000000000E+00 0. -1.
         22    1    3    3    0    0  0.28622638493E+01 -0.26386459894E+02 -0.54835828708E+02  0.60921309327E+02  0.00000000000E+00 0. -1.
</event>
<event>
 7    1  0.5667373E-006  0.4719991E+02  0.7818608E-02  0.1481884E+00
          2   -1    0    0  502    0  0.00000000000E+00  0.00000000000E+00  0.14618983823E+04  0.14618983823E+04  0.00000000000E+00 0. -1.
          1   -1    0    0  501    0 -0.00000000000E+00 -0.00000000000E+00 -0.78143431492E+02  0.78143431492E+02  0.00000000000E+00 0. -1.
         25    2    1    2    0    0  0.15817916605E+02 -0.20827837569E+02  0.12912969415E+03  0.18161554708E+03  0.12500289487E+03 0.  0.
          2    1    1    2  501    0 -0.49612232437E+02 -0.18013462136E+01 -0.39635707199E+02  0.63526433402E+02  0.00000000000E+00 0. -1.
          1    1    1    2  502    0  0.33794315833E+02  0.22629183783E+02  0.12942609639E+04  0.12948998333E+04  0.00000000000E+00 0. -1.
         22    1    3    3    0    0  0.60943245416E+02 -0.32476896628E+02  0.11274816474E+03  0.13221564442E+03  0.00000000000E+00 0.  1.
         22    1    3    3    0    0 -0.45125328812E+02  0.11649059059E+02  0.16381529410E+02  0.49399902663E+02  0.00000000000E+00 0.  1.
</event>
<event>
 7    1  0.5667373E-006  0.4625632E+03  0.7818608E-02  0.1223439E+00
          2   -1    0    0  502    0  0.00000000000E+00  0.00000000000E+00  0.15775038778E+04  0.15775038778E+04  0.00000000000E+00 0. -1.
          1   -1    0    0  501    0 -0.00000000000E+00 -0.00000000000E+00 -0.16978016754E+04  0.16978016754E+04  0.00000000000E+00 0. -1.
         25    2    1    2    0    0 -0.16685435491E+03 -0.46407483496E+03 -0.23550872429E+03  0.56062120084E+03  0.12500377363E+03 0.  0.
          2    1    1    2  501    0  0.15411643039E+03  0.42817277376E+03 -0.12596329149E+04  0.13393128383E+04  0.00000000000E+00 0. -1.
          1    1    1    2  502    0  0.12737924526E+02  0.35902061198E+02  0.13748438417E+04  0.13753715141E+04  0.00000000000E+00 0. -1.
         22    1    3    3    0    0 -0.10044930419E+03 -0.26972636777E+03 -0.20412097315E+03  0.35285655423E+03  0.00000000000E+00 0. -1.
         22    1    3    3    0    0 -0.66405050726E+02 -0.19434846720E+03 -0.31387751141E+02  0.20776464662E+03  0.00000000000E+00 0. -1.
</event>
<event>
 7    1  0.5667373E-006  0.4436533E+02  0.7818608E-02  0.1561159E+00
          2   -1    0    0  502    0  0.00000000000E+00  0.00000000000E+00  0.99600044802E+02  0.99600044802E+02  0.00000000000E+00 0. -1.
          1   -1    0    0  501    0 -0.00000000000E+00 -0.00000000000E+00 -0.16361975337E+03  0.16361975337E+03  0.00000000000E+00 0. -1.
         25    2    1    2    0    0 -0.37487165570E+02  0.66593332412E+01 -0.25782891024E+02  0.13319244637E+03  0.12500334395E+03 0.  0.
          2    1    1    2  501    0 -0.49164738215E+01 -0.25006448244E+02 -0.69644047069E+02  0.74160551918E+02  0.00000000000E+00 0. -1.
          1    1    1    2  502    0  0.42403639392E+02  0.18347115003E+02  0.31407229528E+02  0.55866799883E+02  0.00000000000E+00 0. -1.
         22    1    3    3    0    0 -0.39748410459E+02  0.10121774800E+02  0.45804750245E+02  0.61485458477E+02  0.00000000000E+00 0.  1.
         22    1    3    3    0    0  0.22612448890E+01 -0.34624415593E+01 -0.71587641269E+02  0.71706987892E+02  0.00000000000E+00 0.  1.
</event>
<event>
 7    1  0.5667373E-006  0.1738503E+03  0.7818608E-02  0.1310147E+00
          2   -1    0    0  502    0  0.00000000000E+00  0.00000000000E+00  0.13008675163E+04  0.13008675163E+04  0.00000000000E+00 0. -1.
          1   -1    0    0  501    0 -0.00000000000E+00 -0.00000000000E+00 -0.21624536340E+04  0.21624536340E+04  0.00000000000E+00 0. -1.
         25    2    1    2    0    0 -0.90249826689E+01  0.21390642984E+03 -0.23364755501E+03  0.34067233987E+03  0.12501620754E+03 0.  0.
          2    1    1    2  501    0  0.14853102703E+02 -0.40982827967E+02 -0.18690383262E+04  0.18695465952E+04  0.00000000000E+00 0. -1.
          1    1    1    2  502    0 -0.58281200342E+01 -0.17292360187E+03  0.12410997635E+04  0.12531022153E+04  0.00000000000E+00 0. -1.
         22    1    3    3    0    0 -0.17960516796E+02  0.82777502107E+02 -0.15677480872E+02  0.86142198864E+02  0.00000000000E+00 0.  1.
         22    1    3    3    0    0  0.89355341274E+01  0.13112892773E+03 -0.21797007414E+03  0.25453014100E+03  0.00000000000E+00 0.  1.
</event>
<event>
 7    1  0.5667373E-006  0.3002850E+03  0.7818608E-02  0.1158140E+00
          2   -1    0    0  502    0  0.00000000000E+00  0.00000000000E+00  0.15534967235E+04  0.15534967235E+04  0.00000000000E+00 0. -1.
          1   -1    0    0  501    0 -0.00000000000E+00 -0.00000000000E+00 -0.11209807718E+04  0.11209807718E+04  0.00000000000E+00 0. -1.
         25    2    1    2    0    0  0.38437279911E+03 -0.42646661578E+02  0.25635488413E+03  0.48052461513E+03  0.12499957075E+03 0.  0.
          2    1    1    2  501    0 -0.29347731242E+03 -0.36723732368E+02 -0.98402255400E+03  0.10275105606E+04  0.00000000000E+00 0. -1.
          1    1    1    2  502    0 -0.90895486695E+02  0.79370393946E+02  0.11601836216E+04  0.11664423195E+04  0.00000000000E+00 0. -1.
         22    1    3    3    0    0 -0.29204138797E+01 -0.17192322254E+02  0.17938801745E+02  0.25018100842E+02  0.00000000000E+00 0. -1.
         22    1    3    3    0    0  0.38729321299E+03 -0.25454339324E+02  0.23841608239E+03  0.45550651429E+03  0.00000000000E+00 0. -1.
</event>
<event>
 7    1  0.5667373E-006  0.7001247E+02  0.7818608E-02  0.1450622E+00
          2   -1    0    0  502    0  0.00000000000E+00  0.00000000000E+00  0.56379201619E+03  0.56379201619E+03  0.00000000000E+00 0. -1.
          1   -1    0    0  501    0 -0.00000000000E+00 -0.00000000000E+00 -0.91442653496E+02  0.91442653496E+02  0.00000000000E+00 0. -1.
         25    2    1    2    0    0  0.78687061123E+02 -0.56293348655E+02  0.23686428176E+03  0.28476509674E+03  0.12500351057E+03 0.  0.
          2    1    1    2  501    0 -0.33371813407E+02  0.81035771495E+01 -0.59206341280E+02  0.68445136719E+02  0.00000000000E+00 0. -1.
          1    1    1    2  502    0 -0.45315247716E+02  0.48189771505E+02  0.29469142222E+03  0.30202443623E+03  0.00000000000E+00 0. -1.
         22    1    3    3    0    0  0.98665827837E+02 -0.69248954941E+02  0.23050156711E+03  0.26011792669E+03  0.00000000000E+00 0.  1.
         22    1    3    3    0    0 -0.19978766714E+02  0.12955606286E+02  0.63627146430E+01  0.24647170046E+02  0.00000000000E+00 0.  1.
</event>
<event>
 7    1  0.5667373E-006  0.1040801E+03  0.7818608E-02  0.1286140E+00
          2   -1    0    0  502    0  0.00000000000E+00  0.00000000000E+00  0.89892722832E+03  0.89892722832E+03  0.00000000000E+00 0. -1.
          1   -1    0    0  501    0 -0.00000000000E+00 -0.00000000000E+00 -0.28121613430E+03  0.28121613430E+03  0.00000000000E+00 0. -1.
         25    2    1    2    0    0 -0.15031531765E+03  0.15083016965E+02 -0.34332618765E+02  0.19906248020E+03  0.12499980076E+03 0.  0.
          2    1    1    2  501    0  0.74771310465E+02 -0.65654585289E+02 -0.14665468499E+03  0.17722547804E+03  0.00000000000E+00 0. -1.
          1    1    1    2  502    0  0.75544007186E+02  0.50571568324E+02  0.79869839777E+03  0.80385540438E+03  0.00000000000E+00 0. -1.
         22    1    3    3    0    0 -0.14629546092E+03 -0.15168988911E+02  0.75119097547E+01  0.14727148026E+03  0.00000000000E+00 0.  1.
         22    1    3    3    0    0 -0.40198567352E+01  0.30252005876E+02 -0.41844528519E+02  0.51790999939E+02  0.00000000000E+00 0.  1.
</event>
<event>
 7    1  0.5667373E-006  0.2330361E+03  0.7818608E-02  0.1326258E+00
          2   -1    0    0  502    0  0.00000000000E+00  0.00000000000E+00  0.31747275732E+04  0.31747275732E+04  0.00000000000E+00 0. -1.
          1   -1    0    0  501    0 -0.00000000000E+00 -0.00000000000E+00 -0.24667700174E+03  0.24667700174E+03  0.00000000000E+00 0. -1.
         25    2    1    2    0    0  0.20895380047E+03  0.50344429924E+02  0.11413314992E+04  0.11681004590E+04  0.12499935567E+03 0.  0.
          2    1    1    2  501    0 -0.22146581378E+03 -0.75560117988E+02 -0.17448822981E+03  0.29189481058E+03  0.00000000000E+00 0. -1.
          1    1    1    2  502    0  0.12512013307E+02  0.25215688063E+02  0.19612073021E+04  0.19614093054E+04  0.00000000000E+00 0. -1.
         22    1    3    3    0    0  0.21197319560E+03  0.53471679811E+02  0.88051623136E+03  0.90724896797E+03  0.00000000000E+00 0. -1.
         22    1    3    3    0    0 -0.30193951310E+01 -0.31272498869E+01  0.26081526785E+03  0.26085149105E+03  0.00000000000E+00 0. -1.
</event>
<event>
 7    1  0.6086988E-006  0.2312416E+03  0.7818608E-02  0.1278664E+00
          2   -1    0    0  502    0  0.00000000000E+00  0.00000000000E+00  0.18294570025E+04  0.18294570025E+04  0.00000000000E+00 0. -1.
          1   -1    0    0  501    0 -0.00000000000E+00 -0.00000000000E+00 -0.16189823905E+04  0.16189823905E+04  0.00000000000E+00 0. -1.
         25    2    1    2    0    0  0.18053292290E+03 -0.18610745824E+03 -0.64841169237E+03  0.70942987222E+03  0.12499959413E+03 0.  0.
          2    1    1    2  501    0 -0.13994132947E+03  0.16933019754E+03 -0.92695462041E+03  0.95262855289E+03  0.00000000000E+00 0. -1.
          1    1    1    2  502    0 -0.40591593431E+02  0.16777260701E+02  0.17858409247E+04  0.17863809679E+04  0.00000000000E+00 0. -1.
         22    1    3    3    0    0  0.13789289903E+03 -0.59303223626E+02 -0.40085174889E+03  0.42803440110E+03  0.00000000000E+00 0.  1.
         22    1    3    3    0    0  0.42640023871E+02 -0.12680423462E+03 -0.24755994348E+03  0.28139547112E+03  0.00000000000E+00 0.  1.
</event>
<event>
 7    1  0.5667373E-006  0.8316749E+02  0.7818608E-02  0.1376418E+00
          2   -1    0    0  502    0  0.00000000000E+00  0.00000000000E+00  0.82576960999E+03  0.82576960999E+03  0.00000000000E+00 0. -1.
          1   -1    0    0  501    0 -0.00000000000E+00 -0.00000000000E+00 -0.55429818709E+02  0.55429818709E+02  0.00000000000E+00 0. -1.
         25    2    1    2    0    0  0.21929151687E+02 -0.12586140502E+03  0.14420313464E+03  0.22966041584E+03  0.12500952602E+03 0.  0.
          2    1    1    2  501    0  0.71803948024E+01  0.50948216344E+02  0.57127503101E+02  0.76881925241E+02  0.00000000000E+00 0. -1.
          1    1    1    2  502    0 -0.29109546489E+02  0.74913188677E+02  0.56900915355E+03  0.57465708762E+03  0.00000000000E+00 0. -1.
         22    1    3    3    0    0  0.49502781322E+02 -0.12554355281E+03  0.14969351743E+03  0.20154368800E+03  0.00000000000E+00 0.  1.
         22    1    3    3    0    0 -0.27573629635E+02 -0.31785220788E+00 -0.54903827928E+01  0.28116727841E+02  0.00000000000E+00 0.  1.
</event>
<event>
 7    1  0.5667373E-006  0.5663292E+02  0.7818608E-02  0.1518075E+00
          2   -1    0    0  502    0  0.00000000000E+00  0.00000000000E+00  0.21222202633E+03  0.21222202633E+03  0.00000000000E+00 0. -1.
          1   -1    0    0  501    0 -0.00000000000E+00 -0.00000000000E+00 -0.18832279858E+03  0.18832279858E+03  0.00000000000E+00 0. -1.
         25    2    1    2    0    0  0.60019392836E+02 -0.44038715876E+02  0.10945042829E+03  0.18205923176E+03  0.12499772640E+03 0.  0.
          2    1    1    2  501    0 -0.12379202986E+02  0.23354565319E+02 -0.14044812805E+03  0.14291380990E+03  0.00000000000E+00 0. -1.
          1    1    1    2  502    0 -0.47640189850E+02  0.20684150557E+02  0.54896927506E+02  0.75571783245E+02  0.00000000000E+00 0. -1.
         22    1    3    3    0    0  0.51971685256E+02 -0.76450886518E+00 -0.11598813366E+02  0.53255732214E+02  0.00000000000E+00 0. -1.
         22    1    3    3    0    0  0.80477075797E+01 -0.43274207011E+02  0.12104924166E+03  0.12880349955E+03  0.00000000000E+00 0. -1.
</event>
<event>
 7    1  0.5667373E-006  0.1382421E+03  0.7818608E-02  0.1288799E+00
          2   -1    0    0  502    0  0.00000000000E+00  0.00000000000E+00  0.17103121850E+04  0.17103121850E+04  0.00000000000E+00 0. -1.
          1   -1    0    0  501    0 -0.00000000000E+00 -0.00000000000E+00 -0.33273805037E+02  0.33273805037E+02  0.00000000000E+00 0. -1.
         25    2    1    2    0    0  0.29589211331E+02  0.92198435298E+02  0.66091102906E+03  0.67956129425E+03  0.12499636561E+03 0.  0.
          2    1    1    2  501    0 -0.83327365600E+02 -0.13179972182E+03  0.24763924895E+03  0.29264280984E+03  0.00000000000E+00 0. -1.
          1    1    1    2  502    0  0.53738154269E+02  0.39601286525E+02  0.76848810195E+03  0.77138188594E+03  0.00000000000E+00 0. -1.
         22    1    3    3    0    0  0.72291566843E+02  0.60677300164E+02  0.52933724378E+03  0.53768552431E+03  0.00000000000E+00 0. -1.
         22    1    3    3    0    0 -0.42702355512E+02  0.31521135134E+02  0.13157378527E+03  0.14187576994E+03  0.00000000000E+00 0. -1.
</event>
<event>
 7    1  0.5667373E-006  0.2106596E+02  0.7818608E-02  0.1725182E+00
          2   -1    0    0  502    0  0.00000000000E+00  0.00000000000E+00  0.89391036757E+03  0.89391036757E+03  0.00000000000E+00 0. -1.
          1   -1    0    0  501    0 -0.00000000000E+00 -0.00000000000E+00 -0.16207751732E+03  0.16207751732E+03  0.00000000000E+00 0. -1.
         25    2    1    2    0    0 -0.12802983135E+02  0.14106965646E+02  0.21495706150E+03  0.24938885653E+03  0.12500136245E+03 0.  0.
          2    1    1    2  501    0 -0.74663450780E+01 -0.19742310373E+02 -0.14392447712E+03  0.14546394825E+03  0.00000000000E+00 0. -1.
          1    1    1    2  502    0  0.20269328213E+02  0.56353447273E+01  0.66080026587E+03  0.66113508011E+03  0.00000000000E+00 0. -1.
         22    1    3    3    0    0  0.21646090235E+02  0.11761345269E+02  0.21340811771E+03  0.21482529453E+03  0.00000000000E+00 0.  1.
         22    1    3    3    0    0 -0.34449073370E+02  0.23456203769E+01  0.15489437897E+01  0.34563561996E+02  0.00000000000E+00 0.  1.
</event>
<event>
 7    1  0.5667373E-006  0.1905113E+03  0.7818608E-02  0.1238824E+00
          2   -1    0    0  502    0  0.00000000000E+00  0.00000000000E+00  0.25770571260E+04  0.25770571260E+04  0.00000000000E+00 0. -1.
          1   -1    0    0  501    0 -0.00000000000E+00 -0.00000000000E+00 -0.10958626207E+04  0.10958626207E+04  0.00000000000E+00 0. -1.
         25    2    1    2    0    0 -0.41961382308E+02  0.14167160012E+03  0.44883482377E+02  0.19867260170E+03  0.12499870316E+03 0.  0.
          2    1    1    2  501    0 -0.78370398089E+02  0.94015548040E+01 -0.10136331528E+04  0.10167017640E+04  0.00000000000E+00 0. -1.
          1    1    1    2  502    0  0.12033178040E+03 -0.15107315492E+03  0.24499441757E+04  0.24575453810E+04  0.00000000000E+00 0. -1.
         22    1    3    3    0    0 -0.71535676768E+02  0.94221905958E+02  0.69911889959E+02  0.13741467524E+03  0.00000000000E+00 0.  1.
         22    1    3    3    0    0  0.29574294460E+02  0.47449694158E+02 -0.25028407582E+02  0.61257926463E+02  0.00000000000E+00 0.  1.
</event>
<event>
 7    1  0.5667373E-006  0.1053347E+03  0.7818608E-02  0.1284849E+00
          2   -1    0    0  502    0  0.00000000000E+00  0.00000000000E+00  0.88303705077E+03  0.88303705077E+03  0.00000000000E+00 0. -1.
          1   -1    0    0  501    0 -0.00000000000E+00 -0.00000000000E+00 -0.12126751809E+03  0.12126751809E+03  0.00000000000E+00 0. -1.
         25    2    1    2    0    0 -0.95940513158E+02 -0.15756870611E+03  0.17919970708E+03  0.28595193171E+03  0.12499397195E+03 0.  0.
          2    1    1    2  501    0  0.52525573163E+02  0.77676043881E+02 -0.30478897374E+02  0.98597499026E+02  0.00000000000E+00 0. -1.
          1    1    1    2  502    0  0.43414939995E+02  0.79892662224E+02  0.61304872297E+03  0.61975513812E+03  0.00000000000E+00 0. -1.
         22    1    3    3    0    0 -0.10357146239E+03 -0.53269317307E+02  0.11240491141E+03  0.16186269520E+03  0.00000000000E+00 0.  1.
         22    1    3    3    0    0  0.76309492308E+01 -0.10429938880E+03  0.66794795672E+02  0.12408923651E+03  0.00000000000E+00 0.  1.
</event>
<event>
 7    1  0.5667373E-006  0.4091074E+02  0.7818608E-02  0.1551635E+00
          2   -1    0    0  502    0  0.00000000000E+00  0.00000000000E+00  0.50689522961E+02  0.50689522961E+02  0.00000000000E+00 0. -1.
          1   -1    0    0  501    0 -0.00000000000E+00 -0.00000000000E+00 -0.12058871589E+04  0.12058871589E+04  0.00000000000E+00 0. -1.
         25    2    1    2    0    0  0.24026362283E+02 -0.60196476776E+02 -0.27811640069E+03  0.31172566517E+03  0.12499310418E+03 0.  0.
          2    1    1    2  501    0 -0.24469633005E+01  0.40280348669E+02 -0.90406823187E+03  0.90496843149E+03  0.00000000000E+00 0. -1.
          1    1    1    2  502    0 -0.21579398983E+02  0.19916128107E+02  0.26986996594E+02  0.39882585227E+02  0.00000000000E+00 0. -1.
         22    1    3    3    0    0 -0.30334528850E+02  0.25050917179E+02 -0.68311608140E+02  0.78830247360E+02  0.00000000000E+00 0. -1.
         22    1    3    3    0    0  0.54360891133E+02 -0.85247393955E+02 -0.20980479255E+03  0.23289541781E+03  0.00000000000E+00 0. -1.
</event>
<event>
 7    1  0.5667373E-006  0.1927482E+03  0.7818608E-02  0.1214712E+00
          2   -1    0    0  502    0  0.00000000000E+00  0.00000000000E+00  0.29656424598E+04  0.29656424598E+04  0.00000000000E+00 0. -1.
          1   -1    0    0  501    0 -0.00000000000E+00 -0.00000000000E+00 -0.10284512897E+04  0.10284512897E+04  0.00000000000E+00 0. -1.
         25    2    1    2    0    0 -0.24157495970E+03  0.79929165126E+02  0.41320108263E+03  0.50110731064E+03  0.12500507788E+03 0.  0.
          2    1    1    2  501    0  0.14969346720E+03 -0.11991884473E+03 -0.97414216551E+03  0.99284521557E+03  0.00000000000E+00 0. -1.
          1    1    1    2  502    0  0.91881492507E+02  0.39989679605E+02  0.24981322529E+04  0.25001412233E+04  0.00000000000E+00 0. -1.
         22    1    3    3    0    0 -0.11664236914E+03  0.77469867625E+01  0.28519735921E+03  0.30822555342E+03  0.00000000000E+00 0. -1.
         22    1    3    3    0    0 -0.12493259056E+03  0.72182178363E+02  0.12800372342E+03  0.19288175722E+03  0.00000000000E+00 0. -1.
</event>
<event>
 7    1  0.5667373E-006  0.4548958E+02  0.7818608E-02  0.1483175E+00
          2   -1    0    0  502    0  0.00000000000E+00  0.00000000000E+00  0.43564101898E+03  0.43564101898E+03  0.00000000000E+00 0. -1.
          1   -1    0    0  501    0 -0.00000000000E+00 -0.00000000000E+00 -0.12214994935E+03  0.12214994935E+03  0.00000000000E+00 0. -1.
         25    2    1    2    0    0 -0.32008804259E+02  0.18445784395E+02  0.33435178408E+03  0.35886041770E+03  0.12499949347E+03 0.  0.
          2    1    1    2  501    0  0.39910865269E+02  0.22619301320E+02 -0.99665998728E+02  0.10971700534E+03  0.00000000000E+00 0. -1.
          1    1    1    2  502    0 -0.79020610095E+01 -0.41065085715E+02  0.78805284280E+02  0.89213545291E+02  0.00000000000E+00 0. -1.
         22    1    3    3    0    0 -0.57298744226E+02  0.37950094105E+02  0.31296795863E+03  0.32042518450E+03  0.00000000000E+00 0. -1.
         22    1    3    3    0    0  0.25289939967E+02 -0.19504309709E+02  0.21383825450E+02  0.38435233207E+02  0.00000000000E+00 0. -1.
</event>
<event>
 7    1  0.5667373E-006  0.6180799E+02  0.7818608E-02  0.1471326E+00
          2   -1    0    0  502    0  0.00000000000E+00  0.00000000000E+00  0.98657568648E+03  0.98657568648E+03  0.00000000000E+00 0. -1.
          1   -1    0    0  501    0 -0.00000000000E+00 -0.00000000000E+00 -0.16825683011E+03  0.16825683011E+03  0.00000000000E+00 0. -1.
         25    2    1    2    0    0 -0.44694144818E+02 -0.29141354261E+02 -0.95454205130E+02  0.16608316033E+03  0.12500130303E+03 0.  0.
          2    1    1    2  501    0  0.72608563047E+02  0.10664823234E+02 -0.96995603484E+00  0.73394023579E+02  0.00000000000E+00 0. -1.
          1    1    1    2  502    0 -0.27914418229E+02  0.18476531027E+02  0.91474301753E+03  0.91535533268E+03  0.00000000000E+00 0. -1.
         22    1    3    3    0    0 -0.46361674101E+02 -0.75576835794E+02 -0.70921043422E+02  0.11353879220E+03  0.00000000000E+00 0.  1.
         22    1    3    3    0    0  0.16675292832E+01  0.46435481534E+02 -0.24533161707E+02  0.52544368134E+02  0.00000000000E+00 0.  1.
</event>
<event>
 7    1  0.5667373E-006  0.1219783E+03  0.7818608E-02  0.1335785E+00
          2   -1    0    0  502    0  0.00000000000E+00  0.00000000000E+00  0.63431985676E+03  0.63431985676E+03  0.00000000000E+00 0. -1.
          1   -1    0    0  501    0 -0.00000000000E+00 -0.00000000000E+00 -0.31049186541E+03  0.31049186541E+03  0.00000000000E+00 0. -1.
         25    2    1    2    0    0 -0.26637272362E+02  0.12078144758E+03  0.30189656311E+03  0.34937658749E+03  0.12499905085E+03 0.  0.
          2    1    1    2  501    0 -0.45537014334E+02 -0.19308669115E+02 -0.27187103252E+03  0.27633368000E+03  0.00000000000E+00 0. -1.
          1    1    1    2  502    0  0.72174286696E+02 -0.10147277846E+03  0.29380246077E+03  0.31910145469E+03  0.00000000000E+00 0. -1.
         22    1    3    3    0    0  0.27210841523E+02  0.10708482916E+03  0.25008731457E+03  0.27340675822E+03  0.00000000000E+00 0. -1.
         22    1    3    3    0    0 -0.53848113884E+02  0.13696618419E+02  0.51809248536E+02  0.75969829267E+02  0.00000000000E+00 0. -1.
</event>
<event>
 7    1  0.5667373E-006  0.1999655E+03  0.7818608E-02  0.1176416E+00
          2   -1    0    0  502    0  0.00000000000E+00  0.00000000000E+00  0.19610787568E+04  0.19610787568E+04  0.00000000000E+00 0. -1.
          1   -1    0    0  501    0 -0.00000000000E+00 -0.00000000000E+00 -0.27895559388E+03  0.27895559388E+03  0.00000000000E+00 0. -1.
         25    2    1    2    0    0 -0.91871078457E+02  0.67841934824E+01  0.83032290873E+02  0.17608502287E+03  0.12500101445E+03 0.  0.
          2    1    1    2  501    0 -0.10031569956E+03 -0.10728893446E+03 -0.20205070380E+03  0.24979720163E+03  0.00000000000E+00 0. -1.
          1    1    1    2  502    0  0.19218677802E+03  0.10050474098E+03  0.18011415759E+04  0.18141521262E+04  0.00000000000E+00 0. -1.
         22    1    3    3    0    0 -0.10614750244E+03 -0.14656080776E+02  0.98909903505E+02  0.14582613616E+03  0.00000000000E+00 0. -1.
         22    1    3    3    0    0  0.14276423980E+02  0.21440274258E+02 -0.15877612632E+02  0.30258886708E+02  0.00000000000E+00 0. -1.
</event>
<event>
 7    1  0.5667373E-006  0.8471573E+02  0.7818608E-02  0.1330333E+00
          2   -1    0    0  502    0  0.00000000000E+00  0.00000000000E+00  0.87873010867E+02  0.87873010867E+02  0.00000000000E+00 0. -1.
          1   -1    0    0  501    0 -0.00000000000E+00 -0.00000000000E+00 -0.15580700736E+04  0.15580700736E+04  0.00000000000E+00 0. -1.
         25    2    1    2    0    0  0.54011883106E+02 -0.36367605072E+02 -0.73128509418E+02  0.15878544612E+03  0.12500061117E+03 0.  0.
          2    1    1    2  501    0 -0.36550459176E+02 -0.65146730287E+02 -0.13808671222E+04  0.13828861275E+04  0.00000000000E+00 0. -1.
          1    1    1    2  502    0 -0.17461423930E+02  0.10151433536E+03 -0.16201431170E+02  0.10427151088E+03  0.00000000000E+00 0. -1.
         22    1    3    3    0    0 -0.67501824305E+01 -0.31087662144E+02 -0.90038906250E+02  0.95493519880E+02  0.00000000000E+00 0.  1.
         22    1    3    3    0    0  0.60762065537E+02 -0.52799429285E+01  0.16910396832E+02  0.63291926236E+02  0.00000000000E+00 0.  1.
</event>
<event>
 7    1  0.6308271E-006  0.5700869E+02  0.7818608E-02  0.1461524E+00
          2   -1    0    0  502    0  0.00000000000E+00  0.00000000000E+00  0.21474764625E+04  0.21474764625E+04  0.00000000000E+00 0. -1.
          1   -1    0    0  501    0 -0.00000000000E+00 -0.00000000000E+00 -0.76022626798E+03  0.76022626798E+03  0.00000000000E+00 0. -1.
         25    2    1    2    0    0  0.27811007372E+02  0.14595175332E+02 -0.12375746844E+03  0.17868342891E+03  0.12500154198E+03 0.  0.
          2    1    1    2  501    0 -0.57741107033E+02  0.10325551234E+02 -0.60741400628E+03  0.61023964757E+03  0.00000000000E+00 0. -1.
          1    1    1    2  502    0  0.29930099661E+02 -0.24920726566E+02  0.21184216692E+04  0.21187796539E+04  0.00000000000E+00 0. -1.
         22    1    3    3    0    0 -0.49706884234E+02  0.48625180306E+00 -0.41224291561E+02  0.64579044556E+02  0.00000000000E+00 0. -1.
         22    1    3    3    0    0  0.77517891605E+02  0.14108923529E+02 -0.82533176880E+02  0.11410438435E+03  0.00000000000E+00 0. -1.
</event>
<event>
 7    1  0.5667373E-006  0.4855814E+02  0.7818608E-02  0.1476994E+00
          2   -1    0    0  502    0  0.00000000000E+00  0.00000000000E+00  0.90386131645E+03  0.90386131645E+03  0.00000000000E+00 0. -1.
          1   -1    0    0  501    0 -0.00000000000E+00 -0.00000000000E+00 -0.46167844763E+03  0.46167844763E+03  0.00000000000E+00 0. -1.
         25    2    1    2    0    0 -0.63720421557E+02 -0.50716739825E+02  0.10765744571E+03  0.18397571076E+03  0.12499782683E+03 0.  0.
          2    1    1    2  501    0  0.17744008913E+02  0.36876918095E+02 -0.42176764304E+03  0.42374839428E+03  0.00000000000E+00 0. -1.
          1    1    1    2  502    0  0.45976412644E+02  0.13839821729E+02  0.75629306615E+03  0.75781565904E+03  0.00000000000E+00 0. -1.
         22    1    3    3    0    0 -0.57950381022E+02 -0.86914216141E+02  0.10355614728E+03  0.14709249902E+03  0.00000000000E+00 0.  1.
         22    1    3    3    0    0 -0.57700405357E+01  0.36197476316E+02  0.41012984237E+01  0.36883211739E+02  0.00000000000E+00 0.  1.
</event>
<event>
 7    1  0.5667373E-006  0.1301352E+03  0.7818608E-02  0.1366667E+00
          2   -1    0    0  502    0  0.00000000000E+00  0.00000000000E+00  0.64622087171E+03  0.64622087171E+03  0.00000000000E+00 0. -1.
          1   -1    0    0  501    0 -0.00000000000E+00 -0.00000000000E+00 -0.15910010067E+04  0.15910010067E+04  0.00000000000E+00 0. -1.
         25    2    1    2    0    0  0.84682197272E+02 -0.12784391935E+03 -0.30370106787E+03  0.36245528972E+03  0.12499742465E+03 0.  0.
          2    1    1    2  501    0 -0.34695651414E+02  0.81475355909E+01 -0.12508468663E+04  0.12513544875E+04  0.00000000000E+00 0. -1.
          1    1    1    2  502    0 -0.49986545859E+02  0.11969638376E+03  0.60976779913E+03  0.62341210119E+03  0.00000000000E+00 0. -1.
         22    1    3    3    0    0  0.73808367471E+02 -0.71454119763E+02 -0.28356327971E+03  0.30159824260E+03  0.00000000000E+00 0. -1.
         22    1    3    3    0    0  0.10873829801E+02 -0.56389799591E+02 -0.20137788165E+02  0.60857047124E+02  0.00000000000E+00 0. -1.
</event>
<event>
 7    1  0.5667373E-006  0.1077546E+03  0.7818608E-02  0.1314283E+00
          2   -1    0    0  502    0  0.00000000000E+00  0.00000000000E+00  0.33057832643E+03  0.33057832643E+03  0.00000000000E+00 0. -1.
          1   -1    0    0  501    0 -0.00000000000E+00 -0.00000000000E+00 -0.97797410769E+02  0.97797410769E+02  0.00000000000E+00 0. -1.
         25    2    1    2    0    0 -0.18597669984E+02  0.65284015472E+02  0.83298153544E+02  0.16483693413E+03  0.12499902585E+03 0.  0.
          2    1    1    2  501    0  0.79439894414E+00  0.67743507331E+02  0.75012612893E+01  0.68162179954E+02  0.00000000000E+00 0. -1.
          1    1    1    2  502    0  0.17803271040E+02 -0.13302752280E+03  0.14198150083E+03  0.19537662312E+03  0.00000000000E+00 0. -1.
         22    1    3    3    0    0  0.90801217100E+01  0.10963567840E+02 -0.31660099024E+02  0.34713258278E+02  0.00000000000E+00 0. -1.
         22    1    3    3    0    0 -0.27677791694E+02  0.54320447632E+02  0.11495825257E+03  0.13012367585E+03  0.00000000000E+00 0. -1.
</event>
<event>
 7    1  0.5667373E-006  0.1348203E+03  0.7818608E-02  0.1425022E+00
          2   -1    0    0  502    0  0.00000000000E+00  0.00000000000E+00  0.71532355745E+02  0.71532355745E+02  0.00000000000E+00 0. -1.
          1   -1    0    0  501    0 -0.00000000000E+00 -0.00000000000E+00 -0.31696250090E+04  0.31696250090E+04  0.00000000000E+00 0. -1.
         25    2    1    2    0    0 -0.58031720516E+01 -0.14539145674E+03 -0.47978530863E+03  0.51671167281E+03  0.12499863177E+03 0.  0.
          2    1    1    2  501    0 -0.12168340010E+02  0.13339674678E+03 -0.26674247536E+04  0.26707859474E+04  0.00000000000E+00 0. -1.
          1    1    1    2  502    0  0.17971512062E+02  0.11994709955E+02  0.49117409022E+02  0.53659744518E+02  0.00000000000E+00 0. -1.
         22    1    3    3    0    0 -0.59529079246E+01  0.21305017809E+02 -0.31972928437E+02  0.38879416784E+02  0.00000000000E+00 0. -1.
         22    1    3    3    0    0  0.14973587295E+00 -0.16669647455E+03 -0.44781238019E+03  0.47783225603E+03  0.00000000000E+00 0. -1.
</event>
<event>
 7    1  0.5667373E-006  0.5565648E+03  0.7818608E-02  0.1134669E+00
          2   -1    0    0  502    0  0.00000000000E+00  0.00000000000E+00  0.74522410396E+03  0.74522410396E+03  0.00000000000E+00 0. -1.
          1   -1    0    0  501    0 -0.00000000000E+00 -0.00000000000E+00 -0.19097662216E+04  0.19097662216E+04  0.00000000000E+00 0. -1.
         25    2    1    2    0    0  0.36994189545E+03 -0.34984430909E+03 -0.16481216462E+03  0.54957862731E+03  0.12500228550E+03 0.  0.
          2    1    1    2  501    0 -0.36754192368E+03  0.43594445882E+03 -0.14963844741E+04  0.16013435394E+04  0.00000000000E+00 0. -1.
          1    1    1    2  502    0 -0.23999717617E+01 -0.86100149736E+02  0.49665452099E+03  0.50406815895E+03  0.00000000000E+00 0. -1.
         22    1    3    3    0    0  0.31507339774E+03 -0.34712805787E+03 -0.13964256004E+03  0.48915148890E+03  0.00000000000E+00 0. -1.
         22    1    3    3    0    0  0.54868497704E+02 -0.27162512221E+01 -0.25169604584E+02  0.60427138406E+02  0.00000000000E+00 0. -1.
</event>
<event>
 7    1  0.5667373E-006  0.6532529E+02  0.7818608E-02  0.1431361E+00
          2   -1    0    0  502    0  0.00000000000E+00  0.00000000000E+00  0.11403634819E+04  0.11403634819E+04  0.00000000000E+00 0. -1.
          1   -1    0    0  501    0 -0.00000000000E+00 -0.00000000000E+00 -0.61713941080E+02  0.61713941080E+02  0.00000000000E+00 0. -1.
         25    2    1    2    0    0  0.17899025983E+02 -0.34152258624E+02  0.90853741984E+03  0.91790675474E+03  0.12500326090E+03 0.  0.
          2    1    1    2  501    0  0.11197285535E+02  0.65123937234E+02 -0.34949095609E+02  0.74752563087E+02  0.00000000000E+00 0. -1.
          1    1    1    2  502    0 -0.29096311518E+02 -0.30971678610E+02  0.20506121658E+03  0.20941810515E+03  0.00000000000E+00 0. -1.
         22    1    3    3    0    0 -0.47711710976E+02 -0.30682729702E+02  0.58640087148E+03  0.58913820054E+03  0.00000000000E+00 0.  1.
         22    1    3    3    0    0  0.65610736959E+02 -0.34695289214E+01  0.32213654837E+03  0.32876855420E+03  0.00000000000E+00 0.  1.
</event>
<event>
 7    1  0.5667373E-006  0.6946848E+02  0.7818608E-02  0.1458754E+00
          2   -1    0    0  502    0  0.00000000000E+00  0.00000000000E+00  0.60009229934E+02  0.60009229934E+02  0.00000000000E+00 0. -1.
          1   -1    0    0  501    0 -0.00000000000E+00 -0.00000000000E+00 -0.34845627103E+03  0.34845627103E+03  0.00000000000E+00 0. -1.
         25    2    1    2    0    0  0.43162987101E+02  0.60334091145E+01 -0.22444923856E+03  0.26057963751E+03  0.12499936525E+03 0.  0.
          2    1    1    2  501    0  0.25177367922E+02  0.20726082523E+02 -0.66911615270E+02  0.74435439210E+02  0.00000000000E+00 0. -1.
          1    1    1    2  502    0 -0.68340355023E+02 -0.26759491638E+02  0.29138127336E+01  0.73450424247E+02  0.00000000000E+00 0. -1.
         22    1    3    3    0    0 -0.78496513082E+01 -0.43075917120E+02 -0.28537980444E+02  0.52264404610E+02  0.00000000000E+00 0.  1.
         22    1    3    3    0    0  0.51012638409E+02  0.49109326235E+02 -0.19591125812E+03  0.20831523290E+03  0.00000000000E+00 0.  1.
</event>
<event>
 7    1  0.5667373E-006  0.1701935E+03  0.7818608E-02  0.1281171E+00
          2   -1    0    0  502    0  0.00000000000E+00  0.00000000000E+00  0.14014763056E+04  0.14014763056E+04  0.00000000000E+00 0. -1.
          1   -1    0    0  501    0 -0.00000000000E+00 -0.00000000000E+00 -0.21091935176E+03  0.21091935176E+03  0.00000000000E+00 0. -1.
         25    2    1    2    0    0  0.17625821288E+03  0.49021267240E+02  0.34108902527E+03  0.40673855347E+03  0.12499794186E+03 0.  0.
          2    1    1    2  501    0 -0.14058950919E+03 -0.95098641804E+02 -0.13659742841E+03  0.21787156587E+03  0.00000000000E+00 0. -1.
          1    1    1    2  502    0 -0.35668703691E+02  0.46077374564E+02  0.98606535698E+03  0.98778553801E+03  0.00000000000E+00 0. -1.
         22    1    3    3    0    0  0.37828681416E+02  0.46277595336E+02  0.31421373384E+02  0.67527236528E+02  0.00000000000E+00 0.  1.
         22    1    3    3    0    0  0.13842953147E+03  0.27436719046E+01  0.30966765188E+03  0.33921131694E+03  0.00000000000E+00 0.  1.
</event>
<event>
 7    1  0.5667373E-006  0.4586243E+02  0.7818608E-02  0.1573515E+00
          2   -1    0    0  502    0  0.00000000000E+00  0.00000000000E+00  0.26437336121E+03  0.26437336121E+03  0.00000000000E+00 0. -1.
          1   -1    0    0  501    0 -0.00000000000E+00 -0.00000000000E+00 -0.89796513075E+03  0.89796513075E+03  0.00000000000E+00 0. -1.
         25    2    1    2    0    0 -0.45209630911E+02  0.86844885725E+01 -0.45350375980E+03  0.47266158209E+03  0.12499591977E+03 0.  0.
          2    1    1    2  501    0  0.15353435728E+01 -0.22761507438E+02 -0.43251341849E+03  0.43311465073E+03  0.00000000000E+00 0. -1.
          1    1    1    2  502    0  0.43674287338E+02  0.14077018865E+02  0.25242540875E+03  0.25656225914E+03  0.00000000000E+00 0. -1.
         22    1    3    3    0    0 -0.78300435662E+02  0.32819446127E+02 -0.22436322670E+03  0.23988941570E+03  0.00000000000E+00 0. -1.
         22    1    3    3    0    0  0.33090804751E+02 -0.24134957555E+02 -0.22914053310E+03  0.23277216639E+03  0.00000000000E+00 0. -1.
</event>
<event>
 7    1  0.5667373E-006  0.3610565E+02  0.7818608E-02  0.1589952E+00
          2   -1    0    0  502    0  0.00000000000E+00  0.00000000000E+00  0.22909435955E+04  0.22909435955E+04  0.00000000000E+00 0. -1.
          1   -1    0    0  501    0 -0.00000000000E+00 -0.00000000000E+00 -0.21507408756E+03  0.21507408756E+03  0.00000000000E+00 0. -1.
         25    2    1    2    0    0  0.11475210626E+02  0.48087767621E+01  0.10295778610E+04  0.10372128243E+04  0.12500026516E+03 0.  0.
          2    1    1    2  501    0  0.26184022685E+02 -0.42215829930E+00 -0.21015800463E+03  0.21178330475E+03  0.00000000000E+00 0. -1.
          1    1    1    2  502    0 -0.37659233311E+02 -0.43866184628E+01  0.12564496516E+04  0.12570215540E+04  0.00000000000E+00 0. -1.
         22    1    3    3    0    0  0.42806350525E+01 -0.44496971896E+02  0.84023519704E+03  0.84142349069E+03  0.00000000000E+00 0. -1.
         22    1    3    3    0    0  0.71945755739E+01  0.49305748658E+02  0.18934266394E+03  0.19578933361E+03  0.00000000000E+00 0. -1.
</event>
<event>
 7    1  0.5667373E-006  0.6521038E+02  0.7818608E-02  0.1396899E+00
          2   -1    0    0  502    0  0.00000000000E+00  0.00000000000E+00  0.12020706900E+04  0.12020706900E+04  0.00000000000E+00 0. -1.
          1   -1    0    0  501    0 -0.00000000000E+00 -0.00000000000E+00 -0.85786062485E+03  0.85786062485E+03  0.00000000000E+00 0. -1.
         25    2    1    2    0    0 -0.10905034076E+01 -0.15251101443E+02  0.21793591649E+03  0.25170502482E+03  0.12500228210E+03 0.  0.
          2    1    1    2  501    0  0.26789610377E+02 -0.48739725583E+02 -0.83882494315E+03  0.84066671715E+03  0.00000000000E+00 0. -1.
          1    1    1    2  502    0 -0.25699106970E+02  0.63990827026E+02  0.96509909182E+03  0.96755957288E+03  0.00000000000E+00 0. -1.
         22    1    3    3    0    0 -0.29957426843E+02  0.30404515103E+02  0.21142151566E+02  0.47632683470E+02  0.00000000000E+00 0.  1.
         22    1    3    3    0    0  0.28866923436E+02 -0.45655616546E+02  0.19679376492E+03  0.20407234135E+03  0.00000000000E+00 0.  1.
</event>
<event>
 7    1  0.5667373E-006  0.8701012E+02  0.7818608E-02  0.1372195E+00
          2   -1    0    0  502    0  0.00000000000E+00  0.00000000000E+00  0.26974127137E+03  0.26974127137E+03  0.00000000000E+00 0. -1.
          1   -1    0    0  501    0 -0.00000000000E+00 -0.00000000000E+00 -0.78697281090E+03  0.78697281090E+03  0.00000000000E+00 0. -1.
         25    2    1    2    0    0 -0.76557707447E+02  0.40136753195E+02 -0.12898741756E+03  0.19933649046E+03  0.12500096405E+03 0.  0.
          2    1    1    2  501    0  0.34888657545E+02  0.37086106741E+02 -0.61351287206E+03  0.61562215840E+03  0.00000000000E+00 0. -1.
          1    1    1    2  502    0  0.41669049903E+02 -0.77222859936E+02  0.22526875008E+03  0.24175543340E+03  0.00000000000E+00 0. -1.
         22    1    3    3    0    0 -0.23156378912E+02  0.76981215131E+02 -0.41647736768E+02  0.90536508355E+02  0.00000000000E+00 0.  1.
         22    1    3    3    0    0 -0.53401328535E+02 -0.36844461936E+02 -0.87339680795E+02  0.10879998211E+03  0.00000000000E+00 0.  1.
</event>
<event>
 7    1  0.5667373E-006  0.6687880E+02  0.7818608E-02  0.1377591E+00
          2   -1    0    0  502    0  0.00000000000E+00  0.00000000000E+00  0.10642716351E+04  0.10642716351E+04  0.00000000000E+00 0. -1.
          1   -1    0    0  501    0 -0.00000000000E+00 -0.00000000000E+00 -0.17213871357E+03  0.17213871357E+03  0.00000000000E+00 0. -1.
         25    2    1    2    0    0 -0.33072095014E+02 -0.39510322900E-04 -0.68428672433E+02  0.14629157319E+03  0.12499991083E+03 0.  0.
          2    1    1    2  501    0  0.79698110476E+02 -0.47945640973E+02 -0.29673891665E+02  0.97627420064E+02  0.00000000000E+00 0. -1.
          1    1    1    2  502    0 -0.46626015463E+02  0.47945680483E+02  0.99023548559E+03  0.99249135539E+03  0.00000000000E+00 0. -1.
         22    1    3    3    0    0 -0.21488954175E+02 -0.50791971039E+02 -0.75732923195E+02  0.93686045542E+02  0.00000000000E+00 0.  1.
         22    1    3    3    0    0 -0.11583140838E+02  0.50791931529E+02  0.73042507628E+01  0.52605527650E+02  0.00000000000E+00 0.  1.
</event>
<event>
 7    1  0.5667373E-006  0.9500803E+02  0.7818608E-02  0.1480659E+00
          2   -1    0    0  502    0  0.00000000000E+00  0.00000000000E+00  0.27283792079E+04  0.27283792079E+04  0.00000000000E+00 0. -1.
          1   -1    0    0  501    0 -0.00000000000E+00 -0.00000000000E+00 -0.58046402407E+03  0.58046402407E+03  0.00000000000E+00 0. -1.
         25    2    1    2    0    0  0.95485814939E+02 -0.63578542321E+02 -0.16422854930E+03  0.23612659581E+03  0.12499992379E+03 0.  0.
          2    1    1    2  501    0 -0.14103333814E+02  0.14712715357E+02 -0.37917600616E+03  0.37972333569E+03  0.00000000000E+00 0. -1.
          1    1    1    2  502    0 -0.81382481125E+02  0.48865826963E+02  0.26913197393E+04  0.26929933005E+04  0.00000000000E+00 0. -1.
         22    1    3    3    0    0  0.18545428426E+02 -0.20190939055E+02 -0.14256645500E+03  0.14517851434E+03  0.00000000000E+00 0.  1.
         22    1    3    3    0    0  0.76940386513E+02 -0.43387603266E+02 -0.21662094301E+02  0.90948081472E+02  0.00000000000E+00 0.  1.
</event>
<event>
 7    1  0.5667373E-006  0.3803866E+03  0.7818608E-02  0.1188397E+00
          2   -1    0    0  502    0  0.00000000000E+00  0.00000000000E+00  0.14643944360E+04  0.14643944360E+04  0.00000000000E+00 0. -1.
          1   -1    0    0  501    0 -0.00000000000E+00 -0.00000000000E+00 -0.28990556786E+03  0.28990556786E+03  0.00000000000E+00 0. -1.
         25    2    1    2    0    0  0.10404879108E+03  0.31239437149E+03  0.65225721173E+03  0.74126979494E+03  0.12500017751E+03 0.  0.
          2    1    1    2  501    0 -0.14916363507E+03 -0.36263528322E+03 -0.85690974062E+02  0.40136900939E+03  0.00000000000E+00 0. -1.
          1    1    1    2  502    0  0.45114843988E+02  0.50240911734E+02  0.60792263045E+03  0.61166119949E+03  0.00000000000E+00 0. -1.
         22    1    3    3    0    0  0.15817806188E+02  0.28109184845E+02  0.18118804666E+03  0.18403651137E+03  0.00000000000E+00 0. -1.
         22    1    3    3    0    0  0.88230984891E+02  0.28428518664E+03  0.47106916506E+03  0.55723328357E+03  0.00000000000E+00 0. -1.
</event>
<event>
 7    1  0.5667373E-006  0.1135524E+03  0.7818608E-02  0.1306995E+00
          2   -1    0    0  502    0  0.00000000000E+00  0.00000000000E+00  0.89497975967E+03  0.89497975967E+03  0.00000000000E+00 0. -1.
          1   -1    0    0  501    0 -0.00000000000E+00 -0.00000000000E+00 -0.17997443544E+04  0.17997443544E+04  0.00000000000E+00 0. -1.
         25    2    1    2    0    0  0.30118133616E+02 -0.41985607456E+02  0.23178961405E+03  0.26836804954E+03  0.12500036649E+03 0.  0.
          2    1    1    2  501    0 -0.95917267819E+02  0.61667748755E+02 -0.17777947438E+04  0.17814480583E+04  0.00000000000E+00 0. -1.
          1    1    1    2  502    0  0.65799134203E+02 -0.19682141299E+02  0.64124053499E+03  0.64490800620E+03  0.00000000000E+00 0. -1.
         22    1    3    3    0    0 -0.39120143613E+02  0.95956511453E+01  0.12331670627E+03  0.12972845564E+03  0.00000000000E+00 0.  1.
         22    1    3    3    0    0  0.69238277229E+02 -0.51581258602E+02  0.10847290778E+03  0.13863959390E+03  0.00000000000E+00 0.  1.
</event>
<event>
 7    1  0.5667373E-006  0.8062411E+02  0.7818608E-02  0.1413292E+00
          2   -1    0    0  502    0  0.00000000000E+00  0.00000000000E+00  0.74698905250E+03  0.74698905250E+03  0.00000000000E+00 0. -1.
          1   -1    0    0  501    0 -0.00000000000E+00 -0.00000000000E+00 -0.22613050168E+04  0.22613050168E+04  0.00000000000E+00 0. -1.
         25    2    1    2    0    0 -0.16576145626E+02  0.38792760030E+02 -0.95885069723E+02  0.16309202839E+03  0.12500166516E+03 0.  0.
          2    1    1    2  501    0  0.26703436119E+02 -0.77020328451E+02 -0.21304883198E+04  0.21320472991E+04  0.00000000000E+00 0. -1.
          1    1    1    2  502    0 -0.10127290493E+02  0.38227568421E+02  0.71205742524E+03  0.71315474186E+03  0.00000000000E+00 0. -1.
         22    1    3    3    0    0  0.54594989251E+02  0.12164534571E+02 -0.39950460876E+02  0.68735930028E+02  0.00000000000E+00 0.  1.
         22    1    3    3    0    0 -0.71171134877E+02  0.26628225459E+02 -0.55934608848E+02  0.94356098360E+02  0.00000000000E+00 0.  1.
</event>
<event>
 7    1  0.5667373E-006  0.3893445E+03  0.7818608E-02  0.1114295E+00
          2   -1    0    0  502    0  0.00000000000E+00  0.00000000000E+00  0.29588628063E+04  0.29588628063E+04  0.00000000000E+00 0. -1.
          1   -1    0    0  501    0 -0.00000000000E+00 -0.00000000000E+00 -0.11497229469E+04  0.11497229469E+04  0.00000000000E+00 0. -1.
         25    2    1    2    0    0 -0.26891123383E+03 -0.68546369790E+02  0.40700212729E+03  0.50822209236E+03  0.12500842792E+03 0.  0.
          2    1    1    2  501    0 -0.13383370020E+03 -0.84969669042E+02 -0.10746871931E+04  0.10863166514E+04  0.00000000000E+00 0. -1.
          1    1    1    2  502    0  0.40274493404E+03  0.15351603883E+03  0.24768249252E+04  0.25140470095E+04  0.00000000000E+00 0. -1.
         22    1    3    3    0    0 -0.10669121458E+03 -0.18218952250E+02  0.64703787279E+02  0.12610125129E+03  0.00000000000E+00 0.  1.
         22    1    3    3    0    0 -0.16222001925E+03 -0.50327417539E+02  0.34229834001E+03  0.38212084107E+03  0.00000000000E+00 0.  1.
</event>
<event>
 7    1  0.5667373E-006  0.1190296E+03  0.7818608E-02  0.1301461E+00
          2   -1    0    0  502    0  0.00000000000E+00  0.00000000000E+00  0.17847180170E+04  0.17847180170E+04  0.00000000000E+00 0. -1.
          1   -1    0    0  501    0 -0.00000000000E+00 -0.00000000000E+00 -0.74644422173E+03  0.74644422173E+03  0.00000000000E+00 0. -1.
         25    2    1    2    0    0 -0.15213451986E+03 -0.96827964319E+02 -0.13814692516E+03  0.25928754720E+03  0.12499956958E+03 0.  0.
          2    1    1    2  501    0  0.88306950764E+02  0.70813351836E+02 -0.54118029874E+03  0.55289127692E+03  0.00000000000E+00 0. -1.
          1    1    1    2  502    0  0.63827569091E+02  0.26014612483E+02  0.17176010192E+04  0.17189834146E+04  0.00000000000E+00 0. -1.
         22    1    3    3    0    0 -0.13922581070E+03 -0.98753962356E+02 -0.15991959195E+03  0.23390264500E+03  0.00000000000E+00 0. -1.
         22    1    3    3    0    0 -0.12908709151E+02  0.19259980371E+01  0.21772666791E+02  0.25384902198E+02  0.00000000000E+00 0. -1.
</event>
<event>
 7    1  0.5667373E-006  0.5774791E+02  0.7818608E-02  0.1429178E+00
          2   -1    0    0  502    0  0.00000000000E+00  0.00000000000E+00  0.99859678124E+03  0.99859678124E+03  0.00000000000E+00 0. -1.
          1   -1    0    0  501    0 -0.00000000000E+00 -0.00000000000E+00 -0.30691953444E+03  0.30691953444E+03  0.00000000000E+00 0. -1.
         25    2    1    2    0    0  0.19439526964E+02  0.22013368054E+02 -0.22439330029E+03  0.25853505890E+03  0.12500215952E+03 0.  0.
          2    1    1    2  501    0 -0.76761631465E+02 -0.29013207842E+02 -0.38515022429E+02  0.90650544660E+02  0.00000000000E+00 0. -1.
          1    1    1    2  502    0  0.57322104501E+02  0.69998397877E+01  0.95458556952E+03  0.95633071212E+03  0.00000000000E+00 0. -1.
         22    1    3    3    0    0  0.64132466701E+02  0.12367157933E+02 -0.19116283132E+03  0.20201274207E+03  0.00000000000E+00 0.  1.
         22    1    3    3    0    0 -0.44692939737E+02  0.96462101208E+01 -0.33230468973E+02  0.56522316834E+02  0.00000000000E+00 0.  1.
</event>
<event>
 7    1  0.5667373E-006  0.1631253E+03  0.7818608E-02  0.1333088E+00
          2   -1    0    0  502    0  0.00000000000E+00  0.00000000000E+00  0.21572332831E+03  0.21572332831E+03  0.00000000000E+00 0. -1.
          1   -1    0    0  501    0 -0.00000000000E+00 -0.00000000000E+00 -0.60217293137E+03  0.60217293137E+03  0.00000000000E+00 0. -1.
         25    2    1    2    0    0  0.68909247542E+02  0.11906557458E+03 -0.15035487754E+03  0.23907339862E+03  0.12499762110E+03 0.  0.
          2    1    1    2  501    0 -0.55461676060E+01  0.37458680111E+02 -0.36463931983E+03  0.36660025403E+03  0.00000000000E+00 0. -1.
          1    1    1    2  502    0 -0.63363079936E+02 -0.15652425469E+03  0.12854459431E+03  0.21222260702E+03  0.00000000000E+00 0. -1.
         22    1    3    3    0    0 -0.23808223695E+02  0.73737313201E+02 -0.92832155208E+02  0.12092076709E+03  0.00000000000E+00 0.  1.
         22    1    3    3    0    0  0.92717471237E+02  0.45328261379E+02 -0.57522722328E+02  0.11815263152E+03  0.00000000000E+00 0.  1.
</event>
<event>
 7    1  0.5667373E-006  0.1341255E+03  0.7818608E-02  0.1406306E+00
          2   -1    0    0  502    0  0.00000000000E+00  0.00000000000E+00  0.29759509544E+02  0.29759509544E+02  0.00000000000E+00 0. -1.
          1   -1    0    0  501    0 -0.00000000000E+00 -0.00000000000E+00 -0.24057508788E+04  0.24057508788E+04  0.00000000000E+00 0. -1.
         25    2    1    2    0    0 -0.15219464634E+03  0.13370354823E+02 -0.56169558206E+03  0.59537245818E+03  0.12499784114E+03 0.  0.
          2    1    1    2  501    0  0.13156018282E+03  0.92698712499E+00 -0.18098719141E+04  0.18146474276E+04  0.00000000000E+00 0. -1.
          1    1    1    2  502    0  0.20634463521E+02 -0.14297341948E+02 -0.44238731724E+01  0.25490502651E+02  0.00000000000E+00 0. -1.
         22    1    3    3    0    0 -0.12056854223E+03  0.31893729417E+02 -0.22981766222E+03  0.26147684643E+03  0.00000000000E+00 0. -1.
         22    1    3    3    0    0 -0.31626104117E+02 -0.18523374594E+02 -0.33187791984E+03  0.33389561175E+03  0.00000000000E+00 0. -1.
</event>
<event>
 7    1  0.9706384E-006  0.6114900E+02  0.7818608E-02  0.1435628E+00
          2   -1    0    0  502    0  0.00000000000E+00  0.00000000000E+00  0.97997443251E+03  0.97997443251E+03  0.00000000000E+00 0. -1.
          1   -1    0    0  501    0 -0.00000000000E+00 -0.00000000000E+00 -0.11584528038E+04  0.11584528038E+04  0.00000000000E+00 0. -1.
         25    2    1    2    0    0  0.22885998612E+02 -0.92803539547E+02 -0.37269301983E+03  0.40455171398E+03  0.12500294543E+03 0.  0.
          2    1    1    2  501    0  0.49901251732E+01  0.58812862981E+02 -0.76819661014E+03  0.77046082706E+03  0.00000000000E+00 0. -1.
          1    1    1    2  502    0 -0.27876123785E+02  0.33990676566E+02  0.96241125865E+03  0.96341469531E+03  0.00000000000E+00 0. -1.
         22    1    3    3    0    0  0.13953798485E+02 -0.10806440517E+03 -0.37113620611E+03  0.38680060450E+03  0.00000000000E+00 0.  1.
         22    1    3    3    0    0  0.89322001264E+01  0.15260865624E+02 -0.15568137227E+01  0.17751109477E+02  0.00000000000E+00 0.  1.
</event>
<event>
 7    1  0.5667373E-006  0.2987866E+02  0.7818608E-02  0.1604534E+00
          2   -1    0    0  502    0  0.00000000000E+00  0.00000000000E+00  0.18226165240E+03  0.18226165240E+03  0.00000000000E+00 0. -1.
          1   -1    0    0  501    0 -0.00000000000E+00 -0.00000000000E+00 -0.13078772983E+04  0.13078772983E+04  0.00000000000E+00 0. -1.
         25    2    1    2    0    0 -0.36147413536E+02 -0.15790604247E+02 -0.39909487255E+03  0.42006887314E+03  0.12500064879E+03 0.  0.
          2    1    1    2  501    0  0.87081926632E+01  0.27638649968E+02 -0.89675952661E+03  0.89722760555E+03  0.00000000000E+00 0. -1.
          1    1    1    2  502    0  0.27439220873E+02 -0.11848045721E+02  0.17023875325E+03  0.17284247203E+03  0.00000000000E+00 0. -1.
         22    1    3    3    0    0 -0.30848028948E+02 -0.32949213444E+02 -0.39363042921E+02  0.59889069992E+02  0.00000000000E+00 0. -1.
         22    1    3    3    0    0 -0.52993845875E+01  0.17158609197E+02 -0.35973182963E+03  0.36017980315E+03  0.00000000000E+00 0. -1.
</event>
<event>
 7    1  0.5667373E-006  0.1711996E+03  0.7818608E-02  0.1269480E+00
          2   -1    0    0  502    0  0.00000000000E+00  0.00000000000E+00  0.19710134792E+04  0.19710134792E+04  0.00000000000E+00 0. -1.
          1   -1    0    0  501    0 -0.00000000000E+00 -0.00000000000E+00 -0.49416099001E+03  0.49416099001E+03  0.00000000000E+00 0. -1.
         25    2    1    2    0    0  0.26320824780E+02  0.22742449779E+03  0.20085025795E+03  0.32921264284E+03  0.12500180029E+03 0.  0.
          2    1    1    2  501    0 -0.37159298529E+02 -0.16353936177E+03 -0.41298181154E+03  0.44573524987E+03  0.00000000000E+00 0. -1.
          1    1    1    2  502    0  0.10838473749E+02 -0.63885136015E+02  0.16889840428E+04  0.16902265765E+04  0.00000000000E+00 0. -1.
         22    1    3    3    0    0  0.34094965333E+02  0.22712558394E+03  0.21401027213E+03  0.31392498167E+03  0.00000000000E+00 0. -1.
         22    1    3    3    0    0 -0.77741405534E+01  0.29891384701E+00 -0.13160014178E+02  0.15287661168E+02  0.00000000000E+00 0. -1.
</event>
<event>
 7    1  0.5667373E-006  0.2701446E+02  0.7818608E-02  0.1634725E+00
          2   -1    0    0  502    0  0.00000000000E+00  0.00000000000E+00  0.53171858663E+03  0.53171858663E+03  0.00000000000E+00 0. -1.
          1   -1    0    0  501    0 -0.00000000000E+00 -0.00000000000E+00 -0.94187999723E+03  0.94187999723E+03  0.00000000000E+00 0. -1.
         25    2    1    2    0    0  0.13018182705E+02 -0.45517636540E+01 -0.50139445542E+03  0.51692548827E+03  0.12500147545E+03 0.  0.
          2    1    1    2  501    0 -0.14765426950E+02 -0.22422135519E+02 -0.43195437267E+03  0.43278788114E+03  0.00000000000E+00 0. -1.
          1    1    1    2  502    0  0.17472442456E+01  0.26973899173E+02  0.52318741749E+03  0.52388521445E+03  0.00000000000E+00 0. -1.
         22    1    3    3    0    0  0.57561474533E+02  0.10693770568E+02 -0.13020357564E+03  0.14276081811E+03  0.00000000000E+00 0.  1.
         22    1    3    3    0    0 -0.44543291828E+02 -0.15245534222E+02 -0.37119087978E+03  0.37416467015E+03  0.00000000000E+00 0.  1.
</event>
<event>
 7    1  0.5667373E-006  0.1679132E+03  0.7818608E-02  0.1182299E+00
          2   -1    0    0  502    0  0.00000000000E+00  0.00000000000E+00  0.16342467576E+04  0.16342467576E+04  0.00000000000E+00 0. -1.
          1   -1    0    0  501    0 -0.00000000000E+00 -0.00000000000E+00 -0.22291213633E+04  0.22291213633E+04  0.00000000000E+00 0. -1.
         25    2    1    2    0    0  0.22678160567E+03  0.35344158353E+02  0.28145217535E+03  0.38408291140E+03  0.12500099849E+03 0.  0.
          2    1    1    2  501    0 -0.92030505913E+02 -0.13540036572E+03 -0.21692976599E+04  0.21754666649E+04  0.00000000000E+00 0. -1.
          1    1    1    2  502    0 -0.13475109976E+03  0.10005620737E+03  0.12929708789E+04  0.13038185446E+04  0.00000000000E+00 0. -1.
         22    1    3    3    0    0  0.14825188156E+03  0.54129082044E+02  0.10368308354E+03  0.18883527139E+03  0.00000000000E+00 0. -1.
         22    1    3    3    0    0  0.78529724105E+02 -0.18784923691E+02  0.17776909181E+03  0.19524764001E+03  0.00000000000E+00 0. -1.
</event>
<event>
 7    1  0.5667373E-006  0.1040036E+03  0.7818608E-02  0.1396587E+00
          2   -1    0    0  502    0  0.00000000000E+00  0.00000000000E+00  0.14819732147E+04  0.14819732147E+04  0.00000000000E+00 0. -1.
          1   -1    0    0  501    0 -0.00000000000E+00 -0.00000000000E+00 -0.81011335457E+02  0.81011335457E+02  0.00000000000E+00 0. -1.
         25    2    1    2    0    0  0.12438704634E+03 -0.22573112279E+02  0.31849643834E+03  0.36475441025E+03  0.12499646341E+03 0.  0.
          2    1    1    2  501    0 -0.93572394332E+02  0.39082381865E+02 -0.12974182183E+02  0.10223284676E+03  0.00000000000E+00 0. -1.
          1    1    1    2  502    0 -0.30814652007E+02 -0.16509269586E+02  0.10954396231E+04  0.10959972931E+04  0.00000000000E+00 0. -1.
         22    1    3    3    0    0  0.11697484923E+03  0.30877460158E+02  0.24837874253E+03  0.27627618906E+03  0.00000000000E+00 0.  1.
         22    1    3    3    0    0  0.74121971084E+01 -0.53450572437E+02  0.70117695809E+02  0.88478221192E+02  0.00000000000E+00 0.  1.
</event>
<event>
 7    1  0.5667373E-006  0.6689730E+02  0.7818608E-02  0.1523189E+00
          2   -1    0    0  502    0  0.00000000000E+00  0.00000000000E+00  0.74759336916E+03  0.74759336916E+03  0.00000000000E+00 0. -1.
          1   -1    0    0  501    0 -0.00000000000E+00 -0.00000000000E+00 -0.15557774940E+04  0.15557774940E+04  0.00000000000E+00 0. -1.
         25    2    1    2    0    0 -0.33821624420E+02  0.50520446877E+02  0.10739981510E+03  0.17565729264E+03  0.12499818536E+03 0.  0.
          2    1    1    2  501    0  0.16051347886E+02  0.14491723354E+02 -0.15196978763E+04  0.15198517333E+04  0.00000000000E+00 0. -1.
          1    1    1    2  502    0  0.17770276534E+02 -0.65012170231E+02  0.60411393640E+03  0.60786183723E+03  0.00000000000E+00 0. -1.
         22    1    3    3    0    0  0.18060342358E+02  0.20873377147E+02 -0.20569848465E+02  0.34423720099E+02  0.00000000000E+00 0. -1.
         22    1    3    3    0    0 -0.51881966778E+02  0.29647069730E+02  0.12796966357E+03  0.14123357254E+03  0.00000000000E+00 0. -1.
</event>
<event>
 7    1  0.5667373E-006  0.3563673E+02  0.7818608E-02  0.1601869E+00
          2   -1    0    0  502    0  0.00000000000E+00  0.00000000000E+00  0.14313631263E+04  0.14313631263E+04  0.00000000000E+00 0. -1.
          1   -1    0    0  501    0 -0.00000000000E+00 -0.00000000000E+00 -0.60761689307E+02  0.60761689307E+02  0.00000000000E+00 0. -1.
         25    2    1    2    0    0  0.11434683432E+02  0.58255907993E+02  0.91462889147E+02  0.16587548756E+03  0.12499885792E+03 0.  0.
          2    1    1    2  501    0  0.68793212972E-01 -0.24686846380E+02 -0.16776916336E+02  0.29848116163E+02  0.00000000000E+00 0. -1.
          1    1    1    2  502    0 -0.11503476645E+02 -0.33569061613E+02  0.12959154642E+04  0.12964012119E+04  0.00000000000E+00 0. -1.
         22    1    3    3    0    0  0.81744316030E+01 -0.26622162243E+02 -0.13417999108E+02  0.30912838022E+02  0.00000000000E+00 0. -1.
         22    1    3    3    0    0  0.32602518294E+01  0.84878070236E+02  0.10488088826E+03  0.13496264954E+03  0.00000000000E+00 0. -1.
</event>
<event>
 7    1  0.7978447E-006  0.1144293E+03  0.7818608E-02  0.1421210E+00
          2   -1    0    0  502    0  0.00000000000E+00  0.00000000000E+00  0.25527245259E+04  0.25527245259E+04  0.00000000000E+00 0. -1.
          1   -1    0    0  501    0 -0.00000000000E+00 -0.00000000000E+00 -0.17830006363E+04  0.17830006363E+04  0.00000000000E+00 0. -1.
         25    2    1    2    0    0  0.90476405327E+02  0.34618450129E+01 -0.76052008228E+03  0.77602404865E+03  0.12499825692E+03 0.  0.
          2    1    1    2  501    0  0.22819049392E+02  0.12895659461E+02 -0.10132718237E+04  0.10136107713E+04  0.00000000000E+00 0. -1.
          1    1    1    2  502    0 -0.11329545472E+03 -0.16357504474E+02  0.25435157956E+04  0.25460903422E+04  0.00000000000E+00 0. -1.
         22    1    3    3    0    0 -0.38254386963E+01 -0.45950293656E+02 -0.28725006815E+03  0.29092725056E+03  0.00000000000E+00 0. -1.
         22    1    3    3    0    0  0.94301844023E+02  0.49412138669E+02 -0.47327001414E+03  0.48509679809E+03  0.00000000000E+00 0. -1.
</event>
<event>
 7    1  0.5667373E-006  0.8135631E+02  0.7818608E-02  0.1398084E+00
          2   -1    0    0  502    0  0.00000000000E+00  0.00000000000E+00  0.12157681406E+04  0.12157681406E+04  0.00000000000E+00 0. -1.
          1   -1    0    0  501    0 -0.00000000000E+00 -0.00000000000E+00 -0.35578289211E+03  0.35578289211E+03  0.00000000000E+00 0. -1.
         25    2    1    2    0    0  0.86275030767E+01  0.36588863373E+02 -0.14747307813E+03  0.19694416480E+03  0.12500206616E+03 0.  0.
          2    1    1    2  501    0  0.74165391893E+01  0.43534037868E+02 -0.17949320372E+03  0.18484595665E+03  0.00000000000E+00 0. -1.
          1    1    1    2  502    0 -0.16044042266E+02 -0.80122901241E+02  0.11869515303E+04  0.11897609113E+04  0.00000000000E+00 0. -1.
         22    1    3    3    0    0 -0.50210834145E+02 -0.14848019846E+02 -0.60873831867E+02  0.80294551278E+02  0.00000000000E+00 0. -1.
         22    1    3    3    0    0  0.58838337221E+02  0.51436883218E+02 -0.86599246262E+02  0.11664961352E+03  0.00000000000E+00 0. -1.
</event>
<event>
 7    1  0.5667373E-006  0.8150275E+02  0.7818608E-02  0.1398294E+00
          2   -1    0    0  502    0  0.00000000000E+00  0.00000000000E+00  0.11980857288E+04  0.11980857288E+04  0.00000000000E+00 0. -1.
          1   -1    0    0  501    0 -0.00000000000E+00 -0.00000000000E+00 -0.63027680096E+03  0.63027680096E+03  0.00000000000E+00 0. -1.
         25    2    1    2    0    0 -0.85117981392E+02 -0.89993686169E+02  0.14850517634E+03  0.23026724334E+03  0.12500112660E+03 0.  0.
          2    1    1    2  501    0  0.30070110411E+02  0.32133019718E+02 -0.58698999042E+03  0.58863740227E+03  0.00000000000E+00 0. -1.
          1    1    1    2  502    0  0.55047870981E+02  0.57860666451E+02  0.10062937419E+04  0.10094578841E+04  0.00000000000E+00 0. -1.
         22    1    3    3    0    0 -0.60999265286E+02 -0.11524585154E+03  0.78933507368E+02  0.15242380145E+03  0.00000000000E+00 0.  1.
         22    1    3    3    0    0 -0.24118716106E+02  0.25252165370E+02  0.69571668973E+02  0.77843441895E+02  0.00000000000E+00 0.  1.
</event>
<event>
 7    1  0.5667373E-006  0.6004749E+02  0.7818608E-02  0.1431632E+00
          2   -1    0    0  502    0  0.00000000000E+00  0.00000000000E+00  0.97429428979E+03  0.97429428979E+03  0.00000000000E+00 0. -1.
          1   -1    0    0  501    0 -0.00000000000E+00 -0.00000000000E+00 -0.15342811648E+03  0.15342811648E+03  0.00000000000E+00 0. -1.
         25    2    1    2    0    0 -0.43898340028E+02 -0.88327268096E+02  0.32023073552E+02  0.16241704199E+03  0.12500019097E+03 0.  0.
          2    1    1    2  501    0  0.19552322398E+01  0.46093874673E+02 -0.81112933210E+02  0.93315465757E+02  0.00000000000E+00 0. -1.
          1    1    1    2  502    0  0.41943107788E+02  0.42233393423E+02  0.86995603297E+03  0.87198989852E+03  0.00000000000E+00 0. -1.
         22    1    3    3    0    0  0.14588368879E+02 -0.40007558895E+02 -0.39550803062E+02  0.58117908584E+02  0.00000000000E+00 0.  1.
         22    1    3    3    0    0 -0.58486708907E+02 -0.48319709200E+02  0.71573876614E+02  0.10429913341E+03  0.00000000000E+00 0.  1.
</event>
<event>
 7    1  0.5667373E-006  0.7322419E+02  0.7818608E-02  0.1469341E+00
          2   -1    0    0  502    0  0.00000000000E+00  0.00000000000E+00  0.15213713772E+04  0.15213713772E+04  0.00000000000E+00 0. -1.
          1   -1    0    0  501    0 -0.00000000000E+00 -0.00000000000E+00 -0.75864350287E+02  0.75864350287E+02  0.00000000000E+00 0. -1.
         25    2    1    2    0    0 -0.62229499318E+02  0.37838589484E+02  0.24035071122E+03  0.28052652879E+03  0.12498959770E+03 0.  0.
          2    1    1    2  501    0  0.43506599207E+02 -0.59538582428E+02 -0.31164971771E+02  0.80055745812E+02  0.00000000000E+00 0. -1.
          1    1    1    2  502    0  0.18722900111E+02  0.21699992944E+02  0.12363212875E+04  0.12366534529E+04  0.00000000000E+00 0. -1.
         22    1    3    3    0    0 -0.67119336605E+02 -0.22195235733E+02  0.68545634124E+02  0.98468968680E+02  0.00000000000E+00 0.  1.
         22    1    3    3    0    0  0.48898372868E+01  0.60033825217E+02  0.17180507710E+03  0.18205756011E+03  0.00000000000E+00 0.  1.
</event>
<event>
 7    1  0.5667373E-006  0.7628857E+02  0.7818608E-02  0.1418914E+00
          2   -1    0    0  502    0  0.00000000000E+00  0.00000000000E+00  0.24731098971E+03  0.24731098971E+03  0.00000000000E+00 0. -1.
          1   -1    0    0  501    0 -0.00000000000E+00 -0.00000000000E+00 -0.94393986243E+03  0.94393986243E+03  0.00000000000E+00 0. -1.
         25    2    1    2    0    0 -0.75497210838E+02  0.75166226312E+02 -0.27298593602E+01  0.16426472367E+03  0.12500262753E+03 0.  0.
          2    1    1    2  501    0  0.38289639918E+02 -0.11624307902E+02 -0.85181088522E+03  0.85275025959E+03  0.00000000000E+00 0. -1.
          1    1    1    2  502    0  0.37207570920E+02 -0.63541918410E+02  0.15791187186E+03  0.17423586888E+03  0.00000000000E+00 0. -1.
         22    1    3    3    0    0 -0.65976280161E+02 -0.18500055201E+01 -0.41039875437E+02  0.77721061754E+02  0.00000000000E+00 0.  1.
         22    1    3    3    0    0 -0.95209306771E+01  0.77016231832E+02  0.38310016077E+02  0.86543661919E+02  0.00000000000E+00 0.  1.
</event>
<event>
 7    1  0.5667373E-006  0.9200974E+02  0.7818608E-02  0.1433604E+00
          2   -1    0    0  502    0  0.00000000000E+00  0.00000000000E+00  0.82854777803E+02  0.82854777803E+02  0.00000000000E+00 0. -1.
          1   -1    0    0  501    0 -0.00000000000E+00 -0.00000000000E+00 -0.60083033465E+03  0.60083033465E+03  0.00000000000E+00 0. -1.
         25    2    1    2    0    0  0.68243008107E+02  0.15915530880E+02 -0.19365515694E+03  0.24090977133E+03  0.12499914334E+03 0.  0.
          2    1    1    2  501    0  0.20272971525E+02  0.21655252525E+02 -0.34345243368E+03  0.34473108003E+03  0.00000000000E+00 0. -1.
          1    1    1    2  502    0 -0.88515979632E+02 -0.37570783405E+02  0.19132033775E+02  0.98044261088E+02  0.00000000000E+00 0. -1.
         22    1    3    3    0    0  0.80223458587E+02 -0.22903312986E+02 -0.17940964616E+03  0.19785900584E+03  0.00000000000E+00 0. -1.
         22    1    3    3    0    0 -0.11980450480E+02  0.38818843866E+02 -0.14245510774E+02  0.43050765499E+02  0.00000000000E+00 0. -1.
</event>
<event>
 7    1  0.5667373E-006  0.7824003E+02  0.7818608E-02  0.1354159E+00
          2   -1    0    0  502    0  0.00000000000E+00  0.00000000000E+00  0.22413087124E+04  0.22413087124E+04  0.00000000000E+00 0. -1.
          1   -1    0    0  501    0 -0.00000000000E+00 -0.00000000000E+00 -0.23042557019E+02  0.23042557019E+02  0.00000000000E+00 0. -1.
         25    2    1    2    0    0  0.72622522014E+02 -0.30816816843E+02  0.61340988606E+03  0.63096780798E+03  0.12499991799E+03 0.  0.
          2    1    1    2  501    0  0.54454627126E+00  0.65841867039E+02  0.68959313401E+02  0.95345869814E+02  0.00000000000E+00 0. -1.
          1    1    1    2  502    0 -0.73167068285E+02 -0.35025050196E+02  0.15358969559E+04  0.15380375916E+04  0.00000000000E+00 0. -1.
         22    1    3    3    0    0  0.45300682554E+02 -0.14598594989E+02  0.59714651703E+02  0.76361707967E+02  0.00000000000E+00 0.  1.
         22    1    3    3    0    0  0.27321839460E+02 -0.16218221853E+02  0.55369523435E+03  0.55460610002E+03  0.00000000000E+00 0.  1.
</event>
<event>
 7    1  0.5667373E-006  0.1822856E+03  0.7818608E-02  0.1250319E+00
          2   -1    0    0  502    0  0.00000000000E+00  0.00000000000E+00  0.12937248860E+04  0.12937248860E+04  0.00000000000E+00 0. -1.
          1   -1    0    0  501    0 -0.00000000000E+00 -0.00000000000E+00 -0.12437851723E+03  0.12437851723E+03  0.00000000000E+00 0. -1.
         25    2    1    2    0    0 -0.76880651144E+02  0.21985935700E+03  0.18872396840E+03  0.32479102526E+03  0.12499480974E+03 0.  0.
          2    1    1    2  501    0  0.53346716352E+02 -0.15026048632E+03  0.60936673120E+02  0.17069670186E+03  0.00000000000E+00 0. -1.
          1    1    1    2  502    0  0.23533934792E+02 -0.69598870683E+02  0.91968572723E+03  0.92261567608E+03  0.00000000000E+00 0. -1.
         22    1    3    3    0    0 -0.10645898989E+03  0.19868964130E+03  0.17691537119E+03  0.28654866716E+03  0.00000000000E+00 0. -1.
         22    1    3    3    0    0  0.29578338741E+02  0.21169715700E+02  0.11808597215E+02  0.38242358109E+02  0.00000000000E+00 0. -1.
</event>
<event>
 7    1  0.5667373E-006  0.6273021E+02  0.7818608E-02  0.1399329E+00
          2   -1    0    0  502    0  0.00000000000E+00  0.00000000000E+00  0.82104607785E+03  0.82104607785E+03  0.00000000000E+00 0. -1.
          1   -1    0    0  501    0 -0.00000000000E+00 -0.00000000000E+00 -0.92774973327E+02  0.92774973327E+02  0.00000000000E+00 0. -1.
         25    2    1    2    0    0  0.40729631797E+02  0.31714844059E+02  0.48134308709E+03  0.49998092528E+03  0.12500009563E+03 0.  0.
          2    1    1    2  501    0 -0.52447747261E+02  0.34413842347E+02 -0.67600210747E+02  0.92221837061E+02  0.00000000000E+00 0. -1.
          1    1    1    2  502    0  0.11718115464E+02 -0.66128686406E+02  0.31452822818E+03  0.32161828884E+03  0.00000000000E+00 0. -1.
         22    1    3    3    0    0 -0.23271994124E+02  0.59747572808E+02  0.26438519428E+03  0.27204942404E+03  0.00000000000E+00 0.  1.
         22    1    3    3    0    0  0.64001625921E+02 -0.28032728749E+02  0.21695789282E+03  0.22793150124E+03  0.00000000000E+00 0.  1.
</event>
<event>
 7    1  0.5667373E-006  0.2405660E+03  0.7818608E-02  0.1182381E+00
          2   -1    0    0  502    0  0.00000000000E+00  0.00000000000E+00  0.12526948385E+04  0.12526948385E+04  0.00000000000E+00 0. -1.
          1   -1    0    0  501    0 -0.00000000000E+00 -0.00000000000E+00 -0.98306185903E+03  0.98306185903E+03  0.00000000000E+00 0. -1.
         25    2    1    2    0    0  0.70672338121E+02 -0.32598571745E+03  0.18519532996E+03  0.40147660247E+03  0.12499953896E+03 0.  0.
          2    1    1    2  501    0 -0.60248365001E+02  0.96975847809E+02 -0.85738801289E+03  0.86495571284E+03  0.00000000000E+00 0. -1.
          1    1    1    2  502    0 -0.10423973120E+02  0.22900986964E+03  0.94182566243E+03  0.96932438225E+03  0.00000000000E+00 0. -1.
         22    1    3    3    0    0  0.41576696413E+02 -0.29018924040E+03  0.19781584102E+03  0.35365169855E+03  0.00000000000E+00 0.  1.
         22    1    3    3    0    0  0.29095641709E+02 -0.35796477044E+02 -0.12620511068E+02  0.47824903919E+02  0.00000000000E+00 0.  1.
</event>
<event>
 7    1  0.5667373E-006  0.1098457E+03  0.7818608E-02  0.1380740E+00
          2   -1    0    0  502    0  0.00000000000E+00  0.00000000000E+00  0.23176465510E+03  0.23176465510E+03  0.00000000000E+00 0. -1.
          1   -1    0    0  501    0 -0.00000000000E+00 -0.00000000000E+00 -0.84937627732E+03  0.84937627732E+03  0.00000000000E+00 0. -1.
         25    2    1    2    0    0  0.93344866167E+02 -0.45371004385E+02 -0.50232565169E+02  0.17005382705E+03  0.12499280544E+03 0.  0.
          2    1    1    2  501    0  0.17704222208E+02  0.33175224117E+02 -0.72053497981E+03  0.72151555223E+03  0.00000000000E+00 0. -1.
          1    1    1    2  502    0 -0.11104908838E+03  0.12195780268E+02  0.15315592276E+03  0.18957155314E+03  0.00000000000E+00 0. -1.
         22    1    3    3    0    0  0.58147709866E+02  0.59166337949E+01  0.32242521187E+02  0.66751351227E+02  0.00000000000E+00 0.  1.
         22    1    3    3    0    0  0.35197156301E+02 -0.51287638180E+02 -0.82475086355E+02  0.10330247582E+03  0.00000000000E+00 0.  1.
</event>
<event>
 7    1  0.5667373E-006  0.7843152E+02  0.7818608E-02  0.1340267E+00
          2   -1    0    0  502    0  0.00000000000E+00  0.00000000000E+00  0.35867884604E+03  0.35867884604E+03  0.00000000000E+00 0. -1.
          1   -1    0    0  501    0 -0.00000000000E+00 -0.00000000000E+00 -0.28552505498E+04  0.28552505498E+04  0.00000000000E+00 0. -1.
         25    2    1    2    0    0 -0.74421590231E+02  0.31217933062E+02 -0.15093348023E+03  0.21194170782E+03  0.12500095849E+03 0.  0.
          2    1    1    2  501    0  0.74456118569E+01 -0.73609763598E+02 -0.26685065397E+04  0.26695319789E+04  0.00000000000E+00 0. -1.
          1    1    1    2  502    0  0.66975978374E+02  0.42391830536E+02  0.32286831609E+03  0.33245570910E+03  0.00000000000E+00 0. -1.
         22    1    3    3    0    0 -0.78805586332E+01 -0.12176932561E+02  0.19265968867E+02  0.24115522954E+02  0.00000000000E+00 0. -1.
         22    1    3    3    0    0 -0.66541031597E+02  0.43394865623E+02 -0.17019944910E+03  0.18782618487E+03  0.00000000000E+00 0. -1.
</event>
<event>
 7    1  0.5667373E-006  0.1262125E+03  0.7818608E-02  0.1273438E+00
          2   -1    0    0  502    0  0.00000000000E+00  0.00000000000E+00  0.52332961628E+02  0.52332961628E+02  0.00000000000E+00 0. -1.
          1   -1    0    0  501    0 -0.00000000000E+00 -0.00000000000E+00 -0.85342993600E+03  0.85342993600E+03  0.00000000000E+00 0. -1.
         25    2    1    2    0    0 -0.81550655157E+02  0.73545308520E+02 -0.38844280368E+03  0.42257919816E+03  0.12500378084E+03 0.  0.
          2    1    1    2  501    0  0.39485722690E+02 -0.14694886786E+03 -0.33671022919E+03  0.36949542691E+03  0.00000000000E+00 0. -1.
          1    1    1    2  502    0  0.42064932467E+02  0.73403559340E+02 -0.75943941492E+02  0.11368827256E+03  0.00000000000E+00 0. -1.
         22    1    3    3    0    0 -0.76679521714E+02 -0.13209858931E+02 -0.15374862483E+03  0.17231624724E+03  0.00000000000E+00 0. -1.
         22    1    3    3    0    0 -0.48711334432E+01  0.86755167451E+02 -0.23469417885E+03  0.25026295093E+03  0.00000000000E+00 0. -1.
</event>
<event>
 7    1  0.5667373E-006  0.4809388E+02  0.7818608E-02  0.1495352E+00
          2   -1    0    0  502    0  0.00000000000E+00  0.00000000000E+00  0.26751738181E+03  0.26751738181E+03  0.00000000000E+00 0. -1.
          1   -1    0    0  501    0 -0.00000000000E+00 -0.00000000000E+00 -0.18072009330E+03  0.18072009330E+03  0.00000000000E+00 0. -1.
         25    2    1    2    0    0 -0.45493278229E+02  0.64570517444E+02 -0.10546208175E+03  0.18164164163E+03  0.12502977725E+03 0.  0.
          2    1    1    2  501    0  0.78128572118E+01 -0.35483991014E+02 -0.25051217374E+02  0.44132956484E+02  0.00000000000E+00 0. -1.
          1    1    1    2  502    0  0.37680421017E+02 -0.29086526430E+02  0.21731058763E+03  0.22246287700E+03  0.00000000000E+00 0. -1.
         22    1    3    3    0    0 -0.70046235155E+02  0.88825511624E+02 -0.85230799733E+02  0.14163592693E+03  0.00000000000E+00 0.  1.
         22    1    3    3    0    0  0.24552956926E+02 -0.24254994180E+02 -0.20231282014E+02  0.40005714697E+02  0.00000000000E+00 0.  1.
</event>
<event>
 7    1  0.5667373E-006  0.1769315E+03  0.7818608E-02  0.1393023E+00
          2   -1    0    0  502    0  0.00000000000E+00  0.00000000000E+00  0.12536995464E+04  0.12536995464E+04  0.00000000000E+00 0. -1.
          1   -1    0    0  501    0 -0.00000000000E+00 -0.00000000000E+00 -0.73633788817E+02  0.73633788817E+02  0.00000000000E+00 0. -1.
         25    2    1    2    0    0  0.71668242031E+02 -0.17994183179E+03  0.33935829552E+03  0.41025001649E+03  0.12500249418E+03 0.  0.
          2    1    1    2  501    0 -0.11093030838E+02  0.17997972819E+02 -0.25878566713E+02  0.33416800773E+02  0.00000000000E+00 0. -1.
          1    1    1    2  502    0 -0.60575211194E+02  0.16194385897E+03  0.86658602882E+03  0.88366651799E+03  0.00000000000E+00 0. -1.
         22    1    3    3    0    0  0.77724428588E+02 -0.11246708039E+03  0.30511194343E+03  0.33433999012E+03  0.00000000000E+00 0.  1.
         22    1    3    3    0    0 -0.60561865565E+01 -0.67474751402E+02  0.34246352084E+02  0.75910026370E+02  0.00000000000E+00 0.  1.
</event>
<event>
 7    1  0.6175732E-006  0.3369414E+02  0.7818608E-02  0.1567068E+00
          2   -1    0    0  502    0  0.00000000000E+00  0.00000000000E+00  0.11333944675E+04  0.11333944675E+04  0.00000000000E+00 0. -1.
          1   -1    0    0  501    0 -0.00000000000E+00 -0.00000000000E+00 -0.11988896028E+04  0.11988896028E+04  0.00000000000E+00 0. -1.
         25    2    1    2    0    0  0.32160283655E+02  0.24347600706E+02 -0.49001209362E+03  0.50731064902E+03  0.12500061284E+03 0.  0.
          2    1    1    2  501    0 -0.30954090477E+02  0.93290984216E+01 -0.69960244627E+03  0.70034903485E+03  0.00000000000E+00 0. -1.
          1    1    1    2  502    0 -0.12061931778E+01 -0.33676699128E+02  0.11241194045E+04  0.11246243865E+04  0.00000000000E+00 0. -1.
         22    1    3    3    0    0 -0.37095140285E+02  0.41968054538E+02 -0.27776168326E+03  0.28335299491E+03  0.00000000000E+00 0.  1.
         22    1    3    3    0    0  0.69255423939E+02 -0.17620453832E+02 -0.21225041036E+03  0.22395765412E+03  0.00000000000E+00 0.  1.
</event>
<event>
 7    1  0.5667373E-006  0.4581859E+02  0.7818608E-02  0.1474437E+00
          2   -1    0    0  502    0  0.00000000000E+00  0.00000000000E+00  0.12522824061E+04  0.12522824061E+04  0.00000000000E+00 0. -1.
          1   -1    0    0  501    0 -0.00000000000E+00 -0.00000000000E+00 -0.75772090423E+03  0.75772090423E+03  0.00000000000E+00 0. -1.
         25    2    1    2    0    0  0.16267076183E+02  0.87518803068E+02  0.94457218569E+01  0.15374662742E+03  0.12499858049E+03 0.  0.
          2    1    1    2  501    0 -0.13222542823E+02 -0.43457964586E+02 -0.68440071921E+03  0.68590653502E+03  0.00000000000E+00 0. -1.
          1    1    1    2  502    0 -0.30445333594E+01 -0.44060838482E+02  0.11695164992E+04  0.11703501479E+04  0.00000000000E+00 0. -1.
         22    1    3    3    0    0 -0.36421944327E+02 -0.14030756571E+02  0.34961297504E+01  0.39187282142E+02  0.00000000000E+00 0.  1.
         22    1    3    3    0    0  0.52689020509E+02  0.10154955964E+03  0.59495921065E+01  0.11455934528E+03  0.00000000000E+00 0.  1.
</event>
<event>
 7    1  0.5667373E-006  0.1120050E+03  0.7818608E-02  0.1282317E+00
          2   -1    0    0  502    0  0.00000000000E+00  0.00000000000E+00  0.67042662628E+02  0.67042662628E+02  0.00000000000E+00 0. -1.
          1   -1    0    0  501    0 -0.00000000000E+00 -0.00000000000E+00 -0.22626474926E+04  0.22626474926E+04  0.00000000000E+00 0. -1.
         25    2    1    2    0    0  0.10246788252E+03 -0.11450053491E+03 -0.54583155339E+03  0.58066187696E+03  0.12500436486E+03 0.  0.
          2    1    1    2  501    0  0.40927455969E+01  0.87488949178E+02 -0.16358800202E+04  0.16382229724E+04  0.00000000000E+00 0. -1.
          1    1    1    2  502    0 -0.10656062812E+03  0.27011585731E+02 -0.13893256340E+02  0.11080530583E+03  0.00000000000E+00 0. -1.
         22    1    3    3    0    0  0.10459505333E+03 -0.13535531623E+03 -0.42689169159E+03  0.45988879435E+03  0.00000000000E+00 0. -1.
         22    1    3    3    0    0 -0.21271708044E+01  0.20854781322E+02 -0.11893986180E+03  0.12077308261E+03  0.00000000000E+00 0. -1.
</event>
<event>
 7    1  0.5667373E-006  0.4510205E+02  0.7818608E-02  0.1503062E+00
          2   -1    0    0  502    0  0.00000000000E+00  0.00000000000E+00  0.13145366014E+04  0.13145366014E+04  0.00000000000E+00 0. -1.
          1   -1    0    0  501    0 -0.00000000000E+00 -0.00000000000E+00 -0.25644845371E+03  0.25644845371E+03  0.00000000000E+00 0. -1.
         25    2    1    2    0    0  0.75345187027E+02 -0.21081050928E+02  0.54600656265E+03  0.56556946832E+03  0.12499739645E+03 0.  0.
          2    1    1    2  501    0 -0.32410424619E+02  0.17309027779E+02 -0.24468213488E+03  0.24742551444E+03  0.00000000000E+00 0. -1.
          1    1    1    2  502    0 -0.42934762408E+02  0.37720231484E+01  0.75676371991E+03  0.75799007233E+03  0.00000000000E+00 0. -1.
         22    1    3    3    0    0  0.96252142254E+02 -0.52274577340E+02  0.38818603861E+03  0.40334291477E+03  0.00000000000E+00 0.  1.
         22    1    3    3    0    0 -0.20906955228E+02  0.31193526412E+02  0.15782052404E+03  0.16222655355E+03  0.00000000000E+00 0.  1.
</event>
<event>
 7    1  0.5667373E-006  0.8610738E+02  0.7818608E-02  0.1344216E+00
          2   -1    0    0  502    0  0.00000000000E+00  0.00000000000E+00  0.10125203658E+04  0.10125203658E+04  0.00000000000E+00 0. -1.
          1   -1    0    0  501    0 -0.00000000000E+00 -0.00000000000E+00 -0.72377585101E+03  0.72377585101E+03  0.00000000000E+00 0. -1.
         25    2    1    2    0    0  0.12613303278E+03 -0.35177068949E+02  0.24728478181E+03  0.30646577310E+03  0.12499815450E+03 0.  0.
          2    1    1    2  501    0 -0.62422034308E+02 -0.18591892018E+02 -0.69028550756E+03  0.69335146265E+03  0.00000000000E+00 0. -1.
          1    1    1    2  502    0 -0.63710998473E+02  0.53768960967E+02  0.73174524049E+03  0.73647898101E+03  0.00000000000E+00 0. -1.
         22    1    3    3    0    0  0.73508006051E+02  0.30564422010E+02  0.55610968596E+02  0.97109168849E+02  0.00000000000E+00 0. -1.
         22    1    3    3    0    0  0.52625026730E+02 -0.65741490959E+02  0.19167381321E+03  0.20935660425E+03  0.00000000000E+00 0. -1.
</event>
<event>
 7    1  0.5667373E-006  0.6335648E+02  0.7818608E-02  0.1501703E+00
          2   -1    0    0  502    0  0.00000000000E+00  0.00000000000E+00  0.27235054236E+03  0.27235054236E+03  0.00000000000E+00 0. -1.
          1   -1    0    0  501    0 -0.00000000000E+00 -0.00000000000E+00 -0.18442792543E+04  0.18442792543E+04  0.00000000000E+00 0. -1.
         25    2    1    2    0    0 -0.46329020745E+02  0.55043700968E+02 -0.49154891509E+02  0.15236937157E+03  0.12499613935E+03 0.  0.
          2    1    1    2  501    0  0.25967258770E+02  0.47661619199E+01 -0.17388939800E+04  0.17390943875E+04  0.00000000000E+00 0. -1.
          1    1    1    2  502    0  0.20361761975E+02 -0.59809862888E+02  0.21612015966E+03  0.22516603754E+03  0.00000000000E+00 0. -1.
         22    1    3    3    0    0 -0.38658079031E+02  0.15033506863E+01 -0.80885740724E+02  0.89661642803E+02  0.00000000000E+00 0.  1.
         22    1    3    3    0    0 -0.76709417139E+01  0.53540350281E+02  0.31730849215E+02  0.62707728766E+02  0.00000000000E+00 0.  1.
</event>
<event>
 7    1  0.5667373E-006  0.5009514E+02  0.7818608E-02  0.1499802E+00
          2   -1    0    0  502    0  0.00000000000E+00  0.00000000000E+00  0.35601624389E+03  0.35601624389E+03  0.00000000000E+00 0. -1.
          1   -1    0    0  501    0 -0.00000000000E+00 -0.00000000000E+00 -0.22299312581E+03  0.22299312581E+03  0.00000000000E+00 0. -1.
         25    2    1    2    0    0  0.16383533140E+01  0.25983234255E+02 -0.13886201313E+02  0.12843100709E+03  0.12499553725E+03 0.  0.
          2    1    1    2  501    0  0.26085103684E+02 -0.45368085769E+02 -0.14632369448E+03  0.15540051290E+03  0.00000000000E+00 0. -1.
          1    1    1    2  502    0 -0.27723456998E+02  0.19384851514E+02  0.29323301387E+03  0.29517784971E+03  0.00000000000E+00 0. -1.
         22    1    3    3    0    0  0.19558567250E+02 -0.32185797367E+02  0.34190665038E+02  0.50867127703E+02  0.00000000000E+00 0.  1.
         22    1    3    3    0    0 -0.17920213936E+02  0.58169031622E+02 -0.48076866351E+02  0.77563879387E+02  0.00000000000E+00 0.  1.
</event>
<event>
 7    1  0.5667373E-006  0.6204851E+02  0.7818608E-02  0.1469243E+00
          2   -1    0    0  502    0  0.00000000000E+00  0.00000000000E+00  0.50897580721E+03  0.50897580721E+03  0.00000000000E+00 0. -1.
          1   -1    0    0  501    0 -0.00000000000E+00 -0.00000000000E+00 -0.16485396172E+04  0.16485396172E+04  0.00000000000E+00 0. -1.
         25    2    1    2    0    0 -0.57515664274E+02  0.47256371204E+02 -0.13056065236E+03  0.19548011900E+03  0.12500070690E+03 0.  0.
          2    1    1    2  501    0  0.32496612066E+02  0.94634698335E+01 -0.14833091145E+04  0.14836952235E+04  0.00000000000E+00 0. -1.
          1    1    1    2  502    0  0.25019052208E+02 -0.56719841037E+02  0.47430595682E+03  0.47834008197E+03  0.00000000000E+00 0. -1.
         22    1    3    3    0    0 -0.71372990403E+02 -0.16924814633E+02 -0.97370816821E+02  0.12190828142E+03  0.00000000000E+00 0. -1.
         22    1    3    3    0    0  0.13857326128E+02  0.64181185837E+02 -0.33189835540E+02  0.73571837588E+02  0.00000000000E+00 0. -1.
</event>
<event>
 7    1  0.5667373E-006  0.1562404E+03  0.7818608E-02  0.1286944E+00
          2   -1    0    0  502    0  0.00000000000E+00  0.00000000000E+00  0.24788409669E+03  0.24788409669E+03  0.00000000000E+00 0. -1.
          1   -1    0    0  501    0 -0.00000000000E+00 -0.00000000000E+00 -0.61526503642E+03  0.61526503642E+03  0.00000000000E+00 0. -1.
         25    2    1    2    0    0  0.81285617644E+02  0.96632588918E+02  0.10287568486E+03  0.20531444182E+03  0.12500161841E+03 0.  0.
          2    1    1    2  501    0 -0.13848312593E+03 -0.78172562420E+02 -0.54164960868E+03  0.56451113741E+03  0.00000000000E+00 0. -1.
          1    1    1    2  502    0  0.57197508284E+02 -0.18460026498E+02  0.71392984081E+02  0.93323553877E+02  0.00000000000E+00 0. -1.
         22    1    3    3    0    0  0.72583119660E+02  0.12223063744E+03  0.10705158682E+03  0.17795696173E+03  0.00000000000E+00 0.  1.
         22    1    3    3    0    0  0.87024979837E+01 -0.25598048526E+02 -0.41759019511E+01  0.27357480085E+02  0.00000000000E+00 0.  1.
</event>
<event>
 7    1  0.8433015E-006  0.9916809E+02  0.7818608E-02  0.1405837E+00
          2   -1    0    0  502    0  0.00000000000E+00  0.00000000000E+00  0.27179670248E+04  0.27179670248E+04  0.00000000000E+00 0. -1.
          1   -1    0    0  501    0 -0.00000000000E+00 -0.00000000000E+00 -0.24604147688E+04  0.24604147688E+04  0.00000000000E+00 0. -1.
         25    2    1    2    0    0 -0.12792685669E+03 -0.14041049737E+01 -0.14704305000E+04  0.14812697352E+04  0.12500768302E+03 0.  0.
          2    1    1    2  501    0  0.29906495336E+02  0.16337951691E+02 -0.98336332941E+03  0.98395363953E+03  0.00000000000E+00 0. -1.
          1    1    1    2  502    0  0.98020361356E+02 -0.14933846717E+02  0.27113460854E+04  0.27131584189E+04  0.00000000000E+00 0. -1.
         22    1    3    3    0    0 -0.75672481177E+02  0.54897187259E+02 -0.10259529689E+04  0.10302036304E+04  0.00000000000E+00 0.  1.
         22    1    3    3    0    0 -0.52254375516E+02 -0.56301292233E+02 -0.44447753108E+03  0.45106610480E+03  0.00000000000E+00 0.  1.
</event>
<event>
 7    1  0.5667373E-006  0.1351283E+03  0.7818608E-02  0.1290911E+00
          2   -1    0    0  502    0  0.00000000000E+00  0.00000000000E+00  0.32581142648E+03  0.32581142648E+03  0.00000000000E+00 0. -1.
          1   -1    0    0  501    0 -0.00000000000E+00 -0.00000000000E+00 -0.65128583185E+03  0.65128583185E+03  0.00000000000E+00 0. -1.
         25    2    1    2    0    0 -0.14286728674E+02  0.13170129504E+03  0.70903599623E+02  0.19545211723E+03  0.12499947183E+03 0.  0.
          2    1    1    2  501    0  0.66948040005E+02 -0.90894630506E+00 -0.56095124244E+03  0.56493288330E+03  0.00000000000E+00 0. -1.
          1    1    1    2  502    0 -0.52661311331E+02 -0.13079234874E+03  0.16457323744E+03  0.21671225780E+03  0.00000000000E+00 0. -1.
         22    1    3    3    0    0  0.18923461500E+02  0.14364777062E+03  0.45147672264E+02  0.15175998059E+03  0.00000000000E+00 0.  1.
         22    1    3    3    0    0 -0.33210190174E+02 -0.11946475574E+02  0.25755927359E+02  0.43692136640E+02  0.00000000000E+00 0.  1.
</event>
<event>
 7    1  0.5667373E-006  0.8186691E+02  0.7818608E-02  0.1414525E+00
          2   -1    0    0  502    0  0.00000000000E+00  0.00000000000E+00  0.12302668047E+02  0.12302668047E+02  0.00000000000E+00 0. -1.
          1   -1    0    0  501    0 -0.00000000000E+00 -0.00000000000E+00 -0.20269658751E+04  0.20269658751E+04  0.00000000000E+00 0. -1.
         25    2    1    2    0    0  0.64715004300E+02  0.75692181751E+02 -0.10533264183E+04  0.10653833607E+04  0.12501129312E+03 0.  0.
          2    1    1    2  501    0 -0.26193171401E+02 -0.73668702828E+02 -0.88410696267E+03  0.88755748064E+03  0.00000000000E+00 0. -1.
          1    1    1    2  502    0 -0.38521832899E+02 -0.20234789232E+01 -0.77229826000E+02  0.86327701816E+02  0.00000000000E+00 0. -1.
         22    1    3    3    0    0  0.67402499259E+01  0.97485030282E+02 -0.62013259190E+03  0.62778435281E+03  0.00000000000E+00 0. -1.
         22    1    3    3    0    0  0.57974754374E+02 -0.21792848531E+02 -0.43319382645E+03  0.43759900784E+03  0.00000000000E+00 0. -1.
</event>
<event>
 7    1  0.5667373E-006  0.1168950E+03  0.7818608E-02  0.1309825E+00
          2   -1    0    0  502    0  0.00000000000E+00  0.00000000000E+00  0.25584064162E+04  0.25584064162E+04  0.00000000000E+00 0. -1.
          1   -1    0    0  501    0 -0.00000000000E+00 -0.00000000000E+00 -0.77803471044E+03  0.77803471044E+03  0.00000000000E+00 0. -1.
         25    2    1    2    0    0  0.50366369176E+02 -0.16194517692E+02  0.26973884770E+03  0.30196769402E+03  0.12500563478E+03 0.  0.
          2    1    1    2  501    0 -0.11173830316E+03  0.37669251592E+02 -0.75688918358E+03  0.76601935819E+03  0.00000000000E+00 0. -1.
          1    1    1    2  502    0  0.61371933984E+02 -0.21474733900E+02  0.22675220416E+04  0.22684540744E+04  0.00000000000E+00 0. -1.
         22    1    3    3    0    0  0.26856892001E+02 -0.28095480598E+02  0.27269622921E+03  0.27545214122E+03  0.00000000000E+00 0.  1.
         22    1    3    3    0    0  0.23509477176E+02  0.11900962906E+02 -0.29573815038E+01  0.26515552804E+02  0.00000000000E+00 0.  1.
</event>
<event>
 7    1  0.5667373E-006  0.5105493E+02  0.7818608E-02  0.1452779E+00
          2   -1    0    0  502    0  0.00000000000E+00  0.00000000000E+00  0.16868566901E+04  0.16868566901E+04  0.00000000000E+00 0. -1.
          1   -1    0    0  501    0 -0.00000000000E+00 -0.00000000000E+00 -0.38420718295E+03  0.38420718295E+03  0.00000000000E+00 0. -1.
         25    2    1    2    0    0  0.11348345240E+02  0.68541189690E+02  0.15822246912E+03  0.21327458546E+03  0.12500007777E+03 0.  0.
          2    1    1    2  501    0 -0.39807676694E+02 -0.31953786972E+02 -0.35449467310E+03  0.35815104200E+03  0.00000000000E+00 0. -1.
          1    1    1    2  502    0  0.28459331454E+02 -0.36587402718E+02  0.14989217111E+04  0.14996382456E+04  0.00000000000E+00 0. -1.
         22    1    3    3    0    0  0.24940888691E+02 -0.62844818695E+01  0.12942291567E+03  0.13195390764E+03  0.00000000000E+00 0.  1.
         22    1    3    3    0    0 -0.13592543451E+02  0.74825671560E+02  0.28799553454E+02  0.81320677819E+02  0.00000000000E+00 0.  1.
</event>
<event>
 7    1  0.5667373E-006  0.7759896E+02  0.7818608E-02  0.1431736E+00
          2   -1    0    0  502    0  0.00000000000E+00  0.00000000000E+00  0.18081031019E+03  0.18081031019E+03  0.00000000000E+00 0. -1.
          1   -1    0    0  501    0 -0.00000000000E+00 -0.00000000000E+00 -0.19230350995E+03  0.19230350995E+03  0.00000000000E+00 0. -1.
         25    2    1    2    0    0  0.65046843018E+02 -0.32072540325E+02 -0.39832681703E+02  0.14987400839E+03  0.12496333955E+03 0.  0.
          2    1    1    2  501    0 -0.17335795458E+02 -0.31176634937E+02 -0.80830124012E+02  0.88351691087E+02  0.00000000000E+00 0. -1.
          1    1    1    2  502    0 -0.47711047559E+02  0.63249175262E+02  0.10916960595E+03  0.13488812066E+03  0.00000000000E+00 0. -1.
         22    1    3    3    0    0 -0.97786311331E+01 -0.59717539454E+02  0.44174249236E+00  0.60514471671E+02  0.00000000000E+00 0.  1.
         22    1    3    3    0    0  0.74825474151E+02  0.27644999128E+02 -0.40274424195E+02  0.89359536721E+02  0.00000000000E+00 0.  1.
</event>
<event>
 7    1  0.5667373E-006  0.7276692E+02  0.7818608E-02  0.1482931E+00
          2   -1    0    0  502    0  0.00000000000E+00  0.00000000000E+00  0.23704547506E+04  0.23704547506E+04  0.00000000000E+00 0. -1.
          1   -1    0    0  501    0 -0.00000000000E+00 -0.00000000000E+00 -0.66414218003E+02  0.66414218003E+02  0.00000000000E+00 0. -1.
         25    2    1    2    0    0  0.16406442409E+02  0.47055150300E+02  0.40923010873E+03  0.43079900852E+03  0.12504057473E+03 0.  0.
          2    1    1    2  501    0 -0.12954694674E+02 -0.73014092074E+02 -0.30789167681E+02  0.80292307240E+02  0.00000000000E+00 0. -1.
          1    1    1    2  502    0 -0.34517477356E+01  0.25958941774E+02  0.19255995916E+04  0.19257776529E+04  0.00000000000E+00 0. -1.
         22    1    3    3    0    0 -0.32941114837E+02 -0.12242053967E+02  0.26420648191E+03  0.26653339381E+03  0.00000000000E+00 0.  1.
         22    1    3    3    0    0  0.49347557246E+02  0.59297204267E+02  0.14502362682E+03  0.16426561471E+03  0.00000000000E+00 0.  1.
</event>
<event>
 7    1  0.5667373E-006  0.5291737E+02  0.7818608E-02  0.1469975E+00
          2   -1    0    0  502    0  0.00000000000E+00  0.00000000000E+00  0.62857975290E+03  0.62857975290E+03  0.00000000000E+00 0. -1.
          1   -1    0    0  501    0 -0.00000000000E+00 -0.00000000000E+00 -0.71866710700E+03  0.71866710700E+03  0.00000000000E+00 0. -1.
         25    2    1    2    0    0 -0.36540051332E+02 -0.67505453728E+02 -0.29663281916E+03  0.33092011885E+03  0.12499973609E+03 0.  0.
          2    1    1    2  501    0  0.49950252502E+00  0.51390571122E+02 -0.40261824307E+03  0.40588506988E+03  0.00000000000E+00 0. -1.
          1    1    1    2  502    0  0.36040548807E+02  0.16114882606E+02  0.60916370813E+03  0.61044167117E+03  0.00000000000E+00 0. -1.
         22    1    3    3    0    0 -0.45878408556E+02  0.25884369396E+02 -0.99428462037E+02  0.11252043376E+03  0.00000000000E+00 0.  1.
         22    1    3    3    0    0  0.93383572235E+01 -0.93389823124E+02 -0.19720435713E+03  0.21839968509E+03  0.00000000000E+00 0.  1.
</event>
<event>
 7    1  0.5667373E-006  0.5926049E+02  0.7818608E-02  0.1481980E+00
          2   -1    0    0  502    0  0.00000000000E+00  0.00000000000E+00  0.42159559922E+03  0.42159559922E+03  0.00000000000E+00 0. -1.
          1   -1    0    0  501    0 -0.00000000000E+00 -0.00000000000E+00 -0.63383111989E+03  0.63383111989E+03  0.00000000000E+00 0. -1.
         25    2    1    2    0    0 -0.24259456116E+02 -0.28843628205E+02 -0.31777855802E+03  0.34355362716E+03  0.12500162678E+03 0.  0.
          2    1    1    2  501    0 -0.31380444972E+02  0.79505984669E+01 -0.30012936939E+03  0.30187014213E+03  0.00000000000E+00 0. -1.
          1    1    1    2  502    0  0.55639901088E+02  0.20893029739E+02  0.40567240673E+03  0.41000294983E+03  0.00000000000E+00 0. -1.
         22    1    3    3    0    0 -0.73267540842E+02 -0.26203368091E+02 -0.15343205239E+03  0.17203529795E+03  0.00000000000E+00 0.  1.
         22    1    3    3    0    0  0.49008084726E+02 -0.26402601146E+01 -0.16434650563E+03  0.17151832921E+03  0.00000000000E+00 0.  1.
</event>
<event>
 7    1  0.5667373E-006  0.2287717E+03  0.7818608E-02  0.1292730E+00
          2   -1    0    0  502    0  0.00000000000E+00  0.00000000000E+00  0.43990988321E+03  0.43990988321E+03  0.00000000000E+00 0. -1.
          1   -1    0    0  501    0 -0.00000000000E+00 -0.00000000000E+00 -0.28041052794E+03  0.28041052794E+03  0.00000000000E+00 0. -1.
         25    2    1    2    0    0  0.20053801803E+03  0.15484295073E+03  0.12513929601E+03  0.30898598806E+03  0.12498264417E+03 0.  0.
          2    1    1    2  501    0 -0.27897938893E+02 -0.27082844318E+02 -0.13330930512E+03  0.13886376879E+03  0.00000000000E+00 0. -1.
          1    1    1    2  502    0 -0.17264007913E+03 -0.12776010641E+03  0.16766936437E+03  0.27247065431E+03  0.00000000000E+00 0. -1.
         22    1    3    3    0    0  0.34011619594E+02 -0.17104525871E+02  0.39237156746E+02  0.54670920443E+02  0.00000000000E+00 0.  1.
         22    1    3    3    0    0  0.16652639843E+03  0.17194747660E+03  0.85902139269E+02  0.25431506761E+03  0.00000000000E+00 0.  1.
</event>
<event>
 7    1  0.5667373E-006  0.7385472E+02  0.7818608E-02  0.1366873E+00
          2   -1    0    0  502    0  0.00000000000E+00  0.00000000000E+00  0.25241662041E+03  0.25241662041E+03  0.00000000000E+00 0. -1.
          1   -1    0    0  501    0 -0.00000000000E+00 -0.00000000000E+00 -0.48796982267E+03  0.48796982267E+03  0.00000000000E+00 0. -1.
         25    2    1    2    0    0 -0.33632466398E+02 -0.55145564719E+02 -0.69171822043E+02  0.15677012750E+03  0.12497982161E+03 0.  0.
          2    1    1    2  501    0 -0.26751660501E+02  0.71994056186E+02 -0.36621390451E+03  0.37418099808E+03  0.00000000000E+00 0. -1.
          1    1    1    2  502    0  0.60384126899E+02 -0.16848491466E+02  0.19983252430E+03  0.20943531749E+03  0.00000000000E+00 0. -1.
         22    1    3    3    0    0 -0.63668755385E+02  0.76809400773E+01 -0.90413999511E+01  0.64764605811E+02  0.00000000000E+00 0.  1.
         22    1    3    3    0    0  0.30036288986E+02 -0.62826504797E+02 -0.60130422092E+02  0.92005521693E+02  0.00000000000E+00 0.  1.
</event>
<event>
 7    1  0.5667373E-006  0.1110496E+03  0.7818608E-02  0.1280086E+00
          2   -1    0    0  502    0  0.00000000000E+00  0.00000000000E+00  0.38385628649E+03  0.38385628649E+03  0.00000000000E+00 0. -1.
          1   -1    0    0  501    0 -0.00000000000E+00 -0.00000000000E+00 -0.31820700045E+03  0.31820700045E+03  0.00000000000E+00 0. -1.
         25    2    1    2    0    0  0.78167048778E+02  0.17248535300E+03  0.21292974897E+03  0.31116744623E+03  0.12499926834E+03 0.  0.
          2    1    1    2  501    0 -0.16526501063E+02 -0.10659287812E+03 -0.23901237876E+03  0.26222525451E+03  0.00000000000E+00 0. -1.
          1    1    1    2  502    0 -0.61640547715E+02 -0.65892474885E+02  0.91731915842E+02  0.12867058620E+03  0.00000000000E+00 0. -1.
         22    1    3    3    0    0  0.10941561443E+03  0.12266885717E+03  0.13033871948E+03  0.20977990131E+03  0.00000000000E+00 0. -1.
         22    1    3    3    0    0 -0.31248565653E+02  0.49816495832E+02  0.82591029488E+02  0.10138754492E+03  0.00000000000E+00 0. -1.
</event>
<event>
 7    1  0.5667373E-006  0.1064574E+03  0.7818608E-02  0.1419709E+00
          2   -1    0    0  502    0  0.00000000000E+00  0.00000000000E+00  0.13593532555E+03  0.13593532555E+03  0.00000000000E+00 0. -1.
          1   -1    0    0  501    0 -0.00000000000E+00 -0.00000000000E+00 -0.20795653995E+04  0.20795653995E+04  0.00000000000E+00 0. -1.
         25    2    1    2    0    0  0.53920721172E+01 -0.93418844021E+02 -0.42951167039E+03  0.45701360610E+03  0.12500002519E+03 0.  0.
          2    1    1    2  501    0  0.27096729564E+02 -0.88345139814E+01 -0.16125994667E+04  0.16128513017E+04  0.00000000000E+00 0. -1.
          1    1    1    2  502    0 -0.32488801681E+02  0.10225335800E+03  0.98481063161E+02  0.14563581723E+03  0.00000000000E+00 0. -1.
         22    1    3    3    0    0  0.36870131266E+01 -0.54511287612E+02 -0.40968545832E+03  0.41331253223E+03  0.00000000000E+00 0. -1.
         22    1    3    3    0    0  0.17050589907E+01 -0.38907556409E+02 -0.19826212070E+02  0.43701073865E+02  0.00000000000E+00 0. -1.
</event>
<event>
 7    1  0.5667373E-006  0.5729048E+02  0.7818608E-02  0.1533569E+00
          2   -1    0    0  502    0  0.00000000000E+00  0.00000000000E+00  0.48047637273E+03  0.48047637273E+03  0.00000000000E+00 0. -1.
          1   -1    0    0  501    0 -0.00000000000E+00 -0.00000000000E+00 -0.23822204042E+03  0.23822204042E+03  0.00000000000E+00 0. -1.
         25    2    1    2    0    0  0.73278587233E+02 -0.90306712820E+01  0.24053226758E+03  0.28094818750E+03  0.12499923175E+03 0.  0.
          2    1    1    2  501    0 -0.21687717922E+02 -0.92472507422E+01 -0.21394813709E+03  0.21524329053E+03  0.00000000000E+00 0. -1.
          1    1    1    2  502    0 -0.51590869312E+02  0.18277922024E+02  0.21567020181E+03  0.22250693513E+03  0.00000000000E+00 0. -1.
         22    1    3    3    0    0 -0.15963408036E+02 -0.44866234813E+02  0.98685911890E+02  0.10957517341E+03  0.00000000000E+00 0. -1.
         22    1    3    3    0    0  0.89241995269E+02  0.35835563531E+02  0.14184635569E+03  0.17137301408E+03  0.00000000000E+00 0. -1.
</event>
<event>
 7    1  0.5667373E-006  0.9392744E+02  0.7818608E-02  0.1392586E+00
          2   -1    0    0  502    0  0.00000000000E+00  0.00000000000E+00  0.53154436592E+03  0.53154436592E+03  0.00000000000E+00 0. -1.
          1   -1    0    0  501    0 -0.00000000000E+00 -0.00000000000E+00 -0.15975989923E+03  0.15975989923E+03  0.00000000000E+00 0. -1.
         25    2    1    2    0    0  0.60183109095E+02 -0.73445170197E+02  0.20057463529E+03  0.25469791854E+03  0.12499858297E+03 0.  0.
          2    1    1    2  501    0 -0.84659046533E+02  0.41852396537E+02 -0.11432581813E+03  0.14828745715E+03  0.00000000000E+00 0. -1.
          1    1    1    2  502    0  0.24475937438E+02  0.31592773660E+02  0.28553564954E+03  0.28831888946E+03  0.00000000000E+00 0. -1.
         22    1    3    3    0    0  0.17092121205E+02 -0.10195154007E+03  0.11410368865E+03  0.15396723318E+03  0.00000000000E+00 0.  1.
         22    1    3    3    0    0  0.43090987890E+02  0.28506369876E+02  0.86470946634E+02  0.10073068536E+03  0.00000000000E+00 0.  1.
</event>
<event>
 7    1  0.5667373E-006  0.8055639E+02  0.7818608E-02  0.1386532E+00
          2   -1    0    0  502    0  0.00000000000E+00  0.00000000000E+00  0.57457798840E+03  0.57457798840E+03  0.00000000000E+00 0. -1.
          1   -1    0    0  501    0 -0.00000000000E+00 -0.00000000000E+00 -0.38913001925E+03  0.38913001925E+03  0.00000000000E+00 0. -1.
         25    2    1    2    0    0  0.67780786791E+02  0.84993078996E+02  0.29106273713E+03  0.33490489789E+03  0.12500286057E+03 0.  0.
          2    1    1    2  501    0 -0.18946791002E+01 -0.48885650659E+02 -0.36012616786E+03  0.36343397396E+03  0.00000000000E+00 0. -1.
          1    1    1    2  502    0 -0.65886107690E+02 -0.36107428337E+02  0.25451139987E+03  0.26536913579E+03  0.00000000000E+00 0. -1.
         22    1    3    3    0    0 -0.29914711852E+02  0.51394238801E+02  0.13768239014E+03  0.14997565910E+03  0.00000000000E+00 0. -1.
         22    1    3    3    0    0  0.97695498643E+02  0.33598840194E+02  0.15338034699E+03  0.18492923880E+03  0.00000000000E+00 0. -1.
</event>
<event>
 7    1  0.5667373E-006  0.1449527E+03  0.7818608E-02  0.1239658E+00
          2   -1    0    0  502    0  0.00000000000E+00  0.00000000000E+00  0.23459071104E+04  0.23459071104E+04  0.00000000000E+00 0. -1.
          1   -1    0    0  501    0 -0.00000000000E+00 -0.00000000000E+00 -0.18591781407E+03  0.18591781407E+03  0.00000000000E+00 0. -1.
         25    2    1    2    0    0 -0.17408733117E+03  0.56982331472E+02  0.39799845513E+03  0.45561168869E+03  0.12500342240E+03 0.  0.
          2    1    1    2  501    0  0.13867249218E+03  0.39594602361E+02 -0.12231614766E+03  0.18910058858E+03  0.00000000000E+00 0. -1.
          1    1    1    2  502    0  0.35414838990E+02 -0.96576933833E+02  0.18843069889E+04  0.18871126472E+04  0.00000000000E+00 0. -1.
         22    1    3    3    0    0 -0.15534684574E+02  0.42472237841E+02  0.18041696459E+03  0.18599865194E+03  0.00000000000E+00 0. -1.
         22    1    3    3    0    0 -0.15855264659E+03  0.14510093630E+02  0.21758149054E+03  0.26961303675E+03  0.00000000000E+00 0. -1.
</event>
<event>
 7    1  0.5667373E-006  0.4253172E+02  0.7818608E-02  0.1532662E+00
          2   -1    0    0  502    0  0.00000000000E+00  0.00000000000E+00  0.13517202741E+02  0.13517202741E+02  0.00000000000E+00 0. -1.
          1   -1    0    0  501    0 -0.00000000000E+00 -0.00000000000E+00 -0.17454309446E+04  0.17454309446E+04  0.00000000000E+00 0. -1.
         25    2    1    2    0    0 -0.19126409063E+02  0.10092902782E+02 -0.11993171027E+04  0.12060077999E+04  0.12500245769E+03 0.  0.
          2    1    1    2  501    0  0.50678880430E+02 -0.50823241422E+01 -0.51287022754E+03  0.51539310166E+03  0.00000000000E+00 0. -1.
          1    1    1    2  502    0 -0.31552471367E+02 -0.50105786396E+01 -0.19726411582E+02  0.37547245726E+02  0.00000000000E+00 0. -1.
         22    1    3    3    0    0  0.45709875156E+02  0.34512723927E+02 -0.58436574890E+03  0.58716594697E+03  0.00000000000E+00 0. -1.
         22    1    3    3    0    0 -0.64836284219E+02 -0.24419821146E+02 -0.61495135381E+03  0.61884185295E+03  0.00000000000E+00 0. -1.
</event>
<event>
 7    1  0.5667373E-006  0.7843837E+02  0.7818608E-02  0.1375949E+00
          2   -1    0    0  502    0  0.00000000000E+00  0.00000000000E+00  0.53090132974E+03  0.53090132974E+03  0.00000000000E+00 0. -1.
          1   -1    0    0  501    0 -0.00000000000E+00 -0.00000000000E+00 -0.13430113350E+04  0.13430113350E+04  0.00000000000E+00 0. -1.
         25    2    1    2    0    0  0.42071781407E+02  0.29287371821E+02 -0.95115558660E+03  0.96070273550E+03  0.12500004453E+03 0.  0.
          2    1    1    2  501    0  0.35509005284E+02 -0.41691540461E+02 -0.38218638003E+03  0.38609001941E+03  0.00000000000E+00 0. -1.
          1    1    1    2  502    0 -0.77580786692E+02  0.12404168640E+02  0.52123196134E+03  0.52711990987E+03  0.00000000000E+00 0. -1.
         22    1    3    3    0    0 -0.75647677665E+01 -0.44990496759E+02 -0.34287786800E+03  0.34589970060E+03  0.00000000000E+00 0. -1.
         22    1    3    3    0    0  0.49636549174E+02  0.74277868580E+02 -0.60827771861E+03  0.61480303490E+03  0.00000000000E+00 0. -1.
</event>
<event>
 7    1  0.5667373E-006  0.1093104E+03  0.7818608E-02  0.1366249E+00
          2   -1    0    0  502    0  0.00000000000E+00  0.00000000000E+00  0.17727338741E+04  0.17727338741E+04  0.00000000000E+00 0. -1.
          1   -1    0    0  501    0 -0.00000000000E+00 -0.00000000000E+00 -0.93337721572E+02  0.93337721572E+02  0.00000000000E+00 0. -1.
         25    2    1    2    0    0  0.99123251126E+02 -0.10906079450E+03  0.10893965755E+04  0.11064036567E+04  0.12499790825E+03 0.  0.
          2    1    1    2  501    0 -0.82575693483E+02  0.69830862966E+02 -0.49371500651E+02  0.11888077916E+03  0.00000000000E+00 0. -1.
          1    1    1    2  502    0 -0.16547557643E+02  0.39229931532E+02  0.63937107772E+03  0.64078715984E+03  0.00000000000E+00 0. -1.
         22    1    3    3    0    0 -0.25796673524E+02 -0.42859830023E+02  0.22246610394E+03  0.22802105341E+03  0.00000000000E+00 0.  1.
         22    1    3    3    0    0  0.12491992465E+03 -0.66200964476E+02  0.86693047154E+03  0.87838260329E+03  0.00000000000E+00 0.  1.
</event>
<event>
 7    1  0.5667373E-006  0.3238221E+03  0.7818608E-02  0.1139337E+00
          2   -1    0    0  502    0  0.00000000000E+00  0.00000000000E+00  0.29615745440E+04  0.29615745440E+04  0.00000000000E+00 0. -1.
          1   -1    0    0  501    0 -0.00000000000E+00 -0.00000000000E+00 -0.95504866980E+03  0.95504866980E+03  0.00000000000E+00 0. -1.
         25    2    1    2    0    0  0.18338449412E+03  0.50601052629E+02 -0.24608714287E+03  0.33522279403E+03  0.12500040216E+03 0.  0.
          2    1    1    2  501    0  0.13975421007E+03  0.62414694333E+01 -0.64767608133E+03  0.66261187848E+03  0.00000000000E+00 0. -1.
          1    1    1    2  502    0 -0.32313870419E+03 -0.56842522063E+02  0.29002890984E+04  0.29187885413E+04  0.00000000000E+00 0. -1.
         22    1    3    3    0    0  0.19854858945E+03  0.50681324077E+02 -0.19856077416E+03  0.28533580220E+03  0.00000000000E+00 0. -1.
         22    1    3    3    0    0 -0.15164095330E+02 -0.80271447918E-01 -0.47526368715E+02  0.49886991831E+02  0.00000000000E+00 0. -1.
</event>
<event>
 7    1  0.5667373E-006  0.1173532E+04  0.7818608E-02  0.1172520E+00
          2   -1    0    0  502    0  0.00000000000E+00  0.00000000000E+00  0.66184050245E+03  0.66184050245E+03  0.00000000000E+00 0. -1.
          1   -1    0    0  501    0 -0.00000000000E+00 -0.00000000000E+00 -0.21994240038E+04  0.21994240038E+04  0.00000000000E+00 0. -1.
         25    2    1    2    0    0  0.52260662752E+03 -0.10446224532E+04 -0.60294402379E+03  0.13204238444E+04  0.12499550454E+03 0.  0.
          2    1    1    2  501    0 -0.15454630249E+02 -0.21106007068E+02 -0.78586253013E+02  0.82825770706E+02  0.00000000000E+00 0. -1.
          1    1    1    2  502    0 -0.50715199727E+03  0.10657284603E+04 -0.85605322452E+03  0.14580148911E+04  0.00000000000E+00 0. -1.
         22    1    3    3    0    0  0.22256534903E+03 -0.57327640977E+03 -0.28842922375E+03  0.67924413409E+03  0.00000000000E+00 0.  1.
         22    1    3    3    0    0  0.30004127850E+03 -0.47134604347E+03 -0.31451480004E+03  0.64117971033E+03  0.00000000000E+00 0.  1.
</event>
<event>
 7    1  0.5667373E-006  0.7494883E+02  0.7818608E-02  0.1345066E+00
          2   -1    0    0  502    0  0.00000000000E+00  0.00000000000E+00  0.19357635967E+03  0.19357635967E+03  0.00000000000E+00 0. -1.
          1   -1    0    0  501    0 -0.00000000000E+00 -0.00000000000E+00 -0.35820723792E+03  0.35820723792E+03  0.00000000000E+00 0. -1.
         25    2    1    2    0    0  0.29039446891E+02  0.34482158452E+00  0.55060753985E+02  0.13963929569E+03  0.12499615151E+03 0.  0.
          2    1    1    2  501    0 -0.20816432764E+02 -0.74841188678E+02 -0.29550059236E+03  0.30554071329E+03  0.00000000000E+00 0. -1.
          1    1    1    2  502    0 -0.82230141264E+01  0.74496367094E+02  0.75808960122E+02  0.10660358862E+03  0.00000000000E+00 0. -1.
         22    1    3    3    0    0 -0.38141939124E+02  0.34793726218E+02  0.31813426285E+02  0.60642435607E+02  0.00000000000E+00 0. -1.
         22    1    3    3    0    0  0.67181386015E+02 -0.34448904634E+02  0.23247327699E+02  0.78996860080E+02  0.00000000000E+00 0. -1.
</event>
<event>
 7    1  0.5667373E-006  0.7834430E+02  0.7818608E-02  0.1467022E+00
          2   -1    0    0  502    0  0.00000000000E+00  0.00000000000E+00  0.16215214379E+04  0.16215214379E+04  0.00000000000E+00 0. -1.
          1   -1    0    0  501    0 -0.00000000000E+00 -0.00000000000E+00 -0.22409000673E+03  0.22409000673E+03  0.00000000000E+00 0. -1.
         25    2    1    2    0    0 -0.10579662540E+02  0.10262771921E+03  0.24111344192E+03  0.29052629543E+03  0.12500183378E+03 0.  0.
          2    1    1    2  501    0 -0.45164902733E+01 -0.26860339234E+02 -0.19734679439E+03  0.19921755385E+03  0.00000000000E+00 0. -1.
          1    1    1    2  502    0  0.15096152813E+02 -0.75767379978E+02  0.13536647836E+04  0.13558675953E+04  0.00000000000E+00 0. -1.
         22    1    3    3    0    0  0.30521647842E+02 -0.17365119628E+02  0.47646062518E+02  0.59188391093E+02  0.00000000000E+00 0.  1.
         22    1    3    3    0    0 -0.41101310383E+02  0.11999283884E+03  0.19346737940E+03  0.23133790433E+03  0.00000000000E+00 0.  1.
</event>
<event>
 7    1  0.5667373E-006  0.1504662E+03  0.7818608E-02  0.1204520E+00
          2   -1    0    0  502    0  0.00000000000E+00  0.00000000000E+00  0.73386857779E+03  0.73386857779E+03  0.00000000000E+00 0. -1.
          1   -1    0    0  501    0 -0.00000000000E+00 -0.00000000000E+00 -0.11140932275E+04  0.11140932275E+04  0.00000000000E+00 0. -1.
         25    2    1    2    0    0 -0.13998387884E+03 -0.61435994668E+02  0.56846696733E+02  0.20549344059E+03  0.12500455759E+03 0.  0.
          2    1    1    2  501    0  0.43136217585E+01  0.14306712300E+03 -0.10243082114E+04  0.10342601805E+04  0.00000000000E+00 0. -1.
          1    1    1    2  502    0  0.13567025708E+03 -0.81631128330E+02  0.58723686496E+03  0.60820818421E+03  0.00000000000E+00 0. -1.
         22    1    3    3    0    0 -0.13512794728E+03 -0.27105926723E+02  0.84046933926E+02  0.16142546423E+03  0.00000000000E+00 0. -1.
         22    1    3    3    0    0 -0.48559315561E+01 -0.34330067945E+02 -0.27200237193E+02  0.44067976352E+02  0.00000000000E+00 0. -1.
</event>
<event>
 7    1  0.5667373E-006  0.7825486E+02  0.7818608E-02  0.1415423E+00
          2   -1    0    0  502    0  0.00000000000E+00  0.00000000000E+00  0.16529169943E+03  0.16529169943E+03  0.00000000000E+00 0. -1.
          1   -1    0    0  501    0 -0.00000000000E+00 -0.00000000000E+00 -0.53966115447E+03  0.53966115447E+03  0.00000000000E+00 0. -1.
         25    2    1    2    0    0 -0.19170510220E+02 -0.36002237320E+02  0.36328657757E+02  0.13640703678E+03  0.12499375486E+03 0.  0.
          2    1    1    2  501    0  0.48722362890E+02  0.63071532230E+02 -0.48103528141E+03  0.48759289247E+03  0.00000000000E+00 0. -1.
          1    1    1    2  502    0 -0.29551852670E+02 -0.27069294910E+02  0.70337168611E+02  0.80952924662E+02  0.00000000000E+00 0. -1.
         22    1    3    3    0    0 -0.33756844060E+02 -0.20028997631E+02 -0.40613931549E+02  0.56481649258E+02  0.00000000000E+00 0. -1.
         22    1    3    3    0    0  0.14586333839E+02 -0.15973239689E+02  0.76942589306E+02  0.79925387520E+02  0.00000000000E+00 0. -1.
</event>
<event>
 7    1  0.5667373E-006  0.9104857E+02  0.7818608E-02  0.1349244E+00
          2   -1    0    0  502    0  0.00000000000E+00  0.00000000000E+00  0.10356506882E+03  0.10356506882E+03  0.00000000000E+00 0. -1.
          1   -1    0    0  501    0 -0.00000000000E+00 -0.00000000000E+00 -0.10603799471E+04  0.10603799471E+04  0.00000000000E+00 0. -1.
         25    2    1    2    0    0  0.13769007999E+03 -0.12155766002E+02 -0.22018639364E+03  0.28846967050E+03  0.12500552818E+03 0.  0.
          2    1    1    2  501    0 -0.52542967543E+02  0.26833161107E+02 -0.77761087145E+03  0.77984578563E+03  0.00000000000E+00 0. -1.
          1    1    1    2  502    0 -0.85147112452E+02 -0.14677395105E+02  0.40982386783E+02  0.95629559825E+02  0.00000000000E+00 0. -1.
         22    1    3    3    0    0  0.37988438115E+02  0.15697537436E+02 -0.16719913438E+03  0.17217748009E+03  0.00000000000E+00 0.  1.
         22    1    3    3    0    0  0.99701641880E+02 -0.27853303438E+02 -0.52987259264E+02  0.11629219041E+03  0.00000000000E+00 0.  1.
</event>
<event>
 7    1  0.5667373E-006  0.6156348E+02  0.7818608E-02  0.1417683E+00
          2   -1    0    0  502    0  0.00000000000E+00  0.00000000000E+00  0.22877857048E+04  0.22877857048E+04  0.00000000000E+00 0. -1.
          1   -1    0    0  501    0 -0.00000000000E+00 -0.00000000000E+00 -0.80120621402E+03  0.80120621402E+03  0.00000000000E+00 0. -1.
         25    2    1    2    0    0 -0.31432459395E+02  0.10353641950E+03  0.14559267403E+03  0.22029433567E+03  0.12499831171E+03 0.  0.
          2    1    1    2  501    0  0.49309037944E+01 -0.61067835848E+02 -0.76232859051E+03  0.76478655473E+03  0.00000000000E+00 0. -1.
          1    1    1    2  502    0  0.26501555600E+02 -0.42468583647E+02  0.21033154073E+04  0.21039110284E+04  0.00000000000E+00 0. -1.
         22    1    3    3    0    0 -0.31593176250E+02  0.54062518280E+02  0.15742827886E+03  0.16942416491E+03  0.00000000000E+00 0.  1.
         22    1    3    3    0    0  0.16071685502E+00  0.49473901216E+02 -0.11835604833E+02  0.50870170760E+02  0.00000000000E+00 0.  1.
</event>
<event>
 7    1  0.5667373E-006  0.1545418E+03  0.7818608E-02  0.1220223E+00
          2   -1    0    0  502    0  0.00000000000E+00  0.00000000000E+00  0.12777984712E+04  0.12777984712E+04  0.00000000000E+00 0. -1.
          1   -1    0    0  501    0 -0.00000000000E+00 -0.00000000000E+00 -0.89424556981E+02  0.89424556981E+02  0.00000000000E+00 0. -1.
         25    2    1    2    0    0  0.48823486340E+02 -0.26111978507E+02  0.70650819485E+02  0.15388978680E+03  0.12499983979E+03 0.  0.
          2    1    1    2  501    0  0.11687836503E+03 -0.15680883411E+02  0.43641550877E+02  0.12574190742E+03  0.00000000000E+00 0. -1.
          1    1    1    2  502    0 -0.16570185137E+03  0.41792861918E+02  0.10740815438E+04  0.10875913339E+04  0.00000000000E+00 0. -1.
         22    1    3    3    0    0  0.42223155716E+02 -0.49010727320E+02  0.98118667295E+02  0.11752497242E+03  0.00000000000E+00 0.  1.
         22    1    3    3    0    0  0.66003306231E+01  0.22898748813E+02 -0.27467847810E+02  0.36364814379E+02  0.00000000000E+00 0.  1.
</event>
<event>
 7    1  0.5667373E-006  0.1180442E+03  0.7818608E-02  0.1262484E+00
          2   -1    0    0  502    0  0.00000000000E+00  0.00000000000E+00  0.29293701815E+03  0.29293701815E+03  0.00000000000E+00 0. -1.
          1   -1    0    0  501    0 -0.00000000000E+00 -0.00000000000E+00 -0.14706200568E+04  0.14706200568E+04  0.00000000000E+00 0. -1.
         25    2    1    2    0    0 -0.53799751332E+02  0.38341401463E+02  0.62849585918E+02  0.15471562788E+03  0.12498951456E+03 0.  0.
          2    1    1    2  501    0  0.69347730540E+02  0.95526508505E+02 -0.13972039808E+04  0.14021816521E+04  0.00000000000E+00 0. -1.
          1    1    1    2  502    0 -0.15547979207E+02 -0.13386790997E+03  0.15667135625E+03  0.20665979494E+03  0.00000000000E+00 0. -1.
         22    1    3    3    0    0  0.17336069695E+02 -0.34783036354E+02  0.11655826999E+02  0.40574095597E+02  0.00000000000E+00 0. -1.
         22    1    3    3    0    0 -0.71135821027E+02  0.73124437817E+02  0.51193758919E+02  0.11414153228E+03  0.00000000000E+00 0. -1.
</event>
<event>
 7    1  0.5667373E-006  0.9890200E+02  0.7818608E-02  0.1467416E+00
          2   -1    0    0  502    0  0.00000000000E+00  0.00000000000E+00  0.25951177814E+03  0.25951177814E+03  0.00000000000E+00 0. -1.
          1   -1    0    0  501    0 -0.00000000000E+00 -0.00000000000E+00 -0.19721831820E+04  0.19721831820E+04  0.00000000000E+00 0. -1.
         25    2    1    2    0    0  0.66273862310E+02  0.44172184122E+02 -0.53598975197E+03  0.55610535872E+03  0.12499899638E+03 0.  0.
          2    1    1    2  501    0  0.21380895015E+02  0.23967139374E+01 -0.14161770984E+04  0.14163405173E+04  0.00000000000E+00 0. -1.
          1    1    1    2  502    0 -0.87654757325E+02 -0.46568898060E+02  0.23949544648E+03  0.25924908415E+03  0.00000000000E+00 0. -1.
         22    1    3    3    0    0  0.43426611903E+02 -0.19851917499E+01 -0.47184470430E+03  0.47384305058E+03  0.00000000000E+00 0.  1.
         22    1    3    3    0    0  0.22847250407E+02  0.46157375872E+02 -0.64145047673E+02  0.82262308134E+02  0.00000000000E+00 0.  1.
</event>
<event>
 7    1  0.5667373E-006  0.1124195E+03  0.7818608E-02  0.1370589E+00
          2   -1    0    0  502    0  0.00000000000E+00  0.00000000000E+00  0.15409173692E+04  0.15409173692E+04  0.00000000000E+00 0. -1.
          1   -1    0    0  501    0 -0.00000000000E+00 -0.00000000000E+00 -0.50351188039E+03  0.50351188039E+03  0.00000000000E+00 0. -1.
         25    2    1    2    0    0 -0.13690117502E+03  0.63145058220E+02  0.27620998043E+02  0.19777952197E+03  0.12499835871E+03 0.  0.
          2    1    1    2  501    0  0.38368595236E+02 -0.11075742650E+02 -0.41529930660E+03  0.41721497485E+03  0.00000000000E+00 0. -1.
          1    1    1    2  502    0  0.98532579782E+02 -0.52069315570E+02  0.14250837974E+04  0.14294347528E+04  0.00000000000E+00 0. -1.
         22    1    3    3    0    0 -0.45449469398E+02 -0.30486747201E+02  0.37782559489E+02  0.66502765544E+02  0.00000000000E+00 0.  1.
         22    1    3    3    0    0 -0.91451705620E+02  0.93631805421E+02 -0.10161561446E+02  0.13127675643E+03  0.00000000000E+00 0.  1.
</event>
<event>
 7    1  0.5667373E-006  0.1166917E+03  0.7818608E-02  0.1256306E+00
          2   -1    0    0  502    0  0.00000000000E+00  0.00000000000E+00  0.52566349971E+03  0.52566349971E+03  0.00000000000E+00 0. -1.
          1   -1    0    0  501    0 -0.00000000000E+00 -0.00000000000E+00 -0.53924088313E+03  0.53924088313E+03  0.00000000000E+00 0. -1.
         25    2    1    2    0    0 -0.11033823003E+03 -0.50416138475E+02 -0.10478107155E+02  0.17450738423E+03  0.12500689739E+03 0.  0.
          2    1    1    2  501    0  0.25868032645E+02  0.11793844769E+03 -0.43175013060E+03  0.44831552263E+03  0.00000000000E+00 0. -1.
          1    1    1    2  502    0  0.84470197382E+02 -0.67522309217E+02  0.42865085433E+03  0.44208147598E+03  0.00000000000E+00 0. -1.
         22    1    3    3    0    0 -0.57755165884E+02 -0.52580454865E+02 -0.62856911230E+02  0.10025644473E+03  0.00000000000E+00 0. -1.
         22    1    3    3    0    0 -0.52583064143E+02  0.21643163898E+01  0.52378804075E+02  0.74250939499E+02  0.00000000000E+00 0. -1.
</event>
<event>
 7    1  0.5667373E-006  0.1805548E+03  0.7818608E-02  0.1271121E+00
          2   -1    0    0  502    0  0.00000000000E+00  0.00000000000E+00  0.51379027245E+03  0.51379027245E+03  0.00000000000E+00 0. -1.
          1   -1    0    0  501    0 -0.00000000000E+00 -0.00000000000E+00 -0.20164745502E+04  0.20164745502E+04  0.00000000000E+00 0. -1.
         25    2    1    2    0    0  0.18806314787E+03  0.11431654539E+03  0.22319568052E+03  0.33745378465E+03  0.12499089901E+03 0.  0.
          2    1    1    2  501    0 -0.17102757690E+03 -0.56291533315E+02 -0.19512136857E+04  0.19595035126E+04  0.00000000000E+00 0. -1.
          1    1    1    2  502    0 -0.17035570975E+02 -0.58025012080E+02  0.22533372740E+03  0.23330752540E+03  0.00000000000E+00 0. -1.
         22    1    3    3    0    0  0.12232002362E+02  0.31460782245E+01  0.89013682952E+02  0.89905258148E+02  0.00000000000E+00 0. -1.
         22    1    3    3    0    0  0.17583114551E+03  0.11117046717E+03  0.13418199756E+03  0.24754852650E+03  0.00000000000E+00 0. -1.
</event>
<event>
 7    1  0.5667373E-006  0.9202137E+02  0.7818608E-02  0.1356632E+00
          2   -1    0    0  502    0  0.00000000000E+00  0.00000000000E+00  0.19050863196E+03  0.19050863196E+03  0.00000000000E+00 0. -1.
          1   -1    0    0  501    0 -0.00000000000E+00 -0.00000000000E+00 -0.19102716334E+04  0.19102716334E+04  0.00000000000E+00 0. -1.
         25    2    1    2    0    0 -0.11613377343E+03  0.83136343490E+02 -0.25997621656E+03  0.32188772070E+03  0.12500146649E+03 0.  0.
          2    1    1    2  501    0  0.50150806045E+02 -0.22148659802E+02 -0.16061849828E+04  0.16071203644E+04  0.00000000000E+00 0. -1.
          1    1    1    2  502    0  0.65982967389E+02 -0.60987683687E+02  0.14639819797E+03  0.17177218027E+03  0.00000000000E+00 0. -1.
         22    1    3    3    0    0 -0.15285027992E+01  0.71333884555E+02 -0.71659020220E+02  0.10112306653E+03  0.00000000000E+00 0.  1.
         22    1    3    3    0    0 -0.11460527063E+03  0.11802458935E+02 -0.18831719634E+03  0.22076465417E+03  0.00000000000E+00 0.  1.
</event>
<event>
 7    1  0.5667373E-006  0.1183990E+03  0.7818608E-02  0.1325072E+00
          2   -1    0    0  502    0  0.00000000000E+00  0.00000000000E+00  0.10658680104E+04  0.10658680104E+04  0.00000000000E+00 0. -1.
          1   -1    0    0  501    0 -0.00000000000E+00 -0.00000000000E+00 -0.10977259321E+04  0.10977259321E+04  0.00000000000E+00 0. -1.
         25    2    1    2    0    0 -0.75068751283E+02 -0.49075676945E+02 -0.24531363735E+02  0.15578701626E+03  0.12499626852E+03 0.  0.
          2    1    1    2  501    0  0.14117384554E+02 -0.54180269479E+02 -0.10031899827E+04  0.10047511849E+04  0.00000000000E+00 0. -1.
          1    1    1    2  502    0  0.60951366729E+02  0.10325594642E+03  0.99586342471E+03  0.10030557413E+04  0.00000000000E+00 0. -1.
         22    1    3    3    0    0  0.98193273571E+01  0.91911943784E+01 -0.48283349979E+02  0.50121643320E+02  0.00000000000E+00 0. -1.
         22    1    3    3    0    0 -0.84888078640E+02 -0.58266871323E+02  0.23751986244E+02  0.10566537294E+03  0.00000000000E+00 0. -1.
</event>
<event>
 7    1  0.5667373E-006  0.2357197E+03  0.7818608E-02  0.1124028E+00
          2   -1    0    0  502    0  0.00000000000E+00  0.00000000000E+00  0.21324516772E+03  0.21324516772E+03  0.00000000000E+00 0. -1.
          1   -1    0    0  501    0 -0.00000000000E+00 -0.00000000000E+00 -0.19932218848E+04  0.19932218848E+04  0.00000000000E+00 0. -1.
         25    2    1    2    0    0  0.10807599908E+03 -0.26734631170E+03 -0.25425037430E+03  0.40425637354E+03  0.12500196300E+03 0.  0.
          2    1    1    2  501    0  0.12306641259E+03  0.20104335962E+03 -0.15432129553E+04  0.15611117832E+04  0.00000000000E+00 0. -1.
          1    1    1    2  502    0 -0.23114241166E+03  0.66302952082E+02  0.17486612497E+02  0.24109889577E+03  0.00000000000E+00 0. -1.
         22    1    3    3    0    0  0.70320169333E+02 -0.15580866002E+03 -0.68141507578E+02  0.18402317736E+03  0.00000000000E+00 0. -1.
         22    1    3    3    0    0  0.37755829745E+02 -0.11153765169E+03 -0.18610886673E+03  0.22023319618E+03  0.00000000000E+00 0. -1.
</event>
<event>
 7    1  0.5667373E-006  0.9641569E+02  0.7818608E-02  0.1324707E+00
          2   -1    0    0  502    0  0.00000000000E+00  0.00000000000E+00  0.93366951789E+03  0.93366951789E+03  0.00000000000E+00 0. -1.
          1   -1    0    0  501    0 -0.00000000000E+00 -0.00000000000E+00 -0.38736474289E+03  0.38736474289E+03  0.00000000000E+00 0. -1.
         25    2    1    2    0    0 -0.10776645131E+03 -0.65023252719E+02 -0.77266445778E+02  0.19348664336E+03  0.12500138438E+03 0.  0.
          2    1    1    2  501    0  0.11588302044E+02  0.67997699390E+02 -0.24455918935E+03  0.25410071421E+03  0.00000000000E+00 0. -1.
          1    1    1    2  502    0  0.96178149262E+02 -0.29744466715E+01  0.86813041013E+03  0.87344690320E+03  0.00000000000E+00 0. -1.
         22    1    3    3    0    0 -0.98227320984E+02 -0.11519905758E+02 -0.94179171036E+02  0.13656877781E+03  0.00000000000E+00 0. -1.
         22    1    3    3    0    0 -0.95391303218E+01 -0.53503346960E+02  0.16912725258E+02  0.56917865551E+02  0.00000000000E+00 0. -1.
</event>
<event>
 7    1  0.5667373E-006  0.7394171E+02  0.7818608E-02  0.1364895E+00
          2   -1    0    0  502    0  0.00000000000E+00  0.00000000000E+00  0.66322672317E+03  0.66322672317E+03  0.00000000000E+00 0. -1.
          1   -1    0    0  501    0 -0.00000000000E+00 -0.00000000000E+00 -0.32600953176E+03  0.32600953176E+03  0.00000000000E+00 0. -1.
         25    2    1    2    0    0  0.17799709479E+02 -0.48145937640E+02  0.32553879936E+03  0.35247002353E+03  0.12499898650E+03 0.  0.
          2    1    1    2  501    0  0.63044769624E+02  0.88102689911E+01 -0.30293896711E+03  0.30955497348E+03  0.00000000000E+00 0. -1.
          1    1    1    2  502    0 -0.80844479103E+02  0.39335668649E+02  0.31461735915E+03  0.32721125792E+03  0.00000000000E+00 0. -1.
         22    1    3    3    0    0  0.12437126432E+02  0.34064490802E+02  0.34712602144E+02  0.50199964094E+02  0.00000000000E+00 0.  1.
         22    1    3    3    0    0  0.53625830467E+01 -0.82210428442E+02  0.29082619722E+03  0.30227005943E+03  0.00000000000E+00 0.  1.
</event>
<event>
 7    1  0.5667373E-006  0.7316334E+02  0.7818608E-02  0.1504142E+00
          2   -1    0    0  502    0  0.00000000000E+00  0.00000000000E+00  0.40431134206E+03  0.40431134206E+03  0.00000000000E+00 0. -1.
          1   -1    0    0  501    0 -0.00000000000E+00 -0.00000000000E+00 -0.10619283800E+04  0.10619283800E+04  0.00000000000E+00 0. -1.
         25    2    1    2    0    0 -0.17420480379E+02 -0.90833714805E+02 -0.26783727812E+03  0.30970348658E+03  0.12500082068E+03 0.  0.
          2    1    1    2  501    0 -0.58584064361E+01  0.21707069088E+02 -0.76952289578E+03  0.76985128753E+03  0.00000000000E+00 0. -1.
          1    1    1    2  502    0  0.23278886815E+02  0.69126645717E+02  0.37974313593E+03  0.38668494799E+03  0.00000000000E+00 0. -1.
         22    1    3    3    0    0 -0.71410588910E+02 -0.55048145764E+02 -0.14276396948E+03  0.16885295835E+03  0.00000000000E+00 0. -1.
         22    1    3    3    0    0  0.53990108530E+02 -0.35785569040E+02 -0.12507330864E+03  0.14085052824E+03  0.00000000000E+00 0. -1.
</event>
<event>
 7    1  0.1052074E-005  0.5342273E+02  0.7818608E-02  0.1442668E+00
          2   -1    0    0  502    0  0.00000000000E+00  0.00000000000E+00  0.10806129783E+04  0.10806129783E+04  0.00000000000E+00 0. -1.
          1   -1    0    0  501    0 -0.00000000000E+00 -0.00000000000E+00 -0.11714038614E+04  0.11714038614E+04  0.00000000000E+00 0. -1.
         25    2    1    2    0    0 -0.13351892891E+02  0.56714879355E+02 -0.33635362501E+03  0.36352828638E+03  0.12499681339E+03 0.  0.
          2    1    1    2  501    0 -0.34532195853E+02 -0.32957353484E+02 -0.82009897211E+03  0.82148705635E+03  0.00000000000E+00 0. -1.
          1    1    1    2  502    0  0.47884088744E+02 -0.23757525871E+02  0.10656617140E+04  0.10670014971E+04  0.00000000000E+00 0. -1.
         22    1    3    3    0    0 -0.44790203327E+02 -0.24332934284E+02 -0.12579853266E+03  0.13573328562E+03  0.00000000000E+00 0. -1.
         22    1    3    3    0    0  0.31438310435E+02  0.81047813640E+02 -0.21055509235E+03  0.22779500076E+03  0.00000000000E+00 0. -1.
</event>
<event>
 7    1  0.5667373E-006  0.7772640E+02  0.7818608E-02  0.1503509E+00
          2   -1    0    0  502    0  0.00000000000E+00  0.00000000000E+00  0.86388880284E+03  0.86388880284E+03  0.00000000000E+00 0. -1.
          1   -1    0    0  501    0 -0.00000000000E+00 -0.00000000000E+00 -0.47776063551E+02  0.47776063551E+02  0.00000000000E+00 0. -1.
         25    2    1    2    0    0 -0.50346575350E+02  0.43619032079E+02  0.26561940944E+03  0.30102456032E+03  0.12499887055E+03 0.  0.
          2    1    1    2  501    0 -0.20215506085E+02 -0.65672790257E+01 -0.23184185483E+02  0.31453176256E+02  0.00000000000E+00 0. -1.
          1    1    1    2  502    0  0.70562081435E+02 -0.37051753053E+02  0.57367751533E+03  0.57918712981E+03  0.00000000000E+00 0. -1.
         22    1    3    3    0    0 -0.80067736332E+02  0.10657851717E+02  0.23106677973E+03  0.24477804007E+03  0.00000000000E+00 0.  1.
         22    1    3    3    0    0  0.29721160982E+02  0.32961180362E+02  0.34552629708E+02  0.56246520254E+02  0.00000000000E+00 0.  1.
</event>
<event>
 7    1  0.5667373E-006  0.5629881E+02  0.7818608E-02  0.1483466E+00
          2   -1    0    0  502    0  0.00000000000E+00  0.00000000000E+00  0.20340124738E+04  0.20340124738E+04  0.00000000000E+00 0. -1.
          1   -1    0    0  501    0 -0.00000000000E+00 -0.00000000000E+00 -0.47866862203E+02  0.47866862203E+02  0.00000000000E+00 0. -1.
         25    2    1    2    0    0 -0.28061579490E+02 -0.45664197517E+02  0.41426847685E+03  0.43602327725E+03  0.12500102485E+03 0.  0.
          2    1    1    2  501    0  0.52378306252E+02  0.22302683399E+02 -0.14799538325E+02  0.58821110048E+02  0.00000000000E+00 0. -1.
          1    1    1    2  502    0 -0.24316726762E+02  0.23361514119E+02  0.15866766730E+04  0.15870349487E+04  0.00000000000E+00 0. -1.
         22    1    3    3    0    0  0.23203629677E+02 -0.51574185309E+02  0.34521959380E+03  0.34982120142E+03  0.00000000000E+00 0. -1.
         22    1    3    3    0    0 -0.51265209167E+02  0.59099877916E+01  0.69048883046E+02  0.86202075825E+02  0.00000000000E+00 0. -1.
</event>
<event>
 7    1  0.5667373E-006  0.4734095E+02  0.7818608E-02  0.1482755E+00
          2   -1    0    0  502    0  0.00000000000E+00  0.00000000000E+00  0.73053829561E+03  0.73053829561E+03  0.00000000000E+00 0. -1.
          1   -1    0    0  501    0 -0.00000000000E+00 -0.00000000000E+00 -0.53243690961E+03  0.53243690961E+03  0.00000000000E+00 0. -1.
         25    2    1    2    0    0 -0.76369344784E+02  0.19335713288E+02  0.49959931634E+03  0.52099303194E+03  0.12501246264E+03 0.  0.
          2    1    1    2  501    0  0.46630240494E+02  0.78642235643E+01 -0.51881195370E+03  0.52096263651E+03  0.00000000000E+00 0. -1.
          1    1    1    2  502    0  0.29739104291E+02 -0.27199936852E+02  0.21731402336E+03  0.22101953677E+03  0.00000000000E+00 0. -1.
         22    1    3    3    0    0 -0.64242241495E+01 -0.49314109783E+02  0.17297281957E+03  0.17997985551E+03  0.00000000000E+00 0.  1.
         22    1    3    3    0    0 -0.69945120635E+02  0.68649823070E+02  0.32662649677E+03  0.34101317643E+03  0.00000000000E+00 0.  1.
</event>
<event>
 7    1  0.5667373E-006  0.1062422E+03  0.7818608E-02  0.1338912E+00
          2   -1    0    0  502    0  0.00000000000E+00  0.00000000000E+00  0.15931895455E+04  0.15931895455E+04  0.00000000000E+00 0. -1.
          1   -1    0    0  501    0 -0.00000000000E+00 -0.00000000000E+00 -0.29914264597E+03  0.29914264597E+03  0.00000000000E+00 0. -1.
         25    2    1    2    0    0  0.36626230457E+02 -0.46888279145E+02  0.24063081301E+03  0.27761097960E+03  0.12499870539E+03 0.  0.
          2    1    1    2  501    0 -0.90430465120E+02  0.59506244855E+02 -0.26961544702E+03  0.29053597276E+03  0.00000000000E+00 0. -1.
          1    1    1    2  502    0  0.53804234663E+02 -0.12617965710E+02  0.13230315336E+04  0.13241852392E+04  0.00000000000E+00 0. -1.
         22    1    3    3    0    0  0.18736902811E+02 -0.19531994338E+01 -0.10702550356E+02  0.21666358695E+02  0.00000000000E+00 0.  1.
         22    1    3    3    0    0  0.17889327646E+02 -0.44935079712E+02  0.25133336336E+03  0.25594462091E+03  0.00000000000E+00 0.  1.
</event>
<event>
 7    1  0.5667373E-006  0.5814652E+02  0.7818608E-02  0.1458728E+00
          2   -1    0    0  502    0  0.00000000000E+00  0.00000000000E+00  0.72913340261E+03  0.72913340261E+03  0.00000000000E+00 0. -1.
          1   -1    0    0  501    0 -0.00000000000E+00 -0.00000000000E+00 -0.13055500792E+03  0.13055500792E+03  0.00000000000E+00 0. -1.
         25    2    1    2    0    0 -0.17388089157E+02 -0.26110522810E+02  0.30016314075E+03  0.32665784188E+03  0.12499331804E+03 0.  0.
          2    1    1    2  501    0 -0.38036303702E+01  0.58812627306E+02 -0.10891632994E+03  0.12383924928E+03  0.00000000000E+00 0. -1.
          1    1    1    2  502    0  0.21191719527E+02 -0.32702104496E+02  0.40733158388E+03  0.40919131936E+03  0.00000000000E+00 0. -1.
         22    1    3    3    0    0 -0.74768371872E+01 -0.18494744368E+02  0.31006846938E+03  0.31070953375E+03  0.00000000000E+00 0. -1.
         22    1    3    3    0    0 -0.99112519696E+01 -0.76157784424E+01 -0.99053286298E+01  0.15948308128E+02  0.00000000000E+00 0. -1.
</event>
<event>
 7    1  0.5667373E-006  0.1507806E+03  0.7818608E-02  0.1249723E+00
          2   -1    0    0  502    0  0.00000000000E+00  0.00000000000E+00  0.14210202251E+04  0.14210202251E+04  0.00000000000E+00 0. -1.
          1   -1    0    0  501    0 -0.00000000000E+00 -0.00000000000E+00 -0.83473949988E+03  0.83473949988E+03  0.00000000000E+00 0. -1.
         25    2    1    2    0    0  0.17134404211E+03  0.64364852038E+02  0.33231429010E+03  0.39944779743E+03  0.12499656203E+03 0.  0.
          2    1    1    2  501    0 -0.14895598735E+03  0.22136109373E+02 -0.79217500580E+03  0.80636166409E+03  0.00000000000E+00 0. -1.
          1    1    1    2  502    0 -0.22388054760E+02 -0.86500961411E+02  0.10461414410E+04  0.10499502635E+04  0.00000000000E+00 0. -1.
         22    1    3    3    0    0  0.51334962213E+02  0.83898393704E+02  0.12434146566E+03  0.15854027531E+03  0.00000000000E+00 0. -1.
         22    1    3    3    0    0  0.12000907990E+03 -0.19533541666E+02  0.20797282444E+03  0.24090752212E+03  0.00000000000E+00 0. -1.
</event>
<event>
 7    1  0.5667373E-006  0.9284363E+02  0.7818608E-02  0.1455162E+00
          2   -1    0    0  502    0  0.00000000000E+00  0.00000000000E+00  0.17461648507E+04  0.17461648507E+04  0.00000000000E+00 0. -1.
          1   -1    0    0  501    0 -0.00000000000E+00 -0.00000000000E+00 -0.67045997490E+03  0.67045997490E+03  0.00000000000E+00 0. -1.
         25    2    1    2    0    0  0.54993618780E+02  0.70700487136E+02  0.28319481424E+03  0.32225251231E+03  0.12499808756E+03 0.  0.
          2    1    1    2  501    0 -0.35164141576E+02 -0.86004429322E+02 -0.64750591152E+03  0.65413850534E+03  0.00000000000E+00 0. -1.
          1    1    1    2  502    0 -0.19829477204E+02  0.15303942186E+02  0.14400159731E+04  0.14402338080E+04  0.00000000000E+00 0. -1.
         22    1    3    3    0    0  0.61311464669E+02  0.19531990799E+02  0.25599915879E+03  0.26396242851E+03  0.00000000000E+00 0. -1.
         22    1    3    3    0    0 -0.63178458890E+01  0.51168496337E+02  0.27195655444E+02  0.58290083797E+02  0.00000000000E+00 0. -1.
</event>
<event>
 7    1  0.5667373E-006  0.1062267E+03  0.7818608E-02  0.1304435E+00
          2   -1    0    0  502    0  0.00000000000E+00  0.00000000000E+00  0.21848259149E+04  0.21848259149E+04  0.00000000000E+00 0. -1.
          1   -1    0    0  501    0 -0.00000000000E+00 -0.00000000000E+00 -0.39427130150E+02  0.39427130150E+02  0.00000000000E+00 0. -1.
         25    2    1    2    0    0  0.77350454394E+02 -0.45622848642E+02  0.17915597868E+03  0.23618581438E+03  0.12498934796E+03 0.  0.
          2    1    1    2  501    0 -0.15240661056E+03  0.49441811863E+02  0.64194239578E+03  0.66163608366E+03  0.00000000000E+00 0. -1.
          1    1    1    2  502    0  0.75056156164E+02 -0.38189632211E+01  0.13243004103E+04  0.13264311470E+04  0.00000000000E+00 0. -1.
         22    1    3    3    0    0 -0.68311446846E+00  0.30894702009E+02  0.89955049273E+02  0.95114983821E+02  0.00000000000E+00 0.  1.
         22    1    3    3    0    0  0.78033568863E+02 -0.76517550652E+02  0.89200929404E+02  0.14107083056E+03  0.00000000000E+00 0.  1.
</event>
<event>
 7    1  0.5667373E-006  0.9383766E+02  0.7818608E-02  0.1410250E+00
          2   -1    0    0  502    0  0.00000000000E+00  0.00000000000E+00  0.24005567056E+04  0.24005567056E+04  0.00000000000E+00 0. -1.
          1   -1    0    0  501    0 -0.00000000000E+00 -0.00000000000E+00 -0.85770484724E+02  0.85770484724E+02  0.00000000000E+00 0. -1.
         25    2    1    2    0    0 -0.39088684240E+02  0.87073797584E+02  0.16381393153E+04  0.16456717236E+04  0.12500093698E+03 0.  0.
          2    1    1    2  501    0 -0.28582136161E+02 -0.19837244050E+02 -0.75159262361E+02  0.82821310529E+02  0.00000000000E+00 0. -1.
          1    1    1    2  502    0  0.67670820401E+02 -0.67236553535E+02  0.75180616795E+03  0.75783415615E+03  0.00000000000E+00 0. -1.
         22    1    3    3    0    0  0.37188284366E+02  0.62357938031E+02  0.58581193893E+03  0.59029408664E+03  0.00000000000E+00 0. -1.
         22    1    3    3    0    0 -0.76276968607E+02  0.24715859553E+02  0.10523273763E+04  0.10553776370E+04  0.00000000000E+00 0. -1.
</event>
<event>
 7    1  0.5667373E-006  0.5461201E+02  0.7818608E-02  0.1463194E+00
          2   -1    0    0  502    0  0.00000000000E+00  0.00000000000E+00  0.35823389409E+03  0.35823389409E+03  0.00000000000E+00 0. -1.
          1   -1    0    0  501    0 -0.00000000000E+00 -0.00000000000E+00 -0.10624310809E+03  0.10624310809E+03  0.00000000000E+00 0. -1.
         25    2    1    2    0    0  0.26270837443E+01  0.91564785309E+02  0.86116575312E+02  0.17729006127E+03  0.12499875921E+03 0.  0.
          2    1    1    2  501    0 -0.23202659920E+01 -0.51398531209E+02 -0.47524275067E+02  0.70041054856E+02  0.00000000000E+00 0. -1.
          1    1    1    2  502    0 -0.30681775230E+00 -0.40166254100E+02  0.21339848575E+03  0.21714588605E+03  0.00000000000E+00 0. -1.
         22    1    3    3    0    0 -0.57093271483E+02  0.70839535934E+02  0.42036835545E+02  0.10022463291E+03  0.00000000000E+00 0. -1.
         22    1    3    3    0    0  0.59720355227E+02  0.20725249375E+02  0.44079739767E+02  0.77065428358E+02  0.00000000000E+00 0. -1.
</event>
<event>
 7    1  0.5667373E-006  0.6978953E+02  0.7818608E-02  0.1434534E+00
          2   -1    0    0  502    0  0.00000000000E+00  0.00000000000E+00  0.12329151653E+04  0.12329151653E+04  0.00000000000E+00 0. -1.
          1   -1    0    0  501    0 -0.00000000000E+00 -0.00000000000E+00 -0.51672862860E+02  0.51672862860E+02  0.00000000000E+00 0. -1.
         25    2    1    2    0    0 -0.76110712939E+02  0.32989838520E+02  0.61458516115E+03  0.63263012057E+03  0.12499911632E+03 0.  0.
          2    1    1    2  501    0  0.43608644566E+02 -0.54245296961E+02 -0.13166492421E+02  0.70835179437E+02  0.00000000000E+00 0. -1.
          1    1    1    2  502    0  0.32502068373E+02  0.21255458441E+02  0.57982363371E+03  0.58112272815E+03  0.00000000000E+00 0. -1.
         22    1    3    3    0    0  0.92261447266E+01  0.84957125694E+01  0.91968456788E+00  0.12575559561E+02  0.00000000000E+00 0. -1.
         22    1    3    3    0    0 -0.85336857665E+02  0.24494125951E+02  0.61366547658E+03  0.62005456101E+03  0.00000000000E+00 0. -1.
</event>
<event>
 7    1  0.5667373E-006  0.8306107E+02  0.7818608E-02  0.1484456E+00
          2   -1    0    0  502    0  0.00000000000E+00  0.00000000000E+00  0.46863829002E+03  0.46863829002E+03  0.00000000000E+00 0. -1.
          1   -1    0    0  501    0 -0.00000000000E+00 -0.00000000000E+00 -0.49093726339E+03  0.49093726339E+03  0.00000000000E+00 0. -1.
         25    2    1    2    0    0  0.32764733367E+02  0.74309448656E+02  0.87944670557E+01  0.14932393940E+03  0.12499949726E+03 0.  0.
          2    1    1    2  501    0 -0.53088380710E+02 -0.64204263801E+02 -0.41621043377E+03  0.42446635772E+03  0.00000000000E+00 0. -1.
          1    1    1    2  502    0  0.20323647343E+02 -0.10105184855E+02  0.38511699335E+03  0.38578525629E+03  0.00000000000E+00 0. -1.
         22    1    3    3    0    0  0.14302920902E+02  0.91166088786E+02 -0.35163963458E+02  0.98753904313E+02  0.00000000000E+00 0.  1.
         22    1    3    3    0    0  0.18461812465E+02 -0.16856640131E+02  0.43958430514E+02  0.50570035092E+02  0.00000000000E+00 0.  1.
</event>
<event>
 7    1  0.5667373E-006  0.1404595E+03  0.7818608E-02  0.1266259E+00
          2   -1    0    0  502    0  0.00000000000E+00  0.00000000000E+00  0.11649019365E+03  0.11649019365E+03  0.00000000000E+00 0. -1.
          1   -1    0    0  501    0 -0.00000000000E+00 -0.00000000000E+00 -0.89626627803E+03  0.89626627803E+03  0.00000000000E+00 0. -1.
         25    2    1    2    0    0  0.16921350652E+03  0.61984876021E+02 -0.32275278586E+03  0.39021848932E+03  0.12500309192E+03 0.  0.
          2    1    1    2  501    0 -0.94439239986E+02 -0.94372495559E+02 -0.50877852220E+03  0.52600429905E+03  0.00000000000E+00 0. -1.
          1    1    1    2  502    0 -0.74774266531E+02  0.32387619538E+02  0.51755223681E+02  0.96533683307E+02  0.00000000000E+00 0. -1.
         22    1    3    3    0    0  0.91128529647E+02 -0.51663730991E+00 -0.25126028322E+03  0.26727589819E+03  0.00000000000E+00 0. -1.
         22    1    3    3    0    0  0.78084976870E+02  0.62501513331E+02 -0.71492502638E+02  0.12294259113E+03  0.00000000000E+00 0. -1.
</event>
<event>
 7    1  0.5667373E-006  0.6219512E+02  0.7818608E-02  0.1521644E+00
          2   -1    0    0  502    0  0.00000000000E+00  0.00000000000E+00  0.14330206888E+04  0.14330206888E+04  0.00000000000E+00 0. -1.
          1   -1    0    0  501    0 -0.00000000000E+00 -0.00000000000E+00 -0.21419745073E+02  0.21419745073E+02  0.00000000000E+00 0. -1.
         25    2    1    2    0    0 -0.12362646767E+02  0.67982178786E+02  0.43265130778E+03  0.45561660422E+03  0.12499969698E+03 0.  0.
          2    1    1    2  501    0  0.30640307054E+02 -0.53209736948E+02  0.86566791988E+02  0.10613158812E+03  0.00000000000E+00 0. -1.
          1    1    1    2  502    0 -0.18277660287E+02 -0.14772441838E+02  0.89238284393E+03  0.89269224150E+03  0.00000000000E+00 0. -1.
         22    1    3    3    0    0 -0.13392784457E+02  0.90342538732E+02  0.42018335895E+03  0.42999441405E+03  0.00000000000E+00 0. -1.
         22    1    3    3    0    0  0.10301376898E+01 -0.22360359947E+02  0.12467948830E+02  0.25622190161E+02  0.00000000000E+00 0. -1.
</event>
<event>
 7    1  0.5667373E-006  0.6379522E+02  0.7818608E-02  0.1438365E+00
          2   -1    0    0  502    0  0.00000000000E+00  0.00000000000E+00  0.34280088843E+03  0.34280088843E+03  0.00000000000E+00 0. -1.
          1   -1    0    0  501    0 -0.00000000000E+00 -0.00000000000E+00 -0.40890393651E+03  0.40890393651E+03  0.00000000000E+00 0. -1.
         25    2    1    2    0    0 -0.38137978541E+02  0.75145243018E+02 -0.61128889919E+02  0.16267431935E+03  0.12499952015E+03 0.  0.
          2    1    1    2  501    0 -0.13924726003E+02 -0.38860012213E+02 -0.29208628827E+03  0.29498881054E+03  0.00000000000E+00 0. -1.
          1    1    1    2  502    0  0.52062704545E+02 -0.36285230805E+02  0.28711213011E+03  0.29404169506E+03  0.00000000000E+00 0. -1.
         22    1    3    3    0    0 -0.40266420409E+02  0.10931171290E+03 -0.45945043552E+02  0.12522532578E+03  0.00000000000E+00 0.  1.
         22    1    3    3    0    0  0.21284418678E+01 -0.34166469880E+02 -0.15183846367E+02  0.37448993569E+02  0.00000000000E+00 0.  1.
</event>
<event>
 7    1  0.5667373E-006  0.3744722E+02  0.7818608E-02  0.1548694E+00
          2   -1    0    0  502    0  0.00000000000E+00  0.00000000000E+00  0.99820100597E+02  0.99820100597E+02  0.00000000000E+00 0. -1.
          1   -1    0    0  501    0 -0.00000000000E+00 -0.00000000000E+00 -0.16609028764E+03  0.16609028764E+03  0.00000000000E+00 0. -1.
         25    2    1    2    0    0  0.70639188968E+01  0.11934500502E+02  0.34089500171E+02  0.13030527361E+03  0.12500015623E+03 0.  0.
          2    1    1    2  501    0  0.15531283652E+02 -0.35562566377E+02 -0.94810118696E+02  0.10244449964E+03  0.00000000000E+00 0. -1.
          1    1    1    2  502    0 -0.22595202549E+02  0.23628065875E+02 -0.55495685159E+01  0.33160614982E+02  0.00000000000E+00 0. -1.
         22    1    3    3    0    0 -0.29218634325E+02 -0.30306253444E+02  0.56348335025E+02  0.70337276388E+02  0.00000000000E+00 0. -1.
         22    1    3    3    0    0  0.36282553221E+02  0.42240753946E+02 -0.22258834853E+02  0.59967997226E+02  0.00000000000E+00 0. -1.
</event>
<event>
 7    1  0.5667373E-006  0.1430131E+03  0.7818608E-02  0.1319418E+00
          2   -1    0    0  502    0  0.00000000000E+00  0.00000000000E+00  0.58417447023E+03  0.58417447023E+03  0.00000000000E+00 0. -1.
          1   -1    0    0  501    0 -0.00000000000E+00 -0.00000000000E+00 -0.14305487760E+03  0.14305487760E+03  0.00000000000E+00 0. -1.
         25    2    1    2    0    0  0.16066298492E+03  0.93789162881E+01  0.18566152437E+03  0.27567316089E+03  0.12499972483E+03 0.  0.
          2    1    1    2  501    0 -0.13160942736E+03 -0.48520246986E+02 -0.44891287225E+02  0.14727689366E+03  0.00000000000E+00 0. -1.
          1    1    1    2  502    0 -0.29053557563E+02  0.39141330698E+02  0.30034935549E+03  0.30427929328E+03  0.00000000000E+00 0. -1.
         22    1    3    3    0    0  0.10980543046E+03 -0.39177989264E+02  0.16565329323E+03  0.20256643592E+03  0.00000000000E+00 0.  1.
         22    1    3    3    0    0  0.50857554463E+02  0.48556905552E+02  0.20008231137E+02  0.73106724971E+02  0.00000000000E+00 0.  1.
</event>
<event>
 7    1  0.5667373E-006  0.4997630E+02  0.7818608E-02  0.1473436E+00
          2   -1    0    0  502    0  0.00000000000E+00  0.00000000000E+00  0.36578069389E+04  0.36578069389E+04  0.00000000000E+00 0. -1.
          1   -1    0    0  501    0 -0.00000000000E+00 -0.00000000000E+00 -0.39919995369E+03  0.39919995369E+03  0.00000000000E+00 0. -1.
         25    2    1    2    0    0 -0.22415991958E+02  0.85917846740E+02  0.53605945353E+03  0.55755583029E+03  0.12499765232E+03 0.  0.
          2    1    1    2  501    0  0.17396789870E+02 -0.36884787678E+02 -0.38718556846E+03  0.38932736904E+03  0.00000000000E+00 0. -1.
          1    1    1    2  502    0  0.50192020885E+01 -0.49033059062E+02  0.31097331001E+04  0.31101236932E+04  0.00000000000E+00 0. -1.
         22    1    3    3    0    0 -0.42337060202E+02  0.82434325380E+02  0.52752921068E+03  0.53560705073E+03  0.00000000000E+00 0. -1.
         22    1    3    3    0    0  0.19921068244E+02  0.34835213604E+01  0.85302428459E+01  0.21948779558E+02  0.00000000000E+00 0. -1.
</event>
<event>
 7    1  0.5667373E-006  0.4267074E+02  0.7818608E-02  0.1495892E+00
          2   -1    0    0  502    0  0.00000000000E+00  0.00000000000E+00  0.14729928503E+04  0.14729928503E+04  0.00000000000E+00 0. -1.
          1   -1    0    0  501    0 -0.00000000000E+00 -0.00000000000E+00 -0.26399449569E+03  0.26399449569E+03  0.00000000000E+00 0. -1.
         25    2    1    2    0    0  0.14894816690E+02 -0.69492062413E+02  0.35444529118E+03  0.38250169892E+03  0.12500033174E+03 0.  0.
          2    1    1    2  501    0 -0.28170061158E+02  0.29512904748E+02 -0.24789655268E+03  0.25123149628E+03  0.00000000000E+00 0. -1.
          1    1    1    2  502    0  0.13275244468E+02  0.39979157665E+02  0.11024496162E+04  0.11032541508E+04  0.00000000000E+00 0. -1.
         22    1    3    3    0    0 -0.38220362185E+02 -0.41563867064E+02  0.28579737732E+03  0.29132197311E+03  0.00000000000E+00 0.  1.
         22    1    3    3    0    0  0.53115178875E+02 -0.27928195349E+02  0.68647913859E+02  0.91179725814E+02  0.00000000000E+00 0.  1.
</event>
<event>
 7    1  0.5667373E-006  0.2839696E+03  0.7818608E-02  0.1225289E+00
          2   -1    0    0  502    0  0.00000000000E+00  0.00000000000E+00  0.16323009164E+04  0.16323009164E+04  0.00000000000E+00 0. -1.
          1   -1    0    0  501    0 -0.00000000000E+00 -0.00000000000E+00 -0.46802448209E+03  0.46802448209E+03  0.00000000000E+00 0. -1.
         25    2    1    2    0    0 -0.12748049733E+03 -0.24709645534E+03  0.11837416387E+03  0.32702609891E+03  0.12500276501E+03 0.  0.
          2    1    1    2  501    0  0.53641067060E+02 -0.28767637070E+02 -0.34655496090E+03  0.35185974755E+03  0.00000000000E+00 0. -1.
          1    1    1    2  502    0  0.73839430268E+02  0.27586409241E+03  0.13924572314E+04  0.14214395521E+04  0.00000000000E+00 0. -1.
         22    1    3    3    0    0 -0.61391290248E+02 -0.23886211477E+02  0.12037204254E-01  0.65874439368E+02  0.00000000000E+00 0. -1.
         22    1    3    3    0    0 -0.66089207080E+02 -0.22321024386E+03  0.11836212666E+03  0.26115165955E+03  0.00000000000E+00 0. -1.
</event>
<event>
 7    1  0.5667373E-006  0.1617174E+03  0.7818608E-02  0.1327902E+00
          2   -1    0    0  502    0  0.00000000000E+00  0.00000000000E+00  0.49773390944E+03  0.49773390944E+03  0.00000000000E+00 0. -1.
          1   -1    0    0  501    0 -0.00000000000E+00 -0.00000000000E+00 -0.54603580899E+03  0.54603580899E+03  0.00000000000E+00 0. -1.
         25    2    1    2    0    0  0.94344667871E+02  0.95502729596E+02  0.11615896858E+03  0.21711160362E+03  0.12499141861E+03 0.  0.
          2    1    1    2  501    0  0.28092261966E+02  0.28444685643E+02 -0.47173633885E+03  0.47342734259E+03  0.00000000000E+00 0. -1.
          1    1    1    2  502    0 -0.12243692984E+03 -0.12394741524E+03  0.30727547072E+03  0.35323077221E+03  0.00000000000E+00 0. -1.
         22    1    3    3    0    0  0.56027822932E+02  0.57181004243E+02  0.13730654018E+03  0.15893983190E+03  0.00000000000E+00 0.  1.
         22    1    3    3    0    0  0.38316844940E+02  0.38321725353E+02 -0.21147571599E+02  0.58171771717E+02  0.00000000000E+00 0.  1.
</event>
<event>
 7    1  0.5667373E-006  0.1276737E+03  0.7818608E-02  0.1367337E+00
          2   -1    0    0  502    0  0.00000000000E+00  0.00000000000E+00  0.96601342332E+03  0.96601342332E+03  0.00000000000E+00 0. -1.
          1   -1    0    0  501    0 -0.00000000000E+00 -0.00000000000E+00 -0.17150581234E+04  0.17150581234E+04  0.00000000000E+00 0. -1.
         25    2    1    2    0    0 -0.57178273489E+02 -0.14943868473E+03  0.17445253738E+03  0.26769297506E+03  0.12499826256E+03 0.  0.
          2    1    1    2  501    0  0.96075613081E+01  0.34823841723E+02 -0.16630723519E+04  0.16634646533E+04  0.00000000000E+00 0. -1.
          1    1    1    2  502    0  0.47570712181E+02  0.11461484301E+03  0.73957511448E+03  0.74991391830E+03  0.00000000000E+00 0. -1.
         22    1    3    3    0    0 -0.65567464675E+01 -0.10716573316E+03  0.17067110000E+03  0.20163360251E+03  0.00000000000E+00 0. -1.
         22    1    3    3    0    0 -0.50621527021E+02 -0.42272951572E+02  0.37814373859E+01  0.66059372547E+02  0.00000000000E+00 0. -1.
</event>
<event>
 7    1  0.5667373E-006  0.4639800E+02  0.7818608E-02  0.1497414E+00
          2   -1    0    0  502    0  0.00000000000E+00  0.00000000000E+00  0.25043624983E+03  0.25043624983E+03  0.00000000000E+00 0. -1.
          1   -1    0    0  501    0 -0.00000000000E+00 -0.00000000000E+00 -0.99569724605E+03  0.99569724605E+03  0.00000000000E+00 0. -1.
         25    2    1    2    0    0  0.23269781991E+02 -0.49825038509E-01 -0.39893359737E+03  0.41870229896E+03  0.12498845867E+03 0.  0.
          2    1    1    2  501    0 -0.34709110624E+02  0.35373178906E+02 -0.58439150297E+03  0.58648905607E+03  0.00000000000E+00 0. -1.
          1    1    1    2  502    0  0.11439328634E+02 -0.35323353867E+02  0.23806410412E+03  0.24094214085E+03  0.00000000000E+00 0. -1.
         22    1    3    3    0    0 -0.27862162452E+02 -0.23495545599E+02 -0.35283606792E+02  0.50727444916E+02  0.00000000000E+00 0. -1.
         22    1    3    3    0    0  0.51131944443E+02  0.23445720560E+02 -0.36364999058E+03  0.36797485404E+03  0.00000000000E+00 0. -1.
</event>
<event>
 7    1  0.5667373E-006  0.7833284E+02  0.7818608E-02  0.1364149E+00
          2   -1    0    0  502    0  0.00000000000E+00  0.00000000000E+00  0.32914880540E+03  0.32914880540E+03  0.00000000000E+00 0. -1.
          1   -1    0    0  501    0 -0.00000000000E+00 -0.00000000000E+00 -0.41020607123E+03  0.41020607123E+03  0.00000000000E+00 0. -1.
         25    2    1    2    0    0  0.94933768386E+02  0.74445755055E+02  0.23294099473E+02  0.17527556201E+03  0.12499726694E+03 0.  0.
          2    1    1    2  501    0 -0.60013158034E+02 -0.73723188536E+01 -0.32513257345E+03  0.33070700104E+03  0.00000000000E+00 0. -1.
          1    1    1    2  502    0 -0.34920610352E+02 -0.67073436201E+02  0.22078120814E+03  0.23337231357E+03  0.00000000000E+00 0. -1.
         22    1    3    3    0    0  0.85269215535E+02 -0.11422025867E+02  0.10028079632E+01  0.86036663212E+02  0.00000000000E+00 0. -1.
         22    1    3    3    0    0  0.96645528512E+01  0.85867780922E+02  0.22291291509E+02  0.89238898802E+02  0.00000000000E+00 0. -1.
</event>
<event>
 7    1  0.5667373E-006  0.4579811E+02  0.7818608E-02  0.1534586E+00
          2   -1    0    0  502    0  0.00000000000E+00  0.00000000000E+00  0.48250125572E+02  0.48250125572E+02  0.00000000000E+00 0. -1.
          1   -1    0    0  501    0 -0.00000000000E+00 -0.00000000000E+00 -0.13150444477E+04  0.13150444477E+04  0.00000000000E+00 0. -1.
         25    2    1    2    0    0 -0.20174563717E+02  0.67119193298E+02 -0.57343127472E+03  0.59106748677E+03  0.12500139183E+03 0.  0.
          2    1    1    2  501    0  0.22515851450E+02 -0.37916022430E+02 -0.72659107561E+03  0.72792800433E+03  0.00000000000E+00 0. -1.
          1    1    1    2  502    0 -0.23412877334E+01 -0.29203170868E+02  0.33228028244E+02  0.44299082135E+02  0.00000000000E+00 0. -1.
         22    1    3    3    0    0  0.29186023141E+02  0.15789625063E+01 -0.37777383676E+03  0.37890287517E+03  0.00000000000E+00 0. -1.
         22    1    3    3    0    0 -0.49360586858E+02  0.65540230792E+02 -0.19565743795E+03  0.21216461160E+03  0.00000000000E+00 0. -1.
</event>
<event>
 7    1  0.5667373E-006  0.1187314E+03  0.7818608E-02  0.1365476E+00
          2   -1    0    0  502    0  0.00000000000E+00  0.00000000000E+00  0.46182184300E+03  0.46182184300E+03  0.00000000000E+00 0. -1.
          1   -1    0    0  501    0 -0.00000000000E+00 -0.00000000000E+00 -0.27914442060E+03  0.27914442060E+03  0.00000000000E+00 0. -1.
         25    2    1    2    0    0 -0.41379386310E+02 -0.72800911873E+02 -0.62506703063E+02  0.16291795580E+03  0.12499178378E+03 0.  0.
          2    1    1    2  501    0 -0.30019170020E+02 -0.25599026083E+02 -0.15492872993E+03  0.15987298728E+03  0.00000000000E+00 0. -1.
          1    1    1    2  502    0  0.71398556330E+02  0.98399937956E+02  0.40011285540E+03  0.41817532052E+03  0.00000000000E+00 0. -1.
         22    1    3    3    0    0 -0.23378705627E+01  0.61692649931E+01  0.32611580606E+02  0.33272220529E+02  0.00000000000E+00 0.  1.
         22    1    3    3    0    0 -0.39041515747E+02 -0.78970176867E+02 -0.95118283669E+02  0.12964573527E+03  0.00000000000E+00 0.  1.
</event>
<event>
 7    1  0.5667373E-006  0.6667588E+02  0.7818608E-02  0.1391661E+00
          2   -1    0    0  502    0  0.00000000000E+00  0.00000000000E+00  0.29545341288E+03  0.29545341288E+03  0.00000000000E+00 0. -1.
          1   -1    0    0  501    0 -0.00000000000E+00 -0.00000000000E+00 -0.11978872081E+04  0.11978872081E+04  0.00000000000E+00 0. -1.
         25    2    1    2    0    0  0.82030066485E+02 -0.39900826837E+02 -0.26957282084E+03  0.31082330130E+03  0.12498244320E+03 0.  0.
          2    1    1    2  501    0 -0.28875556744E+02  0.59687146935E+02 -0.90353507353E+03  0.90596466951E+03  0.00000000000E+00 0. -1.
          1    1    1    2  502    0 -0.53154509742E+02 -0.19786320098E+02  0.27067409915E+03  0.27655265017E+03  0.00000000000E+00 0. -1.
         22    1    3    3    0    0  0.25942307473E+02  0.21328625994E+02 -0.19910306043E+03  0.20191568110E+03  0.00000000000E+00 0. -1.
         22    1    3    3    0    0  0.56087759013E+02 -0.61229452831E+02 -0.70469760413E+02  0.10890762020E+03  0.00000000000E+00 0. -1.
</event>
<event>
 7    1  0.5667373E-006  0.3074093E+03  0.7818608E-02  0.1185041E+00
          2   -1    0    0  502    0  0.00000000000E+00  0.00000000000E+00  0.18964512972E+03  0.18964512972E+03  0.00000000000E+00 0. -1.
          1   -1    0    0  501    0 -0.00000000000E+00 -0.00000000000E+00 -0.11704854074E+04  0.11704854074E+04  0.00000000000E+00 0. -1.
         25    2    1    2    0    0  0.25737231719E+03 -0.10952846014E+03 -0.11079733609E+03  0.32578765410E+03  0.12499821057E+03 0.  0.
          2    1    1    2  501    0 -0.31347517932E+03  0.43391424477E+02 -0.89064903249E+03  0.94520114412E+03  0.00000000000E+00 0. -1.
          1    1    1    2  502    0  0.56102862131E+02  0.66137035666E+02  0.20606090919E+02  0.89141738871E+02  0.00000000000E+00 0. -1.
         22    1    3    3    0    0  0.85914970944E+00 -0.28534147279E+02  0.10881633466E+02  0.30550706146E+02  0.00000000000E+00 0. -1.
         22    1    3    3    0    0  0.25651316748E+03 -0.80994312864E+02 -0.12167896955E+03  0.29523694796E+03  0.00000000000E+00 0. -1.
</event>
<event>
 7    1  0.5667373E-006  0.1015678E+03  0.7818608E-02  0.1452585E+00
          2   -1    0    0  502    0  0.00000000000E+00  0.00000000000E+00  0.13541333537E+04  0.13541333537E+04  0.00000000000E+00 0. -1.
          1   -1    0    0  501    0 -0.00000000000E+00 -0.00000000000E+00 -0.11438053682E+03  0.11438053682E+03  0.00000000000E+00 0. -1.
         25    2    1    2    0    0 -0.62980929115E+02  0.50582203559E+02  0.13057362651E+02  0.14940115467E+03  0.12500021419E+03 0.  0.
          2    1    1    2  501    0 -0.98013571568E+01  0.21174745597E+02 -0.41069248884E+02  0.47234729354E+02  0.00000000000E+00 0. -1.
          1    1    1    2  502    0  0.72782286272E+02 -0.71756949156E+02  0.12677647031E+04  0.12718780065E+04  0.00000000000E+00 0. -1.
         22    1    3    3    0    0  0.26825183722E+02  0.40506851226E+02 -0.20864730880E+02  0.52874686502E+02  0.00000000000E+00 0.  1.
         22    1    3    3    0    0 -0.89806112837E+02  0.10075352333E+02  0.33922093530E+02  0.96526468168E+02  0.00000000000E+00 0.  1.
</event>
<event>
 7    1  0.5667373E-006  0.5925105E+02  0.7818608E-02  0.1413474E+00
          2   -1    0    0  502    0  0.00000000000E+00  0.00000000000E+00  0.99573619210E+03  0.99573619210E+03  0.00000000000E+00 0. -1.
          1   -1    0    0  501    0 -0.00000000000E+00 -0.00000000000E+00 -0.11669122319E+03  0.11669122319E+03  0.00000000000E+00 0. -1.
         25    2    1    2    0    0 -0.53417617017E+02  0.34977179664E+02 -0.23534275960E+02  0.14232293370E+03  0.12500044162E+03 0.  0.
          2    1    1    2  501    0  0.47953750435E+02  0.24247124364E+02 -0.10784067604E+02  0.54806763586E+02  0.00000000000E+00 0. -1.
          1    1    1    2  502    0  0.54638665824E+01 -0.59224304028E+02  0.91336331248E+03  0.91529771801E+03  0.00000000000E+00 0. -1.
         22    1    3    3    0    0 -0.35017401831E+01  0.43382029921E+02 -0.64083317774E+02  0.77465697707E+02  0.00000000000E+00 0.  1.
         22    1    3    3    0    0 -0.49915876834E+02 -0.84048502571E+01  0.40549041814E+02  0.64857235988E+02  0.00000000000E+00 0.  1.
</event>
<event>
 7    1  0.5667373E-006  0.1902411E+03  0.7818608E-02  0.1346166E+00
          2   -1    0    0  502    0  0.00000000000E+00  0.00000000000E+00  0.13423883726E+04  0.13423883726E+04  0.00000000000E+00 0. -1.
          1   -1    0    0  501    0 -0.00000000000E+00 -0.00000000000E+00 -0.99344286939E+03  0.99344286939E+03  0.00000000000E+00 0. -1.
         25    2    1    2    0    0 -0.19260506784E+03  0.95445286539E+01 -0.29268051431E+03  0.37212206371E+03  0.12500054664E+03 0.  0.
          2    1    1    2  501    0  0.61806773240E+01  0.28323681049E+02 -0.65377365791E+03  0.65441609658E+03  0.00000000000E+00 0. -1.
          1    1    1    2  502    0  0.18642439052E+03 -0.37868209702E+02  0.12953996755E+04  0.13092930817E+04  0.00000000000E+00 0. -1.
         22    1    3    3    0    0 -0.78041411018E+01  0.25545812564E+02 -0.10461197778E+03  0.10796832431E+03  0.00000000000E+00 0.  1.
         22    1    3    3    0    0 -0.18480092674E+03 -0.16001283910E+02 -0.18806853652E+03  0.26415373940E+03  0.00000000000E+00 0.  1.
</event>
<event>
 7    1  0.5667373E-006  0.6714770E+02  0.7818608E-02  0.1437980E+00
          2   -1    0    0  502    0  0.00000000000E+00  0.00000000000E+00  0.13409896183E+04  0.13409896183E+04  0.00000000000E+00 0. -1.
          1   -1    0    0  501    0 -0.00000000000E+00 -0.00000000000E+00 -0.11159581525E+03  0.11159581525E+03  0.00000000000E+00 0. -1.
         25    2    1    2    0    0  0.67513383201E+02  0.34750313070E+02  0.36582054287E+03  0.39397327876E+03  0.12499853449E+03 0.  0.
          2    1    1    2  501    0 -0.32248773755E+02  0.22516782061E+02 -0.92323473114E+02  0.10035244178E+03  0.00000000000E+00 0. -1.
          1    1    1    2  502    0 -0.35264609446E+02 -0.57267095131E+02  0.95589673330E+03  0.95825971302E+03  0.00000000000E+00 0. -1.
         22    1    3    3    0    0  0.98921594526E+02  0.32824078687E+02  0.33109108127E+03  0.34710834923E+03  0.00000000000E+00 0.  1.
         22    1    3    3    0    0 -0.31408211326E+02  0.19262343828E+01  0.34729461598E+02  0.46864929537E+02  0.00000000000E+00 0.  1.
</event>
<event>
 7    1  0.6469377E-006  0.1119517E+03  0.7818608E-02  0.1352880E+00
          2   -1    0    0  502    0  0.00000000000E+00  0.00000000000E+00  0.13774635552E+04  0.13774635552E+04  0.00000000000E+00 0. -1.
          1   -1    0    0  501    0 -0.00000000000E+00 -0.00000000000E+00 -0.11482420080E+04  0.11482420080E+04  0.00000000000E+00 0. -1.
         25    2    1    2    0    0  0.70061955764E+02  0.31887530886E+02 -0.88265415709E+02  0.17129249355E+03  0.12499936986E+03 0.  0.
          2    1    1    2  501    0  0.12454016817E+02  0.44820974130E+02 -0.10155543750E+04  0.10166192556E+04  0.00000000000E+00 0. -1.
          1    1    1    2  502    0 -0.82515972581E+02 -0.76708505016E+02  0.13330413379E+04  0.13377938141E+04  0.00000000000E+00 0. -1.
         22    1    3    3    0    0  0.70312105358E+01 -0.42887083856E+02 -0.50074006562E+02  0.66303438948E+02  0.00000000000E+00 0. -1.
         22    1    3    3    0    0  0.63030745229E+02  0.74774614742E+02 -0.38191409147E+02  0.10498905460E+03  0.00000000000E+00 0. -1.
</event>
<event>
 7    1  0.5667373E-006  0.7687290E+02  0.7818608E-02  0.1362417E+00
          2   -1    0    0  502    0  0.00000000000E+00  0.00000000000E+00  0.13176313562E+04  0.13176313562E+04  0.00000000000E+00 0. -1.
          1   -1    0    0  501    0 -0.00000000000E+00 -0.00000000000E+00 -0.33558404994E+03  0.33558404994E+03  0.00000000000E+00 0. -1.
         25    2    1    2    0    0  0.78531280136E+02 -0.51389058081E+02 -0.53101908069E+02  0.16508128424E+03  0.12499608200E+03 0.  0.
          2    1    1    2  501    0 -0.20476665327E+02  0.74569599926E+02 -0.21909070850E+03  0.23233737884E+03  0.00000000000E+00 0. -1.
          1    1    1    2  502    0 -0.58054614810E+02 -0.23180541844E+02  0.12542399228E+04  0.12557967431E+04  0.00000000000E+00 0. -1.
         22    1    3    3    0    0  0.68329292663E+02  0.20535097196E+02 -0.58460282035E+02  0.92239834282E+02  0.00000000000E+00 0. -1.
         22    1    3    3    0    0  0.10201987473E+02 -0.71924155277E+02  0.53583739660E+01  0.72841449960E+02  0.00000000000E+00 0. -1.
</event>
<event>
 7    1  0.5667373E-006  0.1447155E+03  0.7818608E-02  0.1218931E+00
          2   -1    0    0  502    0  0.00000000000E+00  0.00000000000E+00  0.27033523394E+04  0.27033523394E+04  0.00000000000E+00 0. -1.
          1   -1    0    0  501    0 -0.00000000000E+00 -0.00000000000E+00 -0.18314380489E+03  0.18314380489E+03  0.00000000000E+00 0. -1.
         25    2    1    2    0    0 -0.11990766928E+03  0.16759794258E+03  0.23843367963E+03  0.33903172396E+03  0.12499988304E+03 0.  0.
          2    1    1    2  501    0 -0.50152313829E+01 -0.14133579456E+03 -0.92998778498E+02  0.16926231764E+03  0.00000000000E+00 0. -1.
          1    1    1    2  502    0  0.12492290066E+03 -0.26262148017E+02  0.23747736334E+04  0.23782021027E+04  0.00000000000E+00 0. -1.
         22    1    3    3    0    0 -0.11711963095E+02  0.86185842548E+02  0.16115109735E+03  0.18312521867E+03  0.00000000000E+00 0. -1.
         22    1    3    3    0    0 -0.10819570618E+03  0.81412100027E+02  0.77282582282E+02  0.15590650529E+03  0.00000000000E+00 0. -1.
</event>
<event>
 7    1  0.5667373E-006  0.5929069E+02  0.7818608E-02  0.1517827E+00
          2   -1    0    0  502    0  0.00000000000E+00  0.00000000000E+00  0.27149374744E+03  0.27149374744E+03  0.00000000000E+00 0. -1.
          1   -1    0    0  501    0 -0.00000000000E+00 -0.00000000000E+00 -0.21158333454E+03  0.21158333454E+03  0.00000000000E+00 0. -1.
         25    2    1    2    0    0  0.34895884837E+02 -0.85790244247E+01 -0.12537858960E+03  0.18065374715E+03  0.12499865275E+03 0.  0.
          2    1    1    2  501    0  0.19839609952E+02 -0.15683069442E+02 -0.51932566109E+02  0.57762965755E+02  0.00000000000E+00 0. -1.
          1    1    1    2  502    0 -0.54735494789E+02  0.24262093866E+02  0.23722156860E+03  0.24466036908E+03  0.00000000000E+00 0. -1.
         22    1    3    3    0    0  0.81643811832E+02  0.20245319470E+00 -0.69046987080E+02  0.10692632708E+03  0.00000000000E+00 0. -1.
         22    1    3    3    0    0 -0.46747926995E+02 -0.87814776194E+01 -0.56331602518E+02  0.73727420067E+02  0.00000000000E+00 0. -1.
</event>
<event>
 7    1  0.5667373E-006  0.5561504E+02  0.7818608E-02  0.1557935E+00
          2   -1    0    0  502    0  0.00000000000E+00  0.00000000000E+00  0.46273845299E+03  0.46273845299E+03  0.00000000000E+00 0. -1.
          1   -1    0    0  501    0 -0.00000000000E+00 -0.00000000000E+00 -0.17386768677E+03  0.17386768677E+03  0.00000000000E+00 0. -1.
         25    2    1    2    0    0 -0.14566992571E+02  0.61070703266E+02  0.23228782533E+03  0.27115342865E+03  0.12499887999E+03 0.  0.
          2    1    1    2  501    0 -0.14647026622E+02 -0.14697868836E+02 -0.15015049529E+03  0.15157748505E+03  0.00000000000E+00 0. -1.
          1    1    1    2  502    0  0.29214019193E+02 -0.46372834430E+02  0.20673343618E+03  0.21387522607E+03  0.00000000000E+00 0. -1.
         22    1    3    3    0    0 -0.31416466857E+02  0.60698877216E+02  0.42211863220E+02  0.80331746412E+02  0.00000000000E+00 0. -1.
         22    1    3    3    0    0  0.16849474286E+02  0.37182605045E+00  0.19007596211E+03  0.19082168223E+03  0.00000000000E+00 0. -1.
</event>
<event>
 7    1  0.5667373E-006  0.1038743E+03  0.7818608E-02  0.1299749E+00
          2   -1    0    0  502    0  0.00000000000E+00  0.00000000000E+00  0.38022545747E+03  0.38022545747E+03  0.00000000000E+00 0. -1.
          1   -1    0    0  501    0 -0.00000000000E+00 -0.00000000000E+00 -0.84845795104E+03  0.84845795104E+03  0.00000000000E+00 0. -1.
         25    2    1    2    0    0  0.15313270420E+03 -0.34984842229E+02 -0.14915914627E+03  0.25009267753E+03  0.12499732860E+03 0.  0.
          2    1    1    2  501    0 -0.98097245504E+02 -0.23401469308E+02 -0.63994323132E+03  0.64784105894E+03  0.00000000000E+00 0. -1.
          1    1    1    2  502    0 -0.55035458697E+02  0.58386311537E+02  0.32086988402E+03  0.33074967205E+03  0.00000000000E+00 0. -1.
         22    1    3    3    0    0  0.28018010814E+02 -0.18129588257E+02 -0.11437384845E+03  0.11914305733E+03  0.00000000000E+00 0. -1.
         22    1    3    3    0    0  0.12511469339E+03 -0.16855253972E+02 -0.34785297823E+02  0.13094962021E+03  0.00000000000E+00 0. -1.
</event>
<event>
 7    1  0.5667373E-006  0.1485202E+03  0.7818608E-02  0.1236213E+00
          2   -1    0    0  502    0  0.00000000000E+00  0.00000000000E+00  0.14644428457E+04  0.14644428457E+04  0.00000000000E+00 0. -1.
          1   -1    0    0  501    0 -0.00000000000E+00 -0.00000000000E+00 -0.26228689417E+03  0.26228689417E+03  0.00000000000E+00 0. -1.
         25    2    1    2    0    0  0.11634598747E+03  0.21656774644E+03  0.78064303497E+03  0.82792937305E+03  0.12500208445E+03 0.  0.
          2    1    1    2  501    0 -0.87542145447E+02 -0.11665592193E+03 -0.21171588501E+03  0.25709112648E+03  0.00000000000E+00 0. -1.
          1    1    1    2  502    0 -0.28803842024E+02 -0.99911824510E+02  0.63322880161E+03  0.64170924037E+03  0.00000000000E+00 0. -1.
         22    1    3    3    0    0  0.98808431204E+02  0.21999569514E+03  0.77054575576E+03  0.80740446721E+03  0.00000000000E+00 0. -1.
         22    1    3    3    0    0  0.17537556267E+02 -0.34279487036E+01  0.10097279208E+02  0.20524905835E+02  0.00000000000E+00 0. -1.
</event>
<event>
 7    1  0.5667373E-006  0.2316072E+03  0.7818608E-02  0.1247171E+00
          2   -1    0    0  502    0  0.00000000000E+00  0.00000000000E+00  0.21428984732E+04  0.21428984732E+04  0.00000000000E+00 0. -1.
          1   -1    0    0  501    0 -0.00000000000E+00 -0.00000000000E+00 -0.13410469878E+03  0.13410469878E+03  0.00000000000E+00 0. -1.
         25    2    1    2    0    0  0.27733117632E+02 -0.19228373390E+03  0.11236882671E+04  0.11471889919E+04  0.12500040538E+03 0.  0.
          2    1    1    2  501    0 -0.79532862788E+02  0.22191357637E+03 -0.68791042454E+01  0.23583560740E+03  0.00000000000E+00 0. -1.
          1    1    1    2  502    0  0.51799745156E+02 -0.29629842476E+02  0.89198461155E+03  0.89397857268E+03  0.00000000000E+00 0. -1.
         22    1    3    3    0    0 -0.13758257035E+02 -0.36292895147E+02  0.60927135165E+02  0.72239737501E+02  0.00000000000E+00 0.  1.
         22    1    3    3    0    0  0.41491374668E+02 -0.15599083875E+03  0.10627611319E+04  0.10749492544E+04  0.00000000000E+00 0.  1.
</event>
<event>
 7    1  0.5667373E-006  0.1278158E+03  0.7818608E-02  0.1417248E+00
          2   -1    0    0  502    0  0.00000000000E+00  0.00000000000E+00  0.48188757249E+03  0.48188757249E+03  0.00000000000E+00 0. -1.
          1   -1    0    0  501    0 -0.00000000000E+00 -0.00000000000E+00 -0.16057178616E+04  0.16057178616E+04  0.00000000000E+00 0. -1.
         25    2    1    2    0    0  0.10351162380E+03 -0.62834918695E+02 -0.64713985099E+03  0.67013382474E+03  0.12500589204E+03 0.  0.
          2    1    1    2  501    0 -0.83750319092E+01 -0.22696644529E+02 -0.93822379138E+03  0.93853564746E+03  0.00000000000E+00 0. -1.
          1    1    1    2  502    0 -0.95136591887E+02  0.85531563223E+02  0.46153335326E+03  0.47893596189E+03  0.00000000000E+00 0. -1.
         22    1    3    3    0    0  0.22676635357E+02  0.38252614430E+02 -0.15416845396E+03  0.16045374567E+03  0.00000000000E+00 0. -1.
         22    1    3    3    0    0  0.80834988440E+02 -0.10108753312E+03 -0.49297139703E+03  0.50968007907E+03  0.00000000000E+00 0. -1.
</event>
<event>
 7    1  0.5667373E-006  0.8381439E+02  0.7818608E-02  0.1493249E+00
          2   -1    0    0  502    0  0.00000000000E+00  0.00000000000E+00  0.12775730391E+04  0.12775730391E+04  0.00000000000E+00 0. -1.
          1   -1    0    0  501    0 -0.00000000000E+00 -0.00000000000E+00 -0.81415305461E+03  0.81415305461E+03  0.00000000000E+00 0. -1.
         25    2    1    2    0    0  0.61527701229E+02 -0.46772245003E+02  0.46767299733E+03  0.49021829217E+03  0.12499056216E+03 0.  0.
          2    1    1    2  501    0  0.16915653708E+02  0.12703661420E+02 -0.80045069670E+03  0.80073019189E+03  0.00000000000E+00 0. -1.
          1    1    1    2  502    0 -0.78443354937E+02  0.34068583582E+02  0.79619768391E+03  0.80077760969E+03  0.00000000000E+00 0. -1.
         22    1    3    3    0    0 -0.30254679915E+01 -0.65300857768E+02  0.12537365206E+03  0.14139274420E+03  0.00000000000E+00 0.  1.
         22    1    3    3    0    0  0.64553169221E+02  0.18528612765E+02  0.34229934526E+03  0.34882554797E+03  0.00000000000E+00 0.  1.
</event>
<event>
 7    1  0.5667373E-006  0.6663010E+02  0.7818608E-02  0.1418349E+00
          2   -1    0    0  502    0  0.00000000000E+00  0.00000000000E+00  0.48055631257E+03  0.48055631257E+03  0.00000000000E+00 0. -1.
          1   -1    0    0  501    0 -0.00000000000E+00 -0.00000000000E+00 -0.79543339743E+02  0.79543339743E+02  0.00000000000E+00 0. -1.
         25    2    1    2    0    0 -0.10582947139E+03  0.88030331890E+01  0.20650951849E+03  0.26371969820E+03  0.12499811032E+03 0.  0.
          2    1    1    2  501    0  0.44682697248E+02 -0.10995937479E+02 -0.35664214278E+02  0.58218470046E+02  0.00000000000E+00 0. -1.
          1    1    1    2  502    0  0.61146774139E+02  0.21929042896E+01  0.23016766861E+03  0.23816148406E+03  0.00000000000E+00 0. -1.
         22    1    3    3    0    0 -0.46352041591E+02  0.97042906317E+01 -0.14911696439E+01  0.47380466473E+02  0.00000000000E+00 0. -1.
         22    1    3    3    0    0 -0.59477429796E+02 -0.90125744272E+00  0.20800068813E+03  0.21633923173E+03  0.00000000000E+00 0. -1.
</event>
<event>
 7    1  0.5667373E-006  0.4110541E+02  0.7818608E-02  0.1532541E+00
          2   -1    0    0  502    0  0.00000000000E+00  0.00000000000E+00  0.74982471249E+03  0.74982471249E+03  0.00000000000E+00 0. -1.
          1   -1    0    0  501    0 -0.00000000000E+00 -0.00000000000E+00 -0.12036879887E+04  0.12036879887E+04  0.00000000000E+00 0. -1.
         25    2    1    2    0    0 -0.27060898295E+02  0.15750787687E+02  0.53286571473E+02  0.13944446836E+03  0.12499968611E+03 0.  0.
          2    1    1    2  501    0  0.54769660189E+01 -0.40822592407E+02 -0.11598245264E+04  0.11605556485E+04  0.00000000000E+00 0. -1.
          1    1    1    2  502    0  0.21583932276E+02  0.25071804720E+02  0.65267467877E+03  0.65351258429E+03  0.00000000000E+00 0. -1.
         22    1    3    3    0    0 -0.56638235694E+02 -0.34485491478E+02  0.10513290820E+02  0.67139170004E+02  0.00000000000E+00 0. -1.
         22    1    3    3    0    0  0.29577337399E+02  0.50236279165E+02  0.42773280653E+02  0.72305298353E+02  0.00000000000E+00 0. -1.
</event>
<event>
 7    1  0.5667373E-006  0.1350566E+03  0.7818608E-02  0.1325827E+00
          2   -1    0    0  502    0  0.00000000000E+00  0.00000000000E+00  0.17672531279E+04  0.17672531279E+04  0.00000000000E+00 0. -1.
          1   -1    0    0  501    0 -0.00000000000E+00 -0.00000000000E+00 -0.13088072394E+03  0.13088072394E+03  0.00000000000E+00 0. -1.
         25    2    1    2    0    0  0.17035314063E+03  0.28489214159E+02  0.62539368418E+03  0.66073590276E+03  0.12499138024E+03 0.  0.
          2    1    1    2  501    0 -0.48119331731E+02  0.78555231945E+01 -0.10415208491E+03  0.11499928748E+03  0.00000000000E+00 0. -1.
          1    1    1    2  502    0 -0.12223380890E+03 -0.36344737354E+02  0.11151308047E+04  0.11223986616E+04  0.00000000000E+00 0. -1.
         22    1    3    3    0    0  0.35244600718E+02 -0.40388122157E+02  0.94913072441E+02  0.10900400732E+03  0.00000000000E+00 0. -1.
         22    1    3    3    0    0  0.13510853991E+03  0.68877336317E+02  0.53048061174E+03  0.55173189544E+03  0.00000000000E+00 0. -1.
</event>
<event>
 7    1  0.5667373E-006  0.1725334E+03  0.7818608E-02  0.1204181E+00
          2   -1    0    0  502    0  0.00000000000E+00  0.00000000000E+00  0.11623981135E+03  0.11623981135E+03  0.00000000000E+00 0. -1.
          1   -1    0    0  501    0 -0.00000000000E+00 -0.00000000000E+00 -0.77257095143E+03  0.77257095143E+03  0.00000000000E+00 0. -1.
         25    2    1    2    0    0  0.66835389254E+02  0.97423138875E+02 -0.20850946890E+03  0.27029602090E+03  0.12500201218E+03 0.  0.
          2    1    1    2  501    0 -0.18918344901E+03 -0.12437790207E+03 -0.43774318570E+03  0.49282789747E+03  0.00000000000E+00 0. -1.
          1    1    1    2  502    0  0.12234805976E+03  0.26954763190E+02 -0.10078485476E+02  0.12568684440E+03  0.00000000000E+00 0. -1.
         22    1    3    3    0    0 -0.10209273141E+02  0.92318921032E+02 -0.13361660499E+03  0.16272802330E+03  0.00000000000E+00 0.  1.
         22    1    3    3    0    0  0.77044662394E+02  0.51042178430E+01 -0.74892863917E+02  0.10756799761E+03  0.00000000000E+00 0.  1.
</event>
<event>
 7    1  0.5667373E-006  0.3123666E+02  0.7818608E-02  0.1642634E+00
          2   -1    0    0  502    0  0.00000000000E+00  0.00000000000E+00  0.42455401206E+03  0.42455401206E+03  0.00000000000E+00 0. -1.
          1   -1    0    0  501    0 -0.00000000000E+00 -0.00000000000E+00 -0.12273002501E+04  0.12273002501E+04  0.00000000000E+00 0. -1.
         25    2    1    2    0    0 -0.16712283365E+02  0.17594783573E+02 -0.14940346813E+03  0.19630287777E+03  0.12499818682E+03 0.  0.
          2    1    1    2  501    0 -0.14562341488E+02 -0.16743324609E+02 -0.10537200053E+04  0.10539536281E+04  0.00000000000E+00 0. -1.
          1    1    1    2  502    0  0.31274624853E+02 -0.85145896430E+00  0.40037723543E+03  0.40159775621E+03  0.00000000000E+00 0. -1.
         22    1    3    3    0    0  0.83544047552E+01 -0.50637465849E+02 -0.84439793499E+02  0.98813095046E+02  0.00000000000E+00 0. -1.
         22    1    3    3    0    0 -0.25066688120E+02  0.68232249422E+02 -0.64963674632E+02  0.97489782727E+02  0.00000000000E+00 0. -1.
</event>
<event>
 7    1  0.5667373E-006  0.6927598E+02  0.7818608E-02  0.1418561E+00
          2   -1    0    0  502    0  0.00000000000E+00  0.00000000000E+00  0.12375717742E+04  0.12375717742E+04  0.00000000000E+00 0. -1.
          1   -1    0    0  501    0 -0.00000000000E+00 -0.00000000000E+00 -0.29574630344E+03  0.29574630344E+03  0.00000000000E+00 0. -1.
         25    2    1    2    0    0 -0.39315601986E+02  0.53648438662E+02 -0.28647774601E+02  0.14446486886E+03  0.12500212724E+03 0.  0.
          2    1    1    2  501    0 -0.27492238144E+02 -0.34591552343E+02 -0.20582032735E+03  0.21050987103E+03  0.00000000000E+00 0. -1.
          1    1    1    2  502    0  0.66807840129E+02 -0.19056886319E+02  0.11762935727E+04  0.11783433377E+04  0.00000000000E+00 0. -1.
         22    1    3    3    0    0  0.30249551367E+02  0.52448711193E+02  0.14940966245E+02  0.62362930784E+02  0.00000000000E+00 0.  1.
         22    1    3    3    0    0 -0.69565153353E+02  0.11997274691E+01 -0.43588740846E+02  0.82101938074E+02  0.00000000000E+00 0.  1.
</event>
<event>
 7    1  0.5667373E-006  0.6694079E+02  0.7818608E-02  0.1430107E+00
          2   -1    0    0  502    0  0.00000000000E+00  0.00000000000E+00  0.11927460443E+04  0.11927460443E+04  0.00000000000E+00 0. -1.
          1   -1    0    0  501    0 -0.00000000000E+00 -0.00000000000E+00 -0.14254533043E+04  0.14254533043E+04  0.00000000000E+00 0. -1.
         25    2    1    2    0    0  0.26284652947E+02  0.40787352352E+01  0.31854862897E+03  0.34322906965E+03  0.12500178469E+03 0.  0.
          2    1    1    2  501    0 -0.61455234668E+02 -0.26788002590E+02 -0.14118088118E+04  0.14133996123E+04  0.00000000000E+00 0. -1.
          1    1    1    2  502    0  0.35170581721E+02  0.22709267354E+02  0.86055292284E+03  0.86157066666E+03  0.00000000000E+00 0. -1.
         22    1    3    3    0    0 -0.27981978560E+02  0.18548136223E+02  0.19233550530E+02  0.38690489109E+02  0.00000000000E+00 0. -1.
         22    1    3    3    0    0  0.54266631507E+02 -0.14469400988E+02  0.29931507844E+03  0.30453858055E+03  0.00000000000E+00 0. -1.
</event>
<event>
 7    1  0.7448612E-006  0.7702386E+02  0.7818608E-02  0.1347301E+00
          2   -1    0    0  502    0  0.00000000000E+00  0.00000000000E+00  0.22502342420E+04  0.22502342420E+04  0.00000000000E+00 0. -1.
          1   -1    0    0  501    0 -0.00000000000E+00 -0.00000000000E+00 -0.18208194595E+04  0.18208194595E+04  0.00000000000E+00 0. -1.
         25    2    1    2    0    0  0.13826359769E+03  0.46097771734E+02 -0.12378253208E+03  0.22845268920E+03  0.12500675560E+03 0.  0.
          2    1    1    2  501    0 -0.70077901250E+02 -0.10825018676E+02 -0.16432666664E+04  0.16447958627E+04  0.00000000000E+00 0. -1.
          1    1    1    2  502    0 -0.68185696441E+02 -0.35272753058E+02  0.21964639809E+04  0.21978051496E+04  0.00000000000E+00 0. -1.
         22    1    3    3    0    0  0.18829341943E+02 -0.50260044978E+00  0.25482500941E+02  0.31688398184E+02  0.00000000000E+00 0. -1.
         22    1    3    3    0    0  0.11943425575E+03  0.46600372184E+02 -0.14926503302E+03  0.19676429101E+03  0.00000000000E+00 0. -1.
</event>
<event>
 7    1  0.5667373E-006  0.5605043E+02  0.7818608E-02  0.1527415E+00
          2   -1    0    0  502    0  0.00000000000E+00  0.00000000000E+00  0.26220484049E+04  0.26220484049E+04  0.00000000000E+00 0. -1.
          1   -1    0    0  501    0 -0.00000000000E+00 -0.00000000000E+00 -0.34239207697E+03  0.34239207697E+03  0.00000000000E+00 0. -1.
         25    2    1    2    0    0 -0.81950654387E+01 -0.34888996467E+02 -0.29887074384E+02  0.13342351759E+03  0.12499678659E+03 0.  0.
          2    1    1    2  501    0 -0.21686142061E+02 -0.12630387963E+02 -0.25982563552E+03  0.26103481823E+03  0.00000000000E+00 0. -1.
          1    1    1    2  502    0  0.29881207500E+02  0.47519384430E+02  0.25693690378E+04  0.25699821461E+04  0.00000000000E+00 0. -1.
         22    1    3    3    0    0 -0.60125410333E+02 -0.45492592627E+02 -0.70976844701E+01  0.75729902129E+02  0.00000000000E+00 0.  1.
         22    1    3    3    0    0  0.51930344894E+02  0.10603596159E+02 -0.22789389914E+02  0.57693615461E+02  0.00000000000E+00 0.  1.
</event>
<event>
 7    1  0.5667373E-006  0.1063490E+03  0.7818608E-02  0.1395609E+00
          2   -1    0    0  502    0  0.00000000000E+00  0.00000000000E+00  0.68482363785E+03  0.68482363785E+03  0.00000000000E+00 0. -1.
          1   -1    0    0  501    0 -0.00000000000E+00 -0.00000000000E+00 -0.74526917090E+03  0.74526917090E+03  0.00000000000E+00 0. -1.
         25    2    1    2    0    0  0.73957167729E+02  0.80056818301E+02 -0.93575662071E+02  0.19043711923E+03  0.12502453773E+03 0.  0.
          2    1    1    2  501    0 -0.30030566899E+02  0.16890766175E+02 -0.59831345880E+03  0.59930470373E+03  0.00000000000E+00 0. -1.
          1    1    1    2  502    0 -0.43926600830E+02 -0.96947584476E+02  0.63144358783E+03  0.64035098579E+03  0.00000000000E+00 0. -1.
         22    1    3    3    0    0  0.10031583870E+03  0.35098272541E+02 -0.34679727228E+02  0.11179373735E+03  0.00000000000E+00 0. -1.
         22    1    3    3    0    0 -0.26358670975E+02  0.44958545760E+02 -0.58895934844E+02  0.78643381880E+02  0.00000000000E+00 0. -1.
</event>
<event>
 7    1  0.5667373E-006  0.6437904E+02  0.7818608E-02  0.1474390E+00
          2   -1    0    0  502    0  0.00000000000E+00  0.00000000000E+00  0.36236824603E+03  0.36236824603E+03  0.00000000000E+00 0. -1.
          1   -1    0    0  501    0 -0.00000000000E+00 -0.00000000000E+00 -0.73301524263E+03  0.73301524263E+03  0.00000000000E+00 0. -1.
         25    2    1    2    0    0  0.50890419316E+02 -0.72395721092E+02 -0.15293661760E+03  0.21643971922E+03  0.12500227135E+03 0.  0.
          2    1    1    2  501    0 -0.17160168058E+01  0.31396588709E+02 -0.54476992715E+03  0.54567661121E+03  0.00000000000E+00 0. -1.
          1    1    1    2  502    0 -0.49174402510E+02  0.40999132383E+02  0.32705954815E+03  0.33326715823E+03  0.00000000000E+00 0. -1.
         22    1    3    3    0    0  0.20109108469E+02  0.11329702149E+02 -0.11864806522E+03  0.12087225395E+03  0.00000000000E+00 0.  1.
         22    1    3    3    0    0  0.30781310847E+02 -0.83725423241E+02 -0.34288552379E+02  0.95567465272E+02  0.00000000000E+00 0.  1.
</event>
<event>
 7    1  0.5667373E-006  0.1080489E+03  0.7818608E-02  0.1377990E+00
          2   -1    0    0  502    0  0.00000000000E+00  0.00000000000E+00  0.10610408196E+04  0.10610408196E+04  0.00000000000E+00 0. -1.
          1   -1    0    0  501    0 -0.00000000000E+00 -0.00000000000E+00 -0.23821508723E+03  0.23821508723E+03  0.00000000000E+00 0. -1.
         25    2    1    2    0    0  0.70793544163E+02  0.44375408720E+02  0.12112274505E+03  0.19307297152E+03  0.12500220065E+03 0.  0.
          2    1    1    2  501    0 -0.72832072300E+02 -0.83418985203E+02 -0.18661843740E+03  0.21700156457E+03  0.00000000000E+00 0. -1.
          1    1    1    2  502    0  0.20385281372E+01  0.39043576483E+02  0.88832142473E+03  0.88918137075E+03  0.00000000000E+00 0. -1.
         22    1    3    3    0    0  0.87116047210E+02  0.70969568663E+02  0.11591466283E+03  0.16143758675E+03  0.00000000000E+00 0. -1.
         22    1    3    3    0    0 -0.16322503047E+02 -0.26594159943E+02  0.52080822235E+01  0.31635384765E+02  0.00000000000E+00 0. -1.
</event>
<event>
 7    1  0.5667373E-006  0.4114497E+02  0.7818608E-02  0.1550466E+00
          2   -1    0    0  502    0  0.00000000000E+00  0.00000000000E+00  0.23262282957E+03  0.23262282957E+03  0.00000000000E+00 0. -1.
          1   -1    0    0  501    0 -0.00000000000E+00 -0.00000000000E+00 -0.33341986830E+03  0.33341986830E+03  0.00000000000E+00 0. -1.
         25    2    1    2    0    0  0.11202983279E+02 -0.41469996157E+02 -0.70656275200E+02  0.14987784873E+03  0.12500317156E+03 0.  0.
          2    1    1    2  501    0  0.17941826860E+02  0.37469965706E+02 -0.22007705391E+03  0.22396387463E+03  0.00000000000E+00 0. -1.
          1    1    1    2  502    0 -0.29144810139E+02  0.40000304510E+01  0.18993629038E+03  0.19220097452E+03  0.00000000000E+00 0. -1.
         22    1    3    3    0    0 -0.48944569859E+02 -0.50742522606E+02 -0.29581503654E+02  0.76455476439E+02  0.00000000000E+00 0. -1.
         22    1    3    3    0    0  0.60147553138E+02  0.92725264484E+01 -0.41074771545E+02  0.73422372290E+02  0.00000000000E+00 0. -1.
</event>
<event>
 7    1  0.5667373E-006  0.6245766E+02  0.7818608E-02  0.1532696E+00
          2   -1    0    0  502    0  0.00000000000E+00  0.00000000000E+00  0.15102121288E+04  0.15102121288E+04  0.00000000000E+00 0. -1.
          1   -1    0    0  501    0 -0.00000000000E+00 -0.00000000000E+00 -0.16107197965E+03  0.16107197965E+03  0.00000000000E+00 0. -1.
         25    2    1    2    0    0  0.38447277549E+02  0.27349565772E+02  0.69203708477E+03  0.70481677120E+03  0.12500064951E+03 0.  0.
          2    1    1    2  501    0  0.64723415153E+01  0.20765300400E+02 -0.15257524621E+03  0.15411779476E+03  0.00000000000E+00 0. -1.
          1    1    1    2  502    0 -0.44919619065E+02 -0.48114866172E+02  0.80967831063E+03  0.81234954252E+03  0.00000000000E+00 0. -1.
         22    1    3    3    0    0 -0.36877614448E+02 -0.15700097638E+01  0.40428762640E+03  0.40596909764E+03  0.00000000000E+00 0. -1.
         22    1    3    3    0    0  0.75324891997E+02  0.28919575535E+02  0.28774945836E+03  0.29884767356E+03  0.00000000000E+00 0. -1.
</event>
<event>
 7    1  0.5667373E-006  0.8674246E+02  0.7818608E-02  0.1337938E+00
          2   -1    0    0  502    0  0.00000000000E+00  0.00000000000E+00  0.79388180446E+03  0.79388180446E+03  0.00000000000E+00 0. -1.
          1   -1    0    0  501    0 -0.00000000000E+00 -0.00000000000E+00 -0.42521394611E+03  0.42521394611E+03  0.00000000000E+00 0. -1.
         25    2    1    2    0    0 -0.52655279770E+02 -0.37423565526E+02  0.10481912029E+02  0.14109503337E+03  0.12499934487E+03 0.  0.
          2    1    1    2  501    0  0.45480948094E+02 -0.50904129379E+02 -0.35389918765E+03  0.36042250492E+03  0.00000000000E+00 0. -1.
          1    1    1    2  502    0  0.71743316768E+01  0.88327694905E+02  0.71208513397E+03  0.71757821228E+03  0.00000000000E+00 0. -1.
         22    1    3    3    0    0  0.14627236443E+02 -0.49687711063E+02 -0.31714451434E+02  0.60734101676E+02  0.00000000000E+00 0.  1.
         22    1    3    3    0    0 -0.67282516214E+02  0.12264145537E+02  0.42196363463E+02  0.80360931698E+02  0.00000000000E+00 0.  1.
</event>
<event>
 7    1  0.5667373E-006  0.9452732E+02  0.7818608E-02  0.1378306E+00
          2   -1    0    0  502    0  0.00000000000E+00  0.00000000000E+00  0.77492196156E+03  0.77492196156E+03  0.00000000000E+00 0. -1.
          1   -1    0    0  501    0 -0.00000000000E+00 -0.00000000000E+00 -0.16144111974E+03  0.16144111974E+03  0.00000000000E+00 0. -1.
         25    2    1    2    0    0 -0.34736495485E+02 -0.57517030108E+02  0.85878964098E+02  0.16587644867E+03  0.12499986750E+03 0.  0.
          2    1    1    2  501    0  0.21417035687E+02 -0.39091529744E+02 -0.11353694051E+03  0.12197325106E+03  0.00000000000E+00 0. -1.
          1    1    1    2  502    0  0.13319459798E+02  0.96608559852E+02  0.64113881822E+03  0.64851338157E+03  0.00000000000E+00 0. -1.
         22    1    3    3    0    0 -0.12037836298E+02  0.39883803143E+02  0.29738404942E+02  0.51185935416E+02  0.00000000000E+00 0. -1.
         22    1    3    3    0    0 -0.22698659187E+02 -0.97400833252E+02  0.56140559157E+02  0.11469051325E+03  0.00000000000E+00 0. -1.
</event>
<event>
 7    1  0.5667373E-006  0.1295796E+03  0.7818608E-02  0.1300184E+00
          2   -1    0    0  502    0  0.00000000000E+00  0.00000000000E+00  0.83880510200E+03  0.83880510200E+03  0.00000000000E+00 0. -1.
          1   -1    0    0  501    0 -0.00000000000E+00 -0.00000000000E+00 -0.87079012190E+03  0.87079012190E+03  0.00000000000E+00 0. -1.
         25    2    1    2    0    0 -0.18733817102E+03 -0.13012202870E+02  0.10872173697E+02  0.22584989092E+03  0.12500024529E+03 0.  0.
          2    1    1    2  501    0  0.12448167217E+03  0.25383579375E+02 -0.75657039131E+03  0.76716280529E+03  0.00000000000E+00 0. -1.
          1    1    1    2  502    0  0.62856498854E+02 -0.12371376505E+02  0.71371319771E+03  0.71658252769E+03  0.00000000000E+00 0. -1.
         22    1    3    3    0    0 -0.10847945480E+03 -0.67853048694E+02  0.19417153864E+02  0.12941736435E+03  0.00000000000E+00 0. -1.
         22    1    3    3    0    0 -0.78858716219E+02  0.54840845825E+02 -0.85449801663E+01  0.96432526569E+02  0.00000000000E+00 0. -1.
</event>
<event>
 7    1  0.5667373E-006  0.1582947E+03  0.7818608E-02  0.1384064E+00
          2   -1    0    0  502    0  0.00000000000E+00  0.00000000000E+00  0.86995134387E+02  0.86995134387E+02  0.00000000000E+00 0. -1.
          1   -1    0    0  501    0 -0.00000000000E+00 -0.00000000000E+00 -0.37993432337E+04  0.37993432337E+04  0.00000000000E+00 0. -1.
         25    2    1    2    0    0 -0.16843653649E+03  0.66900995286E+02 -0.44533719569E+03  0.49678606458E+03  0.12499826438E+03 0.  0.
          2    1    1    2  501    0  0.14768628917E+03 -0.52254245203E+02 -0.33237227844E+04  0.33274126425E+04  0.00000000000E+00 0. -1.
          1    1    1    2  502    0  0.20750247322E+02 -0.14646750083E+02  0.56711880749E+02  0.62139661006E+02  0.00000000000E+00 0. -1.
         22    1    3    3    0    0 -0.51454067258E+01 -0.25863823711E+02 -0.10297161290E+03  0.10629471131E+03  0.00000000000E+00 0. -1.
         22    1    3    3    0    0 -0.16329112977E+03  0.92764818997E+02 -0.34236558279E+03  0.39049135328E+03  0.00000000000E+00 0. -1.
</event>
<event>
 7    1  0.5667373E-006  0.1267629E+03  0.7818608E-02  0.1411416E+00
          2   -1    0    0  502    0  0.00000000000E+00  0.00000000000E+00  0.15787830850E+03  0.15787830850E+03  0.00000000000E+00 0. -1.
          1   -1    0    0  501    0 -0.00000000000E+00 -0.00000000000E+00 -0.36379035916E+03  0.36379035916E+03  0.00000000000E+00 0. -1.
         25    2    1    2    0    0 -0.12713173655E+03  0.38671493634E+02 -0.11930892222E+03  0.21799103155E+03  0.12501003182E+03 0.  0.
          2    1    1    2  501    0  0.12421950800E+03 -0.13316230265E+02 -0.17311097094E+03  0.21348352727E+03  0.00000000000E+00 0. -1.
          1    1    1    2  502    0  0.29122285537E+01 -0.25355263369E+02  0.86507842498E+02  0.90194108840E+02  0.00000000000E+00 0. -1.
         22    1    3    3    0    0 -0.45795426269E+02  0.78621317006E+02 -0.70214352476E+02  0.11492862067E+03  0.00000000000E+00 0. -1.
         22    1    3    3    0    0 -0.81336310281E+02 -0.39949823372E+02 -0.49094569748E+02  0.10306241088E+03  0.00000000000E+00 0. -1.
</event>
<event>
 7    1  0.5667373E-006  0.8604854E+02  0.7818608E-02  0.1468721E+00
          2   -1    0    0  502    0  0.00000000000E+00  0.00000000000E+00  0.19379107378E+04  0.19379107378E+04  0.00000000000E+00 0. -1.
          1   -1    0    0  501    0 -0.00000000000E+00 -0.00000000000E+00 -0.17123356461E+03  0.17123356461E+03  0.00000000000E+00 0. -1.
         25    2    1    2    0    0 -0.26783050277E+02 -0.91172606440E+02  0.47074432005E+03  0.49624156841E+03  0.12500281361E+03 0.  0.
          2    1    1    2  501    0  0.44021360649E+02  0.73766058112E+02 -0.14673290657E+03  0.17002898986E+03  0.00000000000E+00 0. -1.
          1    1    1    2  502    0 -0.17238310372E+02  0.17406548328E+02  0.14426657597E+04  0.14428737441E+04  0.00000000000E+00 0. -1.
         22    1    3    3    0    0  0.27537503793E+02 -0.26882839308E+02  0.33010937103E+03  0.33234499847E+03  0.00000000000E+00 0. -1.
         22    1    3    3    0    0 -0.54320554070E+02 -0.64289767133E+02  0.14063494902E+03  0.16389656994E+03  0.00000000000E+00 0. -1.
</event>
<event>
 7    1  0.5667373E-006  0.1900417E+03  0.7818608E-02  0.1251213E+00
          2   -1    0    0  502    0  0.00000000000E+00  0.00000000000E+00  0.10638974037E+04  0.10638974037E+04  0.00000000000E+00 0. -1.
          1   -1    0    0  501    0 -0.00000000000E+00 -0.00000000000E+00 -0.35261556310E+03  0.35261556310E+03  0.00000000000E+00 0. -1.
         25    2    1    2    0    0 -0.63519070351E+02  0.11856350603E+03  0.15584634525E+02  0.18427912062E+03  0.12499574475E+03 0.  0.
          2    1    1    2  501    0  0.53880005193E+01  0.69637498850E+02 -0.25343218534E+03  0.26288074171E+03  0.00000000000E+00 0. -1.
          1    1    1    2  502    0  0.58131069832E+02 -0.18820100488E+03  0.94912939139E+03  0.96935310445E+03  0.00000000000E+00 0. -1.
         22    1    3    3    0    0 -0.54066593520E+02  0.12259285299E+03 -0.30207045326E+02  0.13734871578E+03  0.00000000000E+00 0.  1.
         22    1    3    3    0    0 -0.94524768311E+01 -0.40293469640E+01  0.45791679851E+02  0.46930404843E+02  0.00000000000E+00 0.  1.
</event>
<event>
 7    1  0.5667373E-006  0.1526653E+03  0.7818608E-02  0.1309243E+00
          2   -1    0    0  502    0  0.00000000000E+00  0.00000000000E+00  0.96700326696E+03  0.96700326696E+03  0.00000000000E+00 0. -1.
          1   -1    0    0  501    0 -0.00000000000E+00 -0.00000000000E+00 -0.96242236980E+03  0.96242236980E+03  0.00000000000E+00 0. -1.
         25    2    1    2    0    0  0.23201796242E+02  0.19495458301E+03  0.41625850177E+02  0.23643914268E+03  0.12500057601E+03 0.  0.
          2    1    1    2  501    0  0.10897399367E+00 -0.15066502095E+03 -0.85768697248E+03  0.87081967316E+03  0.00000000000E+00 0. -1.
          1    1    1    2  502    0 -0.23310770236E+02 -0.44289562065E+02  0.82064201946E+03  0.82216682092E+03  0.00000000000E+00 0. -1.
         22    1    3    3    0    0 -0.41487528864E+02  0.14185552053E+03  0.14718946010E+02  0.14852895720E+03  0.00000000000E+00 0.  1.
         22    1    3    3    0    0  0.64689325106E+02  0.53099062485E+02  0.26906904167E+02  0.87910185481E+02  0.00000000000E+00 0.  1.
</event>
<event>
 7    1  0.5667373E-006  0.2183101E+03  0.7818608E-02  0.1258999E+00
          2   -1    0    0  502    0  0.00000000000E+00  0.00000000000E+00  0.33523735229E+04  0.33523735229E+04  0.00000000000E+00 0. -1.
          1   -1    0    0  501    0 -0.00000000000E+00 -0.00000000000E+00 -0.42729594960E+02  0.42729594960E+02  0.00000000000E+00 0. -1.
         25    2    1    2    0    0  0.19952860927E+03  0.16521377632E+03  0.18895174158E+04  0.19112846675E+04  0.12500303074E+03 0.  0.
          2    1    1    2  501    0 -0.17801199811E+03 -0.11320031039E+03  0.32635964837E+03  0.38860417113E+03  0.00000000000E+00 0. -1.
          1    1    1    2  502    0 -0.21516611169E+02 -0.52013465936E+02  0.10937668637E+04  0.10952142792E+04  0.00000000000E+00 0. -1.
         22    1    3    3    0    0  0.16845947867E+03  0.17787838985E+03  0.14556599759E+04  0.14761318650E+04  0.00000000000E+00 0. -1.
         22    1    3    3    0    0  0.31069130600E+02 -0.12664613527E+02  0.43385743997E+03  0.43515280251E+03  0.00000000000E+00 0. -1.
</event>
<event>
 7    1  0.5667373E-006  0.2222626E+03  0.7818608E-02  0.1240756E+00
          2   -1    0    0  502    0  0.00000000000E+00  0.00000000000E+00  0.25473736203E+03  0.25473736203E+03  0.00000000000E+00 0. -1.
          1   -1    0    0  501    0 -0.00000000000E+00 -0.00000000000E+00 -0.55672635480E+03  0.55672635480E+03  0.00000000000E+00 0. -1.
         25    2    1    2    0    0 -0.16246325566E+03  0.33445137926E+02 -0.33106036937E+03  0.39081871280E+03  0.12500164564E+03 0.  0.
          2    1    1    2  501    0 -0.63320834252E+02  0.19792895368E+02 -0.12545316805E+03  0.14191470724E+03  0.00000000000E+00 0. -1.
          1    1    1    2  502    0  0.22578408991E+03 -0.53238033294E+02  0.15452454465E+03  0.27873029679E+03  0.00000000000E+00 0. -1.
         22    1    3    3    0    0  0.14094176717E+02  0.13448100153E+01  0.10409659274E+00  0.14158572223E+02  0.00000000000E+00 0.  1.
         22    1    3    3    0    0 -0.17655743238E+03  0.32100327911E+02 -0.33116446596E+03  0.37666014057E+03  0.00000000000E+00 0.  1.
</event>
<event>
 7    1  0.5667373E-006  0.3716779E+03  0.7818608E-02  0.1243486E+00
          2   -1    0    0  502    0  0.00000000000E+00  0.00000000000E+00  0.13928156590E+04  0.13928156590E+04  0.00000000000E+00 0. -1.
          1   -1    0    0  501    0 -0.00000000000E+00 -0.00000000000E+00 -0.21402356506E+04  0.21402356506E+04  0.00000000000E+00 0. -1.
         25    2    1    2    0    0  0.35613975057E+03  0.69756607344E+02  0.28764136640E+03  0.47964957407E+03  0.12499860815E+03 0.  0.
          2    1    1    2  501    0  0.32694823440E+01  0.38452533861E+02 -0.20091388354E+04  0.20095094293E+04  0.00000000000E+00 0. -1.
          1    1    1    2  502    0 -0.35940923291E+03 -0.10820914120E+03  0.97407747743E+03  0.10438923062E+04  0.00000000000E+00 0. -1.
         22    1    3    3    0    0  0.62262949495E+02 -0.19348492134E+02  0.10123272191E+03  0.12041222119E+03  0.00000000000E+00 0. -1.
         22    1    3    3    0    0  0.29387680107E+03  0.89105099478E+02  0.18640864449E+03  0.35923735288E+03  0.00000000000E+00 0. -1.
</event>
<event>
 7    1  0.5667373E-006  0.9244937E+02  0.7818608E-02  0.1430670E+00
          2   -1    0    0  502    0  0.00000000000E+00  0.00000000000E+00  0.16148204539E+04  0.16148204539E+04  0.00000000000E+00 0. -1.
          1   -1    0    0  501    0 -0.00000000000E+00 -0.00000000000E+00 -0.45408076616E+03  0.45408076616E+03  0.00000000000E+00 0. -1.
         25    2    1    2    0    0 -0.88016703574E+02 -0.44884091954E+02  0.12340825866E+03  0.20153193041E+03  0.12499599534E+03 0.  0.
          2    1    1    2  501    0 -0.31603142880E+01  0.30018829106E+02 -0.41299854473E+03  0.41410012755E+03  0.00000000000E+00 0. -1.
          1    1    1    2  502    0  0.91177017862E+02  0.14865262848E+02  0.14503299738E+04  0.14532691621E+04  0.00000000000E+00 0. -1.
         22    1    3    3    0    0 -0.29146683545E+02  0.29167311172E+02 -0.55392324425E+01  0.41604618719E+02  0.00000000000E+00 0. -1.
         22    1    3    3    0    0 -0.58870020029E+02 -0.74051403126E+02  0.12894749111E+03  0.15992731170E+03  0.00000000000E+00 0. -1.
</event>
<event>
 7    1  0.5667373E-006  0.3116729E+03  0.7818608E-02  0.1306799E+00
          2   -1    0    0  502    0  0.00000000000E+00  0.00000000000E+00  0.12525212533E+04  0.12525212533E+04  0.00000000000E+00 0. -1.
          1   -1    0    0  501    0 -0.00000000000E+00 -0.00000000000E+00 -0.32665651680E+03  0.32665651680E+03  0.00000000000E+00 0. -1.
         25    2    1    2    0    0 -0.27646489050E+03  0.10769021671E+03  0.39970243707E+03  0.51324248967E+03  0.12500318614E+03 0.  0.
          2    1    1    2  501    0  0.28633440940E+03 -0.13073260903E+03 -0.17780963920E+03  0.36151718751E+03  0.00000000000E+00 0. -1.
          1    1    1    2  502    0 -0.98695189000E+01  0.23042392318E+02  0.70397193866E+03  0.70441809295E+03  0.00000000000E+00 0. -1.
         22    1    3    3    0    0 -0.64761383797E+02  0.24225568391E+02  0.22500158566E+02  0.72712943351E+02  0.00000000000E+00 0.  1.
         22    1    3    3    0    0 -0.21170350671E+03  0.83464648318E+02  0.37720227850E+03  0.44052954631E+03  0.00000000000E+00 0.  1.
</event>
<event>
 7    1  0.5667373E-006  0.2244342E+03  0.7818608E-02  0.1159299E+00
          2   -1    0    0  502    0  0.00000000000E+00  0.00000000000E+00  0.12052124146E+04  0.12052124146E+04  0.00000000000E+00 0. -1.
          1   -1    0    0  501    0 -0.00000000000E+00 -0.00000000000E+00 -0.11675961911E+04  0.11675961911E+04  0.00000000000E+00 0. -1.
         25    2    1    2    0    0 -0.20870825897E+03 -0.12403022997E+03  0.25362894252E+03  0.37268737670E+03  0.12500241980E+03 0.  0.
          2    1    1    2  501    0  0.76236085923E+02  0.21247625498E+03 -0.10892907789E+04  0.11124353917E+04  0.00000000000E+00 0. -1.
          1    1    1    2  502    0  0.13247217305E+03 -0.88446025011E+02  0.87327805983E+03  0.88768583731E+03  0.00000000000E+00 0. -1.
         22    1    3    3    0    0 -0.19884259746E+03 -0.14584916737E+03  0.21460886136E+03  0.32690567686E+03  0.00000000000E+00 0. -1.
         22    1    3    3    0    0 -0.98656615084E+01  0.21818937400E+02  0.39020081164E+02  0.45781699841E+02  0.00000000000E+00 0. -1.
</event>
<event>
 7    1  0.5667373E-006  0.4617724E+02  0.7818608E-02  0.1480565E+00
          2   -1    0    0  502    0  0.00000000000E+00  0.00000000000E+00  0.25255512615E+03  0.25255512615E+03  0.00000000000E+00 0. -1.
          1   -1    0    0  501    0 -0.00000000000E+00 -0.00000000000E+00 -0.15027608240E+04  0.15027608240E+04  0.00000000000E+00 0. -1.
         25    2    1    2    0    0  0.85637603347E+00 -0.41861470134E+02 -0.11128544897E+04  0.11206350064E+04  0.12499834481E+03 0.  0.
          2    1    1    2  501    0 -0.41987342424E+02  0.33559788496E+02 -0.38235261538E+03  0.38611231374E+03  0.00000000000E+00 0. -1.
          1    1    1    2  502    0  0.41130966390E+02  0.83016816380E+01  0.24500140721E+03  0.24856863006E+03  0.00000000000E+00 0. -1.
         22    1    3    3    0    0  0.59201399345E+02 -0.29387196052E+02 -0.75014751075E+03  0.75305358433E+03  0.00000000000E+00 0.  1.
         22    1    3    3    0    0 -0.58345023312E+02 -0.12474274082E+02 -0.36270697895E+03  0.36758142205E+03  0.00000000000E+00 0.  1.
</event>
<event>
 7    1  0.5667373E-006  0.9385117E+02  0.7818608E-02  0.1335464E+00
          2   -1    0    0  502    0  0.00000000000E+00  0.00000000000E+00  0.10784006109E+04  0.10784006109E+04  0.00000000000E+00 0. -1.
          1   -1    0    0  501    0 -0.00000000000E+00 -0.00000000000E+00 -0.29460064807E+02  0.29460064807E+02  0.00000000000E+00 0. -1.
         25    2    1    2    0    0 -0.53475885143E+02 -0.27614691092E+02  0.32007176430E+03  0.34885491386E+03  0.12502629790E+03 0.  0.
          2    1    1    2  501    0  0.11125859158E+03  0.56197298259E+02  0.29322570344E+03  0.31861877486E+03  0.00000000000E+00 0. -1.
          1    1    1    2  502    0 -0.57782706432E+02 -0.28582607167E+02  0.43564307835E+03  0.44038698699E+03  0.00000000000E+00 0. -1.
         22    1    3    3    0    0 -0.29167331259E+02  0.17301704005E+00  0.30891126785E+03  0.31028524707E+03  0.00000000000E+00 0.  1.
         22    1    3    3    0    0 -0.24308553884E+02 -0.27787708133E+02  0.11160496453E+02  0.38569666790E+02  0.00000000000E+00 0.  1.
</event>
<event>
 7    1  0.5667373E-006  0.1027488E+03  0.7818608E-02  0.1353920E+00
          2   -1    0    0  502    0  0.00000000000E+00  0.00000000000E+00  0.10070798778E+03  0.10070798778E+03  0.00000000000E+00 0. -1.
          1   -1    0    0  501    0 -0.00000000000E+00 -0.00000000000E+00 -0.50592810799E+03  0.50592810799E+03  0.00000000000E+00 0. -1.
         25    2    1    2    0    0 -0.19390192121E+02 -0.60665233850E+02 -0.10891958685E+03  0.17761071804E+03  0.12500336241E+03 0.  0.
          2    1    1    2  501    0  0.23339563493E+02  0.11074964681E+03 -0.34253444826E+03  0.36074931426E+03  0.00000000000E+00 0. -1.
          1    1    1    2  502    0 -0.39493713715E+01 -0.50084412960E+02  0.46233914901E+02  0.68276063469E+02  0.00000000000E+00 0. -1.
         22    1    3    3    0    0 -0.16483766073E+02  0.33644994768E+02 -0.61491578893E+02  0.72006350357E+02  0.00000000000E+00 0.  1.
         22    1    3    3    0    0 -0.29064260479E+01 -0.94310228618E+02 -0.47428007961E+02  0.10560436768E+03  0.00000000000E+00 0.  1.
</event>
<event>
 7    1  0.5667373E-006  0.6785769E+02  0.7818608E-02  0.1411529E+00
          2   -1    0    0  502    0  0.00000000000E+00  0.00000000000E+00  0.36142755257E+03  0.36142755257E+03  0.00000000000E+00 0. -1.
          1   -1    0    0  501    0 -0.00000000000E+00 -0.00000000000E+00 -0.20673802756E+04  0.20673802756E+04  0.00000000000E+00 0. -1.
         25    2    1    2    0    0  0.47985351302E+02 -0.11817442983E+02  0.10906976417E+03  0.17309303201E+03  0.12499095318E+03 0.  0.
          2    1    1    2  501    0  0.17858525891E+02  0.44160541899E+02 -0.20289756146E+04  0.20295347066E+04  0.00000000000E+00 0. -1.
          1    1    1    2  502    0 -0.65843877193E+02 -0.32343098916E+02  0.21395312740E+03  0.22618008961E+03  0.00000000000E+00 0. -1.
         22    1    3    3    0    0  0.80579623110E+02 -0.82571149133E+01  0.11409222578E+03  0.13992244849E+03  0.00000000000E+00 0.  1.
         22    1    3    3    0    0 -0.32594271807E+02 -0.35603280700E+01 -0.50224616111E+01  0.33170583523E+02  0.00000000000E+00 0.  1.
</event>
<event>
 7    1  0.5667373E-006  0.8108903E+02  0.7818608E-02  0.1424808E+00
          2   -1    0    0  502    0  0.00000000000E+00  0.00000000000E+00  0.16511493065E+03  0.16511493065E+03  0.00000000000E+00 0. -1.
          1   -1    0    0  501    0 -0.00000000000E+00 -0.00000000000E+00 -0.84223331049E+03  0.84223331049E+03  0.00000000000E+00 0. -1.
         25    2    1    2    0    0 -0.77269651346E+02 -0.62210485489E+02 -0.47620289150E+03  0.50223018643E+03  0.12500089106E+03 0.  0.
          2    1    1    2  501    0  0.83082711270E+00  0.35972973276E+02 -0.34126862041E+03  0.34316033622E+03  0.00000000000E+00 0. -1.
          1    1    1    2  502    0  0.76438824234E+02  0.26237512213E+02  0.14035313207E+03  0.16195771849E+03  0.00000000000E+00 0. -1.
         22    1    3    3    0    0 -0.18187940478E+02 -0.89259784881E+02 -0.22455690491E+03  0.24233017542E+03  0.00000000000E+00 0.  1.
         22    1    3    3    0    0 -0.59081710868E+02  0.27049299392E+02 -0.25164598659E+03  0.25990001101E+03  0.00000000000E+00 0.  1.
</event>
<event>
 7    1  0.5667373E-006  0.9263128E+02  0.7818608E-02  0.1446017E+00
          2   -1    0    0  502    0  0.00000000000E+00  0.00000000000E+00  0.16429041665E+03  0.16429041665E+03  0.00000000000E+00 0. -1.
          1   -1    0    0  501    0 -0.00000000000E+00 -0.00000000000E+00 -0.34540318507E+03  0.34540318507E+03  0.00000000000E+00 0. -1.
         25    2    1    2    0    0 -0.63756908659E+02 -0.35232736490E+02 -0.60544628056E+02  0.15683355264E+03  0.12499928850E+03 0.  0.
          2    1    1    2  501    0  0.77240398108E+02  0.58456315925E+02 -0.22503445767E+03  0.24499740225E+03  0.00000000000E+00 0. -1.
          1    1    1    2  502    0 -0.13483489449E+02 -0.23223579435E+02  0.10446631730E+03  0.10786264683E+03  0.00000000000E+00 0. -1.
         22    1    3    3    0    0 -0.82521493389E+02 -0.33808434640E+02 -0.86855341263E+02  0.12448557117E+03  0.00000000000E+00 0.  1.
         22    1    3    3    0    0  0.18764584729E+02 -0.14243018498E+01  0.26310713207E+02  0.32347981471E+02  0.00000000000E+00 0.  1.
</event>
<event>
 7    1  0.5667373E-006  0.1034508E+03  0.7818608E-02  0.1360916E+00
          2   -1    0    0  502    0  0.00000000000E+00  0.00000000000E+00  0.49342023429E+03  0.49342023429E+03  0.00000000000E+00 0. -1.
          1   -1    0    0  501    0 -0.00000000000E+00 -0.00000000000E+00 -0.26486767968E+03  0.26486767968E+03  0.00000000000E+00 0. -1.
         25    2    1    2    0    0  0.14429024930E+03 -0.28413663606E+02  0.21707061938E+02  0.19422470362E+03  0.12500010655E+03 0.  0.
          2    1    1    2  501    0 -0.45546658586E+02  0.11756281476E+02 -0.16883508563E+03  0.17526549689E+03  0.00000000000E+00 0. -1.
          1    1    1    2  502    0 -0.98743590713E+02  0.16657382130E+02  0.37568057829E+03  0.38879771346E+03  0.00000000000E+00 0. -1.
         22    1    3    3    0    0  0.12509416537E+03  0.28841839821E+02  0.33547722693E+02  0.13268704395E+03  0.00000000000E+00 0. -1.
         22    1    3    3    0    0  0.19196083929E+02 -0.57255503426E+02 -0.11840660754E+02  0.61537659672E+02  0.00000000000E+00 0. -1.
</event>
<event>
 7    1  0.5667373E-006  0.3274094E+02  0.7818608E-02  0.1588387E+00
          2   -1    0    0  502    0  0.00000000000E+00  0.00000000000E+00  0.12084250648E+04  0.12084250648E+04  0.00000000000E+00 0. -1.
          1   -1    0    0  501    0 -0.00000000000E+00 -0.00000000000E+00 -0.81392071205E+01  0.81392071205E+01  0.00000000000E+00 0. -1.
         25    2    1    2    0    0  0.51302390741E+00  0.32221999971E+01  0.73857223986E+03  0.74908299471E+03  0.12500293477E+03 0.  0.
          2    1    1    2  501    0 -0.29996456820E+02  0.13121809212E+02  0.13001736800E+03  0.13407641583E+03  0.00000000000E+00 0. -1.
          1    1    1    2  502    0  0.29483432913E+02 -0.16344009209E+02  0.33169624985E+03  0.33340486142E+03  0.00000000000E+00 0. -1.
         22    1    3    3    0    0  0.56217079753E+02  0.18313298558E+02  0.23972674057E+03  0.24691020049E+03  0.00000000000E+00 0.  1.
         22    1    3    3    0    0 -0.55704055846E+02 -0.15091098561E+02  0.49884549929E+03  0.50217279422E+03  0.00000000000E+00 0.  1.
</event>
<event>
 7    1  0.5667373E-006  0.1407365E+03  0.7818608E-02  0.1361641E+00
          2   -1    0    0  502    0  0.00000000000E+00  0.00000000000E+00  0.56962162516E+03  0.56962162516E+03  0.00000000000E+00 0. -1.
          1   -1    0    0  501    0 -0.00000000000E+00 -0.00000000000E+00 -0.10348058824E+04  0.10348058824E+04  0.00000000000E+00 0. -1.
         25    2    1    2    0    0  0.29230322136E+02  0.16044358594E+03  0.94260485773E+02  0.22606419243E+03  0.12499369551E+03 0.  0.
          2    1    1    2  501    0 -0.25174885473E+02 -0.23395474421E+02 -0.95710924641E+03  0.95772607391E+03  0.00000000000E+00 0. -1.
          1    1    1    2  502    0 -0.40554366628E+01 -0.13704811152E+03  0.39766450340E+03  0.42063724122E+03  0.00000000000E+00 0. -1.
         22    1    3    3    0    0 -0.24946950373E+02  0.13919784275E+03  0.90190065070E+02  0.16772786768E+03  0.00000000000E+00 0.  1.
         22    1    3    3    0    0  0.54177272509E+02  0.21245743187E+02  0.40704207024E+01  0.58336324745E+02  0.00000000000E+00 0.  1.
</event>
<event>
 7    1  0.5667373E-006  0.4546632E+02  0.7818608E-02  0.1528879E+00
          2   -1    0    0  502    0  0.00000000000E+00  0.00000000000E+00  0.13598409074E+04  0.13598409074E+04  0.00000000000E+00 0. -1.
          1   -1    0    0  501    0 -0.00000000000E+00 -0.00000000000E+00 -0.46584238797E+03  0.46584238797E+03  0.00000000000E+00 0. -1.
         25    2    1    2    0    0  0.22607793848E+02  0.72478926731E+02  0.19001185370E+03  0.23977844901E+03  0.12499957160E+03 0.  0.
          2    1    1    2  501    0 -0.12701535940E+02 -0.43484349068E+02 -0.43958985127E+03  0.44191792786E+03  0.00000000000E+00 0. -1.
          1    1    1    2  502    0 -0.99062579081E+01 -0.28994577663E+02  0.11435765170E+04  0.11439869185E+04  0.00000000000E+00 0. -1.
         22    1    3    3    0    0  0.36696209071E+02  0.35804332284E+02  0.60001299120E+01  0.51619410394E+02  0.00000000000E+00 0. -1.
         22    1    3    3    0    0 -0.14088415223E+02  0.36674594447E+02  0.18401172379E+03  0.18815903862E+03  0.00000000000E+00 0. -1.
</event>
<event>
 7    1  0.5667373E-006  0.8006119E+02  0.7818608E-02  0.1333856E+00
          2   -1    0    0  502    0  0.00000000000E+00  0.00000000000E+00  0.12991467631E+03  0.12991467631E+03  0.00000000000E+00 0. -1.
          1   -1    0    0  501    0 -0.00000000000E+00 -0.00000000000E+00 -0.40605486815E+03  0.40605486815E+03  0.00000000000E+00 0. -1.
         25    2    1    2    0    0  0.65713931422E+00  0.36175197242E+01 -0.22683550359E+03  0.25902316576E+03  0.12500054571E+03 0.  0.
          2    1    1    2  501    0  0.77724478844E+02  0.19201549660E+02 -0.13603077214E+03  0.15784221581E+03  0.00000000000E+00 0. -1.
          1    1    1    2  502    0 -0.78381618158E+02 -0.22819069385E+02  0.86726083888E+02  0.11910416290E+03  0.00000000000E+00 0. -1.
         22    1    3    3    0    0  0.87346153425E+01  0.60505651227E+02 -0.75498882978E+02  0.97145811369E+02  0.00000000000E+00 0.  1.
         22    1    3    3    0    0 -0.80774760282E+01 -0.56888131502E+02 -0.15133662062E+03  0.16187735439E+03  0.00000000000E+00 0.  1.
</event>
<event>
 7    1  0.5667373E-006  0.6639933E+02  0.7818608E-02  0.1446851E+00
          2   -1    0    0  502    0  0.00000000000E+00  0.00000000000E+00  0.18028183700E+04  0.18028183700E+04  0.00000000000E+00 0. -1.
          1   -1    0    0  501    0 -0.00000000000E+00 -0.00000000000E+00 -0.50613287617E+03  0.50613287617E+03  0.00000000000E+00 0. -1.
         25    2    1    2    0    0  0.44363515760E+02  0.30607702555E+02  0.27691129814E+03  0.30856101142E+03  0.12500031097E+03 0.  0.
          2    1    1    2  501    0 -0.19176976111E+02  0.31913911500E+02 -0.48884758870E+03  0.49026341812E+03  0.00000000000E+00 0. -1.
          1    1    1    2  502    0 -0.25186539649E+02 -0.62521614055E+02  0.15086217844E+04  0.15101268166E+04  0.00000000000E+00 0. -1.
         22    1    3    3    0    0  0.60088934251E+02 -0.34304806534E+02  0.13382320720E+03  0.15065241636E+03  0.00000000000E+00 0.  1.
         22    1    3    3    0    0 -0.15725418491E+02  0.64912509089E+02  0.14308809094E+03  0.15790859505E+03  0.00000000000E+00 0.  1.
</event>
<event>
 7    1  0.5667373E-006  0.6275157E+02  0.7818608E-02  0.1427893E+00
          2   -1    0    0  502    0  0.00000000000E+00  0.00000000000E+00  0.10925570868E+04  0.10925570868E+04  0.00000000000E+00 0. -1.
          1   -1    0    0  501    0 -0.00000000000E+00 -0.00000000000E+00 -0.15486773052E+03  0.15486773052E+03  0.00000000000E+00 0. -1.
         25    2    1    2    0    0 -0.19588805677E+02 -0.50749007490E+01  0.55290551303E+02  0.13817060453E+03  0.12499837986E+03 0.  0.
          2    1    1    2  501    0 -0.43916278989E+02  0.11578318016E+02 -0.10781204818E+03  0.11698775466E+03  0.00000000000E+00 0. -1.
          1    1    1    2  502    0  0.63505084666E+02 -0.65034172672E+01  0.99021085313E+03  0.99226645810E+03  0.00000000000E+00 0. -1.
         22    1    3    3    0    0 -0.33212931538E+02 -0.49034394560E+02 -0.81635446181E+01  0.59783895256E+02  0.00000000000E+00 0.  1.
         22    1    3    3    0    0  0.13624125861E+02  0.43959493811E+02  0.63454095921E+02  0.78386709274E+02  0.00000000000E+00 0.  1.
</event>
<event>
 7    1  0.5667373E-006  0.5275291E+02  0.7818608E-02  0.1499482E+00
          2   -1    0    0  502    0  0.00000000000E+00  0.00000000000E+00  0.29214383822E+03  0.29214383822E+03  0.00000000000E+00 0. -1.
          1   -1    0    0  501    0 -0.00000000000E+00 -0.00000000000E+00 -0.14029532265E+04  0.14029532265E+04  0.00000000000E+00 0. -1.
         25    2    1    2    0    0 -0.76134048459E+01  0.19270576030E+02 -0.68120075456E+03  0.69288439010E+03  0.12499996398E+03 0.  0.
          2    1    1    2  501    0 -0.14392248645E+02  0.28798803249E+02 -0.71310383083E+03  0.71383021891E+03  0.00000000000E+00 0. -1.
          1    1    1    2  502    0  0.22005653491E+02 -0.48069379279E+02  0.28349519708E+03  0.28838245573E+03  0.00000000000E+00 0. -1.
         22    1    3    3    0    0 -0.61848253333E+02  0.30801113878E+02 -0.44005656706E+03  0.44544774920E+03  0.00000000000E+00 0. -1.
         22    1    3    3    0    0  0.54234848487E+02 -0.11530537848E+02 -0.24114418750E+03  0.24743664090E+03  0.00000000000E+00 0. -1.
</event>
<event>
 7    1  0.5667373E-006  0.7686151E+02  0.7818608E-02  0.1338364E+00
          2   -1    0    0  502    0  0.00000000000E+00  0.00000000000E+00  0.82266863634E+02  0.82266863634E+02  0.00000000000E+00 0. -1.
          1   -1    0    0  501    0 -0.00000000000E+00 -0.00000000000E+00 -0.11419802681E+04  0.11419802681E+04  0.00000000000E+00 0. -1.
         25    2    1    2    0    0 -0.11166796855E+02 -0.84106414423E+01 -0.21165836137E+03  0.24621081715E+03  0.12500027320E+03 0.  0.
          2    1    1    2  501    0 -0.72047326826E+02  0.26774499980E+02 -0.88270481751E+03  0.88604485553E+03  0.00000000000E+00 0. -1.
          1    1    1    2  502    0  0.83214123680E+02 -0.18363858538E+02  0.34649774386E+02  0.91991459089E+02  0.00000000000E+00 0. -1.
         22    1    3    3    0    0  0.16776717037E+02  0.40185878112E+02 -0.22691997936E+02  0.49104885750E+02  0.00000000000E+00 0. -1.
         22    1    3    3    0    0 -0.27943513891E+02 -0.48596519555E+02 -0.18896636343E+03  0.19710593139E+03  0.00000000000E+00 0. -1.
</event>
<event>
 7    1  0.5667373E-006  0.1204921E+03  0.7818608E-02  0.1352827E+00
          2   -1    0    0  502    0  0.00000000000E+00  0.00000000000E+00  0.87100450019E+03  0.87100450019E+03  0.00000000000E+00 0. -1.
          1   -1    0    0  501    0 -0.00000000000E+00 -0.00000000000E+00 -0.22014684702E+03  0.22014684702E+03  0.00000000000E+00 0. -1.
         25    2    1    2    0    0 -0.12962182609E+03 -0.69381000468E+02  0.24065886798E+03  0.30847569036E+03  0.12500007912E+03 0.  0.
          2    1    1    2  501    0  0.16851973408E+02  0.39822070967E+02 -0.17792745949E+03  0.18310643676E+03  0.00000000000E+00 0. -1.
          1    1    1    2  502    0  0.11276985268E+03  0.29558929501E+02  0.58812624468E+03  0.59956922009E+03  0.00000000000E+00 0. -1.
         22    1    3    3    0    0 -0.13388504486E+02  0.34246804192E+02  0.54966831816E+02  0.66132051606E+02  0.00000000000E+00 0. -1.
         22    1    3    3    0    0 -0.11623332160E+03 -0.10362780466E+03  0.18569203616E+03  0.24234363875E+03  0.00000000000E+00 0. -1.
</event>
<event>
 7    1  0.5667373E-006  0.7906163E+02  0.7818608E-02  0.1358531E+00
          2   -1    0    0  502    0  0.00000000000E+00  0.00000000000E+00  0.26105592013E+04  0.26105592013E+04  0.00000000000E+00 0. -1.
          1   -1    0    0  501    0 -0.00000000000E+00 -0.00000000000E+00 -0.97165656241E+02  0.97165656241E+02  0.00000000000E+00 0. -1.
         25    2    1    2    0    0  0.72722066352E+02 -0.35243698897E+02  0.13092631171E+04  0.13176970450E+04  0.12499990116E+03 0.  0.
          2    1    1    2  501    0 -0.24508254654E+02  0.75478933994E+02 -0.75098243917E+02  0.10925873083E+03  0.00000000000E+00 0. -1.
          1    1    1    2  502    0 -0.48213811697E+02 -0.40235235098E+02  0.12792286719E+04  0.12807690818E+04  0.00000000000E+00 0. -1.
         22    1    3    3    0    0 -0.17040235037E+02 -0.47336986430E+02  0.28233967796E+03  0.28678712252E+03  0.00000000000E+00 0. -1.
         22    1    3    3    0    0  0.89762301388E+02  0.12093287533E+02  0.10269234391E+04  0.10309099225E+04  0.00000000000E+00 0. -1.
</event>
<event>
 7    1  0.5667373E-006  0.1412726E+03  0.7818608E-02  0.1359023E+00
          2   -1    0    0  502    0  0.00000000000E+00  0.00000000000E+00  0.58342688706E+03  0.58342688706E+03  0.00000000000E+00 0. -1.
          1   -1    0    0  501    0 -0.00000000000E+00 -0.00000000000E+00 -0.20992514293E+04  0.20992514293E+04  0.00000000000E+00 0. -1.
         25    2    1    2    0    0  0.11404424525E+03 -0.73836873623E+02 -0.29228059576E+03  0.34570483492E+03  0.12500364976E+03 0.  0.
          2    1    1    2  501    0 -0.13473972564E+03  0.45613368064E+02 -0.17768633312E+04  0.17825483642E+04  0.00000000000E+00 0. -1.
          1    1    1    2  502    0  0.20695480390E+02  0.28223505559E+02  0.55331938468E+03  0.55442511725E+03  0.00000000000E+00 0. -1.
         22    1    3    3    0    0  0.73639438905E+02 -0.80601457305E+02 -0.96584559561E+02  0.14576672812E+03  0.00000000000E+00 0.  1.
         22    1    3    3    0    0  0.40404806343E+02  0.67645836818E+01 -0.19569603620E+03  0.19993810680E+03  0.00000000000E+00 0.  1.
</event>
<event>
 7    1  0.5667373E-006  0.8999501E+02  0.7818608E-02  0.1354987E+00
          2   -1    0    0  502    0  0.00000000000E+00  0.00000000000E+00  0.12565868106E+04  0.12565868106E+04  0.00000000000E+00 0. -1.
          1   -1    0    0  501    0 -0.00000000000E+00 -0.00000000000E+00 -0.11502470507E+04  0.11502470507E+04  0.00000000000E+00 0. -1.
         25    2    1    2    0    0  0.11490955165E+03 -0.28090587233E+01  0.30347998858E+02  0.17250576919E+03  0.12500057400E+03 0.  0.
          2    1    1    2  501    0 -0.77402250379E+02  0.45521828360E+02 -0.10765985728E+04  0.10803369068E+04  0.00000000000E+00 0. -1.
          1    1    1    2  502    0 -0.37507301270E+02 -0.42712769637E+02  0.11525903338E+04  0.11539911854E+04  0.00000000000E+00 0. -1.
         22    1    3    3    0    0  0.36257198677E+02 -0.60621818118E+02  0.12539079274E+01  0.70648153358E+02  0.00000000000E+00 0. -1.
         22    1    3    3    0    0  0.78652352972E+02  0.57812759394E+02  0.29094090930E+02  0.10185761584E+03  0.00000000000E+00 0. -1.
</event>
<event>
 7    1  0.5667373E-006  0.6055994E+02  0.7818608E-02  0.1430715E+00
          2   -1    0    0  502    0  0.00000000000E+00  0.00000000000E+00  0.43124395830E+03  0.43124395830E+03  0.00000000000E+00 0. -1.
          1   -1    0    0  501    0 -0.00000000000E+00 -0.00000000000E+00 -0.23734332125E+03  0.23734332125E+03  0.00000000000E+00 0. -1.
         25    2    1    2    0    0  0.10052533546E+01  0.99889352874E+02  0.23230467639E+03  0.28208092489E+03  0.12500116864E+03 0.  0.
          2    1    1    2  501    0 -0.19887663434E+01 -0.46020720557E+02 -0.20567622947E+03  0.21077137681E+03  0.00000000000E+00 0. -1.
          1    1    1    2  502    0  0.98351298883E+00 -0.53868632318E+02  0.16727219014E+03  0.17573497785E+03  0.00000000000E+00 0. -1.
         22    1    3    3    0    0 -0.13153267123E+02 -0.24752473907E+02  0.79991771067E+02  0.84760703389E+02  0.00000000000E+00 0.  1.
         22    1    3    3    0    0  0.14158520478E+02  0.12464182678E+03  0.15231290533E+03  0.19732022150E+03  0.00000000000E+00 0.  1.
</event>
<event>
 7    1  0.5667373E-006  0.1098325E+03  0.7818608E-02  0.1355609E+00
          2   -1    0    0  502    0  0.00000000000E+00  0.00000000000E+00  0.14978428930E+03  0.14978428930E+03  0.00000000000E+00 0. -1.
          1   -1    0    0  501    0 -0.00000000000E+00 -0.00000000000E+00 -0.23123054017E+04  0.23123054017E+04  0.00000000000E+00 0. -1.
         25    2    1    2    0    0 -0.97103070164E+02 -0.78559715014E+02 -0.67914498635E+03  0.70175802185E+03  0.12500309472E+03 0.  0.
          2    1    1    2  501    0  0.43152344544E+02 -0.16868982867E+02 -0.15997704351E+04  0.16004412306E+04  0.00000000000E+00 0. -1.
          1    1    1    2  502    0  0.53950725620E+02  0.95428697881E+02  0.11639430906E+03  0.15989043860E+03  0.00000000000E+00 0. -1.
         22    1    3    3    0    0 -0.73363501441E+01  0.31275504115E+01  0.32805025172E+01  0.86235318622E+01  0.00000000000E+00 0. -1.
         22    1    3    3    0    0 -0.89766720020E+02 -0.81687265426E+02 -0.68242548887E+03  0.69313448999E+03  0.00000000000E+00 0. -1.
</event>
<event>
 7    1  0.5667373E-006  0.6030225E+02  0.7818608E-02  0.1398614E+00
          2   -1    0    0  502    0  0.00000000000E+00  0.00000000000E+00  0.43829216827E+03  0.43829216827E+03  0.00000000000E+00 0. -1.
          1   -1    0    0  501    0 -0.00000000000E+00 -0.00000000000E+00 -0.11547759603E+04  0.11547759603E+04  0.00000000000E+00 0. -1.
         25    2    1    2    0    0 -0.98330110176E+02  0.28484972021E+01 -0.12870024634E+03  0.20461260178E+03  0.12500255555E+03 0.  0.
          2    1    1    2  501    0  0.50412960203E+02  0.32136402779E+02 -0.98501007923E+03  0.98682271514E+03  0.00000000000E+00 0. -1.
          1    1    1    2  502    0  0.47917149973E+02 -0.34984899981E+02  0.39722653351E+03  0.40163281168E+03  0.00000000000E+00 0. -1.
         22    1    3    3    0    0 -0.74352150159E+02  0.35442072412E+02 -0.14014866025E+03  0.16256084922E+03  0.00000000000E+00 0.  1.
         22    1    3    3    0    0 -0.23977960017E+02 -0.32593575210E+02  0.11448413915E+02  0.42051752552E+02  0.00000000000E+00 0.  1.
</event>
<event>
 7    1  0.5667373E-006  0.1785664E+03  0.7818608E-02  0.1266222E+00
          2   -1    0    0  502    0  0.00000000000E+00  0.00000000000E+00  0.40713721935E+03  0.40713721935E+03  0.00000000000E+00 0. -1.
          1   -1    0    0  501    0 -0.00000000000E+00 -0.00000000000E+00 -0.10761081904E+04  0.10761081904E+04  0.00000000000E+00 0. -1.
         25    2    1    2    0    0  0.11949175784E+03 -0.25982262349E+02 -0.31196720411E+02  0.17762934960E+03  0.12500236927E+03 0.  0.
          2    1    1    2  501    0 -0.18361210375E+03  0.25876039237E+02 -0.95965794950E+03  0.97740797730E+03  0.00000000000E+00 0. -1.
          1    1    1    2  502    0  0.64120345905E+02  0.10622311294E+00  0.32188369888E+03  0.32820808285E+03  0.00000000000E+00 0. -1.
         22    1    3    3    0    0  0.10761686144E+03 -0.39188068349E+02  0.26250385082E+02  0.11749968631E+03  0.00000000000E+00 0.  1.
         22    1    3    3    0    0  0.11874896406E+02  0.13205806000E+02 -0.57447105494E+02  0.60129663282E+02  0.00000000000E+00 0.  1.
</event>
<event>
 7    1  0.5667373E-006  0.1282370E+03  0.7818608E-02  0.1345277E+00
          2   -1    0    0  502    0  0.00000000000E+00  0.00000000000E+00  0.44758687444E+04  0.44758687444E+04  0.00000000000E+00 0. -1.
          1   -1    0    0  501    0 -0.00000000000E+00 -0.00000000000E+00 -0.92759865600E+01  0.92759865600E+01  0.00000000000E+00 0. -1.
         25    2    1    2    0    0 -0.55125804345E+02  0.77271166075E+02  0.11662440579E+04  0.11767580454E+04  0.12499842932E+03 0.  0.
          2    1    1    2  501    0 -0.19739552080E+02  0.38580027723E+02  0.18588035563E+03  0.19086533227E+03  0.00000000000E+00 0. -1.
          1    1    1    2  502    0  0.74865356425E+02 -0.11585119380E+03  0.31144683444E+04  0.31175213534E+04  0.00000000000E+00 0. -1.
         22    1    3    3    0    0 -0.57975704737E+02  0.80298571960E+02  0.11680382460E+04  0.11722296649E+04  0.00000000000E+00 0.  1.
         22    1    3    3    0    0  0.28499003926E+01 -0.30274058848E+01 -0.17941881517E+01  0.45283804790E+01  0.00000000000E+00 0.  1.
</event>
<event>
 7    1  0.5667373E-006  0.5046082E+02  0.7818608E-02  0.1452515E+00
          2   -1    0    0  502    0  0.00000000000E+00  0.00000000000E+00  0.32978522798E+04  0.32978522798E+04  0.00000000000E+00 0. -1.
          1   -1    0    0  501    0 -0.00000000000E+00 -0.00000000000E+00 -0.19437025585E+02  0.19437025585E+02  0.00000000000E+00 0. -1.
         25    2    1    2    0    0  0.77829321938E+02 -0.89207996354E+01  0.68517197823E+03  0.70087300301E+03  0.12500137034E+03 0.  0.
          2    1    1    2  501    0 -0.40310331751E+02 -0.24146658503E+02  0.37326865888E+02  0.60010656385E+02  0.00000000000E+00 0. -1.
          1    1    1    2  502    0 -0.37518990187E+02  0.33067458138E+02  0.25559164101E+04  0.25564056460E+04  0.00000000000E+00 0. -1.
         22    1    3    3    0    0  0.94620726080E+01  0.38687514624E+02  0.44269995458E+03  0.44448791254E+03  0.00000000000E+00 0. -1.
         22    1    3    3    0    0  0.68367249330E+02 -0.47608314259E+02  0.24247202365E+03  0.25638509048E+03  0.00000000000E+00 0. -1.
</event>
<event>
 7    1  0.5667373E-006  0.1074642E+03  0.7818608E-02  0.1291592E+00
          2   -1    0    0  502    0  0.00000000000E+00  0.00000000000E+00  0.13220791509E+04  0.13220791509E+04  0.00000000000E+00 0. -1.
          1   -1    0    0  501    0 -0.00000000000E+00 -0.00000000000E+00 -0.43829354206E+03  0.43829354206E+03  0.00000000000E+00 0. -1.
         25    2    1    2    0    0  0.57739603839E+02  0.13446754257E+03 -0.92698217156E+02  0.21361895281E+03  0.12499886270E+03 0.  0.
          2    1    1    2  501    0  0.32796812916E+02 -0.76958721550E+02 -0.27665846280E+03  0.28902972304E+03  0.00000000000E+00 0. -1.
          1    1    1    2  502    0 -0.90536416755E+02 -0.57508821023E+02  0.12531422888E+04  0.12577240171E+04  0.00000000000E+00 0. -1.
         22    1    3    3    0    0  0.78714371263E+02  0.47146885286E+02 -0.11359351763E+02  0.92454399074E+02  0.00000000000E+00 0. -1.
         22    1    3    3    0    0 -0.20974767424E+02  0.87320657286E+02 -0.81338865393E+02  0.12116455373E+03  0.00000000000E+00 0. -1.
</event>
<event>
 7    1  0.5667373E-006  0.2540793E+03  0.7818608E-02  0.1161217E+00
          2   -1    0    0  502    0  0.00000000000E+00  0.00000000000E+00  0.53876246782E+03  0.53876246782E+03  0.00000000000E+00 0. -1.
          1   -1    0    0  501    0 -0.00000000000E+00 -0.00000000000E+00 -0.98857169942E+03  0.98857169942E+03  0.00000000000E+00 0. -1.
         25    2    1    2    0    0  0.19701391608E+03  0.50985017606E+02  0.15224253372E+03  0.28322490149E+03  0.12499840238E+03 0.  0.
          2    1    1    2  501    0  0.12599135604E+03 -0.55307492196E+02 -0.83473400723E+03  0.84599858352E+03  0.00000000000E+00 0. -1.
          1    1    1    2  502    0 -0.32300527212E+03  0.43224745900E+01  0.23268224191E+03  0.39811068223E+03  0.00000000000E+00 0. -1.
         22    1    3    3    0    0  0.46460302579E+02 -0.41303855456E+02  0.36590433583E+02  0.72134790643E+02  0.00000000000E+00 0. -1.
         22    1    3    3    0    0  0.15055361351E+03  0.92288873062E+02  0.11565210013E+03  0.21109011084E+03  0.00000000000E+00 0. -1.
</event>
<event>
 7    1  0.5667373E-006  0.1654480E+03  0.7818608E-02  0.1379133E+00
          2   -1    0    0  502    0  0.00000000000E+00  0.00000000000E+00  0.21009651292E+04  0.21009651292E+04  0.00000000000E+00 0. -1.
          1   -1    0    0  501    0 -0.00000000000E+00 -0.00000000000E+00 -0.32024735555E+03  0.32024735555E+03  0.00000000000E+00 0. -1.
         25    2    1    2    0    0 -0.10688752450E+03  0.95049739212E+02  0.26396145286E+03  0.32520816882E+03  0.12500123459E+03 0.  0.
          2    1    1    2  501    0 -0.18300259643E+02  0.17463283013E+02 -0.28514188970E+03  0.28626170373E+03  0.00000000000E+00 0. -1.
          1    1    1    2  502    0  0.12518778414E+03 -0.11251302223E+03  0.18018982104E+04  0.18097426122E+04  0.00000000000E+00 0. -1.
         22    1    3    3    0    0 -0.64705220853E+02 -0.17640747170E+02  0.12104598099E+03  0.13838385412E+03  0.00000000000E+00 0. -1.
         22    1    3    3    0    0 -0.42182303646E+02  0.11269048638E+03  0.14291547187E+03  0.18682431470E+03  0.00000000000E+00 0. -1.
</event>
<event>
 7    1  0.5667373E-006  0.1176362E+03  0.7818608E-02  0.1425483E+00
          2   -1    0    0  502    0  0.00000000000E+00  0.00000000000E+00  0.15425381236E+04  0.15425381236E+04  0.00000000000E+00 0. -1.
          1   -1    0    0  501    0 -0.00000000000E+00 -0.00000000000E+00 -0.23418115996E+04  0.23418115996E+04  0.00000000000E+00 0. -1.
         25    2    1    2    0    0  0.47497141690E+02 -0.11723955960E+03  0.46232640936E+03  0.49534778178E+03  0.12499049291E+03 0.  0.
          2    1    1    2  501    0 -0.63859977796E+02  0.98769105354E+02 -0.23236702390E+04  0.23266449692E+04  0.00000000000E+00 0. -1.
          1    1    1    2  502    0  0.16362836106E+02  0.18470454241E+02  0.10620703537E+04  0.10623569722E+04  0.00000000000E+00 0. -1.
         22    1    3    3    0    0  0.36544356101E+02  0.13257114372E+02  0.17969049662E+03  0.18384753362E+03  0.00000000000E+00 0. -1.
         22    1    3    3    0    0  0.10952785588E+02 -0.13049667397E+03  0.28263591274E+03  0.31150024816E+03  0.00000000000E+00 0. -1.
</event>
<event>
 7    1  0.5667373E-006  0.7349353E+02  0.7818608E-02  0.1395311E+00
          2   -1    0    0  502    0  0.00000000000E+00  0.00000000000E+00  0.56800572791E+03  0.56800572791E+03  0.00000000000E+00 0. -1.
          1   -1    0    0  501    0 -0.00000000000E+00 -0.00000000000E+00 -0.24518201653E+03  0.24518201653E+03  0.00000000000E+00 0. -1.
         25    2    1    2    0    0 -0.26079506208E+02  0.89517521312E+02  0.20736069147E+03  0.25945439188E+03  0.12499839132E+03 0.  0.
          2    1    1    2  501    0 -0.27948176531E+02 -0.41430954459E+02 -0.21229070548E+03  0.21809394350E+03  0.00000000000E+00 0. -1.
          1    1    1    2  502    0  0.54027682739E+02 -0.48086566852E+02  0.32775372538E+03  0.33563940906E+03  0.00000000000E+00 0. -1.
         22    1    3    3    0    0 -0.68910330800E+02  0.71590493202E+02  0.93293747827E+02  0.13629950767E+03  0.00000000000E+00 0. -1.
         22    1    3    3    0    0  0.42830824592E+02  0.17927028110E+02  0.11406694364E+03  0.12315488421E+03  0.00000000000E+00 0. -1.
</event>
<event>
 7    1  0.5667373E-006  0.1309189E+03  0.7818608E-02  0.1276901E+00
          2   -1    0    0  502    0  0.00000000000E+00  0.00000000000E+00  0.97854814894E+03  0.97854814894E+03  0.00000000000E+00 0. -1.
          1   -1    0    0  501    0 -0.00000000000E+00 -0.00000000000E+00 -0.49247552134E+03  0.49247552134E+03  0.00000000000E+00 0. -1.
         25    2    1    2    0    0  0.16458723164E+02  0.52092851256E+02 -0.17117200626E+03  0.21888259248E+03  0.12500071536E+03 0.  0.
          2    1    1    2  501    0  0.67505377016E+01  0.78607293754E+02 -0.28749338817E+03  0.29812266709E+03  0.00000000000E+00 0. -1.
          1    1    1    2  502    0 -0.23209260866E+02 -0.13070014501E+03  0.94473802204E+03  0.95401841071E+03  0.00000000000E+00 0. -1.
         22    1    3    3    0    0  0.65599288352E+02  0.54515591122E+02 -0.90256398552E+02  0.12418306562E+03  0.00000000000E+00 0. -1.
         22    1    3    3    0    0 -0.49140565188E+02 -0.24227398656E+01 -0.80915607711E+02  0.94699526856E+02  0.00000000000E+00 0. -1.
</event>
<event>
 7    1  0.5667373E-006  0.2795685E+02  0.7818608E-02  0.1672836E+00
          2   -1    0    0  502    0  0.00000000000E+00  0.00000000000E+00  0.46388328800E+03  0.46388328800E+03  0.00000000000E+00 0. -1.
          1   -1    0    0  501    0 -0.00000000000E+00 -0.00000000000E+00 -0.50558055235E+03  0.50558055235E+03  0.00000000000E+00 0. -1.
         25    2    1    2    0    0  0.77537908657E+01 -0.27259529702E+02 -0.76797656296E+02  0.14941693262E+03  0.12499734601E+03 0.  0.
          2    1    1    2  501    0 -0.20790790614E+02  0.24945513892E+01 -0.39173535389E+03  0.39229461792E+03  0.00000000000E+00 0. -1.
          1    1    1    2  502    0  0.13036999748E+02  0.24764978312E+02  0.42683574584E+03  0.42775228981E+03  0.00000000000E+00 0. -1.
         22    1    3    3    0    0  0.13038435836E+02 -0.75926241417E+02 -0.33284225945E+02  0.83920406586E+02  0.00000000000E+00 0. -1.
         22    1    3    3    0    0 -0.52846449704E+01  0.48666711715E+02 -0.43513430351E+02  0.65496526034E+02  0.00000000000E+00 0. -1.
</event>
<event>
 7    1  0.5667373E-006  0.7752707E+02  0.7818608E-02  0.1381159E+00
          2   -1    0    0  502    0  0.00000000000E+00  0.00000000000E+00  0.85209558036E+03  0.85209558036E+03  0.00000000000E+00 0. -1.
          1   -1    0    0  501    0 -0.00000000000E+00 -0.00000000000E+00 -0.56283846381E+03  0.56283846381E+03  0.00000000000E+00 0. -1.
         25    2    1    2    0    0 -0.63448509590E+02 -0.70708745773E+02  0.19701883560E+03  0.25192627759E+03  0.12499995065E+03 0.  0.
          2    1    1    2  501    0  0.75163952696E+02  0.18919334452E+02 -0.53144546783E+03  0.53706782279E+03  0.00000000000E+00 0. -1.
          1    1    1    2  502    0 -0.11715443106E+02  0.51789411321E+02  0.62368374878E+03  0.62593994378E+03  0.00000000000E+00 0. -1.
         22    1    3    3    0    0  0.38197756706E+01 -0.87328064025E+02  0.11761537855E+03  0.14654063847E+03  0.00000000000E+00 0. -1.
         22    1    3    3    0    0 -0.67268285260E+02  0.16619318252E+02  0.79403457046E+02  0.10538563912E+03  0.00000000000E+00 0. -1.
</event>
<event>
 7    1  0.5667373E-006  0.8038501E+02  0.7818608E-02  0.1329133E+00
          2   -1    0    0  502    0  0.00000000000E+00  0.00000000000E+00  0.68876341722E+03  0.68876341722E+03  0.00000000000E+00 0. -1.
          1   -1    0    0  501    0 -0.00000000000E+00 -0.00000000000E+00 -0.32028216064E+03  0.32028216064E+03  0.00000000000E+00 0. -1.
         25    2    1    2    0    0 -0.60192977330E+02  0.61349895256E+02  0.98069683203E+02  0.18063721049E+03  0.12500053953E+03 0.  0.
          2    1    1    2  501    0  0.80252614141E+02  0.15639315699E+02 -0.27003264050E+03  0.28213949956E+03  0.00000000000E+00 0. -1.
          1    1    1    2  502    0 -0.20059636811E+02 -0.76989210956E+02  0.54044421388E+03  0.54626886782E+03  0.00000000000E+00 0. -1.
         22    1    3    3    0    0 -0.75390109417E+02  0.86949335863E+02  0.53185803600E+02  0.12677770036E+03  0.00000000000E+00 0. -1.
         22    1    3    3    0    0  0.15197132088E+02 -0.25599440607E+02  0.44883879603E+02  0.53859510128E+02  0.00000000000E+00 0. -1.
</event>
<event>
 7    1  0.6259894E-006  0.4584079E+02  0.7818608E-02  0.1523854E+00
          2   -1    0    0  502    0  0.00000000000E+00  0.00000000000E+00  0.11374539494E+04  0.11374539494E+04  0.00000000000E+00 0. -1.
          1   -1    0    0  501    0 -0.00000000000E+00 -0.00000000000E+00 -0.65703654453E+03  0.65703654453E+03  0.00000000000E+00 0. -1.
         25    2    1    2    0    0  0.80258577674E+01 -0.22277129661E+02 -0.13258905491E+03  0.18375537173E+03  0.12500197702E+03 0.  0.
          2    1    1    2  501    0  0.31393086328E+02 -0.12833787871E+01 -0.49789474922E+03  0.49888511125E+03  0.00000000000E+00 0. -1.
          1    1    1    2  502    0 -0.39418944095E+02  0.23560508448E+02  0.11109012090E+04  0.11118500109E+04  0.00000000000E+00 0. -1.
         22    1    3    3    0    0 -0.76425910195E+01 -0.37882744384E+02 -0.15044685034E+03  0.15533115044E+03  0.00000000000E+00 0. -1.
         22    1    3    3    0    0  0.15668448787E+02  0.15605614723E+02  0.17857795429E+02  0.28424221288E+02  0.00000000000E+00 0. -1.
</event>
<event>
 7    1  0.5667373E-006  0.6309771E+02  0.7818608E-02  0.1422205E+00
          2   -1    0    0  502    0  0.00000000000E+00  0.00000000000E+00  0.11722109390E+04  0.11722109390E+04  0.00000000000E+00 0. -1.
          1   -1    0    0  501    0 -0.00000000000E+00 -0.00000000000E+00 -0.21361993897E+02  0.21361993897E+02  0.00000000000E+00 0. -1.
         25    2    1    2    0    0 -0.28814969695E+02  0.98980415684E+02  0.54903704803E+03  0.57244614979E+03  0.12500195652E+03 0.  0.
          2    1    1    2  501    0  0.22771717814E+02 -0.41312363768E+02  0.60494578074E+02  0.76712818411E+02  0.00000000000E+00 0. -1.
          1    1    1    2  502    0  0.60432518808E+01 -0.57668051916E+02  0.54131731902E+03  0.54441396471E+03  0.00000000000E+00 0. -1.
         22    1    3    3    0    0  0.58067051622E+00  0.21450227574E+02  0.48771137668E+01  0.22005355709E+02  0.00000000000E+00 0. -1.
         22    1    3    3    0    0 -0.29395640211E+02  0.77530188110E+02  0.54415993426E+03  0.55044079408E+03  0.00000000000E+00 0. -1.
</event>
<event>
 7    1  0.5667373E-006  0.8374274E+02  0.7818608E-02  0.1404651E+00
          2   -1    0    0  502    0  0.00000000000E+00  0.00000000000E+00  0.46804336473E+03  0.46804336473E+03  0.00000000000E+00 0. -1.
          1   -1    0    0  501    0 -0.00000000000E+00 -0.00000000000E+00 -0.16490791395E+03  0.16490791395E+03  0.00000000000E+00 0. -1.
         25    2    1    2    0    0  0.54270312244E+02 -0.34138334065E+01 -0.15348122915E+02  0.13717572845E+03  0.12499877819E+03 0.  0.
          2    1    1    2  501    0  0.27097050524E+02  0.30412727905E+02 -0.79144085283E+02  0.89011068981E+02  0.00000000000E+00 0. -1.
          1    1    1    2  502    0 -0.81367362768E+02 -0.26998894498E+02  0.39762765897E+03  0.40676448125E+03  0.00000000000E+00 0. -1.
         22    1    3    3    0    0 -0.29376302581E+02  0.22196977263E+02 -0.31212936900E+02  0.48269248833E+02  0.00000000000E+00 0. -1.
         22    1    3    3    0    0  0.83646614825E+02 -0.25610810670E+02  0.15864813985E+02  0.88906479615E+02  0.00000000000E+00 0. -1.
</event>
<event>
 7    1  0.5667373E-006  0.7243709E+02  0.7818608E-02  0.1436803E+00
          2   -1    0    0  502    0  0.00000000000E+00  0.00000000000E+00  0.47642884102E+03  0.47642884102E+03  0.00000000000E+00 0. -1.
          1   -1    0    0  501    0 -0.00000000000E+00 -0.00000000000E+00 -0.16630798969E+03  0.16630798969E+03  0.00000000000E+00 0. -1.
         25    2    1    2    0    0 -0.38142050809E+02  0.19408191531E+02  0.15091304205E+03  0.20057705570E+03  0.12499966030E+03 0.  0.
          2    1    1    2  501    0 -0.36225084925E+02  0.63827127245E+01 -0.13379983296E+03  0.13876379607E+03  0.00000000000E+00 0. -1.
          1    1    1    2  502    0  0.74367135734E+02 -0.25790904256E+02  0.29300764225E+03  0.30339597894E+03  0.00000000000E+00 0. -1.
         22    1    3    3    0    0  0.46171450143E+02  0.88288067814E+01  0.58218524008E+02  0.74827449343E+02  0.00000000000E+00 0. -1.
         22    1    3    3    0    0 -0.84313500952E+02  0.10579384750E+02  0.92694518042E+02  0.12574960636E+03  0.00000000000E+00 0. -1.
</event>
<event>
 7    1  0.5667373E-006  0.1324516E+03  0.7818608E-02  0.1372012E+00
          2   -1    0    0  502    0  0.00000000000E+00  0.00000000000E+00  0.21438267532E+04  0.21438267532E+04  0.00000000000E+00 0. -1.
          1   -1    0    0  501    0 -0.00000000000E+00 -0.00000000000E+00 -0.68228314349E+02  0.68228314349E+02  0.00000000000E+00 0. -1.
         25    2    1    2    0    0 -0.29553568465E+01 -0.15831506316E+03  0.97026609602E+03  0.99101650094E+03  0.12500005877E+03 0.  0.
          2    1    1    2  501    0  0.19415808701E+02  0.12913898833E+03  0.16428667565E+02  0.13161972896E+03  0.00000000000E+00 0. -1.
          1    1    1    2  502    0 -0.16460451855E+02  0.29176074834E+02  0.10889036753E+04  0.10894188377E+04  0.00000000000E+00 0. -1.
         22    1    3    3    0    0 -0.37916206849E+02 -0.54070943576E+01  0.10776034103E+03  0.11436418369E+03  0.00000000000E+00 0.  1.
         22    1    3    3    0    0  0.34960850002E+02 -0.15290796880E+03  0.86250575499E+03  0.87665231725E+03  0.00000000000E+00 0.  1.
</event>
<event>
 7    1  0.5667373E-006  0.1644377E+03  0.7818608E-02  0.1212637E+00
          2   -1    0    0  502    0  0.00000000000E+00  0.00000000000E+00  0.15737281352E+03  0.15737281352E+03  0.00000000000E+00 0. -1.
          1   -1    0    0  501    0 -0.00000000000E+00 -0.00000000000E+00 -0.12672344243E+04  0.12672344243E+04  0.00000000000E+00 0. -1.
         25    2    1    2    0    0  0.84783804330E+01 -0.10458949053E+03 -0.60077022926E+03  0.62254351113E+03  0.12499884164E+03 0.  0.
          2    1    1    2  501    0 -0.11647190880E+03 -0.29190096452E+02 -0.59700593852E+03  0.60896129425E+03  0.00000000000E+00 0. -1.
          1    1    1    2  502    0  0.10799352837E+03  0.13377958699E+03  0.87914557040E+02  0.19310243241E+03  0.00000000000E+00 0. -1.
         22    1    3    3    0    0 -0.21303047263E+02 -0.41778344115E+02 -0.48675111128E+03  0.48900500426E+03  0.00000000000E+00 0. -1.
         22    1    3    3    0    0  0.29781427696E+02 -0.62811146420E+02 -0.11401911799E+03  0.13353850687E+03  0.00000000000E+00 0. -1.
</event>
<event>
 7    1  0.5667373E-006  0.8623698E+02  0.7818608E-02  0.1386690E+00
          2   -1    0    0  502    0  0.00000000000E+00  0.00000000000E+00  0.51015043139E+03  0.51015043139E+03  0.00000000000E+00 0. -1.
          1   -1    0    0  501    0 -0.00000000000E+00 -0.00000000000E+00 -0.10858174954E+04  0.10858174954E+04  0.00000000000E+00 0. -1.
         25    2    1    2    0    0 -0.41872656802E+02  0.28435206332E+02  0.23487585330E+03  0.27083494466E+03  0.12499208151E+03 0.  0.
          2    1    1    2  501    0  0.85307051369E+02 -0.14413160871E+02 -0.10640442108E+04  0.10675556729E+04  0.00000000000E+00 0. -1.
          1    1    1    2  502    0 -0.43434394567E+02 -0.14022045461E+02  0.25350129352E+03  0.25757730918E+03  0.00000000000E+00 0. -1.
         22    1    3    3    0    0  0.35621835117E+02 -0.15340512465E+02  0.35854786292E+02  0.52818672454E+02  0.00000000000E+00 0. -1.
         22    1    3    3    0    0 -0.77494491919E+02  0.43775718796E+02  0.19902106701E+03  0.21801627221E+03  0.00000000000E+00 0. -1.
</event>
<event>
 7    1  0.5667373E-006  0.1322852E+03  0.7818608E-02  0.1370970E+00
          2   -1    0    0  502    0  0.00000000000E+00  0.00000000000E+00  0.63151199890E+03  0.63151199890E+03  0.00000000000E+00 0. -1.
          1   -1    0    0  501    0 -0.00000000000E+00 -0.00000000000E+00 -0.45293168170E+03  0.45293168170E+03  0.00000000000E+00 0. -1.
         25    2    1    2    0    0 -0.35977288506E+01  0.11458440679E+03  0.25617997740E+03  0.30723848705E+03  0.12499910868E+03 0.  0.
          2    1    1    2  501    0 -0.26299581642E+02 -0.13041782779E+03 -0.41618545137E+03  0.43693341339E+03  0.00000000000E+00 0. -1.
          1    1    1    2  502    0  0.29897310493E+02  0.15833420996E+02  0.33858579117E+03  0.34027178017E+03  0.00000000000E+00 0. -1.
         22    1    3    3    0    0  0.51115753079E+02  0.20397785681E+02  0.12602604421E+03  0.13751892122E+03  0.00000000000E+00 0. -1.
         22    1    3    3    0    0 -0.54713481930E+02  0.94186621113E+02  0.13015393319E+03  0.16971956583E+03  0.00000000000E+00 0. -1.
</event>
<event>
 7    1  0.5667373E-006  0.1603799E+03  0.7818608E-02  0.1350620E+00
          2   -1    0    0  502    0  0.00000000000E+00  0.00000000000E+00  0.72041262779E+02  0.72041262779E+02  0.00000000000E+00 0. -1.
          1   -1    0    0  501    0 -0.00000000000E+00 -0.00000000000E+00 -0.69326622300E+03  0.69326622300E+03  0.00000000000E+00 0. -1.
         25    2    1    2    0    0 -0.87985382723E+02  0.12862764479E+03 -0.28110944759E+03  0.34486846788E+03  0.12500096015E+03 0.  0.
          2    1    1    2  501    0 -0.29782918742E+02 -0.14448576314E+02 -0.20576310565E+03  0.20840882720E+03  0.00000000000E+00 0. -1.
          1    1    1    2  502    0  0.11776830146E+03 -0.11417906847E+03 -0.13435240697E+03  0.21203019070E+03  0.00000000000E+00 0. -1.
         22    1    3    3    0    0 -0.90819501437E+02  0.23537287669E+02 -0.11694842246E+03  0.14993038140E+03  0.00000000000E+00 0.  1.
         22    1    3    3    0    0  0.28341187146E+01  0.10509035712E+03 -0.16416102514E+03  0.19493808648E+03  0.00000000000E+00 0.  1.
</event>
<event>
 7    1  0.5667373E-006  0.1206404E+03  0.7818608E-02  0.1353891E+00
          2   -1    0    0  502    0  0.00000000000E+00  0.00000000000E+00  0.24738717393E+04  0.24738717393E+04  0.00000000000E+00 0. -1.
          1   -1    0    0  501    0 -0.00000000000E+00 -0.00000000000E+00 -0.11483832107E+04  0.11483832107E+04  0.00000000000E+00 0. -1.
         25    2    1    2    0    0  0.13225726748E+03 -0.47628208910E+02  0.89276577053E+03  0.91236901577E+03  0.12500427522E+03 0.  0.
          2    1    1    2  501    0 -0.12041549612E+03  0.64992867397E+01 -0.11350956900E+04  0.11414834024E+04  0.00000000000E+00 0. -1.
          1    1    1    2  502    0 -0.11841771362E+02  0.41128922170E+02  0.15678184481E+04  0.15684025319E+04  0.00000000000E+00 0. -1.
         22    1    3    3    0    0 -0.42626046249E+01  0.95641508695E+01  0.33903870256E+03  0.33920036058E+03  0.00000000000E+00 0. -1.
         22    1    3    3    0    0  0.13651987211E+03 -0.57192359780E+02  0.55372706796E+03  0.57316865519E+03  0.00000000000E+00 0. -1.
</event>
<event>
 7    1  0.5667373E-006  0.1232193E+03  0.7818608E-02  0.1272474E+00
          2   -1    0    0  502    0  0.00000000000E+00  0.00000000000E+00  0.48128888095E+03  0.48128888095E+03  0.00000000000E+00 0. -1.
          1   -1    0    0  501    0 -0.00000000000E+00 -0.00000000000E+00 -0.34679734699E+03  0.34679734699E+03  0.00000000000E+00 0. -1.
         25    2    1    2    0    0  0.23544177695E+02  0.55091706618E+02 -0.28572130172E+02  0.14153311951E+03  0.12500333137E+03 0.  0.
          2    1    1    2  501    0 -0.43347898904E+02 -0.14028541930E+03 -0.23603769780E+03  0.27797991652E+03  0.00000000000E+00 0. -1.
          1    1    1    2  502    0  0.19803721209E+02  0.85193712681E+02  0.39910136193E+03  0.40857319191E+03  0.00000000000E+00 0. -1.
         22    1    3    3    0    0  0.50359077492E+02  0.26054465769E+02  0.35031607386E+02  0.66648971398E+02  0.00000000000E+00 0.  1.
         22    1    3    3    0    0 -0.26814899797E+02  0.29037240849E+02 -0.63603737558E+02  0.74884148113E+02  0.00000000000E+00 0.  1.
</event>
<event>
 7    1  0.5667373E-006  0.1170506E+03  0.7818608E-02  0.1284929E+00
          2   -1    0    0  502    0  0.00000000000E+00  0.00000000000E+00  0.24526129215E+03  0.24526129215E+03  0.00000000000E+00 0. -1.
          1   -1    0    0  501    0 -0.00000000000E+00 -0.00000000000E+00 -0.84254074447E+03  0.84254074447E+03  0.00000000000E+00 0. -1.
         25    2    1    2    0    0 -0.72734461407E+02  0.48839031149E+02  0.40439943716E+02  0.15791534335E+03  0.12500525500E+03 0.  0.
          2    1    1    2  501    0  0.17205444341E+02  0.79932899175E+02 -0.74739706836E+03  0.75185615211E+03  0.00000000000E+00 0. -1.
          1    1    1    2  502    0  0.55529017066E+02 -0.12877193032E+03  0.10967767233E+03  0.17803054115E+03  0.00000000000E+00 0. -1.
         22    1    3    3    0    0 -0.10780545662E+03  0.37858675913E+02  0.20432574858E+02  0.11607233061E+03  0.00000000000E+00 0. -1.
         22    1    3    3    0    0  0.35070995213E+02  0.10980355236E+02  0.20007368858E+02  0.41843012737E+02  0.00000000000E+00 0. -1.
</event>
<event>
 7    1  0.5667373E-006  0.1381635E+03  0.7818608E-02  0.1241279E+00
          2   -1    0    0  502    0  0.00000000000E+00  0.00000000000E+00  0.51452160084E+03  0.51452160084E+03  0.00000000000E+00 0. -1.
          1   -1    0    0  501    0 -0.00000000000E+00 -0.00000000000E+00 -0.66797746714E+03  0.66797746714E+03  0.00000000000E+00 0. -1.
         25    2    1    2    0    0  0.19704644856E+03 -0.96733585840E+02  0.14364410360E+03  0.29059152609E+03  0.12500046808E+03 0.  0.
          2    1    1    2  501    0 -0.10547041259E+03  0.12079265954E+02 -0.57636597404E+03  0.58606113386E+03  0.00000000000E+00 0. -1.
          1    1    1    2  502    0 -0.91576035964E+02  0.84654319886E+02  0.27926600413E+03  0.30584640803E+03  0.00000000000E+00 0. -1.
         22    1    3    3    0    0  0.20394756161E+03 -0.59117352885E+02  0.13421121671E+03  0.25120135348E+03  0.00000000000E+00 0. -1.
         22    1    3    3    0    0 -0.69011130594E+01 -0.37616232955E+02  0.94328868905E+01  0.39390172611E+02  0.00000000000E+00 0. -1.
</event>
<event>
 7    1  0.5667373E-006  0.2247125E+03  0.7818608E-02  0.1204000E+00
          2   -1    0    0  502    0  0.00000000000E+00  0.00000000000E+00  0.10120962533E+04  0.10120962533E+04  0.00000000000E+00 0. -1.
          1   -1    0    0  501    0 -0.00000000000E+00 -0.00000000000E+00 -0.45486057863E+04  0.45486057863E+04  0.00000000000E+00 0. -1.
         25    2    1    2    0    0 -0.12273354279E+03  0.63287211927E+02 -0.18085506089E+03  0.25961666953E+03  0.12499387316E+03 0.  0.
          2    1    1    2  501    0 -0.62464242485E+02  0.73397770829E+02 -0.43142073906E+04  0.43152838173E+04  0.00000000000E+00 0. -1.
          1    1    1    2  502    0  0.18519778528E+03 -0.13668498276E+03  0.95855291848E+03  0.98580155290E+03  0.00000000000E+00 0. -1.
         22    1    3    3    0    0 -0.59078888015E+02 -0.62511574327E+01 -0.14850470286E+03  0.15994698731E+03  0.00000000000E+00 0. -1.
         22    1    3    3    0    0 -0.63654654776E+02  0.69538369359E+02 -0.32350358027E+02  0.99669682213E+02  0.00000000000E+00 0. -1.
</event>
<event>
 7    1  0.5667373E-006  0.1292901E+03  0.7818608E-02  0.1255253E+00
          2   -1    0    0  502    0  0.00000000000E+00  0.00000000000E+00  0.12303485959E+04  0.12303485959E+04  0.00000000000E+00 0. -1.
          1   -1    0    0  501    0 -0.00000000000E+00 -0.00000000000E+00 -0.21428546428E+03  0.21428546428E+03  0.00000000000E+00 0. -1.
         25    2    1    2    0    0 -0.38686005668E+02  0.35937373306E+02  0.48357238254E+03  0.50225077375E+03  0.12500195492E+03 0.  0.
          2    1    1    2  501    0 -0.11306687575E+03 -0.62704239362E+02 -0.17540736729E+03  0.21790751370E+03  0.00000000000E+00 0. -1.
          1    1    1    2  502    0  0.15175288142E+03  0.26766866056E+02  0.70789811640E+03  0.72447577277E+03  0.00000000000E+00 0. -1.
         22    1    3    3    0    0 -0.30336913000E+02 -0.42472370478E+02  0.13200902042E+03  0.14195285139E+03  0.00000000000E+00 0. -1.
         22    1    3    3    0    0 -0.83490926682E+01  0.78409743784E+02  0.35156336213E+03  0.36029792236E+03  0.00000000000E+00 0. -1.
</event>
<event>
 7    1  0.5667373E-006  0.4706195E+02  0.7818608E-02  0.1582573E+00
          2   -1    0    0  502    0  0.00000000000E+00  0.00000000000E+00  0.44376969472E+02  0.44376969472E+02  0.00000000000E+00 0. -1.
          1   -1    0    0  501    0 -0.00000000000E+00 -0.00000000000E+00 -0.29989624835E+03  0.29989624835E+03  0.00000000000E+00 0. -1.
         25    2    1    2    0    0 -0.55861098347E+02  0.23043716149E+02 -0.18878920052E+03  0.23434624667E+03  0.12500130372E+03 0.  0.
          2    1    1    2  501    0  0.35115614180E+02 -0.26427247498E+02 -0.75332490033E+02  0.87215192622E+02  0.00000000000E+00 0. -1.
          1    1    1    2  502    0  0.20745484168E+02  0.33835313487E+01  0.86024116692E+01  0.22711778536E+02  0.00000000000E+00 0. -1.
         22    1    3    3    0    0  0.83329463089E+01  0.62358527658E+02 -0.97323257457E+02  0.11588718828E+03  0.00000000000E+00 0.  1.
         22    1    3    3    0    0 -0.64194044656E+02 -0.39314811509E+02 -0.91465943059E+02  0.11845905838E+03  0.00000000000E+00 0.  1.
</event>
<event>
 7    1  0.5667373E-006  0.9790628E+02  0.7818608E-02  0.1332762E+00
          2   -1    0    0  502    0  0.00000000000E+00  0.00000000000E+00  0.11632499264E+03  0.11632499264E+03  0.00000000000E+00 0. -1.
          1   -1    0    0  501    0 -0.00000000000E+00 -0.00000000000E+00 -0.77191732495E+03  0.77191732495E+03  0.00000000000E+00 0. -1.
         25    2    1    2    0    0  0.11422661382E+03 -0.98257465377E+02 -0.23507277326E+03  0.30592002956E+03  0.12500242779E+03 0.  0.
          2    1    1    2  501    0 -0.58589168619E+02  0.23888535720E+02 -0.47193865317E+03  0.47616115462E+03  0.00000000000E+00 0. -1.
          1    1    1    2  502    0 -0.55637445197E+02  0.74368929657E+02  0.51419094117E+02  0.10616113341E+03  0.00000000000E+00 0. -1.
         22    1    3    3    0    0  0.68267310537E+02 -0.83530933187E+02 -0.23397407314E+03  0.25764648142E+03  0.00000000000E+00 0.  1.
         22    1    3    3    0    0  0.45959303279E+02 -0.14726532190E+02 -0.10987001213E+01  0.48273548142E+02  0.00000000000E+00 0.  1.
</event>
<event>
 7    1  0.5667373E-006  0.3708143E+02  0.7818608E-02  0.1561073E+00
          2   -1    0    0  502    0  0.00000000000E+00  0.00000000000E+00  0.74125986179E+03  0.74125986179E+03  0.00000000000E+00 0. -1.
          1   -1    0    0  501    0 -0.00000000000E+00 -0.00000000000E+00 -0.10567270935E+03  0.10567270935E+03  0.00000000000E+00 0. -1.
         25    2    1    2    0    0 -0.59005799336E+02  0.20461339201E+02  0.45784790470E+03  0.47869628309E+03  0.12500030740E+03 0.  0.
          2    1    1    2  501    0  0.24490956741E+02 -0.18191265181E+02 -0.91671242842E+02  0.96614418464E+02  0.00000000000E+00 0. -1.
          1    1    1    2  502    0  0.34514842594E+02 -0.22700740201E+01  0.26941049058E+03  0.27162186958E+03  0.00000000000E+00 0. -1.
         22    1    3    3    0    0  0.14629539951E+01  0.58706013544E+02  0.29554593259E+03  0.30132363752E+03  0.00000000000E+00 0.  1.
         22    1    3    3    0    0 -0.60468753331E+02 -0.38244674343E+02  0.16230197212E+03  0.17737264557E+03  0.00000000000E+00 0.  1.
</event>
<event>
 7    1  0.5667373E-006  0.1828088E+03  0.7818608E-02  0.1356492E+00
          2   -1    0    0  502    0  0.00000000000E+00  0.00000000000E+00  0.42132993706E+03  0.42132993706E+03  0.00000000000E+00 0. -1.
          1   -1    0    0  501    0 -0.00000000000E+00 -0.00000000000E+00 -0.30086805366E+04  0.30086805366E+04  0.00000000000E+00 0. -1.
         25    2    1    2    0    0  0.10665952018E+03 -0.16834023323E+03 -0.64474021385E+03  0.68631476066E+03  0.12499327973E+03 0.  0.
          2    1    1    2  501    0 -0.11195727117E+03  0.14122334803E+03 -0.23392064539E+04  0.23461383801E+04  0.00000000000E+00 0. -1.
          1    1    1    2  502    0  0.52977509899E+01  0.27116885202E+02  0.39659606820E+03  0.39755733290E+03  0.00000000000E+00 0. -1.
         22    1    3    3    0    0  0.99913761010E+02 -0.72066697045E+02 -0.47837748227E+03  0.49398520626E+03  0.00000000000E+00 0.  1.
         22    1    3    3    0    0  0.67457591723E+01 -0.96273536189E+02 -0.16636273158E+03  0.19232955440E+03  0.00000000000E+00 0.  1.
</event>
<event>
 7    1  0.5667373E-006  0.5223975E+02  0.7818608E-02  0.1511926E+00
          2   -1    0    0  502    0  0.00000000000E+00  0.00000000000E+00  0.25294089922E+04  0.25294089922E+04  0.00000000000E+00 0. -1.
          1   -1    0    0  501    0 -0.00000000000E+00 -0.00000000000E+00 -0.15395343916E+03  0.15395343916E+03  0.00000000000E+00 0. -1.
         25    2    1    2    0    0  0.95245194600E+00 -0.39117014398E+02  0.15417707980E+04  0.15473245222E+04  0.12499974276E+03 0.  0.
          2    1    1    2  501    0  0.28540965875E+02  0.43823811556E+02 -0.14641923887E+03  0.15547895904E+03  0.00000000000E+00 0. -1.
          1    1    1    2  502    0 -0.29493417821E+02 -0.47067971578E+01  0.98010399399E+03  0.98055895013E+03  0.00000000000E+00 0. -1.
         22    1    3    3    0    0  0.62380493557E+02 -0.28667331722E+02  0.82101992288E+03  0.82388521995E+03  0.00000000000E+00 0.  1.
         22    1    3    3    0    0 -0.61428041611E+02 -0.10449682676E+02  0.72075087508E+03  0.72343930229E+03  0.00000000000E+00 0.  1.
</event>
<event>
 7    1  0.5667373E-006  0.3323833E+02  0.7818608E-02  0.1626244E+00
          2   -1    0    0  502    0  0.00000000000E+00  0.00000000000E+00  0.16284580815E+04  0.16284580815E+04  0.00000000000E+00 0. -1.
          1   -1    0    0  501    0 -0.00000000000E+00 -0.00000000000E+00 -0.39576500425E+02  0.39576500425E+02  0.00000000000E+00 0. -1.
         25    2    1    2    0    0  0.74349141414E+01 -0.33211449661E+02  0.10870587287E+03  0.16910239069E+03  0.12498149225E+03 0.  0.
          2    1    1    2  501    0  0.15365858403E+02  0.30900022417E+02  0.22766687519E+02  0.41342992760E+02  0.00000000000E+00 0. -1.
          1    1    1    2  502    0 -0.22800772544E+02  0.23114272438E+01  0.14574090207E+04  0.14575891985E+04  0.00000000000E+00 0. -1.
         22    1    3    3    0    0  0.60517263548E+02  0.82204991677E+01  0.62837966040E+02  0.87627197661E+02  0.00000000000E+00 0. -1.
         22    1    3    3    0    0 -0.53082349406E+02 -0.41431948828E+02  0.45867906825E+02  0.81475193027E+02  0.00000000000E+00 0. -1.
</event>
<event>
 7    1  0.5667373E-006  0.8521303E+02  0.7818608E-02  0.1364818E+00
          2   -1    0    0  502    0  0.00000000000E+00  0.00000000000E+00  0.41582328400E+03  0.41582328400E+03  0.00000000000E+00 0. -1.
          1   -1    0    0  501    0 -0.00000000000E+00 -0.00000000000E+00 -0.17537111505E+03  0.17537111505E+03  0.00000000000E+00 0. -1.
         25    2    1    2    0    0  0.44291580753E+02 -0.15454658470E+02  0.33414056882E+02  0.13763116089E+03  0.12500098662E+03 0.  0.
          2    1    1    2  501    0  0.44682095423E+02  0.32535669926E+02 -0.11039253184E+03  0.12345675581E+03  0.00000000000E+00 0. -1.
          1    1    1    2  502    0 -0.88973676175E+02 -0.17081011456E+02  0.31743064390E+03  0.33010648235E+03  0.00000000000E+00 0. -1.
         22    1    3    3    0    0  0.33618723556E+00 -0.61815997227E+02 -0.67253747293E+01  0.62181678976E+02  0.00000000000E+00 0.  1.
         22    1    3    3    0    0  0.43955393517E+02  0.46361338757E+02  0.40139431612E+02  0.75449481911E+02  0.00000000000E+00 0.  1.
</event>
<event>
 7    1  0.5667373E-006  0.2609372E+03  0.7818608E-02  0.1239147E+00
          2   -1    0    0  502    0  0.00000000000E+00  0.00000000000E+00  0.20666823934E+04  0.20666823934E+04  0.00000000000E+00 0. -1.
          1   -1    0    0  501    0 -0.00000000000E+00 -0.00000000000E+00 -0.34217291327E+03  0.34217291327E+03  0.00000000000E+00 0. -1.
         25    2    1    2    0    0 -0.18299751491E+03 -0.20338300122E+03  0.28067673065E+03  0.41140459928E+03  0.12498632537E+03 0.  0.
          2    1    1    2  501    0  0.12972412408E+03  0.22486047586E+03 -0.21533872240E+03  0.33728526107E+03  0.00000000000E+00 0. -1.
          1    1    1    2  502    0  0.53273390836E+02 -0.21477474646E+02  0.16591714718E+04  0.16601654463E+04  0.00000000000E+00 0. -1.
         22    1    3    3    0    0 -0.10173754265E+03 -0.18097960211E+03  0.24143571165E+03  0.31842636013E+03  0.00000000000E+00 0.  1.
         22    1    3    3    0    0 -0.81259972262E+02 -0.22403399106E+02  0.39241019005E+02  0.92978239154E+02  0.00000000000E+00 0.  1.
</event>
<event>
 7    1  0.5667373E-006  0.4329268E+02  0.7818608E-02  0.1538297E+00
          2   -1    0    0  502    0  0.00000000000E+00  0.00000000000E+00  0.28825713327E+03  0.28825713327E+03  0.00000000000E+00 0. -1.
          1   -1    0    0  501    0 -0.00000000000E+00 -0.00000000000E+00 -0.15577825416E+03  0.15577825416E+03  0.00000000000E+00 0. -1.
         25    2    1    2    0    0  0.15395750655E+02  0.70415811622E+02  0.59625499779E+02  0.15612705330E+03  0.12500016353E+03 0.  0.
          2    1    1    2  501    0 -0.55311980890E+01 -0.41820148835E+02 -0.10204122925E+03  0.11041707960E+03  0.00000000000E+00 0. -1.
          1    1    1    2  502    0 -0.98645525659E+01 -0.28595662787E+02  0.17489460858E+03  0.17749125454E+03  0.00000000000E+00 0. -1.
         22    1    3    3    0    0  0.14778520298E+02  0.69866002906E+02 -0.21824832070E+02  0.74672527204E+02  0.00000000000E+00 0.  1.
         22    1    3    3    0    0  0.61723035706E+00  0.54980871620E+00  0.81450331848E+02  0.81454526094E+02  0.00000000000E+00 0.  1.
</event>
<event>
 7    1  0.5667373E-006  0.4810286E+03  0.7818608E-02  0.1145688E+00
          2   -1    0    0  502    0  0.00000000000E+00  0.00000000000E+00  0.12828461828E+04  0.12828461828E+04  0.00000000000E+00 0. -1.
          1   -1    0    0  501    0 -0.00000000000E+00 -0.00000000000E+00 -0.10580094831E+04  0.10580094831E+04  0.00000000000E+00 0. -1.
         25    2    1    2    0    0  0.40372828979E+03 -0.58288371678E+02 -0.12841980419E+03  0.44554553095E+03  0.12500043115E+03 0.  0.
          2    1    1    2  501    0  0.85097805199E+02 -0.19304552064E+02 -0.71376788719E+03  0.71908198348E+03  0.00000000000E+00 0. -1.
          1    1    1    2  502    0 -0.48882609499E+03  0.77592923742E+02  0.10670243911E+04  0.11762281514E+04  0.00000000000E+00 0. -1.
         22    1    3    3    0    0  0.15981519688E+03  0.19067453536E+02 -0.39604080902E+01  0.16099735952E+03  0.00000000000E+00 0. -1.
         22    1    3    3    0    0  0.24391309291E+03 -0.77355825215E+02 -0.12445939610E+03  0.28454817144E+03  0.00000000000E+00 0. -1.
</event>
<event>
 7    1  0.5667373E-006  0.9127377E+02  0.7818608E-02  0.1367700E+00
          2   -1    0    0  502    0  0.00000000000E+00  0.00000000000E+00  0.58070521600E+02  0.58070521600E+02  0.00000000000E+00 0. -1.
          1   -1    0    0  501    0 -0.00000000000E+00 -0.00000000000E+00 -0.15740574536E+04  0.15740574536E+04  0.00000000000E+00 0. -1.
         25    2    1    2    0    0 -0.63007357395E+02  0.85380201799E+02 -0.82406209809E+02  0.18351183245E+03  0.12500441308E+03 0.  0.
          2    1    1    2  501    0  0.48803359697E+02 -0.12502164853E+02 -0.12439168309E+04  0.12449366065E+04  0.00000000000E+00 0. -1.
          1    1    1    2  502    0  0.14203997698E+02 -0.72878036946E+02 -0.18966389128E+03  0.20367953622E+03  0.00000000000E+00 0. -1.
         22    1    3    3    0    0 -0.77420082196E+02  0.66960554842E-01 -0.40569669011E+02  0.87405787306E+02  0.00000000000E+00 0. -1.
         22    1    3    3    0    0  0.14412724801E+02  0.85313241244E+02 -0.41836540798E+02  0.96106045147E+02  0.00000000000E+00 0. -1.
</event>
<event>
 7    1  0.5667373E-006  0.1548356E+03  0.7818608E-02  0.1384576E+00
          2   -1    0    0  502    0  0.00000000000E+00  0.00000000000E+00  0.19850351601E+04  0.19850351601E+04  0.00000000000E+00 0. -1.
          1   -1    0    0  501    0 -0.00000000000E+00 -0.00000000000E+00 -0.94303078626E+03  0.94303078626E+03  0.00000000000E+00 0. -1.
         25    2    1    2    0    0 -0.54053856953E+02 -0.12071703141E+03  0.16959583743E+03  0.24876128118E+03  0.12500002327E+03 0.  0.
          2    1    1    2  501    0 -0.17973438029E+02 -0.18591086221E+02 -0.89979958776E+03  0.90017107879E+03  0.00000000000E+00 0. -1.
          1    1    1    2  502    0  0.72027294982E+02  0.13930811763E+03  0.17722081242E+04  0.17791335864E+04  0.00000000000E+00 0. -1.
         22    1    3    3    0    0 -0.31083933716E+02  0.10344719831E+02  0.84980246498E+02  0.91076157465E+02  0.00000000000E+00 0.  1.
         22    1    3    3    0    0 -0.22969923237E+02 -0.13106175124E+03  0.84615590927E+02  0.15768512371E+03  0.00000000000E+00 0.  1.
</event>
<event>
 7    1  0.5667373E-006  0.8300219E+02  0.7818608E-02  0.1374542E+00
          2   -1    0    0  502    0  0.00000000000E+00  0.00000000000E+00  0.39729145470E+02  0.39729145470E+02  0.00000000000E+00 0. -1.
          1   -1    0    0  501    0 -0.00000000000E+00 -0.00000000000E+00 -0.11543845989E+04  0.11543845989E+04  0.00000000000E+00 0. -1.
         25    2    1    2    0    0  0.11769287307E+03 -0.24739710187E+02 -0.27460990356E+03  0.32480605947E+03  0.12499884599E+03 0.  0.
          2    1    1    2  501    0 -0.52138688476E+02 -0.47446945635E+01 -0.75970023181E+03  0.76150206643E+03  0.00000000000E+00 0. -1.
          1    1    1    2  502    0 -0.65554184590E+02  0.29484404750E+02 -0.80345318040E+02  0.10780561846E+03  0.00000000000E+00 0. -1.
         22    1    3    3    0    0  0.82952887817E+02  0.41304941862E+02 -0.19377038930E+03  0.21478883488E+03  0.00000000000E+00 0. -1.
         22    1    3    3    0    0  0.34739985248E+02 -0.66044652048E+02 -0.80839514267E+02  0.11001722459E+03  0.00000000000E+00 0. -1.
</event>
<event>
 7    1  0.5667373E-006  0.1075716E+03  0.7818608E-02  0.1347288E+00
          2   -1    0    0  502    0  0.00000000000E+00  0.00000000000E+00  0.29047636000E+04  0.29047636000E+04  0.00000000000E+00 0. -1.
          1   -1    0    0  501    0 -0.00000000000E+00 -0.00000000000E+00 -0.64183030721E+02  0.64183030721E+02  0.00000000000E+00 0. -1.
         25    2    1    2    0    0 -0.93958659334E+02  0.11977061700E+03  0.55337075912E+03  0.58738241591E+03  0.12500270040E+03 0.  0.
          2    1    1    2  501    0  0.18635790307E+02 -0.47234871682E+02 -0.31985583312E+02  0.60012526384E+02  0.00000000000E+00 0. -1.
          1    1    1    2  502    0  0.75322869028E+02 -0.72535745321E+02  0.23191953934E+04  0.23215516884E+04  0.00000000000E+00 0. -1.
         22    1    3    3    0    0  0.13399858724E+02  0.65076224938E+02  0.29367638911E+03  0.30109847690E+03  0.00000000000E+00 0. -1.
         22    1    3    3    0    0 -0.10735851806E+03  0.54694392066E+02  0.25969437001E+03  0.28628393902E+03  0.00000000000E+00 0. -1.
</event>
<event>
 7    1  0.5667373E-006  0.1014308E+03  0.7818608E-02  0.1317367E+00
          2   -1    0    0  502    0  0.00000000000E+00  0.00000000000E+00  0.29417359517E+03  0.29417359517E+03  0.00000000000E+00 0. -1.
          1   -1    0    0  501    0 -0.00000000000E+00 -0.00000000000E+00 -0.88714608177E+03  0.88714608177E+03  0.00000000000E+00 0. -1.
         25    2    1    2    0    0 -0.13948105137E+02 -0.68048467013E+02  0.77946609551E+02  0.16286616934E+03  0.12499828669E+03 0.  0.
          2    1    1    2  501    0  0.51954918646E+02 -0.46916538220E+02 -0.82192272045E+03  0.82489843831E+03  0.00000000000E+00 0. -1.
          1    1    1    2  502    0 -0.38006813509E+02  0.11496500523E+03  0.15100362430E+03  0.19355506930E+03  0.00000000000E+00 0. -1.
         22    1    3    3    0    0  0.48790186441E+02  0.18865973186E+01  0.22373733583E+02  0.53708709693E+02  0.00000000000E+00 0. -1.
         22    1    3    3    0    0 -0.62738291578E+02 -0.69935064332E+02  0.55572875968E+02  0.10915745965E+03  0.00000000000E+00 0. -1.
</event>
<event>
 7    1  0.5667373E-006  0.1708043E+03  0.7818608E-02  0.1313415E+00
          2   -1    0    0  502    0  0.00000000000E+00  0.00000000000E+00  0.11598412304E+04  0.11598412304E+04  0.00000000000E+00 0. -1.
          1   -1    0    0  501    0 -0.00000000000E+00 -0.00000000000E+00 -0.57649619643E+03  0.57649619643E+03  0.00000000000E+00 0. -1.
         25    2    1    2    0    0 -0.17240593225E+03 -0.64462402768E+02  0.27262086808E+03  0.35188838534E+03  0.12499636467E+03 0.  0.
          2    1    1    2  501    0  0.16906878339E+03  0.21515892688E+02 -0.52276585998E+03  0.54984664364E+03  0.00000000000E+00 0. -1.
          1    1    1    2  502    0  0.33371488509E+01  0.42946510080E+02  0.83349002588E+03  0.83460239787E+03  0.00000000000E+00 0. -1.
         22    1    3    3    0    0 -0.24540609905E+02  0.31282965991E+02  0.88762718727E+02  0.97260915745E+02  0.00000000000E+00 0.  1.
         22    1    3    3    0    0 -0.14786532234E+03 -0.95745368759E+02  0.18385814936E+03  0.25462746960E+03  0.00000000000E+00 0.  1.
</event>
<event>
 7    1  0.5667373E-006  0.1984706E+03  0.7818608E-02  0.1284717E+00
          2   -1    0    0  502    0  0.00000000000E+00  0.00000000000E+00  0.23612203190E+04  0.23612203190E+04  0.00000000000E+00 0. -1.
          1   -1    0    0  501    0 -0.00000000000E+00 -0.00000000000E+00 -0.14121969116E+03  0.14121969116E+03  0.00000000000E+00 0. -1.
         25    2    1    2    0    0 -0.45231361529E+02  0.18275851981E+03  0.27821104139E+03  0.35842965943E+03  0.12499553823E+03 0.  0.
          2    1    1    2  501    0  0.93483295127E+02 -0.18023785433E+03  0.14246679102E+01  0.20304393682E+03  0.00000000000E+00 0. -1.
          1    1    1    2  502    0 -0.48251933597E+02 -0.25206654827E+01  0.19403649185E+04  0.19409664139E+04  0.00000000000E+00 0. -1.
         22    1    3    3    0    0  0.16838986292E+02  0.31114902028E+02 -0.20000709678E+00  0.35379776573E+02  0.00000000000E+00 0.  1.
         22    1    3    3    0    0 -0.62070347821E+02  0.15164361779E+03  0.27841104849E+03  0.32304988286E+03  0.00000000000E+00 0.  1.
</event>
<event>
 7    1  0.5667373E-006  0.4320906E+02  0.7818608E-02  0.1582256E+00
          2   -1    0    0  502    0  0.00000000000E+00  0.00000000000E+00  0.16955636740E+03  0.16955636740E+03  0.00000000000E+00 0. -1.
          1   -1    0    0  501    0 -0.00000000000E+00 -0.00000000000E+00 -0.33798955132E+03  0.33798955132E+03  0.00000000000E+00 0. -1.
         25    2    1    2    0    0  0.36500673751E+02  0.18708623611E+02  0.10164500606E+02  0.13195034571E+03  0.12500105951E+03 0.  0.
          2    1    1    2  501    0 -0.43284510686E+02  0.32038818489E+01 -0.27402959328E+03  0.27744554730E+03  0.00000000000E+00 0. -1.
          1    1    1    2  502    0  0.67838369344E+01 -0.21912505460E+02  0.95431908753E+02  0.98150025713E+02  0.00000000000E+00 0. -1.
         22    1    3    3    0    0  0.63945320640E+02  0.27800462448E+00 -0.37358977907E+02  0.74059263759E+02  0.00000000000E+00 0. -1.
         22    1    3    3    0    0 -0.27444646889E+02  0.18430618987E+02  0.47523478512E+02  0.57891081947E+02  0.00000000000E+00 0. -1.
</event>
<event>
 7    1  0.5667373E-006  0.7614688E+02  0.7818608E-02  0.1390441E+00
          2   -1    0    0  502    0  0.00000000000E+00  0.00000000000E+00  0.18687604469E+03  0.18687604469E+03  0.00000000000E+00 0. -1.
          1   -1    0    0  501    0 -0.00000000000E+00 -0.00000000000E+00 -0.87305509877E+03  0.87305509877E+03  0.00000000000E+00 0. -1.
         25    2    1    2    0    0  0.50477859015E+02  0.22278192636E+01 -0.47475668539E+03  0.49352796195E+03  0.12499184563E+03 0.  0.
          2    1    1    2  501    0 -0.84769816458E+02 -0.38823539600E+02 -0.37961256525E+03  0.39089498424E+03  0.00000000000E+00 0. -1.
          1    1    1    2  502    0  0.34291957443E+02  0.36595720337E+02  0.16819019656E+03  0.17550819727E+03  0.00000000000E+00 0. -1.
         22    1    3    3    0    0  0.78726532436E+02  0.68558134281E+00 -0.16870169771E+03  0.18616820282E+03  0.00000000000E+00 0. -1.
         22    1    3    3    0    0 -0.28248673421E+02  0.15422379208E+01 -0.30605498768E+03  0.30735975913E+03  0.00000000000E+00 0. -1.
</event>
<event>
 7    1  0.5667373E-006  0.4557613E+03  0.7818608E-02  0.1157332E+00
          2   -1    0    0  502    0  0.00000000000E+00  0.00000000000E+00  0.38440247505E+04  0.38440247505E+04  0.00000000000E+00 0. -1.
          1   -1    0    0  501    0 -0.00000000000E+00 -0.00000000000E+00 -0.11476691113E+04  0.11476691113E+04  0.00000000000E+00 0. -1.
         25    2    1    2    0    0  0.11457999119E+03  0.50696721202E+03  0.76327940690E+03  0.93185668429E+03  0.12496839047E+03 0.  0.
          2    1    1    2  501    0 -0.59850090320E+02 -0.44826224941E+03 -0.10147267940E+04  0.11109417374E+04  0.00000000000E+00 0. -1.
          1    1    1    2  502    0 -0.54729900872E+02 -0.58704962606E+02  0.29478030263E+04  0.29488954401E+04  0.00000000000E+00 0. -1.
         22    1    3    3    0    0  0.18810571475E+02  0.16947406147E+03  0.15911008499E+03  0.23321945514E+03  0.00000000000E+00 0.  1.
         22    1    3    3    0    0  0.95769419717E+02  0.33749315055E+03  0.60416932191E+03  0.69863722915E+03  0.00000000000E+00 0.  1.
</event>
<event>
 7    1  0.5667373E-006  0.1050738E+03  0.7818608E-02  0.1354809E+00
          2   -1    0    0  502    0  0.00000000000E+00  0.00000000000E+00  0.81121132244E+03  0.81121132244E+03  0.00000000000E+00 0. -1.
          1   -1    0    0  501    0 -0.00000000000E+00 -0.00000000000E+00 -0.82592192902E+03  0.82592192902E+03  0.00000000000E+00 0. -1.
         25    2    1    2    0    0 -0.92701118653E+02  0.59123064736E+02  0.16028827387E+03  0.23109824906E+03  0.12500014318E+03 0.  0.
          2    1    1    2  501    0  0.54790020068E+02 -0.89786380923E+02 -0.78604263344E+03  0.79304890270E+03  0.00000000000E+00 0. -1.
          1    1    1    2  502    0  0.37911098585E+02  0.30663316187E+02  0.61104375299E+03  0.61298609969E+03  0.00000000000E+00 0. -1.
         22    1    3    3    0    0 -0.82803897430E+01 -0.20645363852E+02  0.95598526868E+02  0.98152301258E+02  0.00000000000E+00 0.  1.
         22    1    3    3    0    0 -0.84420728910E+02  0.79768428588E+02  0.64689747002E+02  0.13294594780E+03  0.00000000000E+00 0.  1.
</event>
<event>
 7    1  0.5667373E-006  0.1123190E+03  0.7818608E-02  0.1321039E+00
          2   -1    0    0  502    0  0.00000000000E+00  0.00000000000E+00  0.20541625274E+04  0.20541625274E+04  0.00000000000E+00 0. -1.
          1   -1    0    0  501    0 -0.00000000000E+00 -0.00000000000E+00 -0.12105292646E+03  0.12105292646E+03  0.00000000000E+00 0. -1.
         25    2    1    2    0    0  0.10392353852E+03  0.95876795688E+02  0.25151917605E+03  0.31445078710E+03  0.12499975911E+03 0.  0.
          2    1    1    2  501    0 -0.10452448414E+03 -0.34705136878E+02 -0.54994599420E+02  0.12310247875E+03  0.00000000000E+00 0. -1.
          1    1    1    2  502    0  0.60094561541E+00 -0.61171658810E+02  0.17365850243E+04  0.17376621880E+04  0.00000000000E+00 0. -1.
         22    1    3    3    0    0 -0.17721652559E+02  0.54211899377E+02  0.10516332571E+03  0.11963407574E+03  0.00000000000E+00 0. -1.
         22    1    3    3    0    0  0.12164519108E+03  0.41664896311E+02  0.14635585034E+03  0.19481671136E+03  0.00000000000E+00 0. -1.
</event>
<event>
 7    1  0.5667373E-006  0.5132942E+02  0.7818608E-02  0.1541101E+00
          2   -1    0    0  502    0  0.00000000000E+00  0.00000000000E+00  0.25938460231E+04  0.25938460231E+04  0.00000000000E+00 0. -1.
          1   -1    0    0  501    0 -0.00000000000E+00 -0.00000000000E+00 -0.69895551437E+01  0.69895551437E+01  0.00000000000E+00 0. -1.
         25    2    1    2    0    0 -0.32043342135E+02  0.18479063293E+01  0.15228024667E+04  0.15282611576E+04  0.12499849019E+03 0.  0.
          2    1    1    2  501    0 -0.24380863402E+02  0.57576534775E+01  0.41771105536E+02  0.48707312916E+02  0.00000000000E+00 0. -1.
          1    1    1    2  502    0  0.56424205537E+02 -0.76055598068E+01  0.10222828957E+04  0.10238671077E+04  0.00000000000E+00 0. -1.
         22    1    3    3    0    0 -0.16813496945E+02  0.37399134718E+02  0.16889369654E+03  0.17380008541E+03  0.00000000000E+00 0.  1.
         22    1    3    3    0    0 -0.15229845190E+02 -0.35551228389E+02  0.13539087702E+04  0.13544610722E+04  0.00000000000E+00 0.  1.
</event>
<event>
 7    1  0.5667373E-006  0.1167034E+03  0.7818608E-02  0.1270856E+00
          2   -1    0    0  502    0  0.00000000000E+00  0.00000000000E+00  0.91829643952E+03  0.91829643952E+03  0.00000000000E+00 0. -1.
          1   -1    0    0  501    0 -0.00000000000E+00 -0.00000000000E+00 -0.68077617738E+03  0.68077617738E+03  0.00000000000E+00 0. -1.
         25    2    1    2    0    0 -0.14914336098E+03 -0.10086157661E+03 -0.26446297083E+03  0.34348902345E+03  0.12500898580E+03 0.  0.
          2    1    1    2  501    0  0.55853888967E+02  0.91081699393E+02 -0.36665012413E+03  0.38190030951E+03  0.00000000000E+00 0. -1.
          1    1    1    2  502    0  0.93289472011E+02  0.97798772184E+01  0.86863335709E+03  0.87368328394E+03  0.00000000000E+00 0. -1.
         22    1    3    3    0    0 -0.79439569938E+02 -0.11834114981E+03 -0.20775366133E+03  0.25194613870E+03  0.00000000000E+00 0. -1.
         22    1    3    3    0    0 -0.69703791039E+02  0.17479573197E+02 -0.56709309496E+02  0.91542884748E+02  0.00000000000E+00 0. -1.
</event>
<event>
 7    1  0.5667373E-006  0.1853679E+03  0.7818608E-02  0.1340898E+00
          2   -1    0    0  502    0  0.00000000000E+00  0.00000000000E+00  0.13535098144E+04  0.13535098144E+04  0.00000000000E+00 0. -1.
          1   -1    0    0  501    0 -0.00000000000E+00 -0.00000000000E+00 -0.54751924896E+02  0.54751924896E+02  0.00000000000E+00 0. -1.
         25    2    1    2    0    0  0.11993183787E+03  0.12159599409E+03  0.62631851099E+03  0.66111206018E+03  0.12500018958E+03 0.  0.
          2    1    1    2  501    0 -0.15083772355E+03 -0.11783580352E+03  0.21186498248E+03  0.28552419554E+03  0.00000000000E+00 0. -1.
          1    1    1    2  502    0  0.30905885674E+02 -0.37601905615E+01  0.46057439601E+03  0.46162548355E+03  0.00000000000E+00 0. -1.
         22    1    3    3    0    0  0.32534705743E+02  0.56585410658E+02  0.44370416721E+03  0.44847943518E+03  0.00000000000E+00 0. -1.
         22    1    3    3    0    0  0.87397132129E+02  0.65010583429E+02  0.18261434378E+03  0.21263262500E+03  0.00000000000E+00 0. -1.
</event>
<event>
 7    1  0.5667373E-006  0.1689769E+03  0.7818608E-02  0.1259675E+00
          2   -1    0    0  502    0  0.00000000000E+00  0.00000000000E+00  0.18735146395E+04  0.18735146395E+04  0.00000000000E+00 0. -1.
          1   -1    0    0  501    0 -0.00000000000E+00 -0.00000000000E+00 -0.31375201769E+04  0.31375201769E+04  0.00000000000E+00 0. -1.
         25    2    1    2    0    0 -0.24484671859E+02  0.15048509993E+03  0.40712758282E+03  0.45235321611E+03  0.12500119593E+03 0.  0.
          2    1    1    2  501    0  0.95861630475E+02 -0.13935510488E+03 -0.31117054641E+04  0.31162991180E+04  0.00000000000E+00 0. -1.
          1    1    1    2  502    0 -0.71376958616E+02 -0.11129995050E+02  0.14405723440E+04  0.14423824823E+04  0.00000000000E+00 0. -1.
         22    1    3    3    0    0  0.48549808531E+02  0.84583906075E+02  0.17719379738E+03  0.20226013672E+03  0.00000000000E+00 0. -1.
         22    1    3    3    0    0 -0.73034480390E+02  0.65901193852E+02  0.22993378544E+03  0.25009307940E+03  0.00000000000E+00 0. -1.
</event>
<event>
 7    1  0.5667373E-006  0.7463856E+02  0.7818608E-02  0.1376026E+00
          2   -1    0    0  502    0  0.00000000000E+00  0.00000000000E+00  0.11295770064E+04  0.11295770064E+04  0.00000000000E+00 0. -1.
          1   -1    0    0  501    0 -0.00000000000E+00 -0.00000000000E+00 -0.45519317428E+02  0.45519317428E+02  0.00000000000E+00 0. -1.
         25    2    1    2    0    0  0.33285762463E+02  0.84899119960E+02  0.55768019736E+03  0.57874716089E+03  0.12500108459E+03 0.  0.
          2    1    1    2  501    0 -0.55811522428E+02 -0.13895560024E+02 -0.68697235260E+01  0.57924137676E+02  0.00000000000E+00 0. -1.
          1    1    1    2  502    0  0.22525759966E+02 -0.71003559937E+02  0.53324721515E+03  0.53842502528E+03  0.00000000000E+00 0. -1.
         22    1    3    3    0    0  0.65424780349E+02  0.46701264487E+02  0.47806686348E+03  0.48477761494E+03  0.00000000000E+00 0.  1.
         22    1    3    3    0    0 -0.32139017886E+02  0.38197855473E+02  0.79613333887E+02  0.93969545950E+02  0.00000000000E+00 0.  1.
</event>
<event>
 7    1  0.5667373E-006  0.1646523E+03  0.7818608E-02  0.1258177E+00
          2   -1    0    0  502    0  0.00000000000E+00  0.00000000000E+00  0.89342316209E+03  0.89342316209E+03  0.00000000000E+00 0. -1.
          1   -1    0    0  501    0 -0.00000000000E+00 -0.00000000000E+00 -0.58061930263E+03  0.58061930263E+03  0.00000000000E+00 0. -1.
         25    2    1    2    0    0  0.70937912139E+02 -0.18762884953E+03  0.22639178440E+03  0.32728514234E+03  0.12500220718E+03 0.  0.
          2    1    1    2  501    0 -0.69708417744E+02  0.28312360952E+02 -0.51711267579E+03  0.52255753057E+03  0.00000000000E+00 0. -1.
          1    1    1    2  502    0 -0.12294943948E+01  0.15931648858E+03  0.60352475086E+03  0.62419979180E+03  0.00000000000E+00 0. -1.
         22    1    3    3    0    0 -0.26528815161E+02 -0.23236866673E+02  0.77063593649E+02  0.84749793350E+02  0.00000000000E+00 0.  1.
         22    1    3    3    0    0  0.97466727300E+02 -0.16439198285E+03  0.14932819075E+03  0.24253534899E+03  0.00000000000E+00 0.  1.
</event>
<event>
 7    1  0.5667373E-006  0.1552861E+03  0.7818608E-02  0.1260166E+00
          2   -1    0    0  502    0  0.00000000000E+00  0.00000000000E+00  0.48802908541E+03  0.48802908541E+03  0.00000000000E+00 0. -1.
          1   -1    0    0  501    0 -0.00000000000E+00 -0.00000000000E+00 -0.39927495461E+03  0.39927495461E+03  0.00000000000E+00 0. -1.
         25    2    1    2    0    0  0.20523885378E+03 -0.35162515420E+02 -0.92664779157E+02  0.25994463080E+03  0.12500024078E+03 0.  0.
          2    1    1    2  501    0 -0.14155029670E+03 -0.10265772000E+02 -0.19596130506E+03  0.24195599942E+03  0.00000000000E+00 0. -1.
          1    1    1    2  502    0 -0.63688557070E+02  0.45428287420E+02  0.37738021502E+03  0.38540340981E+03  0.00000000000E+00 0. -1.
         22    1    3    3    0    0  0.95727047255E+02 -0.72900355264E+02 -0.16829867005E+02  0.12149639417E+03  0.00000000000E+00 0.  1.
         22    1    3    3    0    0  0.10951180652E+03  0.37737839843E+02 -0.75834912152E+02  0.13844823662E+03  0.00000000000E+00 0.  1.
</event>
<event>
 7    1  0.5667373E-006  0.3858511E+02  0.7818608E-02  0.1563429E+00
          2   -1    0    0  502    0  0.00000000000E+00  0.00000000000E+00  0.18133351403E+04  0.18133351403E+04  0.00000000000E+00 0. -1.
          1   -1    0    0  501    0 -0.00000000000E+00 -0.00000000000E+00 -0.28767440325E+02  0.28767440325E+02  0.00000000000E+00 0. -1.
         25    2    1    2    0    0  0.54086451872E+02  0.38742360121E+02  0.57182269274E+03  0.58909730537E+03  0.12501251346E+03 0.  0.
          2    1    1    2  501    0 -0.23321743929E+02 -0.17043238208E+02 -0.93265922618E+01  0.30353929428E+02  0.00000000000E+00 0. -1.
          1    1    1    2  502    0 -0.30764707943E+02 -0.21699121913E+02  0.12220715995E+04  0.12226513458E+04  0.00000000000E+00 0. -1.
         22    1    3    3    0    0  0.54087007509E+02  0.73253356773E+02  0.26228370014E+03  0.27764041136E+03  0.00000000000E+00 0. -1.
         22    1    3    3    0    0 -0.55563677153E-03 -0.34510996653E+02  0.30953899259E+03  0.31145689401E+03  0.00000000000E+00 0. -1.
</event>
<event>
 7    1  0.5667373E-006  0.2667900E+03  0.7818608E-02  0.1186252E+00
          2   -1    0    0  502    0  0.00000000000E+00  0.00000000000E+00  0.12704811292E+04  0.12704811292E+04  0.00000000000E+00 0. -1.
          1   -1    0    0  501    0 -0.00000000000E+00 -0.00000000000E+00 -0.19108411690E+04  0.19108411690E+04  0.00000000000E+00 0. -1.
         25    2    1    2    0    0 -0.16427872031E+03 -0.10775202418E+03 -0.11833547503E+03  0.26120217739E+03  0.12500118465E+03 0.  0.
          2    1    1    2  501    0 -0.95645724190E+02  0.23929303065E+02 -0.17040776438E+04  0.17069274537E+04  0.00000000000E+00 0. -1.
          1    1    1    2  502    0  0.25992444450E+03  0.83822721120E+02  0.11820530791E+04  0.12131926670E+04  0.00000000000E+00 0. -1.
         22    1    3    3    0    0 -0.10935257889E+02  0.72567621834E+00  0.23435413164E+02  0.25871317346E+02  0.00000000000E+00 0.  1.
         22    1    3    3    0    0 -0.15334346242E+03 -0.10847770040E+03 -0.14177088820E+03  0.23533086005E+03  0.00000000000E+00 0.  1.
</event>
<event>
 7    1  0.5667373E-006  0.1000541E+03  0.7818608E-02  0.1282856E+00
          2   -1    0    0  502    0  0.00000000000E+00  0.00000000000E+00  0.32688650780E+02  0.32688650780E+02  0.00000000000E+00 0. -1.
          1   -1    0    0  501    0 -0.00000000000E+00 -0.00000000000E+00 -0.14723296831E+04  0.14723296831E+04  0.00000000000E+00 0. -1.
         25    2    1    2    0    0 -0.14322353113E+02 -0.11225736246E+02 -0.70405177432E+03  0.71529453327E+03  0.12500488568E+03 0.  0.
          2    1    1    2  501    0 -0.99671627260E+02  0.87399978767E+01 -0.61756865453E+03  0.62562118243E+03  0.00000000000E+00 0. -1.
          1    1    1    2  502    0  0.11399398037E+03  0.24857383689E+01 -0.11802060351E+03  0.16410261823E+03  0.00000000000E+00 0. -1.
         22    1    3    3    0    0  0.29006768608E+02 -0.35079450772E+02 -0.10808551694E+03  0.11727932240E+03  0.00000000000E+00 0. -1.
         22    1    3    3    0    0 -0.43329121721E+02  0.23853714526E+02 -0.59596625739E+03  0.59801521087E+03  0.00000000000E+00 0. -1.
</event>
<event>
 7    1  0.5667373E-006  0.8255592E+02  0.7818608E-02  0.1369936E+00
          2   -1    0    0  502    0  0.00000000000E+00  0.00000000000E+00  0.40215153768E+04  0.40215153768E+04  0.00000000000E+00 0. -1.
          1   -1    0    0  501    0 -0.00000000000E+00 -0.00000000000E+00 -0.70262285531E+01  0.70262285531E+01  0.00000000000E+00 0. -1.
         25    2    1    2    0    0  0.38443066997E+02 -0.21673166105E+02  0.10421972171E+04  0.10505932978E+04  0.12499457050E+03 0.  0.
          2    1    1    2  501    0 -0.59151402777E+02 -0.58243321856E+02  0.84817464723E+03  0.85222732015E+03  0.00000000000E+00 0. -1.
          1    1    1    2  502    0  0.20708335780E+02  0.79916487961E+02  0.21241172839E+04  0.21257209874E+04  0.00000000000E+00 0. -1.
         22    1    3    3    0    0  0.47871953641E+02 -0.14762993642E+02  0.14666549438E+03  0.15498528049E+03  0.00000000000E+00 0.  1.
         22    1    3    3    0    0 -0.94288866444E+01 -0.69101724632E+01  0.89553172270E+03  0.89560801736E+03  0.00000000000E+00 0.  1.
</event>
<event>
 7    1  0.5667373E-006  0.4932032E+02  0.7818608E-02  0.1521204E+00
          2   -1    0    0  502    0  0.00000000000E+00  0.00000000000E+00  0.76150515135E+03  0.76150515135E+03  0.00000000000E+00 0. -1.
          1   -1    0    0  501    0 -0.00000000000E+00 -0.00000000000E+00 -0.11567899291E+03  0.11567899291E+03  0.00000000000E+00 0. -1.
         25    2    1    2    0    0  0.91662805945E+01 -0.56186698656E+02  0.98323123610E+02  0.16890866524E+03  0.12498693832E+03 0.  0.
          2    1    1    2  501    0 -0.27803691507E+02  0.10507873243E+02 -0.76631599237E+02  0.82194054914E+02  0.00000000000E+00 0. -1.
          1    1    1    2  502    0  0.18637410912E+02  0.45678825414E+02  0.62413463406E+03  0.62608142411E+03  0.00000000000E+00 0. -1.
         22    1    3    3    0    0  0.30240411054E+02 -0.78326648357E+02  0.10804553408E+03  0.13683341601E+03  0.00000000000E+00 0. -1.
         22    1    3    3    0    0 -0.21074130459E+02  0.22139949701E+02 -0.97224104694E+01  0.32075249223E+02  0.00000000000E+00 0. -1.
</event>
<event>
 7    1  0.5667373E-006  0.1470884E+03  0.7818608E-02  0.1219958E+00
          2   -1    0    0  502    0  0.00000000000E+00  0.00000000000E+00  0.49642423564E+03  0.49642423564E+03  0.00000000000E+00 0. -1.
          1   -1    0    0  501    0 -0.00000000000E+00 -0.00000000000E+00 -0.33433938947E+03  0.33433938947E+03  0.00000000000E+00 0. -1.
         25    2    1    2    0    0 -0.39193161061E+02 -0.32153780211E+02  0.48275453959E+02  0.14325420956E+03  0.12498511770E+03 0.  0.
          2    1    1    2  501    0  0.13528351067E+03  0.11091756312E+03 -0.24883224321E+03  0.30417399516E+03  0.00000000000E+00 0. -1.
          1    1    1    2  502    0 -0.96090349613E+02 -0.78763782910E+02  0.36264163542E+03  0.38333542040E+03  0.00000000000E+00 0. -1.
         22    1    3    3    0    0 -0.67507909235E+02 -0.43409252095E+02  0.69460369924E+02  0.10614341226E+03  0.00000000000E+00 0. -1.
         22    1    3    3    0    0  0.28314748174E+02  0.11255471884E+02 -0.21184915966E+02  0.37110797296E+02  0.00000000000E+00 0. -1.
</event>
<event>
 7    1  0.5667373E-006  0.7386659E+03  0.7818608E-02  0.1215249E+00
          2   -1    0    0  502    0  0.00000000000E+00  0.00000000000E+00  0.18080258331E+04  0.18080258331E+04  0.00000000000E+00 0. -1.
          1   -1    0    0  501    0 -0.00000000000E+00 -0.00000000000E+00 -0.38163013383E+03  0.38163013383E+03  0.00000000000E+00 0. -1.
         25    2    1    2    0    0  0.62772115435E+03 -0.41509453728E+03  0.54336270304E+03  0.93659060809E+03  0.12498646973E+03 0.  0.
          2    1    1    2  501    0 -0.25913319866E+02  0.21199234705E+01 -0.57174589751E+02  0.62808661307E+02  0.00000000000E+00 0. -1.
          1    1    1    2  502    0 -0.60180783448E+03  0.41297461381E+03  0.94020758602E+03  0.11902566976E+04  0.00000000000E+00 0. -1.
         22    1    3    3    0    0  0.12831162931E+03 -0.14983479813E+03  0.14755412319E+03  0.24634642319E+03  0.00000000000E+00 0. -1.
         22    1    3    3    0    0  0.49940952504E+03 -0.26525973915E+03  0.39580857985E+03  0.69024418490E+03  0.00000000000E+00 0. -1.
</event>
<event>
 7    1  0.5667373E-006  0.8989258E+02  0.7818608E-02  0.1313015E+00
          2   -1    0    0  502    0  0.00000000000E+00  0.00000000000E+00  0.50000221102E+03  0.50000221102E+03  0.00000000000E+00 0. -1.
          1   -1    0    0  501    0 -0.00000000000E+00 -0.00000000000E+00 -0.12204056523E+04  0.12204056523E+04  0.00000000000E+00 0. -1.
         25    2    1    2    0    0  0.54033679881E+02  0.15775480902E+03  0.24125525303E+03  0.31880362721E+03  0.12500174908E+03 0.  0.
          2    1    1    2  501    0 -0.47365453162E+02 -0.75881280357E+02 -0.11721987305E+04  0.11756067874E+04  0.00000000000E+00 0. -1.
          1    1    1    2  502    0 -0.66682267184E+01 -0.81873528668E+02  0.21054003622E+03  0.22599744865E+03  0.00000000000E+00 0. -1.
         22    1    3    3    0    0 -0.28442570451E+02  0.34782727318E+02  0.13081599279E+02  0.46796860720E+02  0.00000000000E+00 0.  1.
         22    1    3    3    0    0  0.82476250331E+02  0.12297208171E+03  0.22817365376E+03  0.27200676649E+03  0.00000000000E+00 0.  1.
</event>
<event>
 7    1  0.5667373E-006  0.4174690E+02  0.7818608E-02  0.1539899E+00
          2   -1    0    0  502    0  0.00000000000E+00  0.00000000000E+00  0.27530287632E+04  0.27530287632E+04  0.00000000000E+00 0. -1.
          1   -1    0    0  501    0 -0.00000000000E+00 -0.00000000000E+00 -0.39786797426E+03  0.39786797426E+03  0.00000000000E+00 0. -1.
         25    2    1    2    0    0 -0.68722813367E+02 -0.17147189974E+02  0.12776422851E+04  0.12856950482E+04  0.12500038799E+03 0.  0.
          2    1    1    2  501    0  0.30294348270E+02  0.67791664991E+01 -0.39296014847E+03  0.39418445291E+03  0.00000000000E+00 0. -1.
          1    1    1    2  502    0  0.38428465097E+02  0.10368023475E+02  0.14704786523E+04  0.14710172364E+04  0.00000000000E+00 0. -1.
         22    1    3    3    0    0 -0.72921326043E+01  0.16235947288E+02  0.97180951509E+03  0.97197248665E+03  0.00000000000E+00 0. -1.
         22    1    3    3    0    0 -0.61430680763E+02 -0.33383137263E+02  0.30583277005E+03  0.31372256156E+03  0.00000000000E+00 0. -1.
</event>
<event>
 7    1  0.5667373E-006  0.4761557E+02  0.7818608E-02  0.1520050E+00
          2   -1    0    0  502    0  0.00000000000E+00  0.00000000000E+00  0.20238608355E+03  0.20238608355E+03  0.00000000000E+00 0. -1.
          1   -1    0    0  501    0 -0.00000000000E+00 -0.00000000000E+00 -0.13142116044E+03  0.13142116044E+03  0.00000000000E+00 0. -1.
         25    2    1    2    0    0  0.26503153562E+02  0.98622161627E+01 -0.75922932565E+01  0.12837832589E+03  0.12499468463E+03 0.  0.
          2    1    1    2  501    0 -0.32451880533E+02 -0.40311968713E+02 -0.50731486035E+02  0.72469738836E+02  0.00000000000E+00 0. -1.
          1    1    1    2  502    0  0.59487269707E+01  0.30449752550E+02  0.12928870240E+03  0.13295917927E+03  0.00000000000E+00 0. -1.
         22    1    3    3    0    0 -0.83146469076E+01 -0.42676587987E+02  0.31965044121E+02  0.53964697360E+02  0.00000000000E+00 0. -1.
         22    1    3    3    0    0  0.34817800470E+02  0.52538804150E+02 -0.39557337378E+02  0.74413628533E+02  0.00000000000E+00 0. -1.
</event>
<event>
 7    1  0.5667373E-006  0.1950519E+03  0.7818608E-02  0.1299405E+00
          2   -1    0    0  502    0  0.00000000000E+00  0.00000000000E+00  0.19195407221E+04  0.19195407221E+04  0.00000000000E+00 0. -1.
          1   -1    0    0  501    0 -0.00000000000E+00 -0.00000000000E+00 -0.39743534626E+03  0.39743534626E+03  0.00000000000E+00 0. -1.
         25    2    1    2    0    0  0.15370877497E+03  0.14777566975E+03  0.15389690313E+04  0.15586900258E+04  0.12499952405E+03 0.  0.
          2    1    1    2  501    0 -0.16344383053E+03 -0.10603011426E+03 -0.36168044601E+03  0.41081506289E+03  0.00000000000E+00 0. -1.
          1    1    1    2  502    0  0.97350555610E+01 -0.41745555486E+02  0.34481679055E+03  0.34747097973E+03  0.00000000000E+00 0. -1.
         22    1    3    3    0    0  0.12200165149E+02 -0.21419421481E+02  0.22373017351E+03  0.22508404249E+03  0.00000000000E+00 0. -1.
         22    1    3    3    0    0  0.14150860982E+03  0.16919509123E+03  0.13152388578E+04  0.13336059833E+04  0.00000000000E+00 0. -1.
</event>
<event>
 7    1  0.5667373E-006  0.3849517E+02  0.7818608E-02  0.1579157E+00
          2   -1    0    0  502    0  0.00000000000E+00  0.00000000000E+00  0.39955859803E+04  0.39955859803E+04  0.00000000000E+00 0. -1.
          1   -1    0    0  501    0 -0.00000000000E+00 -0.00000000000E+00 -0.93639127151E+01  0.93639127151E+01  0.00000000000E+00 0. -1.
         25    2    1    2    0    0  0.58401124469E+02  0.63839715885E+01  0.31793398176E+04  0.31823384704E+04  0.12500007092E+03 0.  0.
          2    1    1    2  501    0 -0.26033643230E+02  0.33194019343E+01  0.15442420924E+02  0.30450572622E+02  0.00000000000E+00 0. -1.
          1    1    1    2  502    0 -0.32367481239E+02 -0.97033735228E+01  0.79143982908E+03  0.79216085005E+03  0.00000000000E+00 0. -1.
         22    1    3    3    0    0  0.17975778252E+02  0.11251602466E+02  0.80968269547E+02  0.83699389695E+02  0.00000000000E+00 0. -1.
         22    1    3    3    0    0  0.40425346217E+02 -0.48676308777E+01  0.30983715480E+04  0.30986390807E+04  0.00000000000E+00 0. -1.
</event>
<event>
 7    1  0.5667373E-006  0.6512782E+02  0.7818608E-02  0.1429127E+00
          2   -1    0    0  502    0  0.00000000000E+00  0.00000000000E+00  0.54716587634E+03  0.54716587634E+03  0.00000000000E+00 0. -1.
          1   -1    0    0  501    0 -0.00000000000E+00 -0.00000000000E+00 -0.63052852740E+03  0.63052852740E+03  0.00000000000E+00 0. -1.
         25    2    1    2    0    0  0.66315912483E+02  0.45104582384E+02  0.17627089196E+02  0.14955277186E+03  0.12499237456E+03 0.  0.
          2    1    1    2  501    0 -0.25546411770E+02 -0.59842230302E+02 -0.56166990564E+03  0.56542620613E+03  0.00000000000E+00 0. -1.
          1    1    1    2  502    0 -0.40769500713E+02  0.14737647918E+02  0.46068016537E+03  0.46271542575E+03  0.00000000000E+00 0. -1.
         22    1    3    3    0    0  0.21460439120E+02 -0.19535339382E+02  0.55199534765E+02  0.62363198846E+02  0.00000000000E+00 0.  1.
         22    1    3    3    0    0  0.44855473362E+02  0.64639921766E+02 -0.37572445569E+02  0.87189573014E+02  0.00000000000E+00 0.  1.
</event>
<event>
 7    1  0.5667373E-006  0.7810040E+02  0.7818608E-02  0.1359806E+00
          2   -1    0    0  502    0  0.00000000000E+00  0.00000000000E+00  0.22464742020E+03  0.22464742020E+03  0.00000000000E+00 0. -1.
          1   -1    0    0  501    0 -0.00000000000E+00 -0.00000000000E+00 -0.11050541862E+04  0.11050541862E+04  0.00000000000E+00 0. -1.
         25    2    1    2    0    0 -0.15922206238E+02 -0.12788695231E+03 -0.42570198974E+03  0.46201180825E+03  0.12499655063E+03 0.  0.
          2    1    1    2  501    0  0.34315803003E+02  0.52704418874E+02 -0.65237857792E+03  0.65540303557E+03  0.00000000000E+00 0. -1.
          1    1    1    2  502    0 -0.18393596765E+02  0.75182533433E+02  0.19767380163E+03  0.21228676262E+03  0.00000000000E+00 0. -1.
         22    1    3    3    0    0 -0.51706196019E+02 -0.42706775014E+02 -0.29127816267E+03  0.29889859048E+03  0.00000000000E+00 0. -1.
         22    1    3    3    0    0  0.35783989781E+02 -0.85180177292E+02 -0.13442382707E+03  0.16311321777E+03  0.00000000000E+00 0. -1.
</event>
<event>
 7    1  0.5667373E-006  0.3898007E+02  0.7818608E-02  0.1538270E+00
          2   -1    0    0  502    0  0.00000000000E+00  0.00000000000E+00  0.19660189528E+04  0.19660189528E+04  0.00000000000E+00 0. -1.
          1   -1    0    0  501    0 -0.00000000000E+00 -0.00000000000E+00 -0.61817241713E+02  0.61817241713E+02  0.00000000000E+00 0. -1.
         25    2    1    2    0    0  0.21571902982E+02 -0.82858998486E+01  0.79498611257E+02  0.14992988848E+03  0.12499975653E+03 0.  0.
          2    1    1    2  501    0  0.93556572443E+01  0.32273107378E+02 -0.15698851556E+02  0.37088215413E+02  0.00000000000E+00 0. -1.
          1    1    1    2  502    0 -0.30927560226E+02 -0.23987207530E+02  0.18404019514E+04  0.18408180907E+04  0.00000000000E+00 0. -1.
         22    1    3    3    0    0  0.13037428726E+01  0.54361051571E+02  0.12099975871E+02  0.55706670062E+02  0.00000000000E+00 0.  1.
         22    1    3    3    0    0  0.20268160109E+02 -0.62646951419E+02  0.67398635386E+02  0.94223218414E+02  0.00000000000E+00 0.  1.
</event>
<event>
 7    1  0.5667373E-006  0.2017334E+03  0.7818608E-02  0.1364083E+00
          2   -1    0    0  502    0  0.00000000000E+00  0.00000000000E+00  0.37495142847E+03  0.37495142847E+03  0.00000000000E+00 0. -1.
          1   -1    0    0  501    0 -0.00000000000E+00 -0.00000000000E+00 -0.11155360766E+04  0.11155360766E+04  0.00000000000E+00 0. -1.
         25    2    1    2    0    0  0.31107354288E+02  0.17778613419E+03 -0.19481133972E+02  0.22040798498E+03  0.12499835302E+03 0.  0.
          2    1    1    2  501    0 -0.33816239663E+02 -0.20112058492E+03 -0.98461923748E+03  0.10055188067E+04  0.00000000000E+00 0. -1.
          1    1    1    2  502    0  0.27088853745E+01  0.23334450726E+02  0.26351572333E+03  0.26456071343E+03  0.00000000000E+00 0. -1.
         22    1    3    3    0    0  0.61191065883E+02  0.16907515589E+03 -0.38338883501E+02  0.18384946253E+03  0.00000000000E+00 0. -1.
         22    1    3    3    0    0 -0.30083711595E+02  0.87109783005E+01  0.18857749530E+02  0.36558522448E+02  0.00000000000E+00 0. -1.
</event>
<event>
 7    1  0.5667373E-006  0.8747843E+02  0.7818608E-02  0.1478308E+00
          2   -1    0    0  502    0  0.00000000000E+00  0.00000000000E+00  0.58270570821E+03  0.58270570821E+03  0.00000000000E+00 0. -1.
          1   -1    0    0  501    0 -0.00000000000E+00 -0.00000000000E+00 -0.12003679110E+04  0.12003679110E+04  0.00000000000E+00 0. -1.
         25    2    1    2    0    0  0.69218024380E+02 -0.85667740517E+01 -0.80412646377E+03  0.81676634190E+03  0.12499345184E+03 0.  0.
          2    1    1    2  501    0  0.14441369639E+02 -0.17261444225E+02 -0.38626704504E+03  0.38692213777E+03  0.00000000000E+00 0. -1.
          1    1    1    2  502    0 -0.83659394019E+02  0.25828218277E+02  0.57273130600E+03  0.57938513956E+03  0.00000000000E+00 0. -1.
         22    1    3    3    0    0  0.64997944473E+02 -0.16527173458E+02 -0.17254558214E+03  0.18512119858E+03  0.00000000000E+00 0. -1.
         22    1    3    3    0    0  0.42200799073E+01  0.79603994058E+01 -0.63158088164E+03  0.63164514332E+03  0.00000000000E+00 0. -1.
</event>
<event>
 7    1  0.5667373E-006  0.1531796E+03  0.7818608E-02  0.1226070E+00
          2   -1    0    0  502    0  0.00000000000E+00  0.00000000000E+00  0.42962276431E+03  0.42962276431E+03  0.00000000000E+00 0. -1.
          1   -1    0    0  501    0 -0.00000000000E+00 -0.00000000000E+00 -0.77078203287E+03  0.77078203287E+03  0.00000000000E+00 0. -1.
         25    2    1    2    0    0 -0.12496406072E+03  0.18815645398E+03 -0.19143187758E+02  0.25886341017E+03  0.12499974338E+03 0.  0.
          2    1    1    2  501    0  0.20555497199E+02 -0.14782650837E+03 -0.61240462474E+03  0.63032898509E+03  0.00000000000E+00 0. -1.
          1    1    1    2  502    0  0.10440856352E+03 -0.40329945608E+02  0.29038854395E+03  0.31121240191E+03  0.00000000000E+00 0. -1.
         22    1    3    3    0    0 -0.68277910589E+02  0.40349443758E+02  0.41292857755E+02  0.89415047881E+02  0.00000000000E+00 0.  1.
         22    1    3    3    0    0 -0.56686150128E+02  0.14780701022E+03 -0.60436045512E+02  0.16944836229E+03  0.00000000000E+00 0.  1.
</event>
<event>
 7    1  0.5667373E-006  0.2190588E+03  0.7818608E-02  0.1230006E+00
          2   -1    0    0  502    0  0.00000000000E+00  0.00000000000E+00  0.21984634752E+04  0.21984634752E+04  0.00000000000E+00 0. -1.
          1   -1    0    0  501    0 -0.00000000000E+00 -0.00000000000E+00 -0.24783244578E+04  0.24783244578E+04  0.00000000000E+00 0. -1.
         25    2    1    2    0    0  0.19382515431E+03 -0.59160813261E+02 -0.12902991108E+03  0.27081432892E+03  0.12499396197E+03 0.  0.
          2    1    1    2  501    0 -0.17712385803E+03  0.13242052117E+03 -0.22723691839E+04  0.22831052896E+04  0.00000000000E+00 0. -1.
          1    1    1    2  502    0 -0.16701296278E+02 -0.73259707909E+02  0.21215381124E+04  0.21228683144E+04  0.00000000000E+00 0. -1.
         22    1    3    3    0    0  0.49756382731E+02  0.19241384214E+02 -0.86068789038E+02  0.10126087564E+03  0.00000000000E+00 0. -1.
         22    1    3    3    0    0  0.14406877158E+03 -0.78402197475E+02 -0.42961122042E+02  0.16955345328E+03  0.00000000000E+00 0. -1.
</event>
<event>
 7    1  0.5667373E-006  0.9403085E+02  0.7818608E-02  0.1442851E+00
          2   -1    0    0  502    0  0.00000000000E+00  0.00000000000E+00  0.10575465066E+04  0.10575465066E+04  0.00000000000E+00 0. -1.
          1   -1    0    0  501    0 -0.00000000000E+00 -0.00000000000E+00 -0.61358497676E+03  0.61358497676E+03  0.00000000000E+00 0. -1.
         25    2    1    2    0    0  0.97309758965E+02  0.57492969376E+02  0.22740932666E+03  0.28304447019E+03  0.12499815812E+03 0.  0.
          2    1    1    2  501    0 -0.88148780792E+02 -0.32005745810E+02 -0.58178285357E+03  0.58929268112E+03  0.00000000000E+00 0. -1.
          1    1    1    2  502    0 -0.91609781738E+01 -0.25487223566E+02  0.79833505678E+03  0.79879433209E+03  0.00000000000E+00 0. -1.
         22    1    3    3    0    0  0.22172580895E+02 -0.37519552545E+02  0.36005249181E+02  0.56530683132E+02  0.00000000000E+00 0.  1.
         22    1    3    3    0    0  0.75137178070E+02  0.95012521921E+02  0.19140407748E+03  0.22651378705E+03  0.00000000000E+00 0.  1.
</event>
<event>
 7    1  0.5667373E-006  0.3996299E+02  0.7818608E-02  0.1584376E+00
          2   -1    0    0  502    0  0.00000000000E+00  0.00000000000E+00  0.32152484718E+03  0.32152484718E+03  0.00000000000E+00 0. -1.
          1   -1    0    0  501    0 -0.00000000000E+00 -0.00000000000E+00 -0.40815225313E+02  0.40815225313E+02  0.00000000000E+00 0. -1.
         25    2    1    2    0    0 -0.57930901727E+02  0.83929302056E+00  0.19108730865E+03  0.23557452334E+03  0.12499721091E+03 0.  0.
          2    1    1    2  501    0  0.36670971535E+02  0.11298188229E+02  0.50277262797E+01  0.38699964368E+02  0.00000000000E+00 0. -1.
          1    1    1    2  502    0  0.21259930192E+02 -0.12137481250E+02  0.84594586938E+02  0.88065584777E+02  0.00000000000E+00 0. -1.
         22    1    3    3    0    0 -0.33423384963E+02  0.99639734408E+01  0.20361301201E+03  0.20657846473E+03  0.00000000000E+00 0.  1.
         22    1    3    3    0    0 -0.24507516764E+02 -0.91246804203E+01 -0.12525703363E+02  0.28996058619E+02  0.00000000000E+00 0.  1.
</event>
<event>
 7    1  0.5667373E-006  0.8942028E+02  0.7818608E-02  0.1304457E+00
          2   -1    0    0  502    0  0.00000000000E+00  0.00000000000E+00  0.13011203223E+03  0.13011203223E+03  0.00000000000E+00 0. -1.
          1   -1    0    0  501    0 -0.00000000000E+00 -0.00000000000E+00 -0.11440792738E+04  0.11440792738E+04  0.00000000000E+00 0. -1.
         25    2    1    2    0    0 -0.10019002303E+03 -0.59679497850E+02 -0.25012096867E+03  0.30295992584E+03  0.12499813807E+03 0.  0.
          2    1    1    2  501    0  0.15841169968E+02  0.88879837540E+02 -0.84547066039E+03  0.85027713469E+03  0.00000000000E+00 0. -1.
          1    1    1    2  502    0  0.84348853058E+02 -0.29200339690E+02  0.81624387544E+02  0.12095424545E+03  0.00000000000E+00 0. -1.
         22    1    3    3    0    0 -0.21518722698E+02 -0.70787461564E+02 -0.54717386991E+02  0.92021261567E+02  0.00000000000E+00 0. -1.
         22    1    3    3    0    0 -0.78671300329E+02  0.11107963714E+02 -0.19540358168E+03  0.21093866428E+03  0.00000000000E+00 0. -1.
</event>
<event>
 7    1  0.6668549E-006  0.4762989E+02  0.7818608E-02  0.1516912E+00
          2   -1    0    0  502    0  0.00000000000E+00  0.00000000000E+00  0.10780039687E+04  0.10780039687E+04  0.00000000000E+00 0. -1.
          1   -1    0    0  501    0 -0.00000000000E+00 -0.00000000000E+00 -0.70248714868E+03  0.70248714868E+03  0.00000000000E+00 0. -1.
         25    2    1    2    0    0 -0.16295639105E+02 -0.18918081121E+01 -0.15803291414E+03  0.20215967455E+03  0.12500002108E+03 0.  0.
          2    1    1    2  501    0 -0.31359186108E+02  0.44627584213E+01 -0.52137072416E+03  0.52233202733E+03  0.00000000000E+00 0. -1.
          1    1    1    2  502    0  0.47654825213E+02 -0.25709503092E+01  0.10549204583E+04  0.10559994155E+04  0.00000000000E+00 0. -1.
         22    1    3    3    0    0  0.15336637470E+02  0.50325761056E+02 -0.11788013348E+03  0.12908764675E+03  0.00000000000E+00 0. -1.
         22    1    3    3    0    0 -0.31632276575E+02 -0.52217569168E+02 -0.40152780659E+02  0.73072027793E+02  0.00000000000E+00 0. -1.
</event>
<event>
 7    1  0.5667373E-006  0.3611519E+03  0.7818608E-02  0.1224051E+00
          2   -1    0    0  502    0  0.00000000000E+00  0.00000000000E+00  0.18326912672E+04  0.18326912672E+04  0.00000000000E+00 0. -1.
          1   -1    0    0  501    0 -0.00000000000E+00 -0.00000000000E+00 -0.10569735337E+04  0.10569735337E+04  0.00000000000E+00 0. -1.
         25    2    1    2    0    0  0.33370812621E+03 -0.19528884168E+03  0.92775705446E+03  0.10128467942E+04  0.12500652455E+03 0.  0.
          2    1    1    2  501    0 -0.31765418563E+02  0.36624651450E+02 -0.98007888964E+03  0.98127724768E+03  0.00000000000E+00 0. -1.
          1    1    1    2  502    0 -0.30194270765E+03  0.15866419023E+03  0.82803956861E+03  0.89554075906E+03  0.00000000000E+00 0. -1.
         22    1    3    3    0    0  0.24253253295E+03 -0.17824987711E+03  0.80171777566E+03  0.85635649121E+03  0.00000000000E+00 0. -1.
         22    1    3    3    0    0  0.91175593264E+02 -0.17038964569E+02  0.12603927879E+03  0.15649030296E+03  0.00000000000E+00 0. -1.
</event>
<event>
 7    1  0.5667373E-006  0.5246465E+02  0.7818608E-02  0.1455364E+00
          2   -1    0    0  502    0  0.00000000000E+00  0.00000000000E+00  0.26248971336E+03  0.26248971336E+03  0.00000000000E+00 0. -1.
          1   -1    0    0  501    0 -0.00000000000E+00 -0.00000000000E+00 -0.77050505610E+03  0.77050505610E+03  0.00000000000E+00 0. -1.
         25    2    1    2    0    0 -0.75256072991E+02  0.59049114143E+02 -0.61475168804E+01  0.15752139548E+03  0.12499969466E+03 0.  0.
          2    1    1    2  501    0  0.43707489344E+02 -0.28005044502E+02 -0.68505297567E+03  0.68701688961E+03  0.00000000000E+00 0. -1.
          1    1    1    2  502    0  0.31548583646E+02 -0.31044069642E+02  0.18318514981E+03  0.18845648437E+03  0.00000000000E+00 0. -1.
         22    1    3    3    0    0 -0.10368294994E+03  0.71705875329E+02 -0.15964555647E+01  0.12607313486E+03  0.00000000000E+00 0.  1.
         22    1    3    3    0    0  0.28426876944E+02 -0.12656761185E+02 -0.45510613157E+01  0.31448260613E+02  0.00000000000E+00 0.  1.
</event>
<event>
 7    1  0.5667373E-006  0.1418958E+03  0.7818608E-02  0.1282837E+00
          2   -1    0    0  502    0  0.00000000000E+00  0.00000000000E+00  0.24628539543E+04  0.24628539543E+04  0.00000000000E+00 0. -1.
          1   -1    0    0  501    0 -0.00000000000E+00 -0.00000000000E+00 -0.15148903913E+03  0.15148903913E+03  0.00000000000E+00 0. -1.
         25    2    1    2    0    0  0.55389382799E+02  0.14639498984E+03  0.10341632384E+01  0.20031494804E+03  0.12500212854E+03 0.  0.
          2    1    1    2  501    0  0.48050146291E+02 -0.49232963569E+02 -0.25886877659E+02  0.73503957005E+02  0.00000000000E+00 0. -1.
          1    1    1    2  502    0 -0.10343952909E+03 -0.97162026271E+02  0.23362176296E+04  0.23405240884E+04  0.00000000000E+00 0. -1.
         22    1    3    3    0    0  0.27445164231E+02  0.86363808446E+01 -0.44123147522E+02  0.52675195880E+02  0.00000000000E+00 0.  1.
         22    1    3    3    0    0  0.27944218568E+02  0.13775860900E+03  0.45157310760E+02  0.14763975216E+03  0.00000000000E+00 0.  1.
</event>
<event>
 7    1  0.5667373E-006  0.1276167E+03  0.7818608E-02  0.1377064E+00
          2   -1    0    0  502    0  0.00000000000E+00  0.00000000000E+00  0.28041409191E+03  0.28041409191E+03  0.00000000000E+00 0. -1.
          1   -1    0    0  501    0 -0.00000000000E+00 -0.00000000000E+00 -0.20034910897E+04  0.20034910897E+04  0.00000000000E+00 0. -1.
         25    2    1    2    0    0 -0.88413724926E+02  0.11684078647E+03 -0.86145344064E+01  0.19278973701E+03  0.12499966542E+03 0.  0.
          2    1    1    2  501    0  0.55129712714E+02 -0.11468239238E+03 -0.18991662780E+04  0.19034242533E+04  0.00000000000E+00 0. -1.
          1    1    1    2  502    0  0.33284012212E+02 -0.21583940909E+01  0.18470381468E+03  0.18769119130E+03  0.00000000000E+00 0. -1.
         22    1    3    3    0    0  0.31669898964E+02  0.27972237690E+02  0.60306522170E+01  0.42682518060E+02  0.00000000000E+00 0. -1.
         22    1    3    3    0    0 -0.12008362389E+03  0.88868548780E+02 -0.14645186623E+02  0.15010721895E+03  0.00000000000E+00 0. -1.
</event>
<event>
 7    1  0.5667373E-006  0.1017954E+03  0.7818608E-02  0.1304193E+00
          2   -1    0    0  502    0  0.00000000000E+00  0.00000000000E+00  0.12406194162E+04  0.12406194162E+04  0.00000000000E+00 0. -1.
          1   -1    0    0  501    0 -0.00000000000E+00 -0.00000000000E+00 -0.41405789794E+03  0.41405789794E+03  0.00000000000E+00 0. -1.
         25    2    1    2    0    0  0.44534809273E+01 -0.10507375573E+03  0.29141103611E+03  0.33407325642E+03  0.12499688418E+03 0.  0.
          2    1    1    2  501    0 -0.74018569187E+02  0.26440148419E+02 -0.38578147497E+03  0.39370696776E+03  0.00000000000E+00 0. -1.
          1    1    1    2  502    0  0.69565088260E+02  0.78633607316E+02  0.92093195717E+03  0.92689709000E+03  0.00000000000E+00 0. -1.
         22    1    3    3    0    0  0.54145402798E+02 -0.59253712354E+02  0.85144445957E+02  0.11701411773E+03  0.00000000000E+00 0.  1.
         22    1    3    3    0    0 -0.49691921871E+02 -0.45820043381E+02  0.20626659015E+03  0.21705913869E+03  0.00000000000E+00 0.  1.
</event>
<event>
 7    1  0.5667373E-006  0.1367187E+03  0.7818608E-02  0.1291335E+00
          2   -1    0    0  502    0  0.00000000000E+00  0.00000000000E+00  0.59649226305E+03  0.59649226305E+03  0.00000000000E+00 0. -1.
          1   -1    0    0  501    0 -0.00000000000E+00 -0.00000000000E+00 -0.11254510379E+04  0.11254510379E+04  0.00000000000E+00 0. -1.
         25    2    1    2    0    0  0.76154358780E+02 -0.16445902779E+03 -0.89576955205E+02  0.23769070850E+03  0.12500633512E+03 0.  0.
          2    1    1    2  501    0  0.14091809865E+02  0.64389497014E+02 -0.95196938031E+03  0.95424854597E+03  0.00000000000E+00 0. -1.
          1    1    1    2  502    0 -0.90246168645E+02  0.10006953077E+03  0.51258756067E+03  0.53000404649E+03  0.00000000000E+00 0. -1.
         22    1    3    3    0    0  0.92667259059E+02 -0.15017907864E+03 -0.36366958143E+02  0.18017639193E+03  0.00000000000E+00 0. -1.
         22    1    3    3    0    0 -0.16512900279E+02 -0.14279949147E+02 -0.53209997062E+02  0.57514316571E+02  0.00000000000E+00 0. -1.
</event>
<event>
 7    1  0.5667373E-006  0.6731764E+02  0.7818608E-02  0.1403367E+00
          2   -1    0    0  502    0  0.00000000000E+00  0.00000000000E+00  0.29727427753E+03  0.29727427753E+03  0.00000000000E+00 0. -1.
          1   -1    0    0  501    0 -0.00000000000E+00 -0.00000000000E+00 -0.77647921100E+03  0.77647921100E+03  0.00000000000E+00 0. -1.
         25    2    1    2    0    0 -0.10888606471E+03  0.10415912612E+02 -0.39060261554E+02  0.17063349190E+03  0.12500167281E+03 0.  0.
          2    1    1    2  501    0  0.60550433172E+02 -0.27260121397E+02 -0.66713413189E+03  0.67043077130E+03  0.00000000000E+00 0. -1.
          1    1    1    2  502    0  0.48335631534E+02  0.16844208785E+02  0.22698945997E+03  0.23268922533E+03  0.00000000000E+00 0. -1.
         22    1    3    3    0    0 -0.38908200812E+01  0.98238871335E+00 -0.62509989979E+02  0.62638665500E+02  0.00000000000E+00 0.  1.
         22    1    3    3    0    0 -0.10499524462E+03  0.94335238987E+01  0.23449728425E+02  0.10799482640E+03  0.00000000000E+00 0.  1.
</event>
<event>
 7    1  0.5667373E-006  0.1187128E+03  0.7818608E-02  0.1264383E+00
          2   -1    0    0  502    0  0.00000000000E+00  0.00000000000E+00  0.17531472472E+04  0.17531472472E+04  0.00000000000E+00 0. -1.
          1   -1    0    0  501    0 -0.00000000000E+00 -0.00000000000E+00 -0.84739779716E+03  0.84739779716E+03  0.00000000000E+00 0. -1.
         25    2    1    2    0    0  0.94685924404E+02 -0.13261421722E+03  0.13413137442E+03  0.24529247466E+03  0.12500087052E+03 0.  0.
          2    1    1    2  501    0  0.17849047860E+02  0.96556313655E+02 -0.78652713087E+03  0.79263272568E+03  0.00000000000E+00 0. -1.
          1    1    1    2  502    0 -0.11253497226E+03  0.36057903563E+02  0.15581452065E+04  0.15626198440E+04  0.00000000000E+00 0. -1.
         22    1    3    3    0    0  0.51176688587E+02 -0.83382002471E+02  0.21464773466E+01  0.97858158351E+02  0.00000000000E+00 0.  1.
         22    1    3    3    0    0  0.43509235818E+02 -0.49232214748E+02  0.13198489707E+03  0.14743431631E+03  0.00000000000E+00 0.  1.
</event>
<event>
 7    1  0.5667373E-006  0.9898128E+02  0.7818608E-02  0.1396261E+00
          2   -1    0    0  502    0  0.00000000000E+00  0.00000000000E+00  0.11599623818E+03  0.11599623818E+03  0.00000000000E+00 0. -1.
          1   -1    0    0  501    0 -0.00000000000E+00 -0.00000000000E+00 -0.15598599720E+04  0.15598599720E+04  0.00000000000E+00 0. -1.
         25    2    1    2    0    0 -0.59216979625E+02 -0.24019016566E+02 -0.49108699019E+03  0.51075932516E+03  0.12500036991E+03 0.  0.
          2    1    1    2  501    0 -0.35107047986E+02 -0.11125349932E+02 -0.10346748064E+04  0.10353300118E+04  0.00000000000E+00 0. -1.
          1    1    1    2  502    0  0.94324027611E+02  0.35144366498E+02  0.81898062842E+02  0.12976687319E+03  0.00000000000E+00 0. -1.
         22    1    3    3    0    0 -0.66450053549E+02  0.33690634300E+02 -0.35552417208E+03  0.36324661786E+03  0.00000000000E+00 0.  1.
         22    1    3    3    0    0  0.72330739239E+01 -0.57709650866E+02 -0.13556281811E+03  0.14751270730E+03  0.00000000000E+00 0.  1.
</event>
<event>
 7    1  0.5667373E-006  0.6050657E+02  0.7818608E-02  0.1430604E+00
          2   -1    0    0  502    0  0.00000000000E+00  0.00000000000E+00  0.46875757814E+03  0.46875757814E+03  0.00000000000E+00 0. -1.
          1   -1    0    0  501    0 -0.00000000000E+00 -0.00000000000E+00 -0.94438053816E+02  0.94438053816E+02  0.00000000000E+00 0. -1.
         25    2    1    2    0    0 -0.41606328776E+02 -0.80069099822E+02  0.53682908970E+02  0.16324874077E+03  0.12500459714E+03 0.  0.
          2    1    1    2  501    0  0.44614299676E+02  0.34024233555E+02 -0.17424545278E+02  0.58751161544E+02  0.00000000000E+00 0. -1.
          1    1    1    2  502    0 -0.30079709005E+01  0.46044866266E+02  0.33806116063E+03  0.34119572964E+03  0.00000000000E+00 0. -1.
         22    1    3    3    0    0 -0.21980761905E+02 -0.11322038973E+03  0.44676176012E+02  0.12368496775E+03  0.00000000000E+00 0. -1.
         22    1    3    3    0    0 -0.19625566871E+02  0.33151289904E+02  0.90067329584E+01  0.39563773023E+02  0.00000000000E+00 0. -1.
</event>
<event>
 7    1  0.5667373E-006  0.6320845E+02  0.7818608E-02  0.1416317E+00
          2   -1    0    0  502    0  0.00000000000E+00  0.00000000000E+00  0.19002248604E+04  0.19002248604E+04  0.00000000000E+00 0. -1.
          1   -1    0    0  501    0 -0.00000000000E+00 -0.00000000000E+00 -0.11420017400E+03  0.11420017400E+03  0.00000000000E+00 0. -1.
         25    2    1    2    0    0 -0.49403078666E+02 -0.57904493101E+02  0.33576006534E+03  0.36626940578E+03  0.12499944651E+03 0.  0.
          2    1    1    2  501    0  0.62477791007E+02  0.10397271335E+02 -0.88374731508E+02  0.10872750705E+03  0.00000000000E+00 0. -1.
          1    1    1    2  502    0 -0.13074712341E+02  0.47507221765E+02  0.15386393525E+04  0.15394281216E+04  0.00000000000E+00 0. -1.
         22    1    3    3    0    0 -0.15522465300E+02 -0.68909158911E+02  0.74768318153E+02  0.10285776835E+03  0.00000000000E+00 0. -1.
         22    1    3    3    0    0 -0.33880613366E+02  0.11004665811E+02  0.26099174719E+03  0.26341163743E+03  0.00000000000E+00 0. -1.
</event>
<event>
 7    1  0.5667373E-006  0.7660863E+02  0.7818608E-02  0.1374403E+00
          2   -1    0    0  502    0  0.00000000000E+00  0.00000000000E+00  0.40298563686E+04  0.40298563686E+04  0.00000000000E+00 0. -1.
          1   -1    0    0  501    0 -0.00000000000E+00 -0.00000000000E+00 -0.13051706697E+04  0.13051706697E+04  0.00000000000E+00 0. -1.
         25    2    1    2    0    0 -0.30892934707E+01  0.90000836420E+02  0.21622621405E+03  0.26549737527E+03  0.12500154536E+03 0.  0.
          2    1    1    2  501    0  0.49061451089E+02 -0.28599170121E+02 -0.12795170225E+04  0.12807766196E+04  0.00000000000E+00 0. -1.
          1    1    1    2  502    0 -0.45972157618E+02 -0.61401666299E+02  0.37879765073E+04  0.37887530434E+04  0.00000000000E+00 0. -1.
         22    1    3    3    0    0  0.18089747929E+02  0.59267498308E+02  0.19063337816E+02  0.64832755491E+02  0.00000000000E+00 0.  1.
         22    1    3    3    0    0 -0.21179041400E+02  0.30733338112E+02  0.19716287623E+03  0.20066461978E+03  0.00000000000E+00 0.  1.
</event>
<event>
 7    1  0.5667373E-006  0.1009185E+03  0.7818608E-02  0.1457107E+00
          2   -1    0    0  502    0  0.00000000000E+00  0.00000000000E+00  0.55252614415E+03  0.55252614415E+03  0.00000000000E+00 0. -1.
          1   -1    0    0  501    0 -0.00000000000E+00 -0.00000000000E+00 -0.16728243118E+03  0.16728243118E+03  0.00000000000E+00 0. -1.
         25    2    1    2    0    0 -0.91691455352E+02  0.67333152424E+00  0.32656278329E+03  0.36149217882E+03  0.12500227022E+03 0.  0.
          2    1    1    2  501    0  0.99343357207E+02  0.20718389800E+02 -0.13188041480E+03  0.16640552306E+03  0.00000000000E+00 0. -1.
          1    1    1    2  502    0 -0.76519018545E+01 -0.21391721324E+02  0.19056134447E+03  0.19191087345E+03  0.00000000000E+00 0. -1.
         22    1    3    3    0    0 -0.90953652819E+01  0.13048700735E+02 -0.71848817481E+01  0.17453274370E+02  0.00000000000E+00 0.  1.
         22    1    3    3    0    0 -0.82596090071E+02 -0.12375369211E+02  0.33374766504E+03  0.34403890445E+03  0.00000000000E+00 0.  1.
</event>
<event>
 7    1  0.5667373E-006  0.9096024E+02  0.7818608E-02  0.1326394E+00
          2   -1    0    0  502    0  0.00000000000E+00  0.00000000000E+00  0.29501447019E+04  0.29501447019E+04  0.00000000000E+00 0. -1.
          1   -1    0    0  501    0 -0.00000000000E+00 -0.00000000000E+00 -0.81672731034E+02  0.81672731034E+02  0.00000000000E+00 0. -1.
         25    2    1    2    0    0  0.10390296877E+03  0.60441442622E+02  0.29071265455E+03  0.33850934016E+03  0.12500292379E+03 0.  0.
          2    1    1    2  501    0 -0.68254455839E+02  0.23014806494E+02 -0.34224982003E+02  0.79747736349E+02  0.00000000000E+00 0. -1.
          1    1    1    2  502    0 -0.35648512933E+02 -0.83456249116E+02  0.26119842983E+04  0.26135603564E+04  0.00000000000E+00 0. -1.
         22    1    3    3    0    0  0.38870679807E+02  0.97529537253E+00  0.22563927752E+03  0.22896498533E+03  0.00000000000E+00 0.  1.
         22    1    3    3    0    0  0.65032288965E+02  0.59466147250E+02  0.65073377031E+02  0.10954435483E+03  0.00000000000E+00 0.  1.
</event>
<event>
 7    1  0.5667373E-006  0.3733555E+02  0.7818608E-02  0.1593238E+00
          2   -1    0    0  502    0  0.00000000000E+00  0.00000000000E+00  0.92592526777E+03  0.92592526777E+03  0.00000000000E+00 0. -1.
          1   -1    0    0  501    0 -0.00000000000E+00 -0.00000000000E+00 -0.43099572437E+03  0.43099572437E+03  0.00000000000E+00 0. -1.
         25    2    1    2    0    0  0.19619685077E+02  0.10951487881E+02 -0.23340587379E+03  0.26572141478E+03  0.12499880488E+03 0.  0.
          2    1    1    2  501    0 -0.17704474533E+02 -0.35701097047E+02 -0.17907212057E+03  0.18345255821E+03  0.00000000000E+00 0. -1.
          1    1    1    2  502    0 -0.19152105439E+01  0.24749609166E+02  0.90740753776E+03  0.90774701915E+03  0.00000000000E+00 0. -1.
         22    1    3    3    0    0 -0.50453889067E+02  0.23288718900E+02 -0.11119044804E+03  0.12430315799E+03  0.00000000000E+00 0.  1.
         22    1    3    3    0    0  0.70073574145E+02 -0.12337231019E+02 -0.12221542575E+03  0.14141825679E+03  0.00000000000E+00 0.  1.
</event>
<event>
 7    1  0.5667373E-006  0.8659278E+02  0.7818608E-02  0.1376066E+00
          2   -1    0    0  502    0  0.00000000000E+00  0.00000000000E+00  0.75329871194E+03  0.75329871194E+03  0.00000000000E+00 0. -1.
          1   -1    0    0  501    0 -0.00000000000E+00 -0.00000000000E+00 -0.64568953231E+03  0.64568953231E+03  0.00000000000E+00 0. -1.
         25    2    1    2    0    0 -0.12545422086E+03  0.26351796892E+01  0.89012952930E+02  0.19822702376E+03  0.12499976582E+03 0.  0.
          2    1    1    2  501    0  0.44395063695E+02  0.22026583155E+02 -0.58708975093E+03  0.58917778955E+03  0.00000000000E+00 0. -1.
          1    1    1    2  502    0  0.81059157169E+02 -0.24661762844E+02  0.60568597763E+03  0.61158343095E+03  0.00000000000E+00 0. -1.
         22    1    3    3    0    0 -0.32357703685E+02  0.58074319055E+02  0.49535462591E+02  0.82906028584E+02  0.00000000000E+00 0. -1.
         22    1    3    3    0    0 -0.93096517178E+02 -0.55439139366E+02  0.39477490339E+02  0.11532099517E+03  0.00000000000E+00 0. -1.
</event>
<event>
 7    1  0.5667373E-006  0.8351703E+02  0.7818608E-02  0.1450682E+00
          2   -1    0    0  502    0  0.00000000000E+00  0.00000000000E+00  0.68109012029E+03  0.68109012029E+03  0.00000000000E+00 0. -1.
          1   -1    0    0  501    0 -0.00000000000E+00 -0.00000000000E+00 -0.47111816955E+03  0.47111816955E+03  0.00000000000E+00 0. -1.
         25    2    1    2    0    0 -0.25684159279E+01  0.10602721918E+03  0.15824060430E+03  0.22783769145E+03  0.12498622656E+03 0.  0.
          2    1    1    2  501    0  0.13620928268E+02 -0.25348194218E+02 -0.43244130194E+03  0.43339766988E+03  0.00000000000E+00 0. -1.
          1    1    1    2  502    0 -0.11052512340E+02 -0.80679024964E+02  0.48417264838E+03  0.49097292851E+03  0.00000000000E+00 0. -1.
         22    1    3    3    0    0  0.30489474832E+02 -0.10303301516E+02  0.73294785742E+02  0.80049308020E+02  0.00000000000E+00 0.  1.
         22    1    3    3    0    0 -0.33057890760E+02  0.11633052070E+03  0.84945818556E+02  0.14778838343E+03  0.00000000000E+00 0.  1.
</event>
<event>
 7    1  0.5667373E-006  0.1240052E+03  0.7818608E-02  0.1414766E+00
          2   -1    0    0  502    0  0.00000000000E+00  0.00000000000E+00  0.59659483321E+03  0.59659483321E+03  0.00000000000E+00 0. -1.
          1   -1    0    0  501    0 -0.00000000000E+00 -0.00000000000E+00 -0.11199287974E+03  0.11199287974E+03  0.00000000000E+00 0. -1.
         25    2    1    2    0    0 -0.11703541154E+03 -0.46287450206E+02  0.31767636880E+03  0.36384517274E+03  0.12500087530E+03 0.  0.
          2    1    1    2  501    0  0.10378083303E+03  0.67977546679E+02 -0.44494578201E+02  0.13179975586E+03  0.00000000000E+00 0. -1.
          1    1    1    2  502    0  0.13254578516E+02 -0.21690096473E+02  0.21142016287E+03  0.21294278434E+03  0.00000000000E+00 0. -1.
         22    1    3    3    0    0  0.13856920667E+02  0.44841926906E+00  0.12772990291E+03  0.12848012854E+03  0.00000000000E+00 0. -1.
         22    1    3    3    0    0 -0.13089233221E+03 -0.46735869475E+02  0.18994646589E+03  0.23536504420E+03  0.00000000000E+00 0. -1.
</event>
<event>
 7    1  0.5667373E-006  0.6494022E+02  0.7818608E-02  0.1533076E+00
          2   -1    0    0  502    0  0.00000000000E+00  0.00000000000E+00  0.96962804603E+02  0.96962804603E+02  0.00000000000E+00 0. -1.
          1   -1    0    0  501    0 -0.00000000000E+00 -0.00000000000E+00 -0.93213526844E+03  0.93213526844E+03  0.00000000000E+00 0. -1.
         25    2    1    2    0    0  0.45146771372E+02  0.59700752273E+02 -0.23724750835E+03  0.27841283448E+03  0.12499966160E+03 0.  0.
          2    1    1    2  501    0 -0.50751547097E+02 -0.39600500717E+02 -0.67131086959E+03  0.67439024519E+03  0.00000000000E+00 0. -1.
          1    1    1    2  502    0  0.56047757255E+01 -0.20100251555E+02  0.73385914102E+02  0.76294993362E+02  0.00000000000E+00 0. -1.
         22    1    3    3    0    0  0.12478471823E+02 -0.15914667563E+02  0.64050608952E+01  0.21213526528E+02  0.00000000000E+00 0. -1.
         22    1    3    3    0    0  0.32668299549E+02  0.75615419836E+02 -0.24365256925E+03  0.25719930796E+03  0.00000000000E+00 0. -1.
</event>
<event>
 7    1  0.5667373E-006  0.1849804E+03  0.7818608E-02  0.1304781E+00
          2   -1    0    0  502    0  0.00000000000E+00  0.00000000000E+00  0.89788436025E+03  0.89788436025E+03  0.00000000000E+00 0. -1.
          1   -1    0    0  501    0 -0.00000000000E+00 -0.00000000000E+00 -0.11494102830E+04  0.11494102830E+04  0.00000000000E+00 0. -1.
         25    2    1    2    0    0  0.19385801547E+03  0.61546540021E+02 -0.29031698717E+03  0.37586961984E+03  0.12500044531E+03 0.  0.
          2    1    1    2  501    0 -0.32558776661E+02  0.28120232899E+02 -0.80577937170E+03  0.80692702105E+03  0.00000000000E+00 0. -1.
          1    1    1    2  502    0 -0.16129923881E+03 -0.89666772921E+02  0.84457043610E+03  0.86449800239E+03  0.00000000000E+00 0. -1.
         22    1    3    3    0    0  0.60835210529E+02 -0.36286019529E+02 -0.62248642322E+02  0.94300008082E+02  0.00000000000E+00 0.  1.
         22    1    3    3    0    0  0.13302280494E+03  0.97832559551E+02 -0.22806834485E+03  0.28156961175E+03  0.00000000000E+00 0.  1.
</event>
<event>
 7    1  0.5667373E-006  0.8669792E+02  0.7818608E-02  0.1400489E+00
          2   -1    0    0  502    0  0.00000000000E+00  0.00000000000E+00  0.20284571287E+04  0.20284571287E+04  0.00000000000E+00 0. -1.
          1   -1    0    0  501    0 -0.00000000000E+00 -0.00000000000E+00 -0.20344888161E+03  0.20344888161E+03  0.00000000000E+00 0. -1.
         25    2    1    2    0    0  0.48734188224E+02 -0.58158903395E+02  0.27844776015E+03  0.31450996813E+03  0.12500354306E+03 0.  0.
          2    1    1    2  501    0 -0.29806730212E+02 -0.27651989532E+02 -0.18205939952E+03  0.18654409303E+03  0.00000000000E+00 0. -1.
          1    1    1    2  502    0 -0.18927458013E+02  0.85810892926E+02  0.17286198865E+04  0.17308519492E+04  0.00000000000E+00 0. -1.
         22    1    3    3    0    0 -0.25443007283E+02 -0.66785379289E+02  0.14155143529E+03  0.15856999193E+03  0.00000000000E+00 0. -1.
         22    1    3    3    0    0  0.74177195508E+02  0.86264758946E+01  0.13689632485E+03  0.15593997620E+03  0.00000000000E+00 0. -1.
</event>
<event>
 7    1  0.5667373E-006  0.8565224E+02  0.7818608E-02  0.1462870E+00
          2   -1    0    0  502    0  0.00000000000E+00  0.00000000000E+00  0.19249331087E+04  0.19249331087E+04  0.00000000000E+00 0. -1.
          1   -1    0    0  501    0 -0.00000000000E+00 -0.00000000000E+00 -0.70763757265E+02  0.70763757265E+02  0.00000000000E+00 0. -1.
         25    2    1    2    0    0 -0.51983124017E+02 -0.36556071582E+02  0.87719071426E+03  0.88832801718E+03  0.12499810151E+03 0.  0.
          2    1    1    2  501    0  0.77616373843E+02  0.37946595077E+02 -0.36338279149E+02  0.93726816323E+02  0.00000000000E+00 0. -1.
          1    1    1    2  502    0 -0.25633249826E+02 -0.13905234959E+01  0.10133169164E+04  0.10136420325E+04  0.00000000000E+00 0. -1.
         22    1    3    3    0    0  0.92839835083E+01 -0.67911013929E+02  0.52695335901E+03  0.53139245453E+03  0.00000000000E+00 0. -1.
         22    1    3    3    0    0 -0.61267107526E+02  0.31354942348E+02  0.35023735525E+03  0.35693556265E+03  0.00000000000E+00 0. -1.
</event>
<event>
 7    1  0.5667373E-006  0.1053590E+03  0.7818608E-02  0.1379872E+00
          2   -1    0    0  502    0  0.00000000000E+00  0.00000000000E+00  0.31006143845E+04  0.31006143845E+04  0.00000000000E+00 0. -1.
          1   -1    0    0  501    0 -0.00000000000E+00 -0.00000000000E+00 -0.31603782825E+02  0.31603782825E+02  0.00000000000E+00 0. -1.
         25    2    1    2    0    0  0.55943497886E+02 -0.84264579107E+02  0.11721836353E+04  0.11831608598E+04  0.12499980455E+03 0.  0.
          2    1    1    2  501    0 -0.33179726180E+02 -0.21401439156E+02 -0.87303622558E+01  0.40436803193E+02  0.00000000000E+00 0. -1.
          1    1    1    2  502    0 -0.22763771706E+02  0.10566601826E+03  0.19055573286E+04  0.19086205043E+04  0.00000000000E+00 0. -1.
         22    1    3    3    0    0  0.35335372785E+02 -0.51258198099E+02  0.18469179422E+03  0.19490266877E+03  0.00000000000E+00 0.  1.
         22    1    3    3    0    0  0.20608125101E+02 -0.33006381009E+02  0.98749184108E+03  0.98825819107E+03  0.00000000000E+00 0.  1.
</event>
<event>
 7    1  0.5667373E-006  0.5164205E+03  0.7818608E-02  0.1136518E+00
          2   -1    0    0  502    0  0.00000000000E+00  0.00000000000E+00  0.24150831653E+04  0.24150831653E+04  0.00000000000E+00 0. -1.
          1   -1    0    0  501    0 -0.00000000000E+00 -0.00000000000E+00 -0.80480895562E+03  0.80480895562E+03  0.00000000000E+00 0. -1.
         25    2    1    2    0    0  0.10885461988E+03  0.47332085407E+03 -0.89406310783E+01  0.50158429489E+03  0.12499964332E+03 0.  0.
          2    1    1    2  501    0 -0.40549845572E+02 -0.53309373040E+03 -0.41826523260E+03  0.67880705666E+03  0.00000000000E+00 0. -1.
          1    1    1    2  502    0 -0.68304774311E+02  0.59772876330E+02  0.20374800733E+04  0.20395007694E+04  0.00000000000E+00 0. -1.
         22    1    3    3    0    0  0.25576405123E+02  0.31048832180E+03  0.34963703856E+02  0.31349579113E+03  0.00000000000E+00 0. -1.
         22    1    3    3    0    0  0.83278214760E+02  0.16283253227E+03 -0.43904334934E+02  0.18808850376E+03  0.00000000000E+00 0. -1.
</event>
<event>
 7    1  0.5667373E-006  0.1798929E+03  0.7818608E-02  0.1359024E+00
          2   -1    0    0  502    0  0.00000000000E+00  0.00000000000E+00  0.10784200567E+04  0.10784200567E+04  0.00000000000E+00 0. -1.
          1   -1    0    0  501    0 -0.00000000000E+00 -0.00000000000E+00 -0.74825715662E+03  0.74825715662E+03  0.00000000000E+00 0. -1.
         25    2    1    2    0    0  0.19113037084E+03 -0.33680521247E+02  0.18545314497E+03  0.29611255354E+03  0.12499831684E+03 0.  0.
          2    1    1    2  501    0 -0.21042270693E+02 -0.17680958461E+02 -0.68322631944E+03  0.68377890946E+03  0.00000000000E+00 0. -1.
          1    1    1    2  502    0 -0.17008810015E+03  0.51361479708E+02  0.82793607458E+03  0.84678575036E+03  0.00000000000E+00 0. -1.
         22    1    3    3    0    0  0.46011758343E+02  0.29948982613E+02  0.10480639106E+03  0.11831484722E+03  0.00000000000E+00 0.  1.
         22    1    3    3    0    0  0.14511861250E+03 -0.63629503860E+02  0.80646753905E+02  0.17779770632E+03  0.00000000000E+00 0.  1.
</event>
<event>
 7    1  0.5667373E-006  0.1028783E+03  0.7818608E-02  0.1441722E+00
          2   -1    0    0  502    0  0.00000000000E+00  0.00000000000E+00  0.11536927450E+03  0.11536927450E+03  0.00000000000E+00 0. -1.
          1   -1    0    0  501    0 -0.00000000000E+00 -0.00000000000E+00 -0.36055931115E+03  0.36055931115E+03  0.00000000000E+00 0. -1.
         25    2    1    2    0    0  0.86619716686E+02 -0.72306399448E+02 -0.13359979337E+03  0.21495470748E+03  0.12500172302E+03 0.  0.
          2    1    1    2  501    0 -0.62383437911E+02  0.78287523805E+02 -0.17009549951E+03  0.19736541911E+03  0.00000000000E+00 0. -1.
          1    1    1    2  502    0 -0.24236278775E+02 -0.59811243577E+01  0.58505256230E+02  0.63608459060E+02  0.00000000000E+00 0. -1.
         22    1    3    3    0    0  0.11697625826E+03 -0.71133914242E+02 -0.99245964183E+02  0.16909535818E+03  0.00000000000E+00 0. -1.
         22    1    3    3    0    0 -0.30356541575E+02 -0.11724852053E+01 -0.34353829191E+02  0.45859349298E+02  0.00000000000E+00 0. -1.
</event>
<event>
 7    1  0.5667373E-006  0.4977246E+02  0.7818608E-02  0.1497309E+00
          2   -1    0    0  502    0  0.00000000000E+00  0.00000000000E+00  0.29960833193E+04  0.29960833193E+04  0.00000000000E+00 0. -1.
          1   -1    0    0  501    0 -0.00000000000E+00 -0.00000000000E+00 -0.85826048064E+02  0.85826048064E+02  0.00000000000E+00 0. -1.
         25    2    1    2    0    0  0.37183942792E+02 -0.75292611854E+02  0.26709676028E+03  0.30662348883E+03  0.12500264616E+03 0.  0.
          2    1    1    2  501    0 -0.16551498208E+02  0.30426630442E+02 -0.61281600679E+02  0.70392943644E+02  0.00000000000E+00 0. -1.
          1    1    1    2  502    0 -0.20632444584E+02  0.44865981412E+02  0.27044421117E+04  0.27048929349E+04  0.00000000000E+00 0. -1.
         22    1    3    3    0    0  0.33559406344E+02 -0.96318748822E+02  0.26641909267E+03  0.28527647654E+03  0.00000000000E+00 0.  1.
         22    1    3    3    0    0  0.36245364482E+01  0.21026136968E+02  0.67766761534E+00  0.21347012289E+02  0.00000000000E+00 0.  1.
</event>
<event>
 7    1  0.5667373E-006  0.7321132E+02  0.7818608E-02  0.1426112E+00
          2   -1    0    0  502    0  0.00000000000E+00  0.00000000000E+00  0.13470019934E+04  0.13470019934E+04  0.00000000000E+00 0. -1.
          1   -1    0    0  501    0 -0.00000000000E+00 -0.00000000000E+00 -0.46859542337E+03  0.46859542337E+03  0.00000000000E+00 0. -1.
         25    2    1    2    0    0 -0.95972725046E+02  0.19018792970E+01  0.57736559986E+02  0.16784481301E+03  0.12499595912E+03 0.  0.
          2    1    1    2  501    0  0.28961527638E+02  0.26801029847E+02 -0.41152024648E+03  0.41340776304E+03  0.00000000000E+00 0. -1.
          1    1    1    2  502    0  0.67011197407E+02 -0.28702909144E+02  0.12321902565E+04  0.12343448407E+04  0.00000000000E+00 0. -1.
         22    1    3    3    0    0 -0.51377869659E+02  0.10370565399E+02 -0.36074749293E+02  0.63628780076E+02  0.00000000000E+00 0. -1.
         22    1    3    3    0    0 -0.44594855386E+02 -0.84686861020E+01  0.93811309279E+02  0.10421603293E+03  0.00000000000E+00 0. -1.
</event>
<event>
 7    1  0.5667373E-006  0.1044853E+03  0.7818608E-02  0.1323950E+00
          2   -1    0    0  502    0  0.00000000000E+00  0.00000000000E+00  0.64870220206E+03  0.64870220206E+03  0.00000000000E+00 0. -1.
          1   -1    0    0  501    0 -0.00000000000E+00 -0.00000000000E+00 -0.16173101368E+03  0.16173101368E+03  0.00000000000E+00 0. -1.
         25    2    1    2    0    0  0.38435604497E+02  0.59789609374E+02  0.19832888489E+03  0.24497602135E+03  0.12500724529E+03 0.  0.
          2    1    1    2  501    0  0.64078528239E+02  0.34579374868E+00 -0.12208489334E+03  0.13788001500E+03  0.00000000000E+00 0. -1.
          1    1    1    2  502    0 -0.10251413274E+03 -0.60135403123E+02  0.41072719682E+03  0.42757717938E+03  0.00000000000E+00 0. -1.
         22    1    3    3    0    0  0.44827843829E+02 -0.27106408019E+02  0.10471718083E+03  0.11708962763E+03  0.00000000000E+00 0.  1.
         22    1    3    3    0    0 -0.63922393320E+01  0.86896017393E+02  0.93611704055E+02  0.12788639372E+03  0.00000000000E+00 0.  1.
</event>
<event>
 7    1  0.5667373E-006  0.7105404E+02  0.7818608E-02  0.1377549E+00
          2   -1    0    0  502    0  0.00000000000E+00  0.00000000000E+00  0.16683389905E+04  0.16683389905E+04  0.00000000000E+00 0. -1.
          1   -1    0    0  501    0 -0.00000000000E+00 -0.00000000000E+00 -0.10449194666E+04  0.10449194666E+04  0.00000000000E+00 0. -1.
         25    2    1    2    0    0  0.35792873160E+02 -0.73136362878E+02  0.12008941928E+03  0.19150959922E+03  0.12499760248E+03 0.  0.
          2    1    1    2  501    0 -0.59386933137E+02  0.57810379577E+01 -0.10074843478E+04  0.10092496913E+04  0.00000000000E+00 0. -1.
          1    1    1    2  502    0  0.23594059977E+02  0.67355324921E+02  0.15108144524E+04  0.15124991666E+04  0.00000000000E+00 0. -1.
         22    1    3    3    0    0 -0.21000112432E+02  0.24378761099E+02  0.96014965343E+01  0.33578526629E+02  0.00000000000E+00 0.  1.
         22    1    3    3    0    0  0.56792985592E+02 -0.97515123977E+02  0.11048792274E+03  0.15793107259E+03  0.00000000000E+00 0.  1.
</event>
<event>
 7    1  0.5667373E-006  0.5201416E+02  0.7818608E-02  0.1451193E+00
          2   -1    0    0  502    0  0.00000000000E+00  0.00000000000E+00  0.14126925753E+04  0.14126925753E+04  0.00000000000E+00 0. -1.
          1   -1    0    0  501    0 -0.00000000000E+00 -0.00000000000E+00 -0.52905113099E+03  0.52905113099E+03  0.00000000000E+00 0. -1.
         25    2    1    2    0    0 -0.55460255833E+01 -0.14325534822E+02  0.62638674966E+03  0.63892114961E+03  0.12499558361E+03 0.  0.
          2    1    1    2  501    0  0.13677244641E+02 -0.43951919571E+02 -0.52065739715E+03  0.52268820865E+03  0.00000000000E+00 0. -1.
          1    1    1    2  502    0 -0.81312190579E+01  0.58277454393E+02  0.77791209176E+03  0.78013434800E+03  0.00000000000E+00 0. -1.
         22    1    3    3    0    0  0.81578731952E+01 -0.59341720568E+02  0.50809557595E+03  0.51161421500E+03  0.00000000000E+00 0.  1.
         22    1    3    3    0    0 -0.13703898778E+02  0.45016185745E+02  0.11829117371E+03  0.12730693460E+03  0.00000000000E+00 0.  1.
</event>
<event>
 7    1  0.5667373E-006  0.9723961E+02  0.7818608E-02  0.1356885E+00
          2   -1    0    0  502    0  0.00000000000E+00  0.00000000000E+00  0.20273312293E+04  0.20273312293E+04  0.00000000000E+00 0. -1.
          1   -1    0    0  501    0 -0.00000000000E+00 -0.00000000000E+00 -0.14021023852E+03  0.14021023852E+03  0.00000000000E+00 0. -1.
         25    2    1    2    0    0 -0.55169120599E+02 -0.81697337580E+02  0.18164591091E+03  0.24153313390E+03  0.12499972394E+03 0.  0.
          2    1    1    2  501    0  0.49273669361E+02 -0.15885459592E+02 -0.10279590340E+03  0.11509665536E+03  0.00000000000E+00 0. -1.
          1    1    1    2  502    0  0.58954512374E+01  0.97582797172E+02  0.18082709833E+04  0.18109116786E+04  0.00000000000E+00 0. -1.
         22    1    3    3    0    0 -0.49046121046E+02 -0.33335339199E+02  0.18340418253E+03  0.19275336832E+03  0.00000000000E+00 0. -1.
         22    1    3    3    0    0 -0.61229995528E+01 -0.48361998381E+02 -0.17582716190E+01  0.48779765579E+02  0.00000000000E+00 0. -1.
</event>
<event>
 7    1  0.5667373E-006  0.1438813E+03  0.7818608E-02  0.1234893E+00
          2   -1    0    0  502    0  0.00000000000E+00  0.00000000000E+00  0.76414504392E+03  0.76414504392E+03  0.00000000000E+00 0. -1.
          1   -1    0    0  501    0 -0.00000000000E+00 -0.00000000000E+00 -0.29082978732E+04  0.29082978732E+04  0.00000000000E+00 0. -1.
         25    2    1    2    0    0  0.17210887466E+02  0.10635776163E+03 -0.21005609621E+03  0.26712714918E+03  0.12500064866E+03 0.  0.
          2    1    1    2  501    0 -0.12350142710E+03 -0.83159661979E+02 -0.26635933552E+04  0.26677514303E+04  0.00000000000E+00 0. -1.
          1    1    1    2  502    0  0.10629053963E+03 -0.23198099649E+02  0.72949662208E+03  0.73756433772E+03  0.00000000000E+00 0. -1.
         22    1    3    3    0    0  0.36854255364E+02 -0.10581448540E+02 -0.20345008805E+02  0.43406480794E+02  0.00000000000E+00 0.  1.
         22    1    3    3    0    0 -0.19643367898E+02  0.11693921017E+03 -0.18971108741E+03  0.22372066838E+03  0.00000000000E+00 0.  1.
</event>
<event>
 7    1  0.5667373E-006  0.5629170E+02  0.7818608E-02  0.1466125E+00
          2   -1    0    0  502    0  0.00000000000E+00  0.00000000000E+00  0.51855173430E+03  0.51855173430E+03  0.00000000000E+00 0. -1.
          1   -1    0    0  501    0 -0.00000000000E+00 -0.00000000000E+00 -0.93868596616E+03  0.93868596616E+03  0.00000000000E+00 0. -1.
         25    2    1    2    0    0  0.77355545771E+02  0.36265589845E+02 -0.12632125748E+03  0.19718407612E+03  0.12500170525E+03 0.  0.
          2    1    1    2  501    0 -0.37980687545E+02  0.36257832177E+01 -0.77483659548E+03  0.77577537253E+03  0.00000000000E+00 0. -1.
          1    1    1    2  502    0 -0.39374858225E+02 -0.39891373063E+02  0.48102362111E+03  0.48427825180E+03  0.00000000000E+00 0. -1.
         22    1    3    3    0    0 -0.17498527278E+02 -0.28770009916E+02 -0.14132343733E+02  0.36518968590E+02  0.00000000000E+00 0.  1.
         22    1    3    3    0    0  0.94854073048E+02  0.65035599761E+02 -0.11218891375E+03  0.16066510753E+03  0.00000000000E+00 0.  1.
</event>
<event>
 7    1  0.5667373E-006  0.8644420E+02  0.7818608E-02  0.1354382E+00
          2   -1    0    0  502    0  0.00000000000E+00  0.00000000000E+00  0.69941895833E+03  0.69941895833E+03  0.00000000000E+00 0. -1.
          1   -1    0    0  501    0 -0.00000000000E+00 -0.00000000000E+00 -0.18919836435E+03  0.18919836435E+03  0.00000000000E+00 0. -1.
         25    2    1    2    0    0 -0.70727840186E+02  0.21277273487E+02  0.18448457571E+03  0.23476317610E+03  0.12499616167E+03 0.  0.
          2    1    1    2  501    0  0.45887157342E+02 -0.75324525911E+02 -0.15021791425E+03  0.17419769566E+03  0.00000000000E+00 0. -1.
          1    1    1    2  502    0  0.24840682844E+02  0.54047252423E+02  0.47595393252E+03  0.47965645091E+03  0.00000000000E+00 0. -1.
         22    1    3    3    0    0 -0.68752333481E+02  0.68087956887E+02  0.13978768623E+03  0.17001014809E+03  0.00000000000E+00 0.  1.
         22    1    3    3    0    0 -0.19755067046E+01 -0.46810683400E+02  0.44696889483E+02  0.64753028010E+02  0.00000000000E+00 0.  1.
</event>
<event>
 7    1  0.5667373E-006  0.3523598E+02  0.7818608E-02  0.1551840E+00
          2   -1    0    0  502    0  0.00000000000E+00  0.00000000000E+00  0.29602270209E+03  0.29602270209E+03  0.00000000000E+00 0. -1.
          1   -1    0    0  501    0 -0.00000000000E+00 -0.00000000000E+00 -0.15030420040E+04  0.15030420040E+04  0.00000000000E+00 0. -1.
         25    2    1    2    0    0  0.66226092791E+02  0.94290230263E+01  0.42247762235E+01  0.14185333387E+03  0.12501886959E+03 0.  0.
          2    1    1    2  501    0 -0.33911063209E+02  0.30720391167E+01 -0.14326782256E+04  0.14330827944E+04  0.00000000000E+00 0. -1.
          1    1    1    2  502    0 -0.32315029583E+02 -0.12501062143E+02  0.22143414749E+03  0.22412857775E+03  0.00000000000E+00 0. -1.
         22    1    3    3    0    0  0.10893577895E+02 -0.33044159594E+02 -0.44704894478E+02  0.56649043354E+02  0.00000000000E+00 0. -1.
         22    1    3    3    0    0  0.55332514897E+02  0.42473182620E+02  0.48929670702E+02  0.85204290512E+02  0.00000000000E+00 0. -1.
</event>
<event>
 7    1  0.5667373E-006  0.4090116E+02  0.7818608E-02  0.1540427E+00
          2   -1    0    0  502    0  0.00000000000E+00  0.00000000000E+00  0.53506717369E+03  0.53506717369E+03  0.00000000000E+00 0. -1.
          1   -1    0    0  501    0 -0.00000000000E+00 -0.00000000000E+00 -0.14954948322E+04  0.14954948322E+04  0.00000000000E+00 0. -1.
         25    2    1    2    0    0  0.48341953567E+02  0.33256920337E+02 -0.31695402423E+03  0.34572691068E+03  0.12499710421E+03 0.  0.
          2    1    1    2  501    0 -0.31333080177E+02  0.39146348559E+01 -0.11631374365E+04  0.11635659769E+04  0.00000000000E+00 0. -1.
          1    1    1    2  502    0 -0.17008873390E+02 -0.37171555193E+02  0.51966380229E+03  0.52126911831E+03  0.00000000000E+00 0. -1.
         22    1    3    3    0    0 -0.13602361897E+02  0.18168295597E+02 -0.27902273869E+00  0.22697776714E+02  0.00000000000E+00 0.  1.
         22    1    3    3    0    0  0.61944315464E+02  0.15088624740E+02 -0.31667500150E+03  0.32302913396E+03  0.00000000000E+00 0.  1.
</event>
<event>
 7    1  0.5667373E-006  0.8239637E+02  0.7818608E-02  0.1359642E+00
          2   -1    0    0  502    0  0.00000000000E+00  0.00000000000E+00  0.37739663243E+03  0.37739663243E+03  0.00000000000E+00 0. -1.
          1   -1    0    0  501    0 -0.00000000000E+00 -0.00000000000E+00 -0.26199388012E+03  0.26199388012E+03  0.00000000000E+00 0. -1.
         25    2    1    2    0    0  0.12938524939E+03 -0.36214437801E+02 -0.22575086102E+02  0.18489716873E+03  0.12500120090E+03 0.  0.
          2    1    1    2  501    0 -0.69915699013E+02  0.31038541163E+02 -0.14572280556E+03  0.16458047292E+03  0.00000000000E+00 0. -1.
          1    1    1    2  502    0 -0.59469550376E+02  0.51758966385E+01  0.28370064398E+03  0.28991287091E+03  0.00000000000E+00 0. -1.
         22    1    3    3    0    0  0.12967099049E+03  0.42229856276E+01 -0.46606467439E+02  0.13785703532E+03  0.00000000000E+00 0. -1.
         22    1    3    3    0    0 -0.28574109690E+00 -0.40437423429E+02  0.24031381336E+02  0.47040133402E+02  0.00000000000E+00 0. -1.
</event>
<event>
 7    1  0.5667373E-006  0.7334916E+02  0.7818608E-02  0.1411659E+00
          2   -1    0    0  502    0  0.00000000000E+00  0.00000000000E+00  0.59035993529E+03  0.59035993529E+03  0.00000000000E+00 0. -1.
          1   -1    0    0  501    0 -0.00000000000E+00 -0.00000000000E+00 -0.54816401930E+03  0.54816401930E+03  0.00000000000E+00 0. -1.
         25    2    1    2    0    0  0.20770381766E+02 -0.10643066841E+03  0.22325294823E+03  0.27789224414E+03  0.12499329792E+03 0.  0.
          2    1    1    2  501    0  0.74655968379E+01  0.72654388617E+02 -0.51684000479E+03  0.52197508166E+03  0.00000000000E+00 0. -1.
          1    1    1    2  502    0 -0.28235978604E+02  0.33776279795E+02  0.33578297256E+03  0.33865662879E+03  0.00000000000E+00 0. -1.
         22    1    3    3    0    0 -0.31541065877E+02 -0.10862633797E+03  0.15365048577E+03  0.19079568107E+03  0.00000000000E+00 0. -1.
         22    1    3    3    0    0  0.52311447643E+02  0.21956695525E+01  0.69602462452E+02  0.87096563070E+02  0.00000000000E+00 0. -1.
</event>
<event>
 7    1  0.5667373E-006  0.1055918E+03  0.7818608E-02  0.1420304E+00
          2   -1    0    0  502    0  0.00000000000E+00  0.00000000000E+00  0.30927048973E+03  0.30927048973E+03  0.00000000000E+00 0. -1.
          1   -1    0    0  501    0 -0.00000000000E+00 -0.00000000000E+00 -0.13858036561E+03  0.13858036561E+03  0.00000000000E+00 0. -1.
         25    2    1    2    0    0 -0.43037697735E+02  0.11353981721E+03  0.11166928499E+03  0.20697555609E+03  0.12500127236E+03 0.  0.
          2    1    1    2  501    0  0.24410307515E+02 -0.14908498380E+02 -0.71042368758E+02  0.76584232031E+02  0.00000000000E+00 0. -1.
          1    1    1    2  502    0  0.18627390220E+02 -0.98631318830E+02  0.13006320789E+03  0.16429106722E+03  0.00000000000E+00 0. -1.
         22    1    3    3    0    0  0.27468498012E+02 -0.92654083517E+01  0.43865873483E+01  0.29319077808E+02  0.00000000000E+00 0. -1.
         22    1    3    3    0    0 -0.70506195747E+02  0.12280522556E+03  0.10728269764E+03  0.17765647828E+03  0.00000000000E+00 0. -1.
</event>
<event>
 7    1  0.5667373E-006  0.2327125E+03  0.7818608E-02  0.1230662E+00
          2   -1    0    0  502    0  0.00000000000E+00  0.00000000000E+00  0.85207898688E+03  0.85207898688E+03  0.00000000000E+00 0. -1.
          1   -1    0    0  501    0 -0.00000000000E+00 -0.00000000000E+00 -0.15170227679E+04  0.15170227679E+04  0.00000000000E+00 0. -1.
         25    2    1    2    0    0  0.16768170965E+03  0.47152400325E+02  0.14362003873E+03  0.25805536789E+03  0.12500141105E+03 0.  0.
          2    1    1    2  501    0 -0.23428905709E+03 -0.24814241569E+02 -0.14483638891E+04  0.14674007851E+04  0.00000000000E+00 0. -1.
          1    1    1    2  502    0  0.66607347442E+02 -0.22338158756E+02  0.63980006931E+03  0.64364560184E+03  0.00000000000E+00 0. -1.
         22    1    3    3    0    0  0.15071627775E+03  0.38478507496E+02  0.16678277319E+03  0.22806245932E+03  0.00000000000E+00 0.  1.
         22    1    3    3    0    0  0.16965431905E+02  0.86738928289E+01 -0.23162734466E+02  0.29992908569E+02  0.00000000000E+00 0.  1.
</event>
<event>
 7    1  0.6806593E-006  0.8683522E+02  0.7818608E-02  0.1420067E+00
          2   -1    0    0  502    0  0.00000000000E+00  0.00000000000E+00  0.75464327162E+03  0.75464327162E+03  0.00000000000E+00 0. -1.
          1   -1    0    0  501    0 -0.00000000000E+00 -0.00000000000E+00 -0.83837537594E+03  0.83837537594E+03  0.00000000000E+00 0. -1.
         25    2    1    2    0    0  0.11446125013E+02 -0.10358385672E+03 -0.21951026281E+03  0.27325968101E+03  0.12500187453E+03 0.  0.
          2    1    1    2  501    0  0.24567784087E+02  0.24709715147E+02 -0.58889099099E+03  0.58992096530E+03  0.00000000000E+00 0. -1.
          1    1    1    2  502    0 -0.36013909100E+02  0.78874141574E+02  0.72466914948E+03  0.72983800125E+03  0.00000000000E+00 0. -1.
         22    1    3    3    0    0 -0.73159189480E+01 -0.12876808290E+03 -0.15602598400E+03  0.20243233320E+03  0.00000000000E+00 0.  1.
         22    1    3    3    0    0  0.18762043961E+02  0.25184226175E+02 -0.63484278812E+02  0.70827347811E+02  0.00000000000E+00 0.  1.
</event>
<event>
 7    1  0.5667373E-006  0.1466099E+03  0.7818608E-02  0.1335734E+00
          2   -1    0    0  502    0  0.00000000000E+00  0.00000000000E+00  0.14824010221E+03  0.14824010221E+03  0.00000000000E+00 0. -1.
          1   -1    0    0  501    0 -0.00000000000E+00 -0.00000000000E+00 -0.42103449602E+03  0.42103449602E+03  0.00000000000E+00 0. -1.
         25    2    1    2    0    0 -0.12509399783E+03  0.30335643151E+02 -0.77303016679E+02  0.19538189274E+03  0.12501827100E+03 0.  0.
          2    1    1    2  501    0 -0.31765855845E+02 -0.26189579614E+02 -0.21213938969E+03  0.21609739549E+03  0.00000000000E+00 0. -1.
          1    1    1    2  502    0  0.15685985367E+03 -0.41460635368E+01  0.16648012560E+02  0.15779531001E+03  0.00000000000E+00 0. -1.
         22    1    3    3    0    0 -0.23514263282E+02 -0.36624338449E+02 -0.57503753258E+02  0.72117573332E+02  0.00000000000E+00 0.  1.
         22    1    3    3    0    0 -0.10157973455E+03  0.66959981600E+02 -0.19799263421E+02  0.12326431941E+03  0.00000000000E+00 0.  1.
</event>
<event>
 7    1  0.5667373E-006  0.1262267E+03  0.7818608E-02  0.1262545E+00
          2   -1    0    0  502    0  0.00000000000E+00  0.00000000000E+00  0.22598702077E+03  0.22598702077E+03  0.00000000000E+00 0. -1.
          1   -1    0    0  501    0 -0.00000000000E+00 -0.00000000000E+00 -0.14434870333E+04  0.14434870333E+04  0.00000000000E+00 0. -1.
         25    2    1    2    0    0 -0.54933168987E+01  0.13750175844E+03 -0.49345655606E+02  0.19236275403E+03  0.12502609849E+03 0.  0.
          2    1    1    2  501    0 -0.80154753605E+02 -0.98715776555E+02 -0.13049442370E+04  0.13111251088E+04  0.00000000000E+00 0. -1.
          1    1    1    2  502    0  0.85648070504E+02 -0.38785981884E+02  0.13678988015E+03  0.16598619124E+03  0.00000000000E+00 0. -1.
         22    1    3    3    0    0  0.48862611537E+01  0.13720148695E+03 -0.80757341760E+02  0.15927922594E+03  0.00000000000E+00 0. -1.
         22    1    3    3    0    0 -0.10379578052E+02  0.30027149336E+00  0.31411686154E+02  0.33083528085E+02  0.00000000000E+00 0. -1.
</event>
<event>
 7    1  0.5667373E-006  0.1302115E+03  0.7818608E-02  0.1258920E+00
          2   -1    0    0  502    0  0.00000000000E+00  0.00000000000E+00  0.26500616275E+04  0.26500616275E+04  0.00000000000E+00 0. -1.
          1   -1    0    0  501    0 -0.00000000000E+00 -0.00000000000E+00 -0.43275808325E+02  0.43275808325E+02  0.00000000000E+00 0. -1.
         25    2    1    2    0    0 -0.35388136773E+02 -0.49841484477E+02  0.84389385747E+03  0.85528841194E+03  0.12499972454E+03 0.  0.
          2    1    1    2  501    0  0.12916018466E+03  0.61095392219E+02  0.10461701475E+03  0.17708675848E+03  0.00000000000E+00 0. -1.
          1    1    1    2  502    0 -0.93772047885E+02 -0.11253907742E+02  0.16582749469E+04  0.16609622654E+04  0.00000000000E+00 0. -1.
         22    1    3    3    0    0  0.25234879807E+01 -0.67225622732E+02  0.22130263449E+03  0.23130176907E+03  0.00000000000E+00 0.  1.
         22    1    3    3    0    0 -0.37911624754E+02  0.17384138255E+02  0.62259122298E+03  0.62398664288E+03  0.00000000000E+00 0.  1.
</event>
<event>
 7    1  0.5667373E-006  0.1771974E+03  0.7818608E-02  0.1240758E+00
          2   -1    0    0  502    0  0.00000000000E+00  0.00000000000E+00  0.56352938507E+03  0.56352938507E+03  0.00000000000E+00 0. -1.
          1   -1    0    0  501    0 -0.00000000000E+00 -0.00000000000E+00 -0.10902087653E+04  0.10902087653E+04  0.00000000000E+00 0. -1.
         25    2    1    2    0    0  0.17621122168E+02  0.21670313837E+03 -0.19407593000E+02  0.25153975845E+03  0.12499936515E+03 0.  0.
          2    1    1    2  501    0  0.49912462879E+02 -0.16808653597E+03 -0.94271138993E+03  0.95887908634E+03  0.00000000000E+00 0. -1.
          1    1    1    2  502    0 -0.67533585046E+02 -0.48616602403E+02  0.43543960268E+03  0.44331930561E+03  0.00000000000E+00 0. -1.
         22    1    3    3    0    0  0.76919988942E+01  0.19750491840E+03 -0.59136871565E+02  0.20631172826E+03  0.00000000000E+00 0.  1.
         22    1    3    3    0    0  0.99291232735E+01  0.19198219967E+02  0.39729278565E+02  0.45228030183E+02  0.00000000000E+00 0.  1.
</event>
<event>
 7    1  0.5667373E-006  0.5201877E+02  0.7818608E-02  0.1528771E+00
          2   -1    0    0  502    0  0.00000000000E+00  0.00000000000E+00  0.20355108259E+04  0.20355108259E+04  0.00000000000E+00 0. -1.
          1   -1    0    0  501    0 -0.00000000000E+00 -0.00000000000E+00 -0.83120059510E+02  0.83120059510E+02  0.00000000000E+00 0. -1.
         25    2    1    2    0    0  0.70734779143E+02  0.21877056891E+02  0.11831229914E+03  0.18736349003E+03  0.12500105068E+03 0.  0.
          2    1    1    2  501    0 -0.19007805014E+02 -0.18892583872E+02 -0.44514909592E+02  0.51959633878E+02  0.00000000000E+00 0. -1.
          1    1    1    2  502    0 -0.51726974128E+02 -0.29844730192E+01  0.18785933769E+04  0.18793077615E+04  0.00000000000E+00 0. -1.
         22    1    3    3    0    0  0.68403720302E+02 -0.20115729100E+02  0.11051039154E+02  0.72151486296E+02  0.00000000000E+00 0.  1.
         22    1    3    3    0    0  0.23310588412E+01  0.41992785991E+02  0.10726125999E+03  0.11521200374E+03  0.00000000000E+00 0.  1.
</event>
<event>
 7    1  0.5667373E-006  0.6421323E+02  0.7818608E-02  0.1524645E+00
          2   -1    0    0  502    0  0.00000000000E+00  0.00000000000E+00  0.82339398738E+02  0.82339398738E+02  0.00000000000E+00 0. -1.
          1   -1    0    0  501    0 -0.00000000000E+00 -0.00000000000E+00 -0.49196312876E+03  0.49196312876E+03  0.00000000000E+00 0. -1.
         25    2    1    2    0    0 -0.61987246930E+02 -0.35014005549E+02 -0.42121361216E+02  0.14989005852E+03  0.12499768480E+03 0.  0.
          2    1    1    2  501    0  0.73731136379E+00  0.22299879741E+02 -0.36081076461E+03  0.36149998080E+03  0.00000000000E+00 0. -1.
          1    1    1    2  502    0  0.61249935566E+02  0.12714125809E+02 -0.66916041980E+01  0.62912488178E+02  0.00000000000E+00 0. -1.
         22    1    3    3    0    0 -0.16402283655E+02  0.37437129208E+02 -0.49242804214E+02  0.63995525776E+02  0.00000000000E+00 0. -1.
         22    1    3    3    0    0 -0.45584963275E+02 -0.72451134757E+02  0.71214429978E+01  0.85894532741E+02  0.00000000000E+00 0. -1.
</event>
<event>
 7    1  0.5667373E-006  0.1150336E+03  0.7818608E-02  0.1255974E+00
          2   -1    0    0  502    0  0.00000000000E+00  0.00000000000E+00  0.95574101052E+03  0.95574101052E+03  0.00000000000E+00 0. -1.
          1   -1    0    0  501    0 -0.00000000000E+00 -0.00000000000E+00 -0.70750956111E+03  0.70750956111E+03  0.00000000000E+00 0. -1.
         25    2    1    2    0    0 -0.59517366851E+02  0.50937227399E+02  0.59127771743E+02  0.15892360617E+03  0.12499480435E+03 0.  0.
          2    1    1    2  501    0 -0.29846195080E+02 -0.11518248485E+03 -0.64860017754E+03  0.65942398385E+03  0.00000000000E+00 0. -1.
          1    1    1    2  502    0  0.89363561931E+02  0.64245257446E+02  0.83770385521E+03  0.84490298161E+03  0.00000000000E+00 0. -1.
         22    1    3    3    0    0 -0.93851367337E+02  0.10801943188E+02  0.42122351219E+02  0.10343622963E+03  0.00000000000E+00 0.  1.
         22    1    3    3    0    0  0.34334000486E+02  0.40135284211E+02  0.17005420524E+02  0.55487376540E+02  0.00000000000E+00 0.  1.
</event>
<event>
 7    1  0.5667373E-006  0.5402943E+02  0.7818608E-02  0.1508847E+00
          2   -1    0    0  502    0  0.00000000000E+00  0.00000000000E+00  0.18041917452E+03  0.18041917452E+03  0.00000000000E+00 0. -1.
          1   -1    0    0  501    0 -0.00000000000E+00 -0.00000000000E+00 -0.51681651300E+03  0.51681651300E+03  0.00000000000E+00 0. -1.
         25    2    1    2    0    0 -0.40874387101E+02 -0.58837890411E+02  0.52231682484E+02  0.15325006230E+03  0.12499928028E+03 0.  0.
          2    1    1    2  501    0  0.44947831598E+02  0.29634766982E+02 -0.46188816173E+03  0.46501526956E+03  0.00000000000E+00 0. -1.
          1    1    1    2  502    0 -0.40734444965E+01  0.29203123429E+02  0.73259140762E+02  0.78970355661E+02  0.00000000000E+00 0. -1.
         22    1    3    3    0    0 -0.79198712163E+02 -0.77313893050E+01  0.36004098372E+02  0.87341316044E+02  0.00000000000E+00 0.  1.
         22    1    3    3    0    0  0.38324325061E+02 -0.51106501106E+02  0.16227584113E+02  0.65908746255E+02  0.00000000000E+00 0.  1.
</event>
<event>
 7    1  0.5667373E-006  0.9923932E+02  0.7818608E-02  0.1428287E+00
          2   -1    0    0  502    0  0.00000000000E+00  0.00000000000E+00  0.55475614449E+03  0.55475614449E+03  0.00000000000E+00 0. -1.
          1   -1    0    0  501    0 -0.00000000000E+00 -0.00000000000E+00 -0.58852570080E+03  0.58852570080E+03  0.00000000000E+00 0. -1.
         25    2    1    2    0    0  0.31805815077E+02 -0.84878186982E+02 -0.17010298171E+03  0.22974068624E+03  0.12501936662E+03 0.  0.
          2    1    1    2  501    0 -0.84570198178E+01  0.10145072387E+03 -0.38153430164E+03  0.39488250643E+03  0.00000000000E+00 0. -1.
          1    1    1    2  502    0 -0.23348795259E+02 -0.16572536890E+02  0.51786772704E+03  0.51865865261E+03  0.00000000000E+00 0. -1.
         22    1    3    3    0    0  0.45067741909E+02 -0.20858315263E+01 -0.12839797268E+03  0.13609368627E+03  0.00000000000E+00 0.  1.
         22    1    3    3    0    0 -0.13261926832E+02 -0.82792355455E+02 -0.41705009025E+02  0.93646999967E+02  0.00000000000E+00 0.  1.
</event>
<event>
 7    1  0.5667373E-006  0.8443805E+02  0.7818608E-02  0.1367830E+00
          2   -1    0    0  502    0  0.00000000000E+00  0.00000000000E+00  0.15665543670E+02  0.15665543670E+02  0.00000000000E+00 0. -1.
          1   -1    0    0  501    0 -0.00000000000E+00 -0.00000000000E+00 -0.27412982528E+04  0.27412982528E+04  0.00000000000E+00 0. -1.
         25    2    1    2    0    0  0.10926147044E+02 -0.37312891528E+02 -0.13152363539E+04  0.13217349417E+04  0.12499982759E+03 0.  0.
          2    1    1    2  501    0 -0.10781670881E+02 -0.53319612537E+02 -0.12485423351E+04  0.12497268453E+04  0.00000000000E+00 0. -1.
          1    1    1    2  502    0 -0.14447616328E+00  0.90632504065E+02 -0.16185402022E+03  0.18550200950E+03  0.00000000000E+00 0. -1.
         22    1    3    3    0    0 -0.13890201446E+02 -0.20788185453E+02 -0.12472244868E+04  0.12474750526E+04  0.00000000000E+00 0. -1.
         22    1    3    3    0    0  0.24816348490E+02 -0.16524706075E+02 -0.68011867111E+02  0.74259889114E+02  0.00000000000E+00 0. -1.
</event>
<event>
 7    1  0.5667373E-006  0.1665675E+03  0.7818608E-02  0.1320718E+00
          2   -1    0    0  502    0  0.00000000000E+00  0.00000000000E+00  0.11194274717E+04  0.11194274717E+04  0.00000000000E+00 0. -1.
          1   -1    0    0  501    0 -0.00000000000E+00 -0.00000000000E+00 -0.13715372654E+04  0.13715372654E+04  0.00000000000E+00 0. -1.
         25    2    1    2    0    0 -0.11649301391E+03  0.11891959813E+03  0.79110193437E+02  0.22270121739E+03  0.12499966565E+03 0.  0.
          2    1    1    2  501    0 -0.26177640295E+02 -0.32033824719E+02 -0.12922055254E+04  0.12928675704E+04  0.00000000000E+00 0. -1.
          1    1    1    2  502    0  0.14267065420E+03 -0.86885773410E+02  0.96098553823E+03  0.97539594929E+03  0.00000000000E+00 0. -1.
         22    1    3    3    0    0 -0.11112308964E+03  0.54807678916E+02  0.42272206972E+01  0.12397617559E+03  0.00000000000E+00 0. -1.
         22    1    3    3    0    0 -0.53699242673E+01  0.64111919213E+02  0.74882972740E+02  0.98725041799E+02  0.00000000000E+00 0. -1.
</event>
<event>
 7    1  0.5667373E-006  0.4111232E+02  0.7818608E-02  0.1585173E+00
          2   -1    0    0  502    0  0.00000000000E+00  0.00000000000E+00  0.69380692258E+03  0.69380692258E+03  0.00000000000E+00 0. -1.
          1   -1    0    0  501    0 -0.00000000000E+00 -0.00000000000E+00 -0.17626437495E+04  0.17626437495E+04  0.00000000000E+00 0. -1.
         25    2    1    2    0    0  0.36672642478E+02 -0.24758491209E+02 -0.73461918206E+03  0.74648843894E+03  0.12498712429E+03 0.  0.
          2    1    1    2  501    0 -0.41302643050E+02  0.15354061090E+01 -0.10214680971E+04  0.10223039368E+04  0.00000000000E+00 0. -1.
          1    1    1    2  502    0  0.46300005714E+01  0.23223085100E+02  0.68725045218E+03  0.68765829640E+03  0.00000000000E+00 0. -1.
         22    1    3    3    0    0 -0.44782262894E+02  0.11987786548E+01 -0.19066736167E+03  0.19585946734E+03  0.00000000000E+00 0.  1.
         22    1    3    3    0    0  0.81454905372E+02 -0.25957269864E+02 -0.54395182039E+03  0.55062897161E+03  0.00000000000E+00 0.  1.
</event>
<event>
 7    1  0.5667373E-006  0.1306701E+03  0.7818608E-02  0.1439221E+00
          2   -1    0    0  502    0  0.00000000000E+00  0.00000000000E+00  0.20307395116E+04  0.20307395116E+04  0.00000000000E+00 0. -1.
          1   -1    0    0  501    0 -0.00000000000E+00 -0.00000000000E+00 -0.11176705053E+04  0.11176705053E+04  0.00000000000E+00 0. -1.
         25    2    1    2    0    0 -0.13850456145E+03  0.26449069494E+02  0.27216111974E+02  0.19039581156E+03  0.12500712575E+03 0.  0.
          2    1    1    2  501    0  0.83466194086E+01 -0.18202046707E+02 -0.10337710838E+04  0.10339650063E+04  0.00000000000E+00 0. -1.
          1    1    1    2  502    0  0.13015794204E+03 -0.82470227870E+01  0.19196239781E+04  0.19240491991E+04  0.00000000000E+00 0. -1.
         22    1    3    3    0    0 -0.49922817103E+02 -0.46481931845E+01  0.70909099874E+02  0.86844653332E+02  0.00000000000E+00 0. -1.
         22    1    3    3    0    0 -0.88581744349E+02  0.31097262678E+02 -0.43692987900E+02  0.10355115822E+03  0.00000000000E+00 0. -1.
</event>
<event>
 7    1  0.5667373E-006  0.9214548E+02  0.7818608E-02  0.1327429E+00
          2   -1    0    0  502    0  0.00000000000E+00  0.00000000000E+00  0.28727449103E+02  0.28727449103E+02  0.00000000000E+00 0. -1.
          1   -1    0    0  501    0 -0.00000000000E+00 -0.00000000000E+00 -0.29335384304E+04  0.29335384304E+04  0.00000000000E+00 0. -1.
         25    2    1    2    0    0 -0.70667327150E+02  0.12958606202E+03 -0.12431384833E+04  0.12580935389E+04  0.12497858017E+03 0.  0.
          2    1    1    2  501    0  0.59725845620E+02 -0.59984514200E+02 -0.16202132356E+04  0.16224229558E+04  0.00000000000E+00 0. -1.
          1    1    1    2  502    0  0.10941481530E+02 -0.69601547816E+02 -0.41459262427E+02  0.81749384814E+02  0.00000000000E+00 0. -1.
         22    1    3    3    0    0 -0.77909796346E+02  0.14863692587E+03 -0.11764802717E+04  0.11883891205E+04  0.00000000000E+00 0.  1.
         22    1    3    3    0    0  0.72424691958E+01 -0.19050863856E+02 -0.66658211581E+02  0.69704418403E+02  0.00000000000E+00 0.  1.
</event>
<event>
 7    1  0.5667373E-006  0.3651781E+02  0.7818608E-02  0.1546027E+00
          2   -1    0    0  502    0  0.00000000000E+00  0.00000000000E+00  0.56926502797E+03  0.56926502797E+03  0.00000000000E+00 0. -1.
          1   -1    0    0  501    0 -0.00000000000E+00 -0.00000000000E+00 -0.97359973891E+02  0.97359973891E+02  0.00000000000E+00 0. -1.
         25    2    1    2    0    0  0.31573190206E+02 -0.36446259541E+02  0.11600470324E+03  0.17722099094E+03  0.12499996913E+03 0.  0.
          2    1    1    2  501    0 -0.34106454945E+02 -0.34434028313E-01 -0.61543069474E+02  0.70361927595E+02  0.00000000000E+00 0. -1.
          1    1    1    2  502    0  0.25332647386E+01  0.36480693570E+02  0.41744342032E+03  0.41904208333E+03  0.00000000000E+00 0. -1.
         22    1    3    3    0    0  0.28077858514E+02  0.33941022327E+02  0.93306750776E+02  0.10318192126E+03  0.00000000000E+00 0. -1.
         22    1    3    3    0    0  0.34953316922E+01 -0.70387281869E+02  0.22697952461E+02  0.74039069675E+02  0.00000000000E+00 0. -1.
</event>
<event>
 7    1  0.5667373E-006  0.3747561E+02  0.7818608E-02  0.1557709E+00
          2   -1    0    0  502    0  0.00000000000E+00  0.00000000000E+00  0.53215788341E+03  0.53215788341E+03  0.00000000000E+00 0. -1.
          1   -1    0    0  501    0 -0.00000000000E+00 -0.00000000000E+00 -0.28497298677E+03  0.28497298677E+03  0.00000000000E+00 0. -1.
         25    2    1    2    0    0 -0.56324923889E+01  0.15698084415E+02 -0.12896030101E+03  0.18036414656E+03  0.12498924475E+03 0.  0.
          2    1    1    2  501    0  0.36384100969E+02 -0.18004756493E+02 -0.12666524748E+03  0.13301149942E+03  0.00000000000E+00 0. -1.
          1    1    1    2  502    0 -0.30751608580E+02  0.23066720773E+01  0.50281044513E+03  0.50375522419E+03  0.00000000000E+00 0. -1.
         22    1    3    3    0    0 -0.20015635278E+01 -0.97835267152E+01  0.23611526116E+02  0.25636454846E+02  0.00000000000E+00 0.  1.
         22    1    3    3    0    0 -0.36309288610E+01  0.25481611131E+02 -0.15257182713E+03  0.15472769171E+03  0.00000000000E+00 0.  1.
</event>
<event>
 7    1  0.5667373E-006  0.1222954E+03  0.7818608E-02  0.1384280E+00
          2   -1    0    0  502    0  0.00000000000E+00  0.00000000000E+00  0.10964333542E+03  0.10964333542E+03  0.00000000000E+00 0. -1.
          1   -1    0    0  501    0 -0.00000000000E+00 -0.00000000000E+00 -0.21929928569E+04  0.21929928569E+04  0.00000000000E+00 0. -1.
         25    2    1    2    0    0 -0.11056121564E+03 -0.50648342319E+02 -0.10791391847E+03  0.20508439591E+03  0.12500063464E+03 0.  0.
          2    1    1    2  501    0  0.93743450672E+02  0.78829620001E+02 -0.20301006538E+04  0.20337921743E+04  0.00000000000E+00 0. -1.
          1    1    1    2  502    0  0.16817764971E+02 -0.28181277682E+02  0.54665050825E+02  0.63759622114E+02  0.00000000000E+00 0. -1.
         22    1    3    3    0    0 -0.32154791180E+02  0.38153701452E+02 -0.88831524132E+01  0.50680824057E+02  0.00000000000E+00 0. -1.
         22    1    3    3    0    0 -0.78406424463E+02 -0.88802043771E+02 -0.99030766054E+02  0.15440357185E+03  0.00000000000E+00 0. -1.
</event>
<event>
 7    1  0.5667373E-006  0.4500590E+02  0.7818608E-02  0.1552726E+00
          2   -1    0    0  502    0  0.00000000000E+00  0.00000000000E+00  0.17744120291E+04  0.17744120291E+04  0.00000000000E+00 0. -1.
          1   -1    0    0  501    0 -0.00000000000E+00 -0.00000000000E+00 -0.55918638266E+02  0.55918638266E+02  0.00000000000E+00 0. -1.
         25    2    1    2    0    0 -0.23820680331E+02 -0.68753719460E+01  0.44537431097E+03  0.46324599076E+03  0.12499550206E+03 0.  0.
          2    1    1    2  501    0 -0.97161592940E+01 -0.24662691908E+02 -0.42809095302E+02  0.50351472314E+02  0.00000000000E+00 0. -1.
          1    1    1    2  502    0  0.33536839625E+02  0.31538063854E+02  0.13159281752E+04  0.13167332043E+04  0.00000000000E+00 0. -1.
         22    1    3    3    0    0 -0.43729947834E+02 -0.32658752353E+02  0.82546178965E+02  0.98958446353E+02  0.00000000000E+00 0. -1.
         22    1    3    3    0    0  0.19909267503E+02  0.25783380407E+02  0.36282813200E+03  0.36428754441E+03  0.00000000000E+00 0. -1.
</event>
<event>
 7    1  0.5667373E-006  0.8591084E+02  0.7818608E-02  0.1404168E+00
          2   -1    0    0  502    0  0.00000000000E+00  0.00000000000E+00  0.26030770349E+03  0.26030770349E+03  0.00000000000E+00 0. -1.
          1   -1    0    0  501    0 -0.00000000000E+00 -0.00000000000E+00 -0.21393763169E+03  0.21393763169E+03  0.00000000000E+00 0. -1.
         25    2    1    2    0    0  0.16787539568E+02 -0.62098090697E+02 -0.12209124421E+02  0.14111024838E+03  0.12500018051E+03 0.  0.
          2    1    1    2  501    0 -0.29819043819E+02 -0.26445401934E+02 -0.12375811805E+03  0.13001771588E+03  0.00000000000E+00 0. -1.
          1    1    1    2  502    0  0.13031504251E+02  0.88543492630E+02  0.18233731427E+03  0.20311737091E+03  0.00000000000E+00 0. -1.
         22    1    3    3    0    0 -0.16237276041E+02  0.19013106010E+02 -0.41768066769E+02  0.48679756933E+02  0.00000000000E+00 0.  1.
         22    1    3    3    0    0  0.33024815609E+02 -0.81111196706E+02  0.29558942348E+02  0.92430491451E+02  0.00000000000E+00 0.  1.
</event>
<event>
 7    1  0.5667373E-006  0.1194143E+03  0.7818608E-02  0.1314280E+00
          2   -1    0    0  502    0  0.00000000000E+00  0.00000000000E+00  0.59092404267E+03  0.59092404267E+03  0.00000000000E+00 0. -1.
          1   -1    0    0  501    0 -0.00000000000E+00 -0.00000000000E+00 -0.28051489083E+03  0.28051489083E+03  0.00000000000E+00 0. -1.
         25    2    1    2    0    0 -0.12068504996E+03  0.13041306162E+03 -0.55825055069E+02  0.22429962952E+03  0.12498575560E+03 0.  0.
          2    1    1    2  501    0  0.40286309250E+02 -0.45983668534E+02 -0.12666120923E+03  0.14064333048E+03  0.00000000000E+00 0. -1.
          1    1    1    2  502    0  0.80398740713E+02 -0.84429393082E+02  0.49289541614E+03  0.50649597351E+03  0.00000000000E+00 0. -1.
         22    1    3    3    0    0 -0.71814814182E+02  0.11251709056E+03 -0.90940774034E+02  0.16151683375E+03  0.00000000000E+00 0.  1.
         22    1    3    3    0    0 -0.48870235780E+02  0.17895971056E+02  0.35115718965E+02  0.62782795762E+02  0.00000000000E+00 0.  1.
</event>
<event>
 7    1  0.5667373E-006  0.6489193E+02  0.7818608E-02  0.1517240E+00
          2   -1    0    0  502    0  0.00000000000E+00  0.00000000000E+00  0.17330232683E+03  0.17330232683E+03  0.00000000000E+00 0. -1.
          1   -1    0    0  501    0 -0.00000000000E+00 -0.00000000000E+00 -0.80534532618E+03  0.80534532618E+03  0.00000000000E+00 0. -1.
         25    2    1    2    0    0  0.48701206915E+02 -0.34280867051E+02  0.26225495068E+02  0.14097846205E+03  0.12506064437E+03 0.  0.
          2    1    1    2  501    0 -0.63038051957E+02  0.16043410408E+02 -0.74502779954E+03  0.74786202545E+03  0.00000000000E+00 0. -1.
          1    1    1    2  502    0  0.14336845042E+02  0.18237456643E+02  0.86759305125E+02  0.89807165506E+02  0.00000000000E+00 0. -1.
         22    1    3    3    0    0  0.64909338604E+02 -0.59902774758E+02  0.50851864849E+02  0.10191897184E+03  0.00000000000E+00 0.  1.
         22    1    3    3    0    0 -0.16208131690E+02  0.25621907706E+02 -0.24626369781E+02  0.39059490217E+02  0.00000000000E+00 0.  1.
</event>
<event>
 7    1  0.5667373E-006  0.5679607E+02  0.7818608E-02  0.1455544E+00
          2   -1    0    0  502    0  0.00000000000E+00  0.00000000000E+00  0.58371400486E+02  0.58371400486E+02  0.00000000000E+00 0. -1.
          1   -1    0    0  501    0 -0.00000000000E+00 -0.00000000000E+00 -0.39339361098E+04  0.39339361098E+04  0.00000000000E+00 0. -1.
         25    2    1    2    0    0  0.23753863831E+02  0.10254356677E+01 -0.17728248789E+04  0.17773852596E+04  0.12500004896E+03 0.  0.
          2    1    1    2  501    0 -0.62792322809E+02  0.10942883422E+02 -0.21508649198E+04  0.21518091285E+04  0.00000000000E+00 0. -1.
          1    1    1    2  502    0  0.39038458979E+02 -0.11968319090E+02  0.48125089455E+02  0.63113122061E+02  0.00000000000E+00 0. -1.
         22    1    3    3    0    0 -0.82634239164E+00  0.46362356849E+02 -0.29167835754E+03  0.29534118445E+03  0.00000000000E+00 0. -1.
         22    1    3    3    0    0  0.24580206222E+02 -0.45336921182E+02 -0.14811465214E+04  0.14820440752E+04  0.00000000000E+00 0. -1.
</event>
<event>
 7    1  0.5667373E-006  0.8894833E+02  0.7818608E-02  0.1357657E+00
          2   -1    0    0  502    0  0.00000000000E+00  0.00000000000E+00  0.20789035631E+04  0.20789035631E+04  0.00000000000E+00 0. -1.
          1   -1    0    0  501    0 -0.00000000000E+00 -0.00000000000E+00 -0.10062144730E+04  0.10062144730E+04  0.00000000000E+00 0. -1.
         25    2    1    2    0    0  0.70838580858E+02 -0.12218744611E+03  0.69112307003E+03  0.71639674178E+03  0.12500126873E+03 0.  0.
          2    1    1    2  501    0 -0.29927380332E+02  0.83612761405E+02 -0.99101642492E+03  0.99498758606E+03  0.00000000000E+00 0. -1.
          1    1    1    2  502    0 -0.40911200526E+02  0.38574684707E+02  0.13725824451E+04  0.13737337082E+04  0.00000000000E+00 0. -1.
         22    1    3    3    0    0  0.97045362668E+02 -0.12153722319E+03  0.50414933485E+03  0.52759421041E+03  0.00000000000E+00 0.  1.
         22    1    3    3    0    0 -0.26206781811E+02 -0.65022291846E+00  0.18697373518E+03  0.18880253137E+03  0.00000000000E+00 0.  1.
</event>
<event>
 7    1  0.5667373E-006  0.9400708E+02  0.7818608E-02  0.1478433E+00
          2   -1    0    0  502    0  0.00000000000E+00  0.00000000000E+00  0.13429475643E+04  0.13429475643E+04  0.00000000000E+00 0. -1.
          1   -1    0    0  501    0 -0.00000000000E+00 -0.00000000000E+00 -0.40723002299E+03  0.40723002299E+03  0.00000000000E+00 0. -1.
         25    2    1    2    0    0  0.73696344154E+02 -0.84457435429E+02  0.47365473718E+03  0.50253125102E+03  0.12499855460E+03 0.  0.
          2    1    1    2  501    0 -0.68375334907E+02  0.64220982350E+02 -0.38706041444E+03  0.39826534550E+03  0.00000000000E+00 0. -1.
          1    1    1    2  502    0 -0.53210092470E+01  0.20236453079E+02  0.84912321858E+03  0.84938099078E+03  0.00000000000E+00 0. -1.
         22    1    3    3    0    0  0.51589576483E+02 -0.11652949736E+03  0.33200799376E+03  0.35562609027E+03  0.00000000000E+00 0.  1.
         22    1    3    3    0    0  0.22106767671E+02  0.32072061932E+02  0.14164674342E+03  0.14690516075E+03  0.00000000000E+00 0.  1.
</event>
<event>
 7    1  0.5667373E-006  0.5205085E+02  0.7818608E-02  0.1448522E+00
          2   -1    0    0  502    0  0.00000000000E+00  0.00000000000E+00  0.20551532624E+04  0.20551532624E+04  0.00000000000E+00 0. -1.
          1   -1    0    0  501    0 -0.00000000000E+00 -0.00000000000E+00 -0.21059773505E+02  0.21059773505E+02  0.00000000000E+00 0. -1.
         25    2    1    2    0    0  0.12862175922E+02 -0.37896962348E+01  0.55751802831E+03  0.57151698631E+03  0.12500206551E+03 0.  0.
          2    1    1    2  501    0 -0.30970137979E+02  0.47066960019E+02  0.44352306489E+02  0.71704778521E+02  0.00000000000E+00 0. -1.
          1    1    1    2  502    0  0.18107962057E+02 -0.43277263784E+02  0.14322231541E+04  0.14329912711E+04  0.00000000000E+00 0. -1.
         22    1    3    3    0    0  0.17236147991E+02  0.38107080971E+02  0.49102915239E+03  0.49280712547E+03  0.00000000000E+00 0. -1.
         22    1    3    3    0    0 -0.43739720694E+01 -0.41896777206E+02  0.66488875921E+02  0.78709860838E+02  0.00000000000E+00 0. -1.
</event>
<event>
 7    1  0.5667373E-006  0.1186143E+03  0.7818608E-02  0.1299649E+00
          2   -1    0    0  502    0  0.00000000000E+00  0.00000000000E+00  0.79896806531E+03  0.79896806531E+03  0.00000000000E+00 0. -1.
          1   -1    0    0  501    0 -0.00000000000E+00 -0.00000000000E+00 -0.89183641470E+02  0.89183641470E+02  0.00000000000E+00 0. -1.
         25    2    1    2    0    0 -0.89005847143E+02  0.93327343504E+02  0.53396024941E+03  0.56335757421E+03  0.12500469831E+03 0.  0.
          2    1    1    2  501    0  0.11597544622E+03 -0.28373001600E+02 -0.16018898613E+02  0.12046549904E+03  0.00000000000E+00 0. -1.
          1    1    1    2  502    0 -0.26969599076E+02 -0.64954341904E+02  0.19184307304E+03  0.20432863353E+03  0.00000000000E+00 0. -1.
         22    1    3    3    0    0  0.53624641494E+01  0.64264193313E+02  0.33605780636E+03  0.34218926310E+03  0.00000000000E+00 0. -1.
         22    1    3    3    0    0 -0.94368311292E+02  0.29063150191E+02  0.19790244306E+03  0.22116831112E+03  0.00000000000E+00 0. -1.
</event>
<event>
 7    1  0.5667373E-006  0.1005868E+03  0.7818608E-02  0.1304583E+00
          2   -1    0    0  502    0  0.00000000000E+00  0.00000000000E+00  0.71437320355E+03  0.71437320355E+03  0.00000000000E+00 0. -1.
          1   -1    0    0  501    0 -0.00000000000E+00 -0.00000000000E+00 -0.11400347584E+04  0.11400347584E+04  0.00000000000E+00 0. -1.
         25    2    1    2    0    0  0.16447944729E+03 -0.56726956628E+01  0.11203105811E+03  0.23507910207E+03  0.12500223274E+03 0.  0.
          2    1    1    2  501    0 -0.94657979701E+02 -0.31839003124E+02 -0.10732760050E+04  0.10779124445E+04  0.00000000000E+00 0. -1.
          1    1    1    2  502    0 -0.69821467588E+02  0.37511698786E+02  0.53558339207E+03  0.54141641529E+03  0.00000000000E+00 0. -1.
         22    1    3    3    0    0 -0.49226162706E+01  0.19590941444E+02 -0.12104566337E+02  0.23549048045E+02  0.00000000000E+00 0. -1.
         22    1    3    3    0    0  0.16940206356E+03 -0.25263637107E+02  0.12413562444E+03  0.21153005402E+03  0.00000000000E+00 0. -1.
</event>
<event>
 7    1  0.5667373E-006  0.1469568E+03  0.7818608E-02  0.1309977E+00
          2   -1    0    0  502    0  0.00000000000E+00  0.00000000000E+00  0.12798304048E+04  0.12798304048E+04  0.00000000000E+00 0. -1.
          1   -1    0    0  501    0 -0.00000000000E+00 -0.00000000000E+00 -0.13293363085E+03  0.13293363085E+03  0.00000000000E+00 0. -1.
         25    2    1    2    0    0 -0.55957176493E+02 -0.18199039096E+03  0.84221786482E+03  0.87247257672E+03  0.12500302915E+03 0.  0.
          2    1    1    2  501    0  0.62207536689E+02  0.13072164724E+03 -0.70886096358E+02  0.16119170368E+03  0.00000000000E+00 0. -1.
          1    1    1    2  502    0 -0.62503601961E+01  0.51268743721E+02  0.37556500549E+03  0.37909975525E+03  0.00000000000E+00 0. -1.
         22    1    3    3    0    0  0.31773470229E+02 -0.79593237379E+01  0.11165084171E+03  0.11635641237E+03  0.00000000000E+00 0. -1.
         22    1    3    3    0    0 -0.87730646722E+02 -0.17403106722E+03  0.73056702311E+03  0.75611616435E+03  0.00000000000E+00 0. -1.
</event>
<event>
 7    1  0.5667373E-006  0.9459176E+02  0.7818608E-02  0.1375544E+00
          2   -1    0    0  502    0  0.00000000000E+00  0.00000000000E+00  0.11101246509E+04  0.11101246509E+04  0.00000000000E+00 0. -1.
          1   -1    0    0  501    0 -0.00000000000E+00 -0.00000000000E+00 -0.87953709987E+02  0.87953709987E+02  0.00000000000E+00 0. -1.
         25    2    1    2    0    0  0.11525008563E+02  0.88033796643E+02  0.33102498150E+03  0.36480728711E+03  0.12499617264E+03 0.  0.
          2    1    1    2  501    0  0.44738390545E+02 -0.86293549635E+01 -0.60284023912E+02  0.75565553625E+02  0.00000000000E+00 0. -1.
          1    1    1    2  502    0 -0.56263399109E+02 -0.79404441680E+02  0.75142998328E+03  0.75770552012E+03  0.00000000000E+00 0. -1.
         22    1    3    3    0    0  0.66146976896E+02  0.39692047294E+02  0.20721344066E+03  0.22110696769E+03  0.00000000000E+00 0.  1.
         22    1    3    3    0    0 -0.54621968333E+02  0.48341749349E+02  0.12381154085E+03  0.14370031942E+03  0.00000000000E+00 0.  1.
</event>
<event>
 7    1  0.5667373E-006  0.3792237E+02  0.7818608E-02  0.1541559E+00
          2   -1    0    0  502    0  0.00000000000E+00  0.00000000000E+00  0.53526306330E+03  0.53526306330E+03  0.00000000000E+00 0. -1.
          1   -1    0    0  501    0 -0.00000000000E+00 -0.00000000000E+00 -0.98738812097E+03  0.98738812097E+03  0.00000000000E+00 0. -1.
         25    2    1    2    0    0  0.13335913120E+02  0.12723832873E+02 -0.32475547177E+03  0.34846956203E+03  0.12500070685E+03 0.  0.
          2    1    1    2  501    0  0.86906268906E+01 -0.38370976584E+02 -0.64963394531E+03  0.65082418650E+03  0.00000000000E+00 0. -1.
          1    1    1    2  502    0 -0.22026540011E+02  0.25647143711E+02  0.52226435940E+03  0.52335743574E+03  0.00000000000E+00 0. -1.
         22    1    3    3    0    0  0.61001196216E+02 -0.23446129012E+02 -0.14581532464E+03  0.15979041212E+03  0.00000000000E+00 0.  1.
         22    1    3    3    0    0 -0.47665283096E+02  0.36169961884E+02 -0.17894014712E+03  0.18867914990E+03  0.00000000000E+00 0.  1.
</event>
<event>
 7    1  0.5667373E-006  0.6669014E+02  0.7818608E-02  0.1463490E+00
          2   -1    0    0  502    0  0.00000000000E+00  0.00000000000E+00  0.54540336949E+03  0.54540336949E+03  0.00000000000E+00 0. -1.
          1   -1    0    0  501    0 -0.00000000000E+00 -0.00000000000E+00 -0.13330136342E+04  0.13330136342E+04  0.00000000000E+00 0. -1.
         25    2    1    2    0    0 -0.76183103477E+02  0.59988646486E+02 -0.32360443055E+03  0.36020358065E+03  0.12499715628E+03 0.  0.
          2    1    1    2  501    0  0.54474207175E+02 -0.35370820493E+02 -0.98953299182E+03  0.99166227925E+03  0.00000000000E+00 0. -1.
          1    1    1    2  502    0  0.21708896302E+02 -0.24617825993E+02  0.52552715768E+03  0.52655114376E+03  0.00000000000E+00 0. -1.
         22    1    3    3    0    0  0.19271180025E+02 -0.19127599546E+02 -0.10928669178E+03  0.11260916679E+03  0.00000000000E+00 0. -1.
         22    1    3    3    0    0 -0.95454283502E+02  0.79116246032E+02 -0.21431773877E+03  0.24759441386E+03  0.00000000000E+00 0. -1.
</event>
<event>
 7    1  0.5667373E-006  0.5288521E+02  0.7818608E-02  0.1458509E+00
          2   -1    0    0  502    0  0.00000000000E+00  0.00000000000E+00  0.10889377617E+04  0.10889377617E+04  0.00000000000E+00 0. -1.
          1   -1    0    0  501    0 -0.00000000000E+00 -0.00000000000E+00 -0.37898009985E+03  0.37898009985E+03  0.00000000000E+00 0. -1.
         25    2    1    2    0    0 -0.15171016897E+02  0.57154279632E+02  0.13096301579E+03  0.19045545708E+03  0.12500079277E+03 0.  0.
          2    1    1    2  501    0 -0.26279638552E+02 -0.46046215586E+02 -0.34672177701E+03  0.35075185534E+03  0.00000000000E+00 0. -1.
          1    1    1    2  502    0  0.41450655450E+02 -0.11108064047E+02  0.92571642306E+03  0.92671054911E+03  0.00000000000E+00 0. -1.
         22    1    3    3    0    0  0.54660933766E+02  0.26986435613E+02  0.71104040053E+02  0.93658261244E+02  0.00000000000E+00 0.  1.
         22    1    3    3    0    0 -0.69831950664E+02  0.30167844019E+02  0.59858975734E+02  0.96797195839E+02  0.00000000000E+00 0.  1.
</event>
<event>
 7    1  0.5667373E-006  0.5683403E+02  0.7818608E-02  0.1442058E+00
          2   -1    0    0  502    0  0.00000000000E+00  0.00000000000E+00  0.63848258438E+03  0.63848258438E+03  0.00000000000E+00 0. -1.
          1   -1    0    0  501    0 -0.00000000000E+00 -0.00000000000E+00 -0.20279070929E+04  0.20279070929E+04  0.00000000000E+00 0. -1.
         25    2    1    2    0    0  0.88871682353E+02  0.46123876198E+02 -0.14030264145E+03  0.21292122586E+03  0.12500011738E+03 0.  0.
          2    1    1    2  501    0 -0.45819049416E+02 -0.32774829365E+02 -0.18500223040E+04  0.18508798178E+04  0.00000000000E+00 0. -1.
          1    1    1    2  502    0 -0.43052632937E+02 -0.13349046833E+02  0.60090043692E+03  0.60258863360E+03  0.00000000000E+00 0. -1.
         22    1    3    3    0    0  0.20852049735E+02  0.79078237994E+02 -0.92605686533E+02  0.12354751669E+03  0.00000000000E+00 0.  1.
         22    1    3    3    0    0  0.68019632618E+02 -0.32954361796E+02 -0.47696954914E+02  0.89373709171E+02  0.00000000000E+00 0.  1.
</event>
<event>
 7    1  0.5667373E-006  0.1073932E+03  0.7818608E-02  0.1452276E+00
          2   -1    0    0  502    0  0.00000000000E+00  0.00000000000E+00  0.75930378306E+03  0.75930378306E+03  0.00000000000E+00 0. -1.
          1   -1    0    0  501    0 -0.00000000000E+00 -0.00000000000E+00 -0.35254322571E+03  0.35254322571E+03  0.00000000000E+00 0. -1.
         25    2    1    2    0    0  0.27951736458E+02 -0.94696166568E+02 -0.10310397230E+03  0.18974426617E+03  0.12499517554E+03 0.  0.
          2    1    1    2  501    0 -0.12096929806E+02  0.11011748640E+03 -0.19104722170E+03  0.22084210976E+03  0.00000000000E+00 0. -1.
          1    1    1    2  502    0 -0.15854806652E+02 -0.15421319832E+02  0.70091175135E+03  0.70126063284E+03  0.00000000000E+00 0. -1.
         22    1    3    3    0    0 -0.38604670895E+02 -0.81607497867E+02 -0.70165949354E+02  0.11433881568E+03  0.00000000000E+00 0.  1.
         22    1    3    3    0    0  0.66556407354E+02 -0.13088668702E+02 -0.32938022946E+02  0.75405450491E+02  0.00000000000E+00 0.  1.
</event>
<event>
 7    1  0.5667373E-006  0.2435290E+03  0.7818608E-02  0.1283413E+00
          2   -1    0    0  502    0  0.00000000000E+00  0.00000000000E+00  0.91513443662E+03  0.91513443662E+03  0.00000000000E+00 0. -1.
          1   -1    0    0  501    0 -0.00000000000E+00 -0.00000000000E+00 -0.89322361264E+03  0.89322361264E+03  0.00000000000E+00 0. -1.
         25    2    1    2    0    0 -0.32068208849E+02 -0.20301232289E+03  0.42064778295E+03  0.48457366769E+03  0.12499883540E+03 0.  0.
          2    1    1    2  501    0  0.44290621851E+02  0.24095898602E+03 -0.84292689734E+03  0.87780900336E+03  0.00000000000E+00 0. -1.
          1    1    1    2  502    0 -0.12222413002E+02 -0.37946663124E+02  0.44418993837E+03  0.44597537821E+03  0.00000000000E+00 0. -1.
         22    1    3    3    0    0 -0.85459620464E+01  0.16991629476E+02  0.40014669412E+02  0.44304883565E+02  0.00000000000E+00 0.  1.
         22    1    3    3    0    0 -0.23522246802E+02 -0.22000395237E+03  0.38063311353E+03  0.44026878412E+03  0.00000000000E+00 0.  1.
</event>
<event>
 7    1  0.5667373E-006  0.7296357E+02  0.7818608E-02  0.1367079E+00
          2   -1    0    0  502    0  0.00000000000E+00  0.00000000000E+00  0.44303408505E+02  0.44303408505E+02  0.00000000000E+00 0. -1.
          1   -1    0    0  501    0 -0.00000000000E+00 -0.00000000000E+00 -0.15218000134E+04  0.15218000134E+04  0.00000000000E+00 0. -1.
         25    2    1    2    0    0  0.64765595059E+02  0.74193108706E+02 -0.54716140604E+03  0.56983314722E+03  0.12500004689E+03 0.  0.
          2    1    1    2  501    0  0.69988470095E+01 -0.62960114268E+02 -0.92083730114E+03  0.92301370251E+03  0.00000000000E+00 0. -1.
          1    1    1    2  502    0 -0.71764442068E+02 -0.11232994438E+02 -0.94978977376E+01  0.73256572202E+02  0.00000000000E+00 0. -1.
         22    1    3    3    0    0  0.24543360496E+02 -0.33931224834E+02 -0.18763752828E+03  0.19225385974E+03  0.00000000000E+00 0.  1.
         22    1    3    3    0    0  0.40222234563E+02  0.10812433354E+03 -0.35952387776E+03  0.37757928748E+03  0.00000000000E+00 0.  1.
</event>
<event>
 7    1  0.5667373E-006  0.1072404E+03  0.7818608E-02  0.1273510E+00
          2   -1    0    0  502    0  0.00000000000E+00  0.00000000000E+00  0.12670280615E+03  0.12670280615E+03  0.00000000000E+00 0. -1.
          1   -1    0    0  501    0 -0.00000000000E+00 -0.00000000000E+00 -0.59455526308E+03  0.59455526308E+03  0.00000000000E+00 0. -1.
         25    2    1    2    0    0 -0.62463910098E+02 -0.95641146255E+02 -0.92240556316E+02  0.19282644563E+03  0.12499899593E+03 0.  0.
          2    1    1    2  501    0 -0.36499476782E+02  0.10596068050E+03 -0.40853355985E+03  0.42362666009E+03  0.00000000000E+00 0. -1.
          1    1    1    2  502    0  0.98963386881E+02 -0.10319534245E+02  0.32921659231E+02  0.10480496351E+03  0.00000000000E+00 0. -1.
         22    1    3    3    0    0 -0.58326233763E+02  0.12008955370E+02 -0.47509078201E+02  0.76179243010E+02  0.00000000000E+00 0. -1.
         22    1    3    3    0    0 -0.41376763354E+01 -0.10765010163E+03 -0.44731478116E+02  0.11664720262E+03  0.00000000000E+00 0. -1.
</event>
<event>
 7    1  0.5667373E-006  0.8728037E+02  0.7818608E-02  0.1315263E+00
          2   -1    0    0  502    0  0.00000000000E+00  0.00000000000E+00  0.47276987618E+03  0.47276987618E+03  0.00000000000E+00 0. -1.
          1   -1    0    0  501    0 -0.00000000000E+00 -0.00000000000E+00 -0.40732513421E+03  0.40732513421E+03  0.00000000000E+00 0. -1.
         25    2    1    2    0    0  0.13105087963E+01  0.57201040402E+02  0.19099376782E+03  0.23532299780E+03  0.12499846995E+03 0.  0.
          2    1    1    2  501    0 -0.81358351382E+02 -0.35621927455E+02 -0.37319468378E+03  0.38361748534E+03  0.00000000000E+00 0. -1.
          1    1    1    2  502    0  0.80047842585E+02 -0.21579112947E+02  0.24764565792E+03  0.26115452726E+03  0.00000000000E+00 0. -1.
         22    1    3    3    0    0 -0.43357574186E+02  0.76192979233E+02  0.13770907056E+03  0.16324532899E+03  0.00000000000E+00 0. -1.
         22    1    3    3    0    0  0.44668082982E+02 -0.18991938831E+02  0.53284697265E+02  0.72077668806E+02  0.00000000000E+00 0. -1.
</event>
<event>
 7    1  0.5667373E-006  0.1524261E+03  0.7818608E-02  0.1348217E+00
          2   -1    0    0  502    0  0.00000000000E+00  0.00000000000E+00  0.95563132893E+03  0.95563132893E+03  0.00000000000E+00 0. -1.
          1   -1    0    0  501    0 -0.00000000000E+00 -0.00000000000E+00 -0.56995294228E+03  0.56995294228E+03  0.00000000000E+00 0. -1.
         25    2    1    2    0    0 -0.92471361686E+02  0.84605979502E+02  0.35753418026E+03  0.39895470047E+03  0.12500015388E+03 0.  0.
          2    1    1    2  501    0  0.12802106946E+03 -0.84213602736E+02 -0.53798617640E+03  0.55938399254E+03  0.00000000000E+00 0. -1.
          1    1    1    2  502    0 -0.35549707774E+02 -0.39237676542E+00  0.56613038279E+03  0.56724557821E+03  0.00000000000E+00 0. -1.
         22    1    3    3    0    0 -0.24117992364E+02 -0.10360408927E+02  0.20518997668E+03  0.20686213321E+03  0.00000000000E+00 0.  1.
         22    1    3    3    0    0 -0.68353369322E+02  0.94966388428E+02  0.15234420358E+03  0.19209256726E+03  0.00000000000E+00 0.  1.
</event>
<event>
 7    1  0.5667373E-006  0.6319690E+02  0.7818608E-02  0.1440921E+00
          2   -1    0    0  502    0  0.00000000000E+00  0.00000000000E+00  0.71116248467E+03  0.71116248467E+03  0.00000000000E+00 0. -1.
          1   -1    0    0  501    0 -0.00000000000E+00 -0.00000000000E+00 -0.10012237288E+04  0.10012237288E+04  0.00000000000E+00 0. -1.
         25    2    1    2    0    0 -0.18718107681E+02  0.14662503562E+02 -0.43821829038E+01  0.12731524326E+03  0.12499844428E+03 0.  0.
          2    1    1    2  501    0  0.57153939437E+02 -0.28589892297E+02 -0.93363854884E+03  0.93582311075E+03  0.00000000000E+00 0. -1.
          1    1    1    2  502    0 -0.38435831756E+02  0.13927388735E+02  0.64795948766E+03  0.64924785942E+03  0.00000000000E+00 0. -1.
         22    1    3    3    0    0 -0.65226502012E+02  0.37687630500E+02 -0.17264350446E+01  0.75351407654E+02  0.00000000000E+00 0.  1.
         22    1    3    3    0    0  0.46508394331E+02 -0.23025126938E+02 -0.26557478592E+01  0.51963835602E+02  0.00000000000E+00 0.  1.
</event>
<event>
 7    1  0.5667373E-006  0.7778340E+02  0.7818608E-02  0.1338591E+00
          2   -1    0    0  502    0  0.00000000000E+00  0.00000000000E+00  0.14648902865E+04  0.14648902865E+04  0.00000000000E+00 0. -1.
          1   -1    0    0  501    0 -0.00000000000E+00 -0.00000000000E+00 -0.43347822397E+03  0.43347822397E+03  0.00000000000E+00 0. -1.
         25    2    1    2    0    0 -0.82668193420E+02 -0.34435385826E+02 -0.32431024054E+02  0.15715258989E+03  0.12500135674E+03 0.  0.
          2    1    1    2  501    0  0.19962177190E+02  0.76832579521E+02 -0.33299600124E+03  0.34232743190E+03  0.00000000000E+00 0. -1.
          1    1    1    2  502    0  0.62706016230E+02 -0.42397193696E+02  0.13968390878E+04  0.13988884887E+04  0.00000000000E+00 0. -1.
         22    1    3    3    0    0  0.18658418752E+02 -0.19786128359E+02 -0.46441206733E+02  0.53818334688E+02  0.00000000000E+00 0. -1.
         22    1    3    3    0    0 -0.10132661217E+03 -0.14649257467E+02  0.14010182679E+02  0.10333425520E+03  0.00000000000E+00 0. -1.
</event>
<event>
 7    1  0.5667373E-006  0.5763543E+02  0.7818608E-02  0.1475672E+00
          2   -1    0    0  502    0  0.00000000000E+00  0.00000000000E+00  0.37636375465E+02  0.37636375465E+02  0.00000000000E+00 0. -1.
          1   -1    0    0  501    0 -0.00000000000E+00 -0.00000000000E+00 -0.10334603686E+04  0.10334603686E+04  0.00000000000E+00 0. -1.
         25    2    1    2    0    0  0.33643334655E+02  0.37313316883E+02 -0.21057482872E+03  0.24998083549E+03  0.12499800815E+03 0.  0.
          2    1    1    2  501    0 -0.57354686021E+02 -0.11836337494E+02 -0.78410951675E+03  0.78629345232E+03  0.00000000000E+00 0. -1.
          1    1    1    2  502    0  0.23711351366E+02 -0.25476979389E+02 -0.11396476571E+01  0.34822456248E+02  0.00000000000E+00 0. -1.
         22    1    3    3    0    0 -0.29017656862E+02 -0.32768160760E+01 -0.15283403388E+03  0.15559885554E+03  0.00000000000E+00 0. -1.
         22    1    3    3    0    0  0.62660991516E+02  0.40590132959E+02 -0.57740794839E+02  0.94381979954E+02  0.00000000000E+00 0. -1.
</event>
<event>
 7    1  0.5667373E-006  0.1647817E+03  0.7818608E-02  0.1321636E+00
          2   -1    0    0  502    0  0.00000000000E+00  0.00000000000E+00  0.34290297424E+03  0.34290297424E+03  0.00000000000E+00 0. -1.
          1   -1    0    0  501    0 -0.00000000000E+00 -0.00000000000E+00 -0.22933649694E+03  0.22933649694E+03  0.00000000000E+00 0. -1.
         25    2    1    2    0    0 -0.15288484735E+03 -0.97794183554E+02  0.80953492150E+02  0.23477123836E+03  0.12500635017E+03 0.  0.
          2    1    1    2  501    0  0.15085247298E+03  0.56367277529E+02 -0.10599219740E+03  0.19279026036E+03  0.00000000000E+00 0. -1.
          1    1    1    2  502    0  0.20323743707E+01  0.41426906024E+02  0.13860518254E+03  0.14467797246E+03  0.00000000000E+00 0. -1.
         22    1    3    3    0    0 -0.73990112585E+02 -0.39939915425E+02  0.10451657707E+03  0.13413966038E+03  0.00000000000E+00 0. -1.
         22    1    3    3    0    0 -0.78894734764E+02 -0.57854268129E+02 -0.23563084924E+02  0.10063157797E+03  0.00000000000E+00 0. -1.
</event>
<event>
 7    1  0.5667373E-006  0.7693567E+02  0.7818608E-02  0.1404260E+00
          2   -1    0    0  502    0  0.00000000000E+00  0.00000000000E+00  0.16766892903E+04  0.16766892903E+04  0.00000000000E+00 0. -1.
          1   -1    0    0  501    0 -0.00000000000E+00 -0.00000000000E+00 -0.46741801467E+03  0.46741801467E+03  0.00000000000E+00 0. -1.
         25    2    1    2    0    0 -0.67884209886E+02 -0.68011122675E+02  0.45319212245E+03  0.47983467465E+03  0.12499774553E+03 0.  0.
          2    1    1    2  501    0  0.44266891938E+02 -0.42845738437E+01 -0.45180889581E+03  0.45399250393E+03  0.00000000000E+00 0. -1.
          1    1    1    2  502    0  0.23617317949E+02  0.72295696519E+02  0.12078880490E+04  0.12102801264E+04  0.00000000000E+00 0. -1.
         22    1    3    3    0    0 -0.68562417357E+02 -0.10014439167E+03  0.30631910934E+03  0.32948611655E+03  0.00000000000E+00 0. -1.
         22    1    3    3    0    0  0.67820747062E+00  0.32133268990E+02  0.14687301311E+03  0.15034855810E+03  0.00000000000E+00 0. -1.
</event>
<event>
 7    1  0.5667373E-006  0.1544076E+03  0.7818608E-02  0.1221727E+00
          2   -1    0    0  502    0  0.00000000000E+00  0.00000000000E+00  0.13231483018E+04  0.13231483018E+04  0.00000000000E+00 0. -1.
          1   -1    0    0  501    0 -0.00000000000E+00 -0.00000000000E+00 -0.59808603964E+03  0.59808603964E+03  0.00000000000E+00 0. -1.
         25    2    1    2    0    0  0.64909819697E+02  0.21128249081E+02  0.28729869963E+03  0.32066347495E+03  0.12499933502E+03 0.  0.
          2    1    1    2  501    0 -0.80018231270E+02 -0.13632342354E+03 -0.56725062802E+03  0.58886353948E+03  0.00000000000E+00 0. -1.
          1    1    1    2  502    0  0.15108411572E+02  0.11519517446E+03  0.10050141906E+04  0.10117073270E+04  0.00000000000E+00 0. -1.
         22    1    3    3    0    0 -0.29366105055E+01 -0.91293404111E+01 -0.10217431185E+02  0.14013009585E+02  0.00000000000E+00 0. -1.
         22    1    3    3    0    0  0.67846430203E+02  0.30257589492E+02  0.29751613081E+03  0.30665046536E+03  0.00000000000E+00 0. -1.
</event>
<event>
 7    1  0.5667373E-006  0.9102571E+02  0.7818608E-02  0.1366202E+00
          2   -1    0    0  502    0  0.00000000000E+00  0.00000000000E+00  0.31480886321E+03  0.31480886321E+03  0.00000000000E+00 0. -1.
          1   -1    0    0  501    0 -0.00000000000E+00 -0.00000000000E+00 -0.54181592702E+03  0.54181592702E+03  0.00000000000E+00 0. -1.
         25    2    1    2    0    0  0.10683481711E+03 -0.46918269274E+01 -0.26580367877E+03  0.31258811653E+03  0.12499617417E+03 0.  0.
          2    1    1    2  501    0 -0.28909207033E+02 -0.42196316453E+02 -0.24279445595E+03  0.24812379816E+03  0.00000000000E+00 0. -1.
          1    1    1    2  502    0 -0.77925610079E+02  0.46888143380E+02  0.28159107091E+03  0.29591287555E+03  0.00000000000E+00 0. -1.
         22    1    3    3    0    0  0.92357836269E+02 -0.27486706323E+02 -0.81176080855E+02  0.12599621045E+03  0.00000000000E+00 0. -1.
         22    1    3    3    0    0  0.14476980843E+02  0.22794879395E+02 -0.18462759792E+03  0.18659190608E+03  0.00000000000E+00 0. -1.
</event>
<event>
 7    1  0.5667373E-006  0.5033935E+02  0.7818608E-02  0.1457738E+00
          2   -1    0    0  502    0  0.00000000000E+00  0.00000000000E+00  0.85906114225E+02  0.85906114225E+02  0.00000000000E+00 0. -1.
          1   -1    0    0  501    0 -0.00000000000E+00 -0.00000000000E+00 -0.20186308094E+04  0.20186308094E+04  0.00000000000E+00 0. -1.
         25    2    1    2    0    0 -0.59460393574E+02 -0.64213981092E-02 -0.45463708899E+02  0.14569775884E+03  0.12500139863E+03 0.  0.
          2    1    1    2  501    0  0.33816632954E+02 -0.37381752327E+02 -0.19082241800E+04  0.19088898557E+04  0.00000000000E+00 0. -1.
          1    1    1    2  502    0  0.25643760620E+02  0.37388173725E+02  0.20963193679E+02  0.49949309129E+02  0.00000000000E+00 0. -1.
         22    1    3    3    0    0 -0.19004709342E+02  0.39369542574E+02 -0.71281780988E+02  0.83619568048E+02  0.00000000000E+00 0. -1.
         22    1    3    3    0    0 -0.40455684232E+02 -0.39375963973E+02  0.25818072089E+02  0.62078190791E+02  0.00000000000E+00 0. -1.
</event>
<event>
 7    1  0.5667373E-006  0.5193587E+02  0.7818608E-02  0.1517392E+00
          2   -1    0    0  502    0  0.00000000000E+00  0.00000000000E+00  0.31780666905E+03  0.31780666905E+03  0.00000000000E+00 0. -1.
          1   -1    0    0  501    0 -0.00000000000E+00 -0.00000000000E+00 -0.51531615743E+03  0.51531615743E+03  0.00000000000E+00 0. -1.
         25    2    1    2    0    0  0.22709452151E+02  0.19351229739E+02  0.19449697057E+02  0.12998277992E+03  0.12500817194E+03 0.  0.
          2    1    1    2  501    0 -0.31405106509E+00  0.28953877765E+02 -0.45667006060E+03  0.45758711729E+03  0.00000000000E+00 0. -1.
          1    1    1    2  502    0 -0.22395401086E+02 -0.48305107504E+02  0.23971087516E+03  0.24555292927E+03  0.00000000000E+00 0. -1.
         22    1    3    3    0    0  0.28473369698E+02  0.32783744311E+02 -0.45802195504E+02  0.63113768593E+02  0.00000000000E+00 0.  1.
         22    1    3    3    0    0 -0.57639175467E+01 -0.13432514572E+02  0.65251892561E+02  0.66869011329E+02  0.00000000000E+00 0.  1.
</event>
<event>
 7    1  0.5667373E-006  0.4920827E+02  0.7818608E-02  0.1517320E+00
          2   -1    0    0  502    0  0.00000000000E+00  0.00000000000E+00  0.17923326328E+04  0.17923326328E+04  0.00000000000E+00 0. -1.
          1   -1    0    0  501    0 -0.00000000000E+00 -0.00000000000E+00 -0.10125297523E+04  0.10125297523E+04  0.00000000000E+00 0. -1.
         25    2    1    2    0    0 -0.40547164883E+02 -0.59354998685E+02  0.49123683092E+03  0.51196375807E+03  0.12500470819E+03 0.  0.
          2    1    1    2  501    0  0.39882107461E+02  0.28787000386E+02 -0.10013815151E+04  0.10025887555E+04  0.00000000000E+00 0. -1.
          1    1    1    2  502    0  0.66505742230E+00  0.30567998299E+02  0.12899475647E+04  0.12903098715E+04  0.00000000000E+00 0. -1.
         22    1    3    3    0    0 -0.82155590169E+02 -0.57452981795E+02  0.38540927491E+03  0.39823447277E+03  0.00000000000E+00 0.  1.
         22    1    3    3    0    0  0.41608425286E+02 -0.19020168898E+01  0.10582755601E+03  0.11372928530E+03  0.00000000000E+00 0.  1.
</event>
<event>
 7    1  0.5667373E-006  0.2157532E+03  0.7818608E-02  0.1298419E+00
          2   -1    0    0  502    0  0.00000000000E+00  0.00000000000E+00  0.65687155673E+03  0.65687155673E+03  0.00000000000E+00 0. -1.
          1   -1    0    0  501    0 -0.00000000000E+00 -0.00000000000E+00 -0.34622939529E+04  0.34622939529E+04  0.00000000000E+00 0. -1.
         25    2    1    2    0    0 -0.20864974650E+03  0.32865702809E+01 -0.67839837169E+02  0.25253220421E+03  0.12499900959E+03 0.  0.
          2    1    1    2  501    0  0.21320619998E+03  0.35554043098E+02 -0.32978884479E+04  0.33049643249E+04  0.00000000000E+00 0. -1.
          1    1    1    2  502    0 -0.45564534752E+01 -0.38840613379E+02  0.56030588894E+03  0.56166898054E+03  0.00000000000E+00 0. -1.
         22    1    3    3    0    0 -0.11491483039E+03  0.25565031472E+02 -0.96274062678E+02  0.15207788867E+03  0.00000000000E+00 0. -1.
         22    1    3    3    0    0 -0.93734916108E+02 -0.22278461191E+02  0.28434225509E+02  0.10045431554E+03  0.00000000000E+00 0. -1.
</event>
<event>
 7    1  0.5667373E-006  0.1043874E+03  0.7818608E-02  0.1384236E+00
          2   -1    0    0  502    0  0.00000000000E+00  0.00000000000E+00  0.47774052122E+03  0.47774052122E+03  0.00000000000E+00 0. -1.
          1   -1    0    0  501    0 -0.00000000000E+00 -0.00000000000E+00 -0.92159049806E+02  0.92159049806E+02  0.00000000000E+00 0. -1.
         25    2    1    2    0    0  0.88729402986E+02 -0.18497334487E+02  0.31426881242E+03  0.35014871116E+03  0.12499670046E+03 0.  0.
          2    1    1    2  501    0  0.32639894728E+02 -0.20345182685E+02 -0.36353984624E+02  0.52923542818E+02  0.00000000000E+00 0. -1.
          1    1    1    2  502    0 -0.12136929771E+03  0.38842517172E+02  0.10766664361E+03  0.16682731705E+03  0.00000000000E+00 0. -1.
         22    1    3    3    0    0  0.53095918803E+02  0.31728795035E+02  0.26252542627E+03  0.26971372317E+03  0.00000000000E+00 0. -1.
         22    1    3    3    0    0  0.35633484183E+02 -0.50226129522E+02  0.51743386155E+02  0.80434987987E+02  0.00000000000E+00 0. -1.
</event>
<event>
 7    1  0.5667373E-006  0.4187347E+02  0.7818608E-02  0.1533503E+00
          2   -1    0    0  502    0  0.00000000000E+00  0.00000000000E+00  0.12150611306E+04  0.12150611306E+04  0.00000000000E+00 0. -1.
          1   -1    0    0  501    0 -0.00000000000E+00 -0.00000000000E+00 -0.30875528966E+03  0.30875528966E+03  0.00000000000E+00 0. -1.
         25    2    1    2    0    0  0.17201301455E+02  0.11688844114E+01  0.17359896705E+03  0.21461328184E+03  0.12500003328E+03 0.  0.
          2    1    1    2  501    0  0.11560565759E+02  0.30129672964E+02 -0.28690065732E+03  0.28870994276E+03  0.00000000000E+00 0. -1.
          1    1    1    2  502    0 -0.28761867215E+02 -0.31298557375E+02  0.10196075312E+04  0.10204931956E+04  0.00000000000E+00 0. -1.
         22    1    3    3    0    0  0.60948816179E+02 -0.19542729639E+02  0.14473988800E+03  0.15826026555E+03  0.00000000000E+00 0.  1.
         22    1    3    3    0    0 -0.43747514724E+02  0.20711614050E+02  0.28859079050E+02  0.56353016287E+02  0.00000000000E+00 0.  1.
</event>
<event>
 7    1  0.5667373E-006  0.7024608E+02  0.7818608E-02  0.1368426E+00
          2   -1    0    0  502    0  0.00000000000E+00  0.00000000000E+00  0.16893007399E+03  0.16893007399E+03  0.00000000000E+00 0. -1.
          1   -1    0    0  501    0 -0.00000000000E+00 -0.00000000000E+00 -0.12817724801E+04  0.12817724801E+04  0.00000000000E+00 0. -1.
         25    2    1    2    0    0 -0.11731228077E+03 -0.53935810950E+01 -0.18621033911E+03  0.25316055476E+03  0.12499885662E+03 0.  0.
          2    1    1    2  501    0  0.62440607276E+02 -0.29574709779E+02 -0.10530753539E+04  0.10553393738E+04  0.00000000000E+00 0. -1.
          1    1    1    2  502    0  0.54871673491E+02  0.34968290874E+02  0.12644328688E+03  0.14220262556E+03  0.00000000000E+00 0. -1.
         22    1    3    3    0    0 -0.41044410343E+02  0.23786793963E+02  0.25361135715E+01  0.47506705417E+02  0.00000000000E+00 0.  1.
         22    1    3    3    0    0 -0.76267870424E+02 -0.29180375058E+02 -0.18874645268E+03  0.20565384934E+03  0.00000000000E+00 0.  1.
</event>
<event>
 7    1  0.5667373E-006  0.4443074E+02  0.7818608E-02  0.1512938E+00
          2   -1    0    0  502    0  0.00000000000E+00  0.00000000000E+00  0.73210380557E+02  0.73210380557E+02  0.00000000000E+00 0. -1.
          1   -1    0    0  501    0 -0.00000000000E+00 -0.00000000000E+00 -0.29075139019E+04  0.29075139019E+04  0.00000000000E+00 0. -1.
         25    2    1    2    0    0  0.23547358008E+02 -0.37382389015E+02 -0.11270961060E+04  0.11348666158E+04  0.12499872998E+03 0.  0.
          2    1    1    2  501    0 -0.34391748003E+02 -0.57950063410E+01 -0.17691958349E+04  0.17695395663E+04  0.00000000000E+00 0. -1.
          1    1    1    2  502    0  0.10844389995E+02  0.43177395356E+02  0.61988419613E+02  0.76318100279E+02  0.00000000000E+00 0. -1.
         22    1    3    3    0    0 -0.96130641157E+01 -0.66830715888E+02 -0.94648890792E+03  0.94889409757E+03  0.00000000000E+00 0. -1.
         22    1    3    3    0    0  0.33160422124E+02  0.29448326873E+02 -0.18060719807E+03  0.18597251826E+03  0.00000000000E+00 0. -1.
</event>
<event>
 7    1  0.5667373E-006  0.4902295E+02  0.7818608E-02  0.1566895E+00
          2   -1    0    0  502    0  0.00000000000E+00  0.00000000000E+00  0.87387876311E+03  0.87387876311E+03  0.00000000000E+00 0. -1.
          1   -1    0    0  501    0 -0.00000000000E+00 -0.00000000000E+00 -0.24558899179E+03  0.24558899179E+03  0.00000000000E+00 0. -1.
         25    2    1    2    0    0 -0.31662661060E+02 -0.55298883685E+02  0.50668251238E+01  0.14039616825E+03  0.12499968280E+03 0.  0.
          2    1    1    2  501    0  0.35188255731E+02  0.33335453637E+02 -0.17446517590E+03  0.18107336472E+03  0.00000000000E+00 0. -1.
          1    1    1    2  502    0 -0.35255946702E+01  0.21963430048E+02  0.79768812209E+03  0.79799822193E+03  0.00000000000E+00 0. -1.
         22    1    3    3    0    0 -0.66331484569E+02  0.26076898461E+01  0.23522051651E+02  0.70426932386E+02  0.00000000000E+00 0. -1.
         22    1    3    3    0    0  0.34668823509E+02 -0.57906573531E+02 -0.18455226527E+02  0.69969235866E+02  0.00000000000E+00 0. -1.
</event>
<event>
 7    1  0.5667373E-006  0.3533134E+02  0.7818608E-02  0.1561634E+00
          2   -1    0    0  502    0  0.00000000000E+00  0.00000000000E+00  0.45331635866E+02  0.45331635866E+02  0.00000000000E+00 0. -1.
          1   -1    0    0  501    0 -0.00000000000E+00 -0.00000000000E+00 -0.10220316423E+04  0.10220316423E+04  0.00000000000E+00 0. -1.
         25    2    1    2    0    0 -0.42922928487E+02 -0.39750339863E+02 -0.26621739836E+03  0.29986477373E+03  0.12499884808E+03 0.  0.
          2    1    1    2  501    0  0.33676361924E+02  0.92141824284E+01 -0.72951342323E+03  0.73034843272E+03  0.00000000000E+00 0. -1.
          1    1    1    2  502    0  0.92465665639E+01  0.30536157435E+02  0.19030815148E+02  0.37150071727E+02  0.00000000000E+00 0. -1.
         22    1    3    3    0    0 -0.24411893031E+02 -0.43674384570E+02 -0.27463435300E+03  0.27915483201E+03  0.00000000000E+00 0. -1.
         22    1    3    3    0    0 -0.18511035456E+02  0.39240447069E+01  0.84169546341E+01  0.20709941715E+02  0.00000000000E+00 0. -1.
</event>
<event>
 7    1  0.5667373E-006  0.1086168E+03  0.7818608E-02  0.1463222E+00
          2   -1    0    0  502    0  0.00000000000E+00  0.00000000000E+00  0.55738210325E+03  0.55738210325E+03  0.00000000000E+00 0. -1.
          1   -1    0    0  501    0 -0.00000000000E+00 -0.00000000000E+00 -0.13480076393E+03  0.13480076393E+03  0.00000000000E+00 0. -1.
         25    2    1    2    0    0 -0.83680196288E+02 -0.33906097018E+02 -0.13714080873E+02  0.15477821351E+03  0.12496487786E+03 0.  0.
          2    1    1    2  501    0 -0.19998237919E+02 -0.27896013458E+01 -0.42013747128E+02  0.46614014452E+02  0.00000000000E+00 0. -1.
          1    1    1    2  502    0  0.10367843421E+03  0.36695698364E+02  0.47830916732E+03  0.49079063922E+03  0.00000000000E+00 0. -1.
         22    1    3    3    0    0  0.57378788487E+01  0.41332785014E+01 -0.50412726158E+02  0.50906288448E+02  0.00000000000E+00 0.  1.
         22    1    3    3    0    0 -0.89418075137E+02 -0.38039375519E+02  0.36698645285E+02  0.10387192507E+03  0.00000000000E+00 0.  1.
</event>
<event>
 7    1  0.5667373E-006  0.1578497E+03  0.7818608E-02  0.1303919E+00
          2   -1    0    0  502    0  0.00000000000E+00  0.00000000000E+00  0.16514370455E+04  0.16514370455E+04  0.00000000000E+00 0. -1.
          1   -1    0    0  501    0 -0.00000000000E+00 -0.00000000000E+00 -0.86258764688E+03  0.86258764688E+03  0.00000000000E+00 0. -1.
         25    2    1    2    0    0 -0.14382108710E+03  0.10760136171E+03  0.10516464556E+03  0.24279030431E+03  0.12499988422E+03 0.  0.
          2    1    1    2  501    0 -0.24245397524E+01 -0.50757136785E+02 -0.78878918944E+03  0.79042428525E+03  0.00000000000E+00 0. -1.
          1    1    1    2  502    0  0.14624562685E+03 -0.56844224928E+02  0.14724739426E+04  0.14808101029E+04  0.00000000000E+00 0. -1.
         22    1    3    3    0    0 -0.27370184316E+02  0.80542072923E+02  0.23348518343E+01  0.85097614733E+02  0.00000000000E+00 0.  1.
         22    1    3    3    0    0 -0.11645090278E+03  0.27059288790E+02  0.10282979372E+03  0.15769268958E+03  0.00000000000E+00 0.  1.
</event>
<event>
 7    1  0.5667373E-006  0.5483015E+02  0.7818608E-02  0.1497844E+00
          2   -1    0    0  502    0  0.00000000000E+00  0.00000000000E+00  0.85858557025E+02  0.85858557025E+02  0.00000000000E+00 0. -1.
          1   -1    0    0  501    0 -0.00000000000E+00 -0.00000000000E+00 -0.22083249018E+04  0.22083249018E+04  0.00000000000E+00 0. -1.
         25    2    1    2    0    0 -0.67637512979E+01 -0.81324849004E+02 -0.88655268219E+02  0.17362020866E+03  0.12499896349E+03 0.  0.
          2    1    1    2  501    0  0.10043633781E+02  0.29672728989E+02 -0.20615868944E+04  0.20618248880E+04  0.00000000000E+00 0. -1.
          1    1    1    2  502    0 -0.32798824828E+01  0.51652120014E+02  0.27775817889E+02  0.58738362171E+02  0.00000000000E+00 0. -1.
         22    1    3    3    0    0 -0.41124459159E+02 -0.92583304361E+02 -0.92596437737E+02  0.13724791317E+03  0.00000000000E+00 0. -1.
         22    1    3    3    0    0  0.34360707861E+02  0.11258455357E+02  0.39411695180E+01  0.36372295486E+02  0.00000000000E+00 0. -1.
</event>
<event>
 7    1  0.5667373E-006  0.1367421E+03  0.7818608E-02  0.1255989E+00
          2   -1    0    0  502    0  0.00000000000E+00  0.00000000000E+00  0.78859065919E+03  0.78859065919E+03  0.00000000000E+00 0. -1.
          1   -1    0    0  501    0 -0.00000000000E+00 -0.00000000000E+00 -0.25144115376E+03  0.25144115376E+03  0.00000000000E+00 0. -1.
         25    2    1    2    0    0  0.40699201489E+02 -0.14862554285E+02 -0.78606132341E+02  0.15388815283E+03  0.12500127606E+03 0.  0.
          2    1    1    2  501    0 -0.17453633452E+03 -0.13173650465E+02 -0.68796553083E+02  0.18806765498E+03  0.00000000000E+00 0. -1.
          1    1    1    2  502    0  0.13383713303E+03  0.28036204749E+02  0.68455219085E+03  0.69807600514E+03  0.00000000000E+00 0. -1.
         22    1    3    3    0    0 -0.31965273757E+02 -0.88031051176E+01  0.14026198450E+02  0.36000105958E+02  0.00000000000E+00 0. -1.
         22    1    3    3    0    0  0.72664475246E+02 -0.60594491671E+01 -0.92632330791E+02  0.11788804687E+03  0.00000000000E+00 0. -1.
</event>
<event>
 7    1  0.5667373E-006  0.2713498E+03  0.7818608E-02  0.1237852E+00
          2   -1    0    0  502    0  0.00000000000E+00  0.00000000000E+00  0.26911203960E+03  0.26911203960E+03  0.00000000000E+00 0. -1.
          1   -1    0    0  501    0 -0.00000000000E+00 -0.00000000000E+00 -0.10746771566E+04  0.10746771566E+04  0.00000000000E+00 0. -1.
         25    2    1    2    0    0 -0.74322027470E+02 -0.25038691830E+03 -0.32147779481E+03  0.43265432811E+03  0.12499768980E+03 0.  0.
          2    1    1    2  501    0 -0.55373949682E+02  0.81383334701E+01 -0.60738455729E+03  0.60995779134E+03  0.00000000000E+00 0. -1.
          1    1    1    2  502    0  0.12969597715E+03  0.24224858483E+03  0.12329723514E+03  0.30117707671E+03  0.00000000000E+00 0. -1.
         22    1    3    3    0    0  0.53901953677E+00  0.26635345440E+01  0.91962016537E+01  0.95893213099E+01  0.00000000000E+00 0.  1.
         22    1    3    3    0    0 -0.74861047007E+02 -0.25305045284E+03 -0.33067399646E+03  0.42306500680E+03  0.00000000000E+00 0.  1.
</event>
<event>
 7    1  0.5667373E-006  0.1166369E+03  0.7818608E-02  0.1279001E+00
          2   -1    0    0  502    0  0.00000000000E+00  0.00000000000E+00  0.47415426081E+03  0.47415426081E+03  0.00000000000E+00 0. -1.
          1   -1    0    0  501    0 -0.00000000000E+00 -0.00000000000E+00 -0.30960443218E+04  0.30960443218E+04  0.00000000000E+00 0. -1.
         25    2    1    2    0    0  0.19917957771E+03  0.24537103801E+02 -0.33840162634E+03  0.41281418381E+03  0.12500126403E+03 0.  0.
          2    1    1    2  501    0 -0.84284131017E+02 -0.20746815037E+02 -0.27121689180E+04  0.27135575330E+04  0.00000000000E+00 0. -1.
          1    1    1    2  502    0 -0.11489544669E+03 -0.37902887641E+01  0.42868048337E+03  0.44382686577E+03  0.00000000000E+00 0. -1.
         22    1    3    3    0    0 -0.13933859813E+02 -0.11356077594E+02 -0.12998123786E+02  0.22182519459E+02  0.00000000000E+00 0.  1.
         22    1    3    3    0    0  0.21311343752E+03  0.35893181395E+02 -0.32540350255E+03  0.39063166435E+03  0.00000000000E+00 0.  1.
</event>
<event>
 7    1  0.5667373E-006  0.9047272E+02  0.7818608E-02  0.1474218E+00
          2   -1    0    0  502    0  0.00000000000E+00  0.00000000000E+00  0.89239042429E+03  0.89239042429E+03  0.00000000000E+00 0. -1.
          1   -1    0    0  501    0 -0.00000000000E+00 -0.00000000000E+00 -0.18653762625E+03  0.18653762625E+03  0.00000000000E+00 0. -1.
         25    2    1    2    0    0 -0.92742351291E+02  0.31613311167E+02  0.43244749133E+03  0.46069172914E+03  0.12500196548E+03 0.  0.
          2    1    1    2  501    0  0.17035910151E+02  0.14547590618E+02 -0.16725241169E+03  0.16874603356E+03  0.00000000000E+00 0. -1.
          1    1    1    2  502    0  0.75706441140E+02 -0.46160901785E+02  0.44065771840E+03  0.44949028785E+03  0.00000000000E+00 0. -1.
         22    1    3    3    0    0 -0.76342191549E+02  0.73293052961E+02  0.36250151247E+03  0.37763388138E+03  0.00000000000E+00 0.  1.
         22    1    3    3    0    0 -0.16400159741E+02 -0.41679741794E+02  0.69945978855E+02  0.83057847754E+02  0.00000000000E+00 0.  1.
</event>
<event>
 7    1  0.5667373E-006  0.3821915E+02  0.7818608E-02  0.1612711E+00
          2   -1    0    0  502    0  0.00000000000E+00  0.00000000000E+00  0.12578587234E+04  0.12578587234E+04  0.00000000000E+00 0. -1.
          1   -1    0    0  501    0 -0.00000000000E+00 -0.00000000000E+00 -0.44780172679E+03  0.44780172679E+03  0.00000000000E+00 0. -1.
         25    2    1    2    0    0 -0.33841265759E+02 -0.73973557499E+01 -0.28437708272E+03  0.31256125204E+03  0.12499703580E+03 0.  0.
          2    1    1    2  501    0  0.28083577430E+02  0.28193337471E+02 -0.14658605301E+03  0.15189148277E+03  0.00000000000E+00 0. -1.
          1    1    1    2  502    0  0.57576883289E+01 -0.20795981721E+02  0.12410201324E+04  0.12412077154E+04  0.00000000000E+00 0. -1.
         22    1    3    3    0    0 -0.11899053033E+02  0.35082274466E+02 -0.25225540715E+03  0.25496106346E+03  0.00000000000E+00 0.  1.
         22    1    3    3    0    0 -0.21942212726E+02 -0.42479630216E+02 -0.32121675574E+02  0.57600188578E+02  0.00000000000E+00 0.  1.
</event>
<event>
 7    1  0.5667373E-006  0.8027603E+02  0.7818608E-02  0.1465584E+00
          2   -1    0    0  502    0  0.00000000000E+00  0.00000000000E+00  0.10008327013E+04  0.10008327013E+04  0.00000000000E+00 0. -1.
          1   -1    0    0  501    0 -0.00000000000E+00 -0.00000000000E+00 -0.39121393345E+03  0.39121393345E+03  0.00000000000E+00 0. -1.
         25    2    1    2    0    0  0.99346443890E+02  0.34462161350E+02  0.20319187352E+03  0.26070908220E+03  0.12499972639E+03 0.  0.
          2    1    1    2  501    0 -0.72510806160E+02 -0.33352681565E+02 -0.35782276752E+03  0.36661608167E+03  0.00000000000E+00 0. -1.
          1    1    1    2  502    0 -0.26835637730E+02 -0.11094797849E+01  0.76424966185E+03  0.76472147089E+03  0.00000000000E+00 0. -1.
         22    1    3    3    0    0  0.85228131436E+02 -0.35012010342E+02  0.12278814272E+03  0.15351417931E+03  0.00000000000E+00 0.  1.
         22    1    3    3    0    0  0.14118312454E+02  0.69474171692E+02  0.80403730795E+02  0.10719490288E+03  0.00000000000E+00 0.  1.
</event>
<event>
 7    1  0.5667373E-006  0.5209103E+02  0.7818608E-02  0.1466181E+00
          2   -1    0    0  502    0  0.00000000000E+00  0.00000000000E+00  0.18039835906E+04  0.18039835906E+04  0.00000000000E+00 0. -1.
          1   -1    0    0  501    0 -0.00000000000E+00 -0.00000000000E+00 -0.27417525669E+03  0.27417525669E+03  0.00000000000E+00 0. -1.
         25    2    1    2    0    0 -0.36841557107E+02 -0.33193048341E+02 -0.67963328205E+02  0.15067527474E+03  0.12499978259E+03 0.  0.
          2    1    1    2  501    0  0.11951939964E+01  0.53878345688E+02 -0.16020367165E+03  0.16902520828E+03  0.00000000000E+00 0. -1.
          1    1    1    2  502    0  0.35646363111E+02 -0.20685297347E+02  0.17579753338E+04  0.17584583643E+04  0.00000000000E+00 0. -1.
         22    1    3    3    0    0 -0.18972680724E+02  0.46208129785E+02 -0.41956104611E+02  0.65233952710E+02  0.00000000000E+00 0. -1.
         22    1    3    3    0    0 -0.17868876383E+02 -0.79401178126E+02 -0.26007223594E+02  0.85441322029E+02  0.00000000000E+00 0. -1.
</event>
<event>
 7    1  0.5667373E-006  0.8372374E+02  0.7818608E-02  0.1384025E+00
          2   -1    0    0  502    0  0.00000000000E+00  0.00000000000E+00  0.79422948079E+03  0.79422948079E+03  0.00000000000E+00 0. -1.
          1   -1    0    0  501    0 -0.00000000000E+00 -0.00000000000E+00 -0.36133909470E+03  0.36133909470E+03  0.00000000000E+00 0. -1.
         25    2    1    2    0    0 -0.11190643092E+03  0.64993787423E+02  0.44191189691E+02  0.18526769681E+03  0.12499606614E+03 0.  0.
          2    1    1    2  501    0  0.37745019065E+02 -0.29711848689E+02 -0.28631115426E+03  0.29031286136E+03  0.00000000000E+00 0. -1.
          1    1    1    2  502    0  0.74161411857E+02 -0.35281938734E+02  0.67501035066E+03  0.67998801733E+03  0.00000000000E+00 0. -1.
         22    1    3    3    0    0 -0.71493481713E+02  0.75036800994E+02  0.79539212627E+02  0.13064580275E+03  0.00000000000E+00 0. -1.
         22    1    3    3    0    0 -0.40412949210E+02 -0.10043013571E+02 -0.35348022936E+02  0.54621894062E+02  0.00000000000E+00 0. -1.
</event>
<event>
 7    1  0.5667373E-006  0.2012988E+03  0.7818608E-02  0.1317401E+00
          2   -1    0    0  502    0  0.00000000000E+00  0.00000000000E+00  0.21831784777E+04  0.21831784777E+04  0.00000000000E+00 0. -1.
          1   -1    0    0  501    0 -0.00000000000E+00 -0.00000000000E+00 -0.41334991205E+03  0.41334991205E+03  0.00000000000E+00 0. -1.
         25    2    1    2    0    0  0.84414334132E+02  0.14742877171E+03  0.10034822446E+03  0.23357000337E+03  0.12499663111E+03 0.  0.
          2    1    1    2  501    0  0.73254526917E+01  0.34493411924E+02 -0.34067940430E+03  0.34249950984E+03  0.00000000000E+00 0. -1.
          1    1    1    2  502    0 -0.91739786824E+02 -0.18192218363E+03  0.20101597454E+04  0.20204588765E+04  0.00000000000E+00 0. -1.
         22    1    3    3    0    0  0.51422741126E+02  0.59846350033E+02 -0.19723669942E+02  0.81332078992E+02  0.00000000000E+00 0. -1.
         22    1    3    3    0    0  0.32991593006E+02  0.87582421677E+02  0.12007189440E+03  0.15223792438E+03  0.00000000000E+00 0. -1.
</event>
<event>
 7    1  0.5667373E-006  0.1327143E+03  0.7818608E-02  0.1296230E+00
          2   -1    0    0  502    0  0.00000000000E+00  0.00000000000E+00  0.15111715630E+03  0.15111715630E+03  0.00000000000E+00 0. -1.
          1   -1    0    0  501    0 -0.00000000000E+00 -0.00000000000E+00 -0.52288711381E+03  0.52288711381E+03  0.00000000000E+00 0. -1.
         25    2    1    2    0    0  0.92883015130E+02 -0.10186077423E+02 -0.89138452742E+02  0.17972928452E+03  0.12500376509E+03 0.  0.
          2    1    1    2  501    0 -0.14294986160E+03 -0.31074192739E+02 -0.36277690005E+03  0.39116153645E+03  0.00000000000E+00 0. -1.
          1    1    1    2  502    0  0.50066846469E+02  0.41260270162E+02  0.80145395282E+02  0.10311344914E+03  0.00000000000E+00 0. -1.
         22    1    3    3    0    0  0.88357277568E+02  0.45739247256E+02 -0.63579837953E+02  0.11807405741E+03  0.00000000000E+00 0. -1.
         22    1    3    3    0    0  0.45257375623E+01 -0.55925324679E+02 -0.25558614789E+02  0.61655227117E+02  0.00000000000E+00 0. -1.
</event>
<event>
 7    1  0.5667373E-006  0.6726949E+02  0.7818608E-02  0.1434392E+00
          2   -1    0    0  502    0  0.00000000000E+00  0.00000000000E+00  0.13953687197E+04  0.13953687197E+04  0.00000000000E+00 0. -1.
          1   -1    0    0  501    0 -0.00000000000E+00 -0.00000000000E+00 -0.22510022855E+03  0.22510022855E+03  0.00000000000E+00 0. -1.
         25    2    1    2    0    0 -0.88262520884E+01  0.55720969512E+02  0.17072760901E+02  0.13820624158E+03  0.12500702731E+03 0.  0.
          2    1    1    2  501    0 -0.31035883223E+02 -0.61868929200E+02 -0.15692972009E+03  0.17151655167E+03  0.00000000000E+00 0. -1.
          1    1    1    2  502    0  0.39862135312E+02  0.61479596873E+01  0.13101254503E+04  0.13107461550E+04  0.00000000000E+00 0. -1.
         22    1    3    3    0    0  0.28686764170E+02  0.24528543139E+02 -0.45336058199E+02  0.58990999653E+02  0.00000000000E+00 0. -1.
         22    1    3    3    0    0 -0.37513016258E+02  0.31192426373E+02  0.62408819100E+02  0.79215241925E+02  0.00000000000E+00 0. -1.
</event>
<event>
 7    1  0.5667373E-006  0.3013167E+03  0.7818608E-02  0.1162074E+00
          2   -1    0    0  502    0  0.00000000000E+00  0.00000000000E+00  0.65035859957E+03  0.65035859957E+03  0.00000000000E+00 0. -1.
          1   -1    0    0  501    0 -0.00000000000E+00 -0.00000000000E+00 -0.10213733775E+04  0.10213733775E+04  0.00000000000E+00 0. -1.
         25    2    1    2    0    0 -0.16076490676E+03  0.26678767159E+03 -0.11465627370E+03  0.35467151845E+03  0.12499923175E+03 0.  0.
          2    1    1    2  501    0  0.24065991683E+03 -0.18424437918E+03 -0.75068451530E+03  0.80956187431E+03  0.00000000000E+00 0. -1.
          1    1    1    2  502    0 -0.79895010068E+02 -0.82543292413E+02  0.49432601112E+03  0.50749858426E+03  0.00000000000E+00 0. -1.
         22    1    3    3    0    0 -0.11683273291E+03  0.17606414841E+03 -0.13293253378E+02  0.21171958440E+03  0.00000000000E+00 0. -1.
         22    1    3    3    0    0 -0.43932173858E+02  0.90723523188E+02 -0.10136302033E+03  0.14295193405E+03  0.00000000000E+00 0. -1.
</event>
<event>
 7    1  0.5667373E-006  0.5312099E+02  0.7818608E-02  0.1437878E+00
          2   -1    0    0  502    0  0.00000000000E+00  0.00000000000E+00  0.25016026256E+04  0.25016026256E+04  0.00000000000E+00 0. -1.
          1   -1    0    0  501    0 -0.00000000000E+00 -0.00000000000E+00 -0.20974474652E+02  0.20974474652E+02  0.00000000000E+00 0. -1.
         25    2    1    2    0    0  0.81539049602E+02 -0.59285456615E+01  0.13949518849E+04  0.14029257622E+04  0.12500467559E+03 0.  0.
          2    1    1    2  501    0 -0.42345237544E+02 -0.26124646656E+02  0.21385286964E+02  0.54156687528E+02  0.00000000000E+00 0. -1.
          1    1    1    2  502    0 -0.39193812058E+02  0.32053192317E+02  0.10642909791E+04  0.10654946504E+04  0.00000000000E+00 0. -1.
         22    1    3    3    0    0 -0.28094499412E+02 -0.11891766534E+02  0.14578293709E+03  0.14894085992E+03  0.00000000000E+00 0. -1.
         22    1    3    3    0    0  0.10963354901E+03  0.59632208722E+01  0.12491689478E+04  0.12539849023E+04  0.00000000000E+00 0. -1.
</event>
<event>
 7    1  0.5667373E-006  0.7273425E+02  0.7818608E-02  0.1390841E+00
          2   -1    0    0  502    0  0.00000000000E+00  0.00000000000E+00  0.30357140368E+04  0.30357140368E+04  0.00000000000E+00 0. -1.
          1   -1    0    0  501    0 -0.00000000000E+00 -0.00000000000E+00 -0.39426460595E+03  0.39426460595E+03  0.00000000000E+00 0. -1.
         25    2    1    2    0    0 -0.83815434804E+02  0.62124220564E+02  0.74060083283E+03  0.75828622290E+03  0.12499582534E+03 0.  0.
          2    1    1    2  501    0  0.71776873999E+02 -0.11191277634E+02 -0.38169630117E+03  0.38854759124E+03  0.00000000000E+00 0. -1.
          1    1    1    2  502    0  0.12038560805E+02 -0.50932942931E+02  0.22825448992E+04  0.22831448286E+04  0.00000000000E+00 0. -1.
         22    1    3    3    0    0  0.30410496873E+02  0.74495490860E+01  0.85378444326E+02  0.90938291479E+02  0.00000000000E+00 0.  1.
         22    1    3    3    0    0 -0.11422593168E+03  0.54674671478E+02  0.65522238850E+03  0.66734793142E+03  0.00000000000E+00 0.  1.
</event>
<event>
 7    1  0.5667373E-006  0.9189974E+02  0.7818608E-02  0.1384010E+00
          2   -1    0    0  502    0  0.00000000000E+00  0.00000000000E+00  0.81556195263E+03  0.81556195263E+03  0.00000000000E+00 0. -1.
          1   -1    0    0  501    0 -0.00000000000E+00 -0.00000000000E+00 -0.86187043136E+03  0.86187043136E+03  0.00000000000E+00 0. -1.
         25    2    1    2    0    0  0.68041470400E+02  0.66398807905E+02 -0.64820137889E+03  0.66695437922E+03  0.12499869195E+03 0.  0.
          2    1    1    2  501    0  0.19730252683E+02 -0.39068530991E+02 -0.19928941023E+03  0.20403897180E+03  0.00000000000E+00 0. -1.
          1    1    1    2  502    0 -0.87771723084E+02 -0.27330276914E+02  0.80118231039E+03  0.80643903296E+03  0.00000000000E+00 0. -1.
         22    1    3    3    0    0  0.92965633447E+02  0.81839288188E+02 -0.45564314317E+03  0.47217682282E+03  0.00000000000E+00 0.  1.
         22    1    3    3    0    0 -0.24924163047E+02 -0.15440480283E+02 -0.19255823572E+03  0.19477755640E+03  0.00000000000E+00 0.  1.
</event>
<event>
 7    1  0.5667373E-006  0.1894394E+03  0.7818608E-02  0.1208793E+00
          2   -1    0    0  502    0  0.00000000000E+00  0.00000000000E+00  0.30737116683E+04  0.30737116683E+04  0.00000000000E+00 0. -1.
          1   -1    0    0  501    0 -0.00000000000E+00 -0.00000000000E+00 -0.40029084265E+03  0.40029084265E+03  0.00000000000E+00 0. -1.
         25    2    1    2    0    0 -0.26868319410E+03  0.11249295367E+03  0.91679627995E+03  0.97004812370E+03  0.12503047613E+03 0.  0.
          2    1    1    2  501    0  0.16170998586E+03 -0.93836295634E+02 -0.34879098722E+03  0.39574047389E+03  0.00000000000E+00 0. -1.
          1    1    1    2  502    0  0.10697320824E+03 -0.18656658034E+02  0.21054155329E+04  0.21082139133E+04  0.00000000000E+00 0. -1.
         22    1    3    3    0    0 -0.10923520519E+03  0.87810353145E+02  0.27985251076E+03  0.31298628716E+03  0.00000000000E+00 0. -1.
         22    1    3    3    0    0 -0.15944798892E+03  0.24682600523E+02  0.63694376918E+03  0.65706183654E+03  0.00000000000E+00 0. -1.
</event>
<event>
 7    1  0.5667373E-006  0.5332353E+02  0.7818608E-02  0.1556764E+00
          2   -1    0    0  502    0  0.00000000000E+00  0.00000000000E+00  0.67984175440E+03  0.67984175440E+03  0.00000000000E+00 0. -1.
          1   -1    0    0  501    0 -0.00000000000E+00 -0.00000000000E+00 -0.27336690302E+03  0.27336690302E+03  0.00000000000E+00 0. -1.
         25    2    1    2    0    0  0.47990959882E+02 -0.56046536075E+02 -0.49608215657E+01  0.14524319622E+03  0.12500651928E+03 0.  0.
          2    1    1    2  501    0 -0.31514872011E+02  0.41766037174E+02 -0.19461350356E+03  0.20152420397E+03  0.00000000000E+00 0. -1.
          1    1    1    2  502    0 -0.16476087870E+02  0.14280498901E+02  0.60604917650E+03  0.60644125722E+03  0.00000000000E+00 0. -1.
         22    1    3    3    0    0 -0.21832137206E+02 -0.37699238085E+02  0.40866905965E+02  0.59732560387E+02  0.00000000000E+00 0. -1.
         22    1    3    3    0    0  0.69823097088E+02 -0.18347297989E+02 -0.45827727531E+02  0.85510635836E+02  0.00000000000E+00 0. -1.
</event>
<event>
 7    1  0.5667373E-006  0.6012078E+02  0.7818608E-02  0.1420713E+00
          2   -1    0    0  502    0  0.00000000000E+00  0.00000000000E+00  0.12864233932E+04  0.12864233932E+04  0.00000000000E+00 0. -1.
          1   -1    0    0  501    0 -0.00000000000E+00 -0.00000000000E+00 -0.47820827882E+03  0.47820827882E+03  0.00000000000E+00 0. -1.
         25    2    1    2    0    0 -0.42654222664E+02 -0.10735628636E+00  0.48108544555E+02  0.14056903645E+03  0.12500331081E+03 0.  0.
          2    1    1    2  501    0  0.35309421277E+02  0.49644399906E+02 -0.42930065354E+03  0.43360162916E+03  0.00000000000E+00 0. -1.
          1    1    1    2  502    0  0.73448013875E+01 -0.49537043620E+02  0.11894072234E+04  0.11904610064E+04  0.00000000000E+00 0. -1.
         22    1    3    3    0    0 -0.57427995830E+02  0.50648379911E+02  0.42057411062E+02  0.87361655879E+02  0.00000000000E+00 0.  1.
         22    1    3    3    0    0  0.14773773166E+02 -0.50755736197E+02  0.60511334927E+01  0.53207380569E+02  0.00000000000E+00 0.  1.
</event>
<event>
 7    1  0.5667373E-006  0.1172913E+03  0.7818608E-02  0.1330335E+00
          2   -1    0    0  502    0  0.00000000000E+00  0.00000000000E+00  0.10014203701E+04  0.10014203701E+04  0.00000000000E+00 0. -1.
          1   -1    0    0  501    0 -0.00000000000E+00 -0.00000000000E+00 -0.35305717013E+03  0.35305717013E+03  0.00000000000E+00 0. -1.
         25    2    1    2    0    0 -0.10916269109E+03  0.12047018010E+03  0.10722550876E+02  0.20536970569E+03  0.12502873869E+03 0.  0.
          2    1    1    2  501    0  0.62610962000E+02 -0.93198340094E+02 -0.24254423987E+03  0.26727097009E+03  0.00000000000E+00 0. -1.
          1    1    1    2  502    0  0.46551729091E+02 -0.27271840010E+02  0.88018488901E+03  0.88183686449E+03  0.00000000000E+00 0. -1.
         22    1    3    3    0    0 -0.39061535946E+02  0.15453076950E+02  0.57073761056E+02  0.70866179372E+02  0.00000000000E+00 0.  1.
         22    1    3    3    0    0 -0.70101155145E+02  0.10501710315E+03 -0.46351210180E+02  0.13450352632E+03  0.00000000000E+00 0.  1.
</event>
<event>
 7    1  0.5667373E-006  0.9561227E+02  0.7818608E-02  0.1376292E+00
          2   -1    0    0  502    0  0.00000000000E+00  0.00000000000E+00  0.24002650819E+04  0.24002650819E+04  0.00000000000E+00 0. -1.
          1   -1    0    0  501    0 -0.00000000000E+00 -0.00000000000E+00 -0.14658082409E+03  0.14658082409E+03  0.00000000000E+00 0. -1.
         25    2    1    2    0    0  0.16426196732E+02 -0.62750311704E+02  0.30985304635E+03  0.34035466377E+03  0.12499986103E+03 0.  0.
          2    1    1    2  501    0 -0.28166133679E+02 -0.34839330579E+02 -0.12630892874E+03  0.13401886255E+03  0.00000000000E+00 0. -1.
          1    1    1    2  502    0  0.11739936947E+02  0.97589642283E+02  0.20701401402E+04  0.20724723797E+04  0.00000000000E+00 0. -1.
         22    1    3    3    0    0 -0.48525155422E+02 -0.57025136885E+02  0.18298007838E+03  0.19770752648E+03  0.00000000000E+00 0. -1.
         22    1    3    3    0    0  0.64951352154E+02 -0.57251748189E+01  0.12687296798E+03  0.14264713729E+03  0.00000000000E+00 0. -1.
</event>
<event>
 7    1  0.5667373E-006  0.6115694E+02  0.7818608E-02  0.1422891E+00
          2   -1    0    0  502    0  0.00000000000E+00  0.00000000000E+00  0.90281993195E+02  0.90281993195E+02  0.00000000000E+00 0. -1.
          1   -1    0    0  501    0 -0.00000000000E+00 -0.00000000000E+00 -0.31735673205E+03  0.31735673205E+03  0.00000000000E+00 0. -1.
         25    2    1    2    0    0 -0.33603545129E+02  0.40812233890E+01 -0.25498716616E+02  0.13198230825E+03  0.12499316186E+03 0.  0.
          2    1    1    2  501    0  0.88420543407E+01 -0.60514373167E+02 -0.20500676919E+03  0.21393444486E+03  0.00000000000E+00 0. -1.
          1    1    1    2  502    0  0.24761490788E+02  0.56433149778E+02  0.34307469487E+01  0.61721972138E+02  0.00000000000E+00 0. -1.
         22    1    3    3    0    0 -0.36396677502E+02 -0.24470079402E+01  0.46798980224E+02  0.59336755313E+02  0.00000000000E+00 0. -1.
         22    1    3    3    0    0  0.27931323734E+01  0.65282313293E+01 -0.72297696840E+02  0.72645552934E+02  0.00000000000E+00 0. -1.
</event>
<event>
 7    1  0.5667373E-006  0.1981565E+03  0.7818608E-02  0.1185415E+00
          2   -1    0    0  502    0  0.00000000000E+00  0.00000000000E+00  0.10202077041E+04  0.10202077041E+04  0.00000000000E+00 0. -1.
          1   -1    0    0  501    0 -0.00000000000E+00 -0.00000000000E+00 -0.50812672190E+03  0.50812672190E+03  0.00000000000E+00 0. -1.
         25    2    1    2    0    0  0.27823980402E+03 -0.54237300322E+01  0.27293746719E+03  0.40935014970E+03  0.12500351465E+03 0.  0.
          2    1    1    2  501    0 -0.10724007965E+03  0.80321950497E+02 -0.41637489385E+03  0.43740153480E+03  0.00000000000E+00 0. -1.
          1    1    1    2  502    0 -0.17099972437E+03 -0.74898220464E+02  0.65551840884E+03  0.68158274149E+03  0.00000000000E+00 0. -1.
         22    1    3    3    0    0  0.18982181290E+03 -0.12222644815E+01  0.25684841256E+03  0.31938209345E+03  0.00000000000E+00 0. -1.
         22    1    3    3    0    0  0.88417991120E+02 -0.42014655507E+01  0.16089054634E+02  0.89968056251E+02  0.00000000000E+00 0. -1.
</event>
<event>
 7    1  0.5667373E-006  0.1527415E+03  0.7818608E-02  0.1277949E+00
          2   -1    0    0  502    0  0.00000000000E+00  0.00000000000E+00  0.34236205481E+03  0.34236205481E+03  0.00000000000E+00 0. -1.
          1   -1    0    0  501    0 -0.00000000000E+00 -0.00000000000E+00 -0.27092082164E+04  0.27092082164E+04  0.00000000000E+00 0. -1.
         25    2    1    2    0    0  0.12944694953E+03 -0.73896336871E+02 -0.60642510218E+03  0.63686167111E+03  0.12499680888E+03 0.  0.
          2    1    1    2  501    0  0.23403859572E+02  0.62726664437E+02 -0.20690442190E+04  0.20701271351E+04  0.00000000000E+00 0. -1.
          1    1    1    2  502    0 -0.15285080910E+03  0.11169672433E+02  0.30862315959E+03  0.34458146505E+03  0.00000000000E+00 0. -1.
         22    1    3    3    0    0  0.64899030372E+02  0.87839667930E+01 -0.39988780475E+03  0.40521512632E+03  0.00000000000E+00 0. -1.
         22    1    3    3    0    0  0.64547919153E+02 -0.82680303664E+02 -0.20653729744E+03  0.23164654479E+03  0.00000000000E+00 0. -1.
</event>
<event>
 7    1  0.5667373E-006  0.1086608E+03  0.7818608E-02  0.1358409E+00
          2   -1    0    0  502    0  0.00000000000E+00  0.00000000000E+00  0.69699523836E+03  0.69699523836E+03  0.00000000000E+00 0. -1.
          1   -1    0    0  501    0 -0.00000000000E+00 -0.00000000000E+00 -0.34698453693E+03  0.34698453693E+03  0.00000000000E+00 0. -1.
         25    2    1    2    0    0 -0.86267997994E+02 -0.45830248657E+02 -0.93661799430E+02  0.18422939539E+03  0.12500143312E+03 0.  0.
          2    1    1    2  501    0  0.11423544291E+03  0.96392492551E+01 -0.19136025010E+03  0.22307262688E+03  0.00000000000E+00 0. -1.
          1    1    1    2  502    0 -0.27967444915E+02  0.36190999401E+02  0.63503275096E+03  0.63667775303E+03  0.00000000000E+00 0. -1.
         22    1    3    3    0    0 -0.79442667247E+02 -0.34971533971E+02 -0.12396008919E+03  0.15132828314E+03  0.00000000000E+00 0. -1.
         22    1    3    3    0    0 -0.68253307470E+01 -0.10858714685E+02  0.30298289760E+02  0.32901112243E+02  0.00000000000E+00 0. -1.
</event>
<event>
 7    1  0.5667373E-006  0.7220994E+02  0.7818608E-02  0.1429861E+00
          2   -1    0    0  502    0  0.00000000000E+00  0.00000000000E+00  0.12672904834E+04  0.12672904834E+04  0.00000000000E+00 0. -1.
          1   -1    0    0  501    0 -0.00000000000E+00 -0.00000000000E+00 -0.43129903596E+02  0.43129903596E+02  0.00000000000E+00 0. -1.
         25    2    1    2    0    0 -0.48753879873E+02 -0.76899751589E+02  0.21150133474E+03  0.26200795957E+03  0.12499937473E+03 0.  0.
          2    1    1    2  501    0 -0.10948388303E+02  0.37309419609E+02  0.61605668153E+01  0.39367659080E+02  0.00000000000E+00 0. -1.
          1    1    1    2  502    0  0.59702268176E+02  0.39590331980E+02  0.10064986783E+04  0.10090447683E+04  0.00000000000E+00 0. -1.
         22    1    3    3    0    0 -0.41912319564E+02 -0.58628959775E+02  0.27755536762E+02  0.77229316172E+02  0.00000000000E+00 0. -1.
         22    1    3    3    0    0 -0.68415603088E+01 -0.18270791813E+02  0.18374579798E+03  0.18477864340E+03  0.00000000000E+00 0. -1.
</event>
<event>
 7    1  0.5667373E-006  0.1122352E+03  0.7818608E-02  0.1446909E+00
          2   -1    0    0  502    0  0.00000000000E+00  0.00000000000E+00  0.11516569912E+04  0.11516569912E+04  0.00000000000E+00 0. -1.
          1   -1    0    0  501    0 -0.00000000000E+00 -0.00000000000E+00 -0.93539177155E+02  0.93539177155E+02  0.00000000000E+00 0. -1.
         25    2    1    2    0    0 -0.73531736119E+02  0.57380608199E+02  0.16328260746E+03  0.22579873038E+03  0.12499762529E+03 0.  0.
          2    1    1    2  501    0 -0.20802901328E+02  0.72116031589E+01 -0.56800543862E+02  0.60918549776E+02  0.00000000000E+00 0. -1.
          1    1    1    2  502    0  0.94334637447E+02 -0.64592211358E+02  0.95163575040E+03  0.95847888815E+03  0.00000000000E+00 0. -1.
         22    1    3    3    0    0  0.28382005764E+02  0.44681704018E+02  0.48735820078E+02  0.71952575241E+02  0.00000000000E+00 0.  1.
         22    1    3    3    0    0 -0.10191374188E+03  0.12698904181E+02  0.11454678738E+03  0.15384615514E+03  0.00000000000E+00 0.  1.
</event>
<event>
 7    1  0.5667373E-006  0.3926303E+02  0.7818608E-02  0.1605120E+00
          2   -1    0    0  502    0  0.00000000000E+00  0.00000000000E+00  0.63807976982E+03  0.63807976982E+03  0.00000000000E+00 0. -1.
          1   -1    0    0  501    0 -0.00000000000E+00 -0.00000000000E+00 -0.10604289179E+04  0.10604289179E+04  0.00000000000E+00 0. -1.
         25    2    1    2    0    0  0.52891212127E+02 -0.20493757665E+01  0.14103902848E+03  0.19575098252E+03  0.12499903736E+03 0.  0.
          2    1    1    2  501    0 -0.16119347601E+02  0.14935085999E+02 -0.10321476890E+04  0.10323815875E+04  0.00000000000E+00 0. -1.
          1    1    1    2  502    0 -0.36771864526E+02 -0.12885710232E+02  0.46875951250E+03  0.47037611771E+03  0.00000000000E+00 0. -1.
         22    1    3    3    0    0  0.73765813484E+01 -0.17508647341E+02 -0.20062614608E+02  0.27631054794E+02  0.00000000000E+00 0. -1.
         22    1    3    3    0    0  0.45514630779E+02  0.15459271575E+02  0.16110164309E+03  0.16811992773E+03  0.00000000000E+00 0. -1.
</event>
<event>
 7    1  0.5667373E-006  0.8913024E+02  0.7818608E-02  0.1380221E+00
          2   -1    0    0  502    0  0.00000000000E+00  0.00000000000E+00  0.15876193541E+03  0.15876193541E+03  0.00000000000E+00 0. -1.
          1   -1    0    0  501    0 -0.00000000000E+00 -0.00000000000E+00 -0.17133766278E+04  0.17133766278E+04  0.00000000000E+00 0. -1.
         25    2    1    2    0    0 -0.11283949717E+03 -0.46295508910E+02 -0.18030778853E+03  0.25102313904E+03  0.12500276582E+03 0.  0.
          2    1    1    2  501    0  0.45628653808E+02 -0.91628001214E+01 -0.14819179800E+04  0.14826485863E+04  0.00000000000E+00 0. -1.
          1    1    1    2  502    0  0.67210843360E+02  0.55458309031E+02  0.10761107611E+03  0.13846683793E+03  0.00000000000E+00 0. -1.
         22    1    3    3    0    0  0.11042464088E+02 -0.31162371646E+02 -0.93030352519E+02  0.98730319100E+02  0.00000000000E+00 0. -1.
         22    1    3    3    0    0 -0.12388196126E+03 -0.15133137264E+02 -0.87277436008E+02  0.15229281994E+03  0.00000000000E+00 0. -1.
</event>
<event>
 7    1  0.5667373E-006  0.7535732E+02  0.7818608E-02  0.1442909E+00
          2   -1    0    0  502    0  0.00000000000E+00  0.00000000000E+00  0.56403290688E+03  0.56403290688E+03  0.00000000000E+00 0. -1.
          1   -1    0    0  501    0 -0.00000000000E+00 -0.00000000000E+00 -0.34840940146E+03  0.34840940146E+03  0.00000000000E+00 0. -1.
         25    2    1    2    0    0  0.63658441987E+02  0.13605023689E+02  0.16558097702E+03  0.21746020876E+03  0.12503754851E+03 0.  0.
          2    1    1    2  501    0 -0.59323544446E+02 -0.47105888662E+02 -0.31723530430E+03  0.32615408317E+03  0.00000000000E+00 0. -1.
          1    1    1    2  502    0 -0.43348975409E+01  0.33500864974E+02  0.36727783270E+03  0.36882801640E+03  0.00000000000E+00 0. -1.
         22    1    3    3    0    0 -0.29913536765E+02 -0.16618999533E+02  0.80341944881E+02  0.87326049576E+02  0.00000000000E+00 0. -1.
         22    1    3    3    0    0  0.93571978752E+02  0.30224023222E+02  0.85239032138E+02  0.13013415919E+03  0.00000000000E+00 0. -1.
</event>
<event>
 7    1  0.5667373E-006  0.7723808E+02  0.7818608E-02  0.1396155E+00
          2   -1    0    0  502    0  0.00000000000E+00  0.00000000000E+00  0.17085628394E+04  0.17085628394E+04  0.00000000000E+00 0. -1.
          1   -1    0    0  501    0 -0.00000000000E+00 -0.00000000000E+00 -0.36589368271E+03  0.36589368271E+03  0.00000000000E+00 0. -1.
         25    2    1    2    0    0 -0.56189028696E+02 -0.73719531907E+02 -0.17572052885E+03  0.23471243080E+03  0.12498177699E+03 0.  0.
          2    1    1    2  501    0 -0.15364176464E+02  0.44666032061E+02 -0.15629661249E+03  0.16327811676E+03  0.00000000000E+00 0. -1.
          1    1    1    2  502    0  0.71553205160E+02  0.29053499846E+02  0.16746862980E+04  0.16764659745E+04  0.00000000000E+00 0. -1.
         22    1    3    3    0    0 -0.37801904951E+02  0.73461947488E+01  0.19495573922E+01  0.38558415025E+02  0.00000000000E+00 0.  1.
         22    1    3    3    0    0 -0.18387123745E+02 -0.81065726656E+02 -0.17767008624E+03  0.19615401577E+03  0.00000000000E+00 0.  1.
</event>
<event>
 7    1  0.5667373E-006  0.1453695E+03  0.7818608E-02  0.1396615E+00
          2   -1    0    0  502    0  0.00000000000E+00  0.00000000000E+00  0.29294890594E+04  0.29294890594E+04  0.00000000000E+00 0. -1.
          1   -1    0    0  501    0 -0.00000000000E+00 -0.00000000000E+00 -0.63314245081E+03  0.63314245081E+03  0.00000000000E+00 0. -1.
         25    2    1    2    0    0  0.11043628339E+03  0.74497517655E+02  0.81780198602E+03  0.83795640336E+03  0.12499917105E+03 0.  0.
          2    1    1    2  501    0  0.23269934947E+02 -0.91528415334E+01 -0.62017841718E+03  0.62068231288E+03  0.00000000000E+00 0. -1.
          1    1    1    2  502    0 -0.13370621834E+03 -0.65344676122E+02  0.20987230397E+04  0.21039927939E+04  0.00000000000E+00 0. -1.
         22    1    3    3    0    0  0.87281814464E+02  0.10474243182E+03  0.72381611313E+03  0.73654521774E+03  0.00000000000E+00 0. -1.
         22    1    3    3    0    0  0.23154468930E+02 -0.30244914163E+02  0.93985872897E+02  0.10141118562E+03  0.00000000000E+00 0. -1.
</event>
<event>
 7    1  0.5667373E-006  0.9881688E+02  0.7818608E-02  0.1305787E+00
          2   -1    0    0  502    0  0.00000000000E+00  0.00000000000E+00  0.51551782190E+03  0.51551782190E+03  0.00000000000E+00 0. -1.
          1   -1    0    0  501    0 -0.00000000000E+00 -0.00000000000E+00 -0.48484476533E+03  0.48484476533E+03  0.00000000000E+00 0. -1.
         25    2    1    2    0    0  0.33523691723E+02 -0.48203306266E+02 -0.17305460536E+03  0.22140444536E+03  0.12499854137E+03 0.  0.
          2    1    1    2  501    0 -0.64121218775E+02 -0.47496398877E+02 -0.27678287390E+03  0.28805589368E+03  0.00000000000E+00 0. -1.
          1    1    1    2  502    0  0.30597527052E+02  0.95699705143E+02  0.48051053583E+03  0.49090224818E+03  0.00000000000E+00 0. -1.
         22    1    3    3    0    0  0.62518641918E+01 -0.86061466902E+02 -0.81727027751E+02  0.11884851264E+03  0.00000000000E+00 0. -1.
         22    1    3    3    0    0  0.27271827531E+02  0.37858160636E+02 -0.91327577612E+02  0.10255593272E+03  0.00000000000E+00 0. -1.
</event>
<event>
 7    1  0.5667373E-006  0.1203379E+03  0.7818608E-02  0.1291107E+00
          2   -1    0    0  502    0  0.00000000000E+00  0.00000000000E+00  0.24673223186E+04  0.24673223186E+04  0.00000000000E+00 0. -1.
          1   -1    0    0  501    0 -0.00000000000E+00 -0.00000000000E+00 -0.30289500720E+03  0.30289500720E+03  0.00000000000E+00 0. -1.
         25    2    1    2    0    0  0.11287597170E+02  0.18953741588E+03  0.18519630426E+03  0.29321905775E+03  0.12501161084E+03 0.  0.
          2    1    1    2  501    0  0.51319714570E+01 -0.11630991976E+03 -0.23459782241E+03  0.26189782902E+03  0.00000000000E+00 0. -1.
          1    1    1    2  502    0 -0.16419568627E+02 -0.73227496124E+02  0.22138288296E+04  0.22151004390E+04  0.00000000000E+00 0. -1.
         22    1    3    3    0    0 -0.37064367291E+02  0.62952006261E+02  0.12535483857E+03  0.14508810415E+03  0.00000000000E+00 0. -1.
         22    1    3    3    0    0  0.48351964460E+02  0.12658540962E+03  0.59841465695E+02  0.14813095359E+03  0.00000000000E+00 0. -1.
</event>
<event>
 7    1  0.5667373E-006  0.1360344E+03  0.7818608E-02  0.1288784E+00
          2   -1    0    0  502    0  0.00000000000E+00  0.00000000000E+00  0.32181881312E+04  0.32181881312E+04  0.00000000000E+00 0. -1.
          1   -1    0    0  501    0 -0.00000000000E+00 -0.00000000000E+00 -0.67717597336E+03  0.67717597336E+03  0.00000000000E+00 0. -1.
         25    2    1    2    0    0 -0.17631000473E+03 -0.91672409727E+02  0.21463058450E+04  0.21591070531E+04  0.12500175337E+03 0.  0.
          2    1    1    2  501    0  0.12876520839E+03  0.43271348606E+02 -0.66279966180E+03  0.67657688416E+03  0.00000000000E+00 0. -1.
          1    1    1    2  502    0  0.47544796339E+02  0.48401061121E+02  0.10575059747E+04  0.10596801673E+04  0.00000000000E+00 0. -1.
         22    1    3    3    0    0 -0.14151617479E+03 -0.71029813420E+02  0.10328828034E+04  0.10449492560E+04  0.00000000000E+00 0. -1.
         22    1    3    3    0    0 -0.34793829942E+02 -0.20642596307E+02  0.11134230416E+04  0.11141577971E+04  0.00000000000E+00 0. -1.
</event>
<event>
 7    1  0.5667373E-006  0.4655849E+02  0.7818608E-02  0.1473976E+00
          2   -1    0    0  502    0  0.00000000000E+00  0.00000000000E+00  0.40151161826E+03  0.40151161826E+03  0.00000000000E+00 0. -1.
          1   -1    0    0  501    0 -0.00000000000E+00 -0.00000000000E+00 -0.24029563049E+04  0.24029563049E+04  0.00000000000E+00 0. -1.
         25    2    1    2    0    0 -0.26104395703E+02  0.83600977603E+02 -0.10590346267E+03  0.18577377836E+03  0.12500316152E+03 0.  0.
          2    1    1    2  501    0  0.23216253956E+02 -0.40089677181E+02 -0.22555641878E+04  0.22560398892E+04  0.00000000000E+00 0. -1.
          1    1    1    2  502    0  0.28881417474E+01 -0.43511300421E+02  0.36002296379E+03  0.36265425557E+03  0.00000000000E+00 0. -1.
         22    1    3    3    0    0 -0.47250003188E+02  0.94604975730E+02 -0.11849110683E+03  0.15881689656E+03  0.00000000000E+00 0.  1.
         22    1    3    3    0    0  0.21145607485E+02 -0.11003998127E+02  0.12587644165E+02  0.26956881799E+02  0.00000000000E+00 0.  1.
</event>
<event>
 7    1  0.5667373E-006  0.1089679E+03  0.7818608E-02  0.1305781E+00
          2   -1    0    0  502    0  0.00000000000E+00  0.00000000000E+00  0.21952181546E+04  0.21952181546E+04  0.00000000000E+00 0. -1.
          1   -1    0    0  501    0 -0.00000000000E+00 -0.00000000000E+00 -0.40640446147E+02  0.40640446147E+02  0.00000000000E+00 0. -1.
         25    2    1    2    0    0  0.12667915275E+02  0.59941846638E+02  0.70948181387E+03  0.72300967874E+03  0.12500020110E+03 0.  0.
          2    1    1    2  501    0 -0.16370422639E+02  0.70490927700E+02  0.11438033910E+02  0.73265204874E+02  0.00000000000E+00 0. -1.
          1    1    1    2  502    0  0.37025073646E+01 -0.13043277434E+03  0.14336578607E+04  0.14395837171E+04  0.00000000000E+00 0. -1.
         22    1    3    3    0    0  0.65849792980E+02  0.54321006222E+02  0.46124938434E+03  0.46908204134E+03  0.00000000000E+00 0. -1.
         22    1    3    3    0    0 -0.53181877705E+02  0.56208404160E+01  0.24823242954E+03  0.25392763740E+03  0.00000000000E+00 0. -1.
</event>
<event>
 7    1  0.5667373E-006  0.5588426E+02  0.7818608E-02  0.1473870E+00
          2   -1    0    0  502    0  0.00000000000E+00  0.00000000000E+00  0.45620156712E+03  0.45620156712E+03  0.00000000000E+00 0. -1.
          1   -1    0    0  501    0 -0.00000000000E+00 -0.00000000000E+00 -0.55689195266E+02  0.55689195266E+02  0.00000000000E+00 0. -1.
         25    2    1    2    0    0  0.16108685326E+02  0.28736163058E+02  0.27774010448E+03  0.30634960954E+03  0.12500104327E+03 0.  0.
          2    1    1    2  501    0  0.58642480521E+01 -0.57702830522E+02 -0.17540569886E+02  0.60594369766E+02  0.00000000000E+00 0. -1.
          1    1    1    2  502    0 -0.21972933378E+02  0.28966667464E+02  0.14031283726E+03  0.14494678308E+03  0.00000000000E+00 0. -1.
         22    1    3    3    0    0 -0.27810007037E+02  0.48623400518E+02  0.23607321510E+03  0.24262768691E+03  0.00000000000E+00 0.  1.
         22    1    3    3    0    0  0.43918692363E+02 -0.19887237460E+02  0.41666889383E+02  0.63721922628E+02  0.00000000000E+00 0.  1.
</event>
<event>
 7    1  0.5667373E-006  0.1224052E+03  0.7818608E-02  0.1320454E+00
          2   -1    0    0  502    0  0.00000000000E+00  0.00000000000E+00  0.16580412528E+04  0.16580412528E+04  0.00000000000E+00 0. -1.
          1   -1    0    0  501    0 -0.00000000000E+00 -0.00000000000E+00 -0.13857994347E+03  0.13857994347E+03  0.00000000000E+00 0. -1.
         25    2    1    2    0    0 -0.14270203529E+03  0.36937769863E+02  0.47857632462E+03  0.51612929127E+03  0.12500350834E+03 0.  0.
          2    1    1    2  501    0  0.12052488946E+03  0.14949091809E+02 -0.88137751933E+02  0.15005994683E+03  0.00000000000E+00 0. -1.
          1    1    1    2  502    0  0.22177145825E+02 -0.51886861672E+02  0.11290227366E+04  0.11304319581E+04  0.00000000000E+00 0. -1.
         22    1    3    3    0    0 -0.14621596426E+03 -0.75115326631E+01  0.33030770389E+03  0.36130141236E+03  0.00000000000E+00 0. -1.
         22    1    3    3    0    0  0.35139289735E+01  0.44449302526E+02  0.14826862073E+03  0.15482787890E+03  0.00000000000E+00 0. -1.
</event>
<event>
 7    1  0.5667373E-006  0.6333728E+02  0.7818608E-02  0.1385931E+00
          2   -1    0    0  502    0  0.00000000000E+00  0.00000000000E+00  0.16561942129E+03  0.16561942129E+03  0.00000000000E+00 0. -1.
          1   -1    0    0  501    0 -0.00000000000E+00 -0.00000000000E+00 -0.39216990775E+03  0.39216990775E+03  0.00000000000E+00 0. -1.
         25    2    1    2    0    0  0.59581711130E+02 -0.43169541524E+02 -0.16035590728E+03  0.21622392569E+03  0.12500071770E+03 0.  0.
          2    1    1    2  501    0 -0.63340255342E+02 -0.19242880038E+02 -0.19090596147E+03  0.20205781971E+03  0.00000000000E+00 0. -1.
          1    1    1    2  502    0  0.37585442118E+01  0.62412421562E+02  0.12471138229E+03  0.13950758364E+03  0.00000000000E+00 0. -1.
         22    1    3    3    0    0 -0.32568889340E+02  0.47593782722E+01 -0.11819193170E+02  0.34972525811E+02  0.00000000000E+00 0. -1.
         22    1    3    3    0    0  0.92150600470E+02 -0.47928919796E+02 -0.14853671411E+03  0.18125139988E+03  0.00000000000E+00 0. -1.
</event>
<event>
 7    1  0.5667373E-006  0.2262921E+03  0.7818608E-02  0.1245489E+00
          2   -1    0    0  502    0  0.00000000000E+00  0.00000000000E+00  0.16874076462E+04  0.16874076462E+04  0.00000000000E+00 0. -1.
          1   -1    0    0  501    0 -0.00000000000E+00 -0.00000000000E+00 -0.97323991854E+03  0.97323991854E+03  0.00000000000E+00 0. -1.
         25    2    1    2    0    0 -0.30139170168E+02  0.28466855354E+03  0.46378927258E+03  0.55916722980E+03  0.12499178602E+03 0.  0.
          2    1    1    2  501    0  0.16349397540E+02 -0.22410014558E+03 -0.91107138578E+03  0.93837052811E+03  0.00000000000E+00 0. -1.
          1    1    1    2  502    0  0.13789772629E+02 -0.60568407964E+02  0.11614498409E+04  0.11631098068E+04  0.00000000000E+00 0. -1.
         22    1    3    3    0    0 -0.48140529346E+02  0.28114104992E+03  0.45866428600E+03  0.54012103067E+03  0.00000000000E+00 0. -1.
         22    1    3    3    0    0  0.18001359178E+02  0.35275036252E+01  0.51249865730E+01  0.19046199134E+02  0.00000000000E+00 0. -1.
</event>
<event>
 7    1  0.5667373E-006  0.1058775E+03  0.7818608E-02  0.1394260E+00
          2   -1    0    0  502    0  0.00000000000E+00  0.00000000000E+00  0.85090584107E+03  0.85090584107E+03  0.00000000000E+00 0. -1.
          1   -1    0    0  501    0 -0.00000000000E+00 -0.00000000000E+00 -0.33687012159E+02  0.33687012159E+02  0.00000000000E+00 0. -1.
         25    2    1    2    0    0  0.12519437649E+03 -0.29423637678E+02  0.48226791104E+03  0.51453712463E+03  0.12500692878E+03 0.  0.
          2    1    1    2  501    0 -0.29773989123E+02  0.18365675333E+02  0.18967418361E+02  0.39793861562E+02  0.00000000000E+00 0. -1.
          1    1    1    2  502    0 -0.95420387368E+02  0.11057962345E+02  0.31598349951E+03  0.33026186704E+03  0.00000000000E+00 0. -1.
         22    1    3    3    0    0  0.79758755271E+02  0.25806842728E+02  0.12720788322E+03  0.15234598034E+03  0.00000000000E+00 0.  1.
         22    1    3    3    0    0  0.45435621220E+02 -0.55230480406E+02  0.35506002782E+03  0.36219114429E+03  0.00000000000E+00 0.  1.
</event>
<event>
 7    1  0.5667373E-006  0.1868617E+03  0.7818608E-02  0.1327643E+00
          2   -1    0    0  502    0  0.00000000000E+00  0.00000000000E+00  0.19556487502E+04  0.19556487502E+04  0.00000000000E+00 0. -1.
          1   -1    0    0  501    0 -0.00000000000E+00 -0.00000000000E+00 -0.88524973696E+02  0.88524973696E+02  0.00000000000E+00 0. -1.
         25    2    1    2    0    0  0.17682034822E+03  0.83512557588E+02  0.11959138366E+04  0.12182262024E+04  0.12500157072E+03 0.  0.
          2    1    1    2  501    0 -0.29135633042E+02  0.18806607214E+02 -0.62003488103E+02  0.71042284061E+02  0.00000000000E+00 0. -1.
          1    1    1    2  502    0 -0.14768471518E+03 -0.10231916480E+03  0.73321342794E+03  0.75490523743E+03  0.00000000000E+00 0. -1.
         22    1    3    3    0    0 -0.14737457396E+02 -0.99250176741E+01  0.13044800298E+03  0.13165249753E+03  0.00000000000E+00 0. -1.
         22    1    3    3    0    0  0.19155780562E+03  0.93437575262E+02  0.10654658337E+04  0.10865737048E+04  0.00000000000E+00 0. -1.
</event>
<event>
 7    1  0.5667373E-006  0.5139341E+02  0.7818608E-02  0.1459000E+00
          2   -1    0    0  502    0  0.00000000000E+00  0.00000000000E+00  0.49362812906E+03  0.49362812906E+03  0.00000000000E+00 0. -1.
          1   -1    0    0  501    0 -0.00000000000E+00 -0.00000000000E+00 -0.10604434217E+04  0.10604434217E+04  0.00000000000E+00 0. -1.
         25    2    1    2    0    0 -0.10959764884E+02  0.77016068113E+02  0.35059522382E+03  0.38025566009E+03  0.12500305944E+03 0.  0.
          2    1    1    2  501    0 -0.21071402135E+02 -0.46847817934E+02 -0.10411857590E+04  0.10424521604E+04  0.00000000000E+00 0. -1.
          1    1    1    2  502    0  0.32031167020E+02 -0.30168250180E+02  0.12377524250E+03  0.13136373029E+03  0.00000000000E+00 0. -1.
         22    1    3    3    0    0  0.28054504078E+02  0.33585346681E+01  0.10576366439E+02  0.30169429581E+02  0.00000000000E+00 0.  1.
         22    1    3    3    0    0 -0.39014268963E+02  0.73657533445E+02  0.34001885738E+03  0.35008623051E+03  0.00000000000E+00 0.  1.
</event>
<event>
 7    1  0.5667373E-006  0.4972590E+02  0.7818608E-02  0.1560393E+00
          2   -1    0    0  502    0  0.00000000000E+00  0.00000000000E+00  0.20939333640E+04  0.20939333640E+04  0.00000000000E+00 0. -1.
          1   -1    0    0  501    0 -0.00000000000E+00 -0.00000000000E+00 -0.78527322537E+02  0.78527322537E+02  0.00000000000E+00 0. -1.
         25    2    1    2    0    0 -0.10280092861E+02  0.28732245301E+02  0.70361481954E+03  0.71527283275E+03  0.12494074099E+03 0.  0.
          2    1    1    2  501    0  0.17886246731E+01 -0.49944009377E+02 -0.64003307938E+02  0.81203612469E+02  0.00000000000E+00 0. -1.
          1    1    1    2  502    0  0.84914681878E+01  0.21211764076E+02  0.13757945299E+04  0.13759842413E+04  0.00000000000E+00 0. -1.
         22    1    3    3    0    0 -0.46227145660E+02  0.37477607353E+02  0.16526226644E+03  0.17565060990E+03  0.00000000000E+00 0. -1.
         22    1    3    3    0    0  0.35947052799E+02 -0.87453620520E+01  0.53835255310E+03  0.53962222285E+03  0.00000000000E+00 0. -1.
</event>
<event>
 7    1  0.5667373E-006  0.1023512E+03  0.7818608E-02  0.1394347E+00
          2   -1    0    0  502    0  0.00000000000E+00  0.00000000000E+00  0.11222541375E+04  0.11222541375E+04  0.00000000000E+00 0. -1.
          1   -1    0    0  501    0 -0.00000000000E+00 -0.00000000000E+00 -0.16500142788E+03  0.16500142788E+03  0.00000000000E+00 0. -1.
         25    2    1    2    0    0 -0.41152253858E+02 -0.65371256700E+02  0.25347862544E+02  0.14911065827E+03  0.12499826029E+03 0.  0.
          2    1    1    2  501    0  0.71313169525E+02  0.85322637945E+02 -0.72721366049E+02  0.13286804647E+03  0.00000000000E+00 0. -1.
          1    1    1    2  502    0 -0.30160915668E+02 -0.19951381244E+02  0.10046262131E+04  0.10052768606E+04  0.00000000000E+00 0. -1.
         22    1    3    3    0    0 -0.42739643100E+02 -0.32627916711E+02 -0.45890975584E+02  0.70691157023E+02  0.00000000000E+00 0.  1.
         22    1    3    3    0    0  0.15873892420E+01 -0.32743339989E+02  0.71238838128E+02  0.78419501249E+02  0.00000000000E+00 0.  1.
</event>
<event>
 7    1  0.5667373E-006  0.9828284E+02  0.7818608E-02  0.1349777E+00
          2   -1    0    0  502    0  0.00000000000E+00  0.00000000000E+00  0.32449103945E+03  0.32449103945E+03  0.00000000000E+00 0. -1.
          1   -1    0    0  501    0 -0.00000000000E+00 -0.00000000000E+00 -0.57062478015E+03  0.57062478015E+03  0.00000000000E+00 0. -1.
         25    2    1    2    0    0 -0.44201375480E+02  0.56283863873E+02  0.27966466310E+02  0.14672844896E+03  0.12500191826E+03 0.  0.
          2    1    1    2  501    0 -0.52351971454E+02 -0.14812100329E+02 -0.49804804315E+03  0.50101095848E+03  0.00000000000E+00 0. -1.
          1    1    1    2  502    0  0.96553346934E+02 -0.41471763543E+02  0.22394783615E+03  0.24737641216E+03  0.00000000000E+00 0. -1.
         22    1    3    3    0    0 -0.44585273334E+02  0.86144138154E+02  0.50463502643E+02  0.10933994803E+03  0.00000000000E+00 0. -1.
         22    1    3    3    0    0  0.38389785400E+00 -0.29860274282E+02 -0.22497036334E+02  0.37388500927E+02  0.00000000000E+00 0. -1.
</event>
<event>
 7    1  0.5667373E-006  0.1067057E+03  0.7818608E-02  0.1382174E+00
          2   -1    0    0  502    0  0.00000000000E+00  0.00000000000E+00  0.10044077736E+03  0.10044077736E+03  0.00000000000E+00 0. -1.
          1   -1    0    0  501    0 -0.00000000000E+00 -0.00000000000E+00 -0.19579859292E+04  0.19579859292E+04  0.00000000000E+00 0. -1.
         25    2    1    2    0    0  0.11071225006E+03  0.57573515789E+02 -0.60159069370E+03  0.62698304233E+03  0.12499784234E+03 0.  0.
          2    1    1    2  501    0 -0.34632669083E+02  0.16263022193E+02 -0.13112932760E+04  0.13118513495E+04  0.00000000000E+00 0. -1.
          1    1    1    2  502    0 -0.76079580976E+02 -0.73836537983E+02  0.55338817807E+02  0.11959231472E+03  0.00000000000E+00 0. -1.
         22    1    3    3    0    0  0.98621381449E+02  0.75320359018E+02 -0.58933377136E+03  0.60225711073E+03  0.00000000000E+00 0.  1.
         22    1    3    3    0    0  0.12090868609E+02 -0.17746843228E+02 -0.12256922347E+02  0.24725931605E+02  0.00000000000E+00 0.  1.
</event>
<event>
 7    1  0.5667373E-006  0.5166261E+02  0.7818608E-02  0.1442004E+00
          2   -1    0    0  502    0  0.00000000000E+00  0.00000000000E+00  0.40100014138E+04  0.40100014138E+04  0.00000000000E+00 0. -1.
          1   -1    0    0  501    0 -0.00000000000E+00 -0.00000000000E+00 -0.69561928479E+03  0.69561928479E+03  0.00000000000E+00 0. -1.
         25    2    1    2    0    0 -0.18838132027E+02  0.14331977351E+02  0.27976375244E+04  0.28005290268E+04  0.12500732458E+03 0.  0.
          2    1    1    2  501    0 -0.34815643763E+02  0.35336664994E+02 -0.69218142837E+03  0.69395672684E+03  0.00000000000E+00 0. -1.
          1    1    1    2  502    0  0.53653775790E+02 -0.49668642345E+02  0.12089260330E+04  0.12111349449E+04  0.00000000000E+00 0. -1.
         22    1    3    3    0    0 -0.59607622232E+02 -0.16619538582E+02  0.86358267608E+03  0.86579692545E+03  0.00000000000E+00 0.  1.
         22    1    3    3    0    0  0.40769490205E+02  0.30951515933E+02  0.19340548483E+04  0.19347321014E+04  0.00000000000E+00 0.  1.
</event>
<event>
 7    1  0.5667373E-006  0.5758869E+02  0.7818608E-02  0.1462173E+00
          2   -1    0    0  502    0  0.00000000000E+00  0.00000000000E+00  0.64913589752E+03  0.64913589752E+03  0.00000000000E+00 0. -1.
          1   -1    0    0  501    0 -0.00000000000E+00 -0.00000000000E+00 -0.21277814735E+03  0.21277814735E+03  0.00000000000E+00 0. -1.
         25    2    1    2    0    0 -0.79312872236E+02  0.51422166952E+02  0.23048550167E+03  0.27871724547E+03  0.12499986194E+03 0.  0.
          2    1    1    2  501    0  0.50855102408E+02 -0.25679042510E+02 -0.18339634958E+03  0.19204133853E+03  0.00000000000E+00 0. -1.
          1    1    1    2  502    0  0.28457769829E+02 -0.25743124441E+02  0.38926859807E+03  0.39115546087E+03  0.00000000000E+00 0. -1.
         22    1    3    3    0    0 -0.59502141811E+02  0.86279124825E+02  0.11089695380E+03  0.15258678390E+03  0.00000000000E+00 0. -1.
         22    1    3    3    0    0 -0.19810730425E+02 -0.34856957873E+02  0.11958854787E+03  0.12613046157E+03  0.00000000000E+00 0. -1.
</event>
<event>
 7    1  0.5667373E-006  0.7022122E+02  0.7818608E-02  0.1496676E+00
          2   -1    0    0  502    0  0.00000000000E+00  0.00000000000E+00  0.90051504652E+03  0.90051504652E+03  0.00000000000E+00 0. -1.
          1   -1    0    0  501    0 -0.00000000000E+00 -0.00000000000E+00 -0.89459732495E+02  0.89459732495E+02  0.00000000000E+00 0. -1.
         25    2    1    2    0    0 -0.30867473908E+02 -0.41715734883E+02  0.73164280859E+02  0.15384614808E+03  0.12499048685E+03 0.  0.
          2    1    1    2  501    0  0.52541129970E+02  0.53474826338E+02 -0.20196353829E+02  0.77640325208E+02  0.00000000000E+00 0. -1.
          1    1    1    2  502    0 -0.21673656062E+02 -0.11759091455E+02  0.75808738699E+03  0.75848830572E+03  0.00000000000E+00 0. -1.
         22    1    3    3    0    0 -0.48307559259E+02 -0.60114580150E+02  0.75034299993E+00  0.77122928126E+02  0.00000000000E+00 0. -1.
         22    1    3    3    0    0  0.17440085351E+02  0.18398845267E+02  0.72413937859E+02  0.76723219956E+02  0.00000000000E+00 0. -1.
</event>
<event>
 7    1  0.5667373E-006  0.5544917E+02  0.7818608E-02  0.1498149E+00
          2   -1    0    0  502    0  0.00000000000E+00  0.00000000000E+00  0.10747975084E+04  0.10747975084E+04  0.00000000000E+00 0. -1.
          1   -1    0    0  501    0 -0.00000000000E+00 -0.00000000000E+00 -0.79437778142E+03  0.79437778142E+03  0.00000000000E+00 0. -1.
         25    2    1    2    0    0 -0.12369388543E+00 -0.71667793062E+02 -0.58603225074E+03  0.60348578778E+03  0.12500003713E+03 0.  0.
          2    1    1    2  501    0  0.22664577293E+02  0.21020225527E+02 -0.19769621117E+03  0.20009828799E+03  0.00000000000E+00 0. -1.
          1    1    1    2  502    0 -0.22540883408E+02  0.50647567535E+02  0.10641481889E+04  0.10655912140E+04  0.00000000000E+00 0. -1.
         22    1    3    3    0    0 -0.31688876695E+02 -0.56514874640E+02 -0.54789566060E+03  0.55171348621E+03  0.00000000000E+00 0.  1.
         22    1    3    3    0    0  0.31565182810E+02 -0.15152918422E+02 -0.38136590146E+02  0.51772301576E+02  0.00000000000E+00 0.  1.
</event>
<event>
 7    1  0.5667373E-006  0.8386828E+02  0.7818608E-02  0.1334763E+00
          2   -1    0    0  502    0  0.00000000000E+00  0.00000000000E+00  0.13185368463E+03  0.13185368463E+03  0.00000000000E+00 0. -1.
          1   -1    0    0  501    0 -0.00000000000E+00 -0.00000000000E+00 -0.12258628671E+04  0.12258628671E+04  0.00000000000E+00 0. -1.
         25    2    1    2    0    0 -0.64482204212E+02 -0.13212202173E+03 -0.40871709088E+03  0.45198064137E+03  0.12499062567E+03 0.  0.
          2    1    1    2  501    0  0.51264337941E+02  0.51381632969E+02 -0.77840716690E+03  0.78178374377E+03  0.00000000000E+00 0. -1.
          1    1    1    2  502    0  0.13217866271E+02  0.80740388759E+02  0.93115075279E+02  0.12395216662E+03  0.00000000000E+00 0. -1.
         22    1    3    3    0    0 -0.78615926826E+02 -0.68523806769E+02 -0.13485220880E+03  0.17047314821E+03  0.00000000000E+00 0. -1.
         22    1    3    3    0    0  0.14133722615E+02 -0.63598214959E+02 -0.27386488208E+03  0.28150749315E+03  0.00000000000E+00 0. -1.
</event>
<event>
 7    1  0.5667373E-006  0.2771630E+03  0.7818608E-02  0.1290915E+00
          2   -1    0    0  502    0  0.00000000000E+00  0.00000000000E+00  0.14661677213E+04  0.14661677213E+04  0.00000000000E+00 0. -1.
          1   -1    0    0  501    0 -0.00000000000E+00 -0.00000000000E+00 -0.16663723141E+04  0.16663723141E+04  0.00000000000E+00 0. -1.
         25    2    1    2    0    0 -0.22550626903E+02 -0.26524709462E+03  0.22380224054E+03  0.36956537610E+03  0.12500628931E+03 0.  0.
          2    1    1    2  501    0  0.54423269030E+02  0.27229031435E+03 -0.15811621542E+04  0.16053590456E+04  0.00000000000E+00 0. -1.
          1    1    1    2  502    0 -0.31872642127E+02 -0.70432197348E+01  0.11571553209E+04  0.11576156137E+04  0.00000000000E+00 0. -1.
         22    1    3    3    0    0 -0.53297722113E+02 -0.25659320169E+03  0.20215523507E+03  0.33097954227E+03  0.00000000000E+00 0. -1.
         22    1    3    3    0    0  0.30747095210E+02 -0.86538929243E+01  0.21647005472E+02  0.38585833832E+02  0.00000000000E+00 0. -1.
</event>
<event>
 7    1  0.9886480E-006  0.7896688E+02  0.7818608E-02  0.1348279E+00
          2   -1    0    0  502    0  0.00000000000E+00  0.00000000000E+00  0.21228759846E+04  0.21228759846E+04  0.00000000000E+00 0. -1.
          1   -1    0    0  501    0 -0.00000000000E+00 -0.00000000000E+00 -0.12942666687E+04  0.12942666687E+04  0.00000000000E+00 0. -1.
         25    2    1    2    0    0 -0.89371778877E+01  0.66045781981E+01 -0.75205796867E+02  0.14627906413E+03  0.12497263348E+03 0.  0.
          2    1    1    2  501    0 -0.44015658003E+02  0.52601778810E+02 -0.11817738572E+04  0.11837625500E+04  0.00000000000E+00 0. -1.
          1    1    1    2  502    0  0.52952835890E+02 -0.59206357008E+02  0.20855889700E+04  0.20871010391E+04  0.00000000000E+00 0. -1.
         22    1    3    3    0    0 -0.59798546192E+02 -0.17484169360E+02 -0.63179285795E+02  0.88730966739E+02  0.00000000000E+00 0.  1.
         22    1    3    3    0    0  0.50861368304E+02  0.24088747559E+02 -0.12026511072E+02  0.57548097390E+02  0.00000000000E+00 0.  1.
</event>
<event>
 7    1  0.5667373E-006  0.2806841E+03  0.7818608E-02  0.1133384E+00
          2   -1    0    0  502    0  0.00000000000E+00  0.00000000000E+00  0.22537216046E+04  0.22537216046E+04  0.00000000000E+00 0. -1.
          1   -1    0    0  501    0 -0.00000000000E+00 -0.00000000000E+00 -0.17332485366E+04  0.17332485366E+04  0.00000000000E+00 0. -1.
         25    2    1    2    0    0  0.25657114199E+03 -0.21121672783E+03 -0.10051283504E+04  0.10659969081E+04  0.12500060139E+03 0.  0.
          2    1    1    2  501    0 -0.86217980325E+02  0.24405740643E+03 -0.67013891671E+03  0.71838967522E+03  0.00000000000E+00 0. -1.
          1    1    1    2  502    0 -0.17035316167E+03 -0.32840678604E+02  0.21957403352E+04  0.22025835579E+04  0.00000000000E+00 0. -1.
         22    1    3    3    0    0  0.53145151437E+02  0.10485030848E+02 -0.15278630260E+03  0.16210489584E+03  0.00000000000E+00 0.  1.
         22    1    3    3    0    0  0.20342599055E+03 -0.22170175868E+03 -0.85234204779E+03  0.90389201228E+03  0.00000000000E+00 0.  1.
</event>
<event>
 7    1  0.5667373E-006  0.7631003E+02  0.7818608E-02  0.1351872E+00
          2   -1    0    0  502    0  0.00000000000E+00  0.00000000000E+00  0.14995013561E+04  0.14995013561E+04  0.00000000000E+00 0. -1.
          1   -1    0    0  501    0 -0.00000000000E+00 -0.00000000000E+00 -0.63287901979E+02  0.63287901979E+02  0.00000000000E+00 0. -1.
         25    2    1    2    0    0 -0.65763816094E+02 -0.43877993001E+02  0.95243457396E+02  0.17591663607E+03  0.12500075557E+03 0.  0.
          2    1    1    2  501    0 -0.72923551434E+01  0.68445833396E+02  0.32474757189E+02  0.76109266238E+02  0.00000000000E+00 0. -1.
          1    1    1    2  502    0  0.73056171237E+02 -0.24567840395E+02  0.13084952395E+04  0.13107633558E+04  0.00000000000E+00 0. -1.
         22    1    3    3    0    0  0.21460374682E+01  0.20682637973E+02  0.77896043017E+02  0.80623634922E+02  0.00000000000E+00 0.  1.
         22    1    3    3    0    0 -0.67909853562E+02 -0.64560630974E+02  0.17347414379E+02  0.95293001150E+02  0.00000000000E+00 0.  1.
</event>
<event>
 7    1  0.5667373E-006  0.9258257E+02  0.7818608E-02  0.1395796E+00
          2   -1    0    0  502    0  0.00000000000E+00  0.00000000000E+00  0.14358950129E+02  0.14358950129E+02  0.00000000000E+00 0. -1.
          1   -1    0    0  501    0 -0.00000000000E+00 -0.00000000000E+00 -0.28056509948E+04  0.28056509948E+04  0.00000000000E+00 0. -1.
         25    2    1    2    0    0  0.48877466421E+02  0.38931777808E+02 -0.10847768044E+04  0.10937414955E+04  0.12500021429E+03 0.  0.
          2    1    1    2  501    0  0.18348704001E+02  0.35000981652E+02 -0.14563186064E+04  0.14568547035E+04  0.00000000000E+00 0. -1.
          1    1    1    2  502    0 -0.67226170423E+02 -0.73932759460E+02 -0.25019663380E+03  0.26941374589E+03  0.00000000000E+00 0. -1.
         22    1    3    3    0    0 -0.18746759654E+02 -0.30949721122E+02 -0.16986627379E+03  0.17367750921E+03  0.00000000000E+00 0. -1.
         22    1    3    3    0    0  0.67624226075E+02  0.69881498931E+02 -0.91491053063E+03  0.92006398631E+03  0.00000000000E+00 0. -1.
</event>
<event>
 7    1  0.5667373E-006  0.5854685E+02  0.7818608E-02  0.1470979E+00
          2   -1    0    0  502    0  0.00000000000E+00  0.00000000000E+00  0.21955565748E+04  0.21955565748E+04  0.00000000000E+00 0. -1.
          1   -1    0    0  501    0 -0.00000000000E+00 -0.00000000000E+00 -0.22024789426E+03  0.22024789426E+03  0.00000000000E+00 0. -1.
         25    2    1    2    0    0  0.47645463491E+02 -0.19608178376E+01  0.27011074863E+03  0.30142864063E+03  0.12500189548E+03 0.  0.
          2    1    1    2  501    0 -0.48411713280E+02 -0.33458480060E+02 -0.20018901804E+03  0.20865954763E+03  0.00000000000E+00 0. -1.
          1    1    1    2  502    0  0.76624978980E+00  0.35419297898E+02  0.19053869500E+04  0.19057162808E+04  0.00000000000E+00 0. -1.
         22    1    3    3    0    0  0.18027997990E+02 -0.24953628482E+02  0.26104427361E+03  0.26285320061E+03  0.00000000000E+00 0. -1.
         22    1    3    3    0    0  0.29617465501E+02  0.22992810645E+02  0.90664750176E+01  0.38575440027E+02  0.00000000000E+00 0. -1.
</event>
<event>
 7    1  0.5667373E-006  0.3439356E+02  0.7818608E-02  0.1556214E+00
          2   -1    0    0  502    0  0.00000000000E+00  0.00000000000E+00  0.10068346627E+03  0.10068346627E+03  0.00000000000E+00 0. -1.
          1   -1    0    0  501    0 -0.00000000000E+00 -0.00000000000E+00 -0.20585005245E+03  0.20585005245E+03  0.00000000000E+00 0. -1.
         25    2    1    2    0    0  0.69425515367E+00  0.38876460946E+01  0.38798569079E+02  0.13094235044E+03  0.12499989758E+03 0.  0.
          2    1    1    2  501    0 -0.34774356343E+02  0.74524627308E+00 -0.13587855809E+03  0.14025973691E+03  0.00000000000E+00 0. -1.
          1    1    1    2  502    0  0.34080101190E+02 -0.46328923677E+01 -0.80865971783E+01  0.35331431371E+02  0.00000000000E+00 0. -1.
         22    1    3    3    0    0 -0.30206950232E+02 -0.23197341486E+02  0.69768575675E+02  0.79487298646E+02  0.00000000000E+00 0.  1.
         22    1    3    3    0    0  0.30901205386E+02  0.27084987581E+02 -0.30970006596E+02  0.51455051794E+02  0.00000000000E+00 0.  1.
</event>
<event>
 7    1  0.5667373E-006  0.1189991E+03  0.7818608E-02  0.1351014E+00
          2   -1    0    0  502    0  0.00000000000E+00  0.00000000000E+00  0.42439423057E+03  0.42439423057E+03  0.00000000000E+00 0. -1.
          1   -1    0    0  501    0 -0.00000000000E+00 -0.00000000000E+00 -0.26945189637E+03  0.26945189637E+03  0.00000000000E+00 0. -1.
         25    2    1    2    0    0  0.86217676258E+02 -0.11253582350E+03 -0.24652962774E+02  0.19060600152E+03  0.12500031989E+03 0.  0.
          2    1    1    2  501    0 -0.42185692360E+02  0.10635165327E+03 -0.13986511341E+03  0.18070018468E+03  0.00000000000E+00 0. -1.
          1    1    1    2  502    0 -0.44031983898E+02  0.61841702294E+01  0.31946041038E+03  0.32253994073E+03  0.00000000000E+00 0. -1.
         22    1    3    3    0    0 -0.13121291665E+02 -0.74737080699E+02 -0.35486504140E+02  0.83768081645E+02  0.00000000000E+00 0. -1.
         22    1    3    3    0    0  0.99338967924E+02 -0.37798742800E+02  0.10833541365E+02  0.10683791988E+03  0.00000000000E+00 0. -1.
</event>
<event>
 7    1  0.5667373E-006  0.6331267E+02  0.7818608E-02  0.1399325E+00
          2   -1    0    0  502    0  0.00000000000E+00  0.00000000000E+00  0.44151102244E+03  0.44151102244E+03  0.00000000000E+00 0. -1.
          1   -1    0    0  501    0 -0.00000000000E+00 -0.00000000000E+00 -0.19835495210E+04  0.19835495210E+04  0.00000000000E+00 0. -1.
         25    2    1    2    0    0 -0.68042538729E+02  0.90968549629E+02 -0.29300198284E+03  0.33819996804E+03  0.12499596929E+03 0.  0.
          2    1    1    2  501    0  0.49093027665E+02 -0.38069355992E+02 -0.16654825257E+04  0.16666407665E+04  0.00000000000E+00 0. -1.
          1    1    1    2  502    0  0.18949511064E+02 -0.52899193637E+02  0.41644600991E+03  0.42021980895E+03  0.00000000000E+00 0. -1.
         22    1    3    3    0    0  0.31271646402E+02  0.32478793903E+02 -0.13707166606E+03  0.14429632552E+03  0.00000000000E+00 0.  1.
         22    1    3    3    0    0 -0.99314185131E+02  0.58489755726E+02 -0.15593031678E+03  0.19390364253E+03  0.00000000000E+00 0.  1.
</event>
<event>
 7    1  0.5667373E-006  0.7704550E+02  0.7818608E-02  0.1383371E+00
          2   -1    0    0  502    0  0.00000000000E+00  0.00000000000E+00  0.28976299173E+03  0.28976299173E+03  0.00000000000E+00 0. -1.
          1   -1    0    0  501    0 -0.00000000000E+00 -0.00000000000E+00 -0.30401195003E+03  0.30401195003E+03  0.00000000000E+00 0. -1.
         25    2    1    2    0    0  0.39417506775E+02  0.24202497224E+02  0.10936172340E+03  0.17241537991E+03  0.12501030346E+03 0.  0.
          2    1    1    2  501    0 -0.25017202176E+02 -0.74665529250E+02 -0.26188204271E+03  0.27346481668E+03  0.00000000000E+00 0. -1.
          1    1    1    2  502    0 -0.14400304599E+02  0.50463032026E+02  0.13827136102E+03  0.14789474518E+03  0.00000000000E+00 0. -1.
         22    1    3    3    0    0  0.47999898874E+02 -0.35687339062E+02  0.91530515894E+02  0.10934080575E+03  0.00000000000E+00 0.  1.
         22    1    3    3    0    0 -0.85823920992E+01  0.59889836286E+02  0.17831207503E+02  0.63074574160E+02  0.00000000000E+00 0.  1.
</event>
<event>
 7    1  0.5667373E-006  0.3745203E+02  0.7818608E-02  0.1622780E+00
          2   -1    0    0  502    0  0.00000000000E+00  0.00000000000E+00  0.38506923499E+03  0.38506923499E+03  0.00000000000E+00 0. -1.
          1   -1    0    0  501    0 -0.00000000000E+00 -0.00000000000E+00 -0.17344772414E+04  0.17344772414E+04  0.00000000000E+00 0. -1.
         25    2    1    2    0    0 -0.27664493982E+01  0.18748975069E+02  0.29051862561E+03  0.31683703177E+03  0.12500182226E+03 0.  0.
          2    1    1    2  501    0  0.17974125501E+02 -0.32872108956E+02 -0.17197876545E+04  0.17201956928E+04  0.00000000000E+00 0. -1.
          1    1    1    2  502    0 -0.15207676103E+02  0.14123133887E+02  0.79861022533E+02  0.82513751843E+02  0.00000000000E+00 0. -1.
         22    1    3    3    0    0 -0.59522347131E+01 -0.30172959738E+02  0.10407077940E+02  0.32467581812E+02  0.00000000000E+00 0. -1.
         22    1    3    3    0    0  0.31857853148E+01  0.48921934808E+02  0.28011154767E+03  0.28436944996E+03  0.00000000000E+00 0. -1.
</event>
<event>
 7    1  0.5667373E-006  0.3532444E+02  0.7818608E-02  0.1595534E+00
          2   -1    0    0  502    0  0.00000000000E+00  0.00000000000E+00  0.10276710651E+03  0.10276710651E+03  0.00000000000E+00 0. -1.
          1   -1    0    0  501    0 -0.00000000000E+00 -0.00000000000E+00 -0.15330419192E+04  0.15330419192E+04  0.00000000000E+00 0. -1.
         25    2    1    2    0    0  0.48805264967E+02  0.47849557018E+01 -0.20105510515E+03  0.24177118163E+03  0.12500119708E+03 0.  0.
          2    1    1    2  501    0 -0.28465863848E+02 -0.20778408443E+02 -0.13093548384E+04  0.13098290501E+04  0.00000000000E+00 0. -1.
          1    1    1    2  502    0 -0.20339401119E+02  0.15993452741E+02  0.80135130907E+02  0.84208793922E+02  0.00000000000E+00 0. -1.
         22    1    3    3    0    0 -0.90103596299E+01 -0.43997415813E+02 -0.28049349311E+02  0.52950214123E+02  0.00000000000E+00 0.  1.
         22    1    3    3    0    0  0.57815624597E+02  0.48782371515E+02 -0.17300575584E+03  0.18882096751E+03  0.00000000000E+00 0.  1.
</event>
<event>
 7    1  0.5667373E-006  0.6966238E+02  0.7818608E-02  0.1515303E+00
          2   -1    0    0  502    0  0.00000000000E+00  0.00000000000E+00  0.27894372554E+04  0.27894372554E+04  0.00000000000E+00 0. -1.
          1   -1    0    0  501    0 -0.00000000000E+00 -0.00000000000E+00 -0.26404455278E+02  0.26404455278E+02  0.00000000000E+00 0. -1.
         25    2    1    2    0    0  0.56644149116E+02 -0.19622172955E+01  0.11226159460E+04  0.11309745955E+04  0.12499825364E+03 0.  0.
          2    1    1    2  501    0 -0.67147328323E+02  0.21170832710E+02  0.33795765413E+02  0.78096873295E+02  0.00000000000E+00 0. -1.
          1    1    1    2  502    0  0.10503179207E+02 -0.19208615415E+02  0.16066210887E+04  0.16067702420E+04  0.00000000000E+00 0. -1.
         22    1    3    3    0    0  0.34438850956E+02  0.44627095459E+02  0.92546744613E+03  0.92718261737E+03  0.00000000000E+00 0. -1.
         22    1    3    3    0    0  0.22205298160E+02 -0.46589312754E+02  0.19714849987E+03  0.20379197808E+03  0.00000000000E+00 0. -1.
</event>
<event>
 7    1  0.5667373E-006  0.1336561E+03  0.7818608E-02  0.1222176E+00
          2   -1    0    0  502    0  0.00000000000E+00  0.00000000000E+00  0.33165556584E+04  0.33165556584E+04  0.00000000000E+00 0. -1.
          1   -1    0    0  501    0 -0.00000000000E+00 -0.00000000000E+00 -0.38524100478E+03  0.38524100478E+03  0.00000000000E+00 0. -1.
         25    2    1    2    0    0  0.55211066077E+02 -0.14793460333E+03  0.27450978225E+03  0.34045583838E+03  0.12498659391E+03 0.  0.
          2    1    1    2  501    0 -0.12910505271E+03  0.34580932550E+02 -0.33800729666E+03  0.36347336647E+03  0.00000000000E+00 0. -1.
          1    1    1    2  502    0  0.73893986637E+02  0.11335367078E+03  0.29948121680E+04  0.29978674583E+04  0.00000000000E+00 0. -1.
         22    1    3    3    0    0  0.25682606446E+02 -0.13360082218E+03  0.11661858090E+03  0.17918892090E+03  0.00000000000E+00 0.  1.
         22    1    3    3    0    0  0.29528459631E+02 -0.14333781147E+02  0.15789120135E+03  0.16126691748E+03  0.00000000000E+00 0.  1.
</event>
<event>
 7    1  0.5667373E-006  0.1251987E+03  0.7818608E-02  0.1246789E+00
          2   -1    0    0  502    0  0.00000000000E+00  0.00000000000E+00  0.18924098467E+04  0.18924098467E+04  0.00000000000E+00 0. -1.
          1   -1    0    0  501    0 -0.00000000000E+00 -0.00000000000E+00 -0.25823835513E+03  0.25823835513E+03  0.00000000000E+00 0. -1.
         25    2    1    2    0    0  0.71778580249E+02  0.18158034567E+02  0.90229284642E+03  0.91391365522E+03  0.12499563876E+03 0.  0.
          2    1    1    2  501    0 -0.33662682057E+02 -0.12221548740E+03 -0.23313917070E+03  0.26537459268E+03  0.00000000000E+00 0. -1.
          1    1    1    2  502    0 -0.38115898191E+02  0.10405745283E+03  0.96501781583E+03  0.97135995391E+03  0.00000000000E+00 0. -1.
         22    1    3    3    0    0  0.59775933562E+02  0.41522299023E+02  0.86631788980E+03  0.86936985785E+03  0.00000000000E+00 0. -1.
         22    1    3    3    0    0  0.12002646687E+02 -0.23364264456E+02  0.35974956618E+02  0.44543797376E+02  0.00000000000E+00 0. -1.
</event>
<event>
 7    1  0.5667373E-006  0.1071004E+03  0.7818608E-02  0.1308109E+00
          2   -1    0    0  502    0  0.00000000000E+00  0.00000000000E+00  0.25217617702E+04  0.25217617702E+04  0.00000000000E+00 0. -1.
          1   -1    0    0  501    0 -0.00000000000E+00 -0.00000000000E+00 -0.68364300243E+03  0.68364300243E+03  0.00000000000E+00 0. -1.
         25    2    1    2    0    0 -0.14472281659E+03  0.59011324965E+02 -0.12866428196E+03  0.23792038212E+03  0.12499832262E+03 0.  0.
          2    1    1    2  501    0  0.10328290071E+03 -0.31703776709E-01 -0.49448745343E+03  0.50515858914E+03  0.00000000000E+00 0. -1.
          1    1    1    2  502    0  0.41439915885E+02 -0.58979621188E+02  0.24612705031E+04  0.24623258013E+04  0.00000000000E+00 0. -1.
         22    1    3    3    0    0  0.22815311216E+02  0.10509190578E+01 -0.15399051579E+02  0.27545846262E+02  0.00000000000E+00 0. -1.
         22    1    3    3    0    0 -0.16753812781E+03  0.57960405907E+02 -0.11326523038E+03  0.21037453586E+03  0.00000000000E+00 0. -1.
</event>
<event>
 7    1  0.5667373E-006  0.6383229E+02  0.7818608E-02  0.1537846E+00
          2   -1    0    0  502    0  0.00000000000E+00  0.00000000000E+00  0.19826970533E+04  0.19826970533E+04  0.00000000000E+00 0. -1.
          1   -1    0    0  501    0 -0.00000000000E+00 -0.00000000000E+00 -0.10305330095E+03  0.10305330095E+03  0.00000000000E+00 0. -1.
         25    2    1    2    0    0  0.13778037393E+02  0.42212915740E+02  0.35225538722E+03  0.37640543863E+03  0.12500172733E+03 0.  0.
          2    1    1    2  501    0  0.86664119818E+01  0.18662218818E+02 -0.89155723471E+02  0.91499334071E+02  0.00000000000E+00 0. -1.
          1    1    1    2  502    0 -0.22444449375E+02 -0.60875134558E+02  0.16165440886E+04  0.16178455816E+04  0.00000000000E+00 0. -1.
         22    1    3    3    0    0 -0.53540676771E+02  0.23275381129E+02  0.11371917717E+03  0.12782956892E+03  0.00000000000E+00 0.  1.
         22    1    3    3    0    0  0.67318714164E+02  0.18937534611E+02  0.23853621005E+03  0.24857586970E+03  0.00000000000E+00 0.  1.
</event>
<event>
 7    1  0.5667373E-006  0.9526262E+02  0.7818608E-02  0.1290598E+00
          2   -1    0    0  502    0  0.00000000000E+00  0.00000000000E+00  0.96061981314E+03  0.96061981314E+03  0.00000000000E+00 0. -1.
          1   -1    0    0  501    0 -0.00000000000E+00 -0.00000000000E+00 -0.56552793163E+03  0.56552793163E+03  0.00000000000E+00 0. -1.
         25    2    1    2    0    0 -0.70690320198E+01  0.30158884486E+02 -0.35182387154E+03  0.37465319915E+03  0.12500181406E+03 0.  0.
          2    1    1    2  501    0  0.94891079377E+02  0.82829283814E+01 -0.18848926586E+03  0.21118978951E+03  0.00000000000E+00 0. -1.
          1    1    1    2  502    0 -0.87822047357E+02 -0.38441812867E+02  0.93540501891E+03  0.94030475612E+03  0.00000000000E+00 0. -1.
         22    1    3    3    0    0  0.32998729172E+00  0.67574931290E+02 -0.10476963892E+03  0.12467220006E+03  0.00000000000E+00 0.  1.
         22    1    3    3    0    0 -0.73990193115E+01 -0.37416046804E+02 -0.24705423262E+03  0.24998099908E+03  0.00000000000E+00 0.  1.
</event>
<event>
 7    1  0.5667373E-006  0.1963624E+03  0.7818608E-02  0.1156266E+00
          2   -1    0    0  502    0  0.00000000000E+00  0.00000000000E+00  0.16581854783E+04  0.16581854783E+04  0.00000000000E+00 0. -1.
          1   -1    0    0  501    0 -0.00000000000E+00 -0.00000000000E+00 -0.10722488750E+04  0.10722488750E+04  0.00000000000E+00 0. -1.
         25    2    1    2    0    0  0.11979880478E+03 -0.92493124545E+02 -0.26812627170E+02  0.19813017059E+03  0.12501966169E+03 0.  0.
          2    1    1    2  501    0  0.45362271955E+02  0.19870057633E+03 -0.94271458673E+03  0.96449491797E+03  0.00000000000E+00 0. -1.
          1    1    1    2  502    0 -0.16516107673E+03 -0.10620745178E+03  0.15554638172E+04  0.15678092648E+04  0.00000000000E+00 0. -1.
         22    1    3    3    0    0 -0.55140676326E+01 -0.41324750122E+01 -0.43362778212E+02  0.43906865362E+02  0.00000000000E+00 0. -1.
         22    1    3    3    0    0  0.12531287241E+03 -0.88360649533E+02  0.16550151042E+02  0.15422330523E+03  0.00000000000E+00 0. -1.
</event>
<event>
 7    1  0.5667373E-006  0.1659186E+03  0.7818608E-02  0.1212361E+00
          2   -1    0    0  502    0  0.00000000000E+00  0.00000000000E+00  0.20412222288E+04  0.20412222288E+04  0.00000000000E+00 0. -1.
          1   -1    0    0  501    0 -0.00000000000E+00 -0.00000000000E+00 -0.60760347772E+03  0.60760347772E+03  0.00000000000E+00 0. -1.
         25    2    1    2    0    0 -0.21619814319E+03 -0.35615794465E+02  0.68649253799E+03  0.73137087644E+03  0.12498492812E+03 0.  0.
          2    1    1    2  501    0  0.12329638869E+03  0.11054217940E+03 -0.57069794131E+03  0.59423708493E+03  0.00000000000E+00 0. -1.
          1    1    1    2  502    0  0.92901754498E+02 -0.74926384938E+02  0.13178241544E+04  0.13232177452E+04  0.00000000000E+00 0. -1.
         22    1    3    3    0    0 -0.14720634775E+03 -0.80219303578E+02  0.50630916205E+03  0.53334211634E+03  0.00000000000E+00 0.  1.
         22    1    3    3    0    0 -0.68991795437E+02  0.44603509113E+02  0.18018337593E+03  0.19802876010E+03  0.00000000000E+00 0.  1.
</event>
<event>
 7    1  0.5667373E-006  0.4250001E+02  0.7818608E-02  0.1578185E+00
          2   -1    0    0  502    0  0.00000000000E+00  0.00000000000E+00  0.12472661938E+04  0.12472661938E+04  0.00000000000E+00 0. -1.
          1   -1    0    0  501    0 -0.00000000000E+00 -0.00000000000E+00 -0.15540721384E+04  0.15540721384E+04  0.00000000000E+00 0. -1.
         25    2    1    2    0    0 -0.55241982763E+02  0.35404217216E+02  0.19325028747E+03  0.23932377186E+03  0.12500023565E+03 0.  0.
          2    1    1    2  501    0  0.38132917564E+02 -0.18695085362E+02 -0.15306021366E+04  0.15311912115E+04  0.00000000000E+00 0. -1.
          1    1    1    2  502    0  0.17109065200E+02 -0.16709131854E+02  0.10305459045E+04  0.10308233488E+04  0.00000000000E+00 0. -1.
         22    1    3    3    0    0 -0.30986788849E+00 -0.38407069838E+02  0.20350085046E+02  0.43466366227E+02  0.00000000000E+00 0. -1.
         22    1    3    3    0    0 -0.54932114875E+02  0.73811287054E+02  0.17290020243E+03  0.19585740563E+03  0.00000000000E+00 0. -1.
</event>
<event>
 7    1  0.5667373E-006  0.1003238E+03  0.7818608E-02  0.1428881E+00
          2   -1    0    0  502    0  0.00000000000E+00  0.00000000000E+00  0.96830904662E+03  0.96830904662E+03  0.00000000000E+00 0. -1.
          1   -1    0    0  501    0 -0.00000000000E+00 -0.00000000000E+00 -0.19221086293E+03  0.19221086293E+03  0.00000000000E+00 0. -1.
         25    2    1    2    0    0 -0.97883228324E+02  0.73463944993E+02  0.33112744353E+03  0.37449675985E+03  0.12499744668E+03 0.  0.
          2    1    1    2  501    0  0.87537168732E+02 -0.47235381663E+02 -0.15566230005E+03  0.18472868983E+03  0.00000000000E+00 0. -1.
          1    1    1    2  502    0  0.10346059592E+02 -0.26228563331E+02  0.60063304021E+03  0.60129445987E+03  0.00000000000E+00 0. -1.
         22    1    3    3    0    0 -0.68847805766E+02  0.69937713382E+02  0.33100559015E+03  0.34524774413E+03  0.00000000000E+00 0.  1.
         22    1    3    3    0    0 -0.29035422557E+02  0.35262316110E+01  0.12185337884E+00  0.29249015722E+02  0.00000000000E+00 0.  1.
</event>
<event>
 7    1  0.5667373E-006  0.1151070E+03  0.7818608E-02  0.1260133E+00
          2   -1    0    0  502    0  0.00000000000E+00  0.00000000000E+00  0.94386848678E+03  0.94386848678E+03  0.00000000000E+00 0. -1.
          1   -1    0    0  501    0 -0.00000000000E+00 -0.00000000000E+00 -0.41655501858E+03  0.41655501858E+03  0.00000000000E+00 0. -1.
         25    2    1    2    0    0 -0.32466127380E+02  0.10617882145E+03  0.10504480189E+03  0.19745768309E+03  0.12500853833E+03 0.  0.
          2    1    1    2  501    0  0.11223549410E+03 -0.37024534193E+02 -0.35727027567E+03  0.37631060594E+03  0.00000000000E+00 0. -1.
          1    1    1    2  502    0 -0.79769366725E+02 -0.69154287257E+02  0.77953894199E+03  0.78665521633E+03  0.00000000000E+00 0. -1.
         22    1    3    3    0    0  0.11366954466E+02 -0.65658174377E+01 -0.19713330861E+02  0.23684024702E+02  0.00000000000E+00 0.  1.
         22    1    3    3    0    0 -0.43833081846E+02  0.11274463889E+03  0.12475813275E+03  0.17377365838E+03  0.00000000000E+00 0.  1.
</event>
<event>
 7    1  0.5667373E-006  0.6031851E+02  0.7818608E-02  0.1496571E+00
          2   -1    0    0  502    0  0.00000000000E+00  0.00000000000E+00  0.92621612113E+03  0.92621612113E+03  0.00000000000E+00 0. -1.
          1   -1    0    0  501    0 -0.00000000000E+00 -0.00000000000E+00 -0.53195218859E+02  0.53195218859E+02  0.00000000000E+00 0. -1.
         25    2    1    2    0    0 -0.57672569393E+02 -0.55747043047E+02  0.39751898449E+03  0.42435958521E+03  0.12500342581E+03 0.  0.
          2    1    1    2  501    0  0.65670967773E+01  0.27966477607E+02 -0.32703109732E+02  0.43528657411E+02  0.00000000000E+00 0. -1.
          1    1    1    2  502    0  0.51105472616E+02  0.27780565439E+02  0.50820502751E+03  0.51152309736E+03  0.00000000000E+00 0. -1.
         22    1    3    3    0    0 -0.89674266932E+02 -0.37247240570E+02  0.18790675327E+03  0.21151307053E+03  0.00000000000E+00 0. -1.
         22    1    3    3    0    0  0.32001697538E+02 -0.18499802477E+02  0.20961223122E+03  0.21284651468E+03  0.00000000000E+00 0. -1.
</event>
<event>
 7    1  0.5667373E-006  0.9327973E+02  0.7818608E-02  0.1339761E+00
          2   -1    0    0  502    0  0.00000000000E+00  0.00000000000E+00  0.99640079724E+03  0.99640079724E+03  0.00000000000E+00 0. -1.
          1   -1    0    0  501    0 -0.00000000000E+00 -0.00000000000E+00 -0.54128638771E+03  0.54128638771E+03  0.00000000000E+00 0. -1.
         25    2    1    2    0    0 -0.11322284426E+03 -0.57507378959E+02 -0.27506207450E+03  0.32773575431E+03  0.12500027491E+03 0.  0.
          2    1    1    2  501    0  0.86036985914E+02  0.12495652275E+01 -0.23112444908E+03  0.24662204954E+03  0.00000000000E+00 0. -1.
          1    1    1    2  502    0  0.27185858350E+02  0.56257813732E+02  0.96130093311E+03  0.96332938110E+03  0.00000000000E+00 0. -1.
         22    1    3    3    0    0 -0.10621298377E+03 -0.90721839493E+02 -0.24670053767E+03  0.28350097948E+03  0.00000000000E+00 0. -1.
         22    1    3    3    0    0 -0.70098604977E+01  0.33214460534E+02 -0.28361536829E+02  0.44234774828E+02  0.00000000000E+00 0. -1.
</event>
<event>
 7    1  0.5667373E-006  0.1583074E+03  0.7818608E-02  0.1203765E+00
          2   -1    0    0  502    0  0.00000000000E+00  0.00000000000E+00  0.12064123045E+04  0.12064123045E+04  0.00000000000E+00 0. -1.
          1   -1    0    0  501    0 -0.00000000000E+00 -0.00000000000E+00 -0.37234348050E+03  0.37234348050E+03  0.00000000000E+00 0. -1.
         25    2    1    2    0    0  0.52501064066E+02  0.48592680778E+02  0.43819950170E+02  0.15054142127E+03  0.12499968452E+03 0.  0.
          2    1    1    2  501    0 -0.31850624741E+02 -0.18418377192E+03 -0.28687326984E+03  0.34239508916E+03  0.00000000000E+00 0. -1.
          1    1    1    2  502    0 -0.20650439324E+02  0.13559109115E+03  0.10771221437E+04  0.10858192746E+04  0.00000000000E+00 0. -1.
         22    1    3    3    0    0  0.45601545569E+02  0.58084720593E+02  0.82145795826E+02  0.11045934771E+03  0.00000000000E+00 0. -1.
         22    1    3    3    0    0  0.68995184964E+01 -0.94920398148E+01 -0.38325845656E+02  0.40082073556E+02  0.00000000000E+00 0. -1.
</event>
<event>
 7    1  0.5667373E-006  0.6666333E+02  0.7818608E-02  0.1478027E+00
          2   -1    0    0  502    0  0.00000000000E+00  0.00000000000E+00  0.11943384044E+04  0.11943384044E+04  0.00000000000E+00 0. -1.
          1   -1    0    0  501    0 -0.00000000000E+00 -0.00000000000E+00 -0.10309324697E+04  0.10309324697E+04  0.00000000000E+00 0. -1.
         25    2    1    2    0    0 -0.56537241548E+02  0.26652269793E+02  0.31249811168E+03  0.34232530300E+03  0.12499896040E+03 0.  0.
          2    1    1    2  501    0  0.41555574043E+02 -0.52171342483E+02 -0.10146711161E+04  0.10168609485E+04  0.00000000000E+00 0. -1.
          1    1    1    2  502    0  0.14981667505E+02  0.25519072690E+02  0.86557893916E+03  0.86608462251E+03  0.00000000000E+00 0. -1.
         22    1    3    3    0    0  0.17261097989E+02  0.51674969463E+02  0.18541225192E+03  0.19325100552E+03  0.00000000000E+00 0.  1.
         22    1    3    3    0    0 -0.73798339538E+02 -0.25022699670E+02  0.12708585977E+03  0.14907429748E+03  0.00000000000E+00 0.  1.
</event>
<event>
 7    1  0.5667373E-006  0.9199773E+02  0.7818608E-02  0.1362855E+00
          2   -1    0    0  502    0  0.00000000000E+00  0.00000000000E+00  0.31649141475E+04  0.31649141475E+04  0.00000000000E+00 0. -1.
          1   -1    0    0  501    0 -0.00000000000E+00 -0.00000000000E+00 -0.28980191404E+03  0.28980191404E+03  0.00000000000E+00 0. -1.
         25    2    1    2    0    0  0.46636678841E+02 -0.77631507377E+01  0.10714628750E+02  0.13407472593E+03  0.12500393010E+03 0.  0.
          2    1    1    2  501    0 -0.94579323836E+02  0.28010567013E+02 -0.21722889004E+03  0.23857542000E+03  0.00000000000E+00 0. -1.
          1    1    1    2  502    0  0.47942644995E+02 -0.20247416275E+02  0.30816264948E+04  0.30820659156E+04  0.00000000000E+00 0. -1.
         22    1    3    3    0    0  0.32310032186E+02 -0.13439019680E+02 -0.55763455966E+02  0.65833946039E+02  0.00000000000E+00 0. -1.
         22    1    3    3    0    0  0.14326646654E+02  0.56758689421E+01  0.66478084715E+02  0.68240779890E+02  0.00000000000E+00 0. -1.
</event>
<event>
 7    1  0.5667373E-006  0.2088073E+03  0.7818608E-02  0.1272739E+00
          2   -1    0    0  502    0  0.00000000000E+00  0.00000000000E+00  0.68413831678E+02  0.68413831678E+02  0.00000000000E+00 0. -1.
          1   -1    0    0  501    0 -0.00000000000E+00 -0.00000000000E+00 -0.12241566878E+04  0.12241566878E+04  0.00000000000E+00 0. -1.
         25    2    1    2    0    0  0.11746061237E+03  0.15566509800E+03 -0.27139238611E+03  0.35680191426E+03  0.12500064233E+03 0.  0.
          2    1    1    2  501    0 -0.36898917203E+01  0.51349839887E+02 -0.31784497181E+03  0.32198734053E+03  0.00000000000E+00 0. -1.
          1    1    1    2  502    0 -0.11377072065E+03 -0.20701493789E+03 -0.56650549817E+03  0.61378126466E+03  0.00000000000E+00 0. -1.
         22    1    3    3    0    0  0.97998828914E+02  0.14491046249E+03 -0.14144415589E+03  0.22496502360E+03  0.00000000000E+00 0. -1.
         22    1    3    3    0    0  0.19461783457E+02  0.10754635511E+02 -0.12994823022E+03  0.13183689066E+03  0.00000000000E+00 0. -1.
</event>
<event>
 7    1  0.5667373E-006  0.1023670E+03  0.7818608E-02  0.1351015E+00
          2   -1    0    0  502    0  0.00000000000E+00  0.00000000000E+00  0.10886858208E+04  0.10886858208E+04  0.00000000000E+00 0. -1.
          1   -1    0    0  501    0 -0.00000000000E+00 -0.00000000000E+00 -0.14195919994E+03  0.14195919994E+03  0.00000000000E+00 0. -1.
         25    2    1    2    0    0  0.44447920264E+02  0.12514671625E+03  0.36270251829E+03  0.40597329851E+03  0.12499553643E+03 0.  0.
          2    1    1    2  501    0  0.13016227097E+01 -0.10109157173E+03 -0.97934910596E+02  0.14075669366E+03  0.00000000000E+00 0. -1.
          1    1    1    2  502    0 -0.45749542973E+02 -0.24055144515E+02  0.68195901320E+03  0.68391502860E+03  0.00000000000E+00 0. -1.
         22    1    3    3    0    0  0.21953658531E+02  0.96813421985E+02  0.10041237423E+03  0.14120002372E+03  0.00000000000E+00 0. -1.
         22    1    3    3    0    0  0.22494261733E+02  0.28333294265E+02  0.26229014406E+03  0.26477327480E+03  0.00000000000E+00 0. -1.
</event>
<event>
 7    1  0.5667373E-006  0.6522404E+02  0.7818608E-02  0.1402774E+00
          2   -1    0    0  502    0  0.00000000000E+00  0.00000000000E+00  0.41922297419E+03  0.41922297419E+03  0.00000000000E+00 0. -1.
          1   -1    0    0  501    0 -0.00000000000E+00 -0.00000000000E+00 -0.27538622877E+04  0.27538622877E+04  0.00000000000E+00 0. -1.
         25    2    1    2    0    0  0.10066990780E+03 -0.38968359900E+02 -0.44264887585E+02  0.17098813972E+03  0.12499840096E+03 0.  0.
          2    1    1    2  501    0 -0.65000509262E+02 -0.33638556714E+00 -0.26438549622E+04  0.26446538980E+04  0.00000000000E+00 0. -1.
          1    1    1    2  502    0 -0.35669398539E+02  0.39304745468E+02  0.35348053622E+03  0.35744322416E+03  0.00000000000E+00 0. -1.
         22    1    3    3    0    0  0.11018224114E+03  0.44865086794E+01 -0.57783226172E+02  0.12449560735E+03  0.00000000000E+00 0.  1.
         22    1    3    3    0    0 -0.95123333339E+01 -0.43454868580E+02  0.13518338586E+02  0.46492532378E+02  0.00000000000E+00 0.  1.
</event>
<event>
 7    1  0.5667373E-006  0.8302930E+02  0.7818608E-02  0.1400310E+00
          2   -1    0    0  502    0  0.00000000000E+00  0.00000000000E+00  0.94280976861E+03  0.94280976861E+03  0.00000000000E+00 0. -1.
          1   -1    0    0  501    0 -0.00000000000E+00 -0.00000000000E+00 -0.10001736790E+03  0.10001736790E+03  0.00000000000E+00 0. -1.
         25    2    1    2    0    0 -0.38305887768E+02  0.87973166215E+02  0.92028347698E+02  0.18248660501E+03  0.12500210085E+03 0.  0.
          2    1    1    2  501    0 -0.37578586228E+01 -0.81798664044E+02 -0.23279914100E+02  0.85129885124E+02  0.00000000000E+00 0. -1.
          1    1    1    2  502    0  0.42063746391E+02 -0.61745021710E+01  0.77404396710E+03  0.77521064637E+03  0.00000000000E+00 0. -1.
         22    1    3    3    0    0 -0.73113857868E+01 -0.49856622113E+01  0.83674703798E+02  0.84141364652E+02  0.00000000000E+00 0. -1.
         22    1    3    3    0    0 -0.30994501981E+02  0.92958828426E+02  0.83536438999E+01  0.98345240362E+02  0.00000000000E+00 0. -1.
</event>
<event>
 7    1  0.5667373E-006  0.3980055E+02  0.7818608E-02  0.1577705E+00
          2   -1    0    0  502    0  0.00000000000E+00  0.00000000000E+00  0.51245148589E+03  0.51245148589E+03  0.00000000000E+00 0. -1.
          1   -1    0    0  501    0 -0.00000000000E+00 -0.00000000000E+00 -0.17842920277E+04  0.17842920277E+04  0.00000000000E+00 0. -1.
         25    2    1    2    0    0  0.33870202400E+02 -0.14134991411E+02 -0.47437356139E+02  0.13864906003E+03  0.12500508188E+03 0.  0.
          2    1    1    2  501    0 -0.19039154096E+02  0.35016810375E+02 -0.16906624583E+04  0.16911322285E+04  0.00000000000E+00 0. -1.
          1    1    1    2  502    0 -0.14831048304E+02 -0.20881818964E+02  0.46625927260E+03  0.46696222507E+03  0.00000000000E+00 0. -1.
         22    1    3    3    0    0  0.80805885404E+02 -0.90936547470E-01 -0.23701318724E+02  0.84210165031E+02  0.00000000000E+00 0.  1.
         22    1    3    3    0    0 -0.46935683004E+02 -0.14044054864E+02 -0.23736037415E+02  0.54438894994E+02  0.00000000000E+00 0.  1.
</event>
<event>
 7    1  0.5667373E-006  0.5828981E+02  0.7818608E-02  0.1448185E+00
          2   -1    0    0  502    0  0.00000000000E+00  0.00000000000E+00  0.65223231109E+03  0.65223231109E+03  0.00000000000E+00 0. -1.
          1   -1    0    0  501    0 -0.00000000000E+00 -0.00000000000E+00 -0.33043179137E+03  0.33043179137E+03  0.00000000000E+00 0. -1.
         25    2    1    2    0    0 -0.58093183924E+02  0.51345237731E+02  0.17829741218E+02  0.14815691710E+03  0.12498568300E+03 0.  0.
          2    1    1    2  501    0  0.41761920487E+02  0.44283485132E+01 -0.26210900753E+03  0.26545206743E+03  0.00000000000E+00 0. -1.
          1    1    1    2  502    0  0.16331263437E+02 -0.55773586244E+02  0.56607978604E+03  0.56905511793E+03  0.00000000000E+00 0. -1.
         22    1    3    3    0    0 -0.83755719908E+01 -0.41111806113E+02  0.21072885134E+01  0.42009183197E+02  0.00000000000E+00 0.  1.
         22    1    3    3    0    0 -0.49717611933E+02  0.92457043844E+02  0.15722452705E+02  0.10614773390E+03  0.00000000000E+00 0.  1.
</event>
<event>
 7    1  0.5667373E-006  0.8313700E+02  0.7818608E-02  0.1344860E+00
          2   -1    0    0  502    0  0.00000000000E+00  0.00000000000E+00  0.98122713239E+03  0.98122713239E+03  0.00000000000E+00 0. -1.
          1   -1    0    0  501    0 -0.00000000000E+00 -0.00000000000E+00 -0.11933687947E+04  0.11933687947E+04  0.00000000000E+00 0. -1.
         25    2    1    2    0    0 -0.30651157239E+02  0.13647512083E+03 -0.11623060252E+03  0.22067814866E+03  0.12499736112E+03 0.  0.
          2    1    1    2  501    0 -0.74135207458E+01 -0.81233638203E+02 -0.10220762234E+04  0.10253261290E+04  0.00000000000E+00 0. -1.
          1    1    1    2  502    0  0.38064677985E+02 -0.55241482631E+02  0.92616516363E+03  0.92859164945E+03  0.00000000000E+00 0. -1.
         22    1    3    3    0    0 -0.41113786711E+02 -0.87099894494E+01 -0.26177560702E+02  0.49512342484E+02  0.00000000000E+00 0. -1.
         22    1    3    3    0    0  0.10462629472E+02  0.14518511028E+03 -0.90053041820E+02  0.17116580618E+03  0.00000000000E+00 0. -1.
</event>
<event>
 7    1  0.5667373E-006  0.5076625E+02  0.7818608E-02  0.1483435E+00
          2   -1    0    0  502    0  0.00000000000E+00  0.00000000000E+00  0.15079482939E+04  0.15079482939E+04  0.00000000000E+00 0. -1.
          1   -1    0    0  501    0 -0.00000000000E+00 -0.00000000000E+00 -0.45250369567E+02  0.45250369567E+02  0.00000000000E+00 0. -1.
         25    2    1    2    0    0  0.68625806614E+02 -0.20827572754E+01  0.49182900977E+03  0.51208850617E+03  0.12500009637E+03 0.  0.
          2    1    1    2  501    0 -0.25298171019E+02  0.27550301590E+02 -0.24344754119E+02  0.44628282823E+02  0.00000000000E+00 0. -1.
          1    1    1    2  502    0 -0.43327635594E+02 -0.25467544315E+02  0.99521366870E+03  0.99648187449E+03  0.00000000000E+00 0. -1.
         22    1    3    3    0    0 -0.22489551593E+02 -0.98889942326E+01  0.28361327415E+03  0.28467536144E+03  0.00000000000E+00 0.  1.
         22    1    3    3    0    0  0.91115358206E+02  0.78062369572E+01  0.20821573562E+03  0.22741314473E+03  0.00000000000E+00 0.  1.
</event>
<event>
 7    1  0.5667373E-006  0.8544569E+02  0.7818608E-02  0.1335892E+00
          2   -1    0    0  502    0  0.00000000000E+00  0.00000000000E+00  0.96944072346E+03  0.96944072346E+03  0.00000000000E+00 0. -1.
          1   -1    0    0  501    0 -0.00000000000E+00 -0.00000000000E+00 -0.34173751974E+03  0.34173751974E+03  0.00000000000E+00 0. -1.
         25    2    1    2    0    0  0.22936160690E+02 -0.25047135668E+02 -0.11730775057E+03  0.17475622139E+03  0.12500080839E+03 0.  0.
          2    1    1    2  501    0 -0.85701499657E+02 -0.32931115665E+02 -0.18286575908E+03  0.20461938145E+03  0.00000000000E+00 0. -1.
          1    1    1    2  502    0  0.62765338967E+02  0.57978251333E+02  0.92787671336E+03  0.93180264037E+03  0.00000000000E+00 0. -1.
         22    1    3    3    0    0 -0.45681919685E+02  0.15274940643E+02 -0.58610100598E+02  0.75863729739E+02  0.00000000000E+00 0. -1.
         22    1    3    3    0    0  0.68618080375E+02 -0.40322076311E+02 -0.58697649968E+02  0.98892491647E+02  0.00000000000E+00 0. -1.
</event>
<event>
 7    1  0.5667373E-006  0.3425516E+02  0.7818608E-02  0.1568405E+00
          2   -1    0    0  502    0  0.00000000000E+00  0.00000000000E+00  0.23522136602E+02  0.23522136602E+02  0.00000000000E+00 0. -1.
          1   -1    0    0  501    0 -0.00000000000E+00 -0.00000000000E+00 -0.48716096857E+03  0.48716096857E+03  0.00000000000E+00 0. -1.
         25    2    1    2    0    0 -0.39097145259E+01 -0.28822866904E+01 -0.28752072731E+03  0.31355600928E+03  0.12500243549E+03 0.  0.
          2    1    1    2  501    0 -0.40273602597E+01  0.36205233321E+02 -0.14913839363E+03  0.15352295922E+03  0.00000000000E+00 0. -1.
          1    1    1    2  502    0  0.79370747855E+01 -0.33322946631E+02 -0.26979711018E+02  0.43604136672E+02  0.00000000000E+00 0. -1.
         22    1    3    3    0    0 -0.22828528845E+02  0.35658245944E+02 -0.25800363329E+03  0.26145463664E+03  0.00000000000E+00 0.  1.
         22    1    3    3    0    0  0.18918814319E+02 -0.38540532634E+02 -0.29517094024E+02  0.52101372637E+02  0.00000000000E+00 0.  1.
</event>
<event>
 7    1  0.5667373E-006  0.6600722E+02  0.7818608E-02  0.1386558E+00
          2   -1    0    0  502    0  0.00000000000E+00  0.00000000000E+00  0.16564345539E+03  0.16564345539E+03  0.00000000000E+00 0. -1.
          1   -1    0    0  501    0 -0.00000000000E+00 -0.00000000000E+00 -0.34530645883E+03  0.34530645883E+03  0.00000000000E+00 0. -1.
         25    2    1    2    0    0  0.67335289831E+01  0.22224274809E+02  0.59000530067E+02  0.14015940466E+03  0.12499734942E+03 0.  0.
          2    1    1    2  501    0  0.37859141414E+02  0.54070686209E+02 -0.26929093814E+03  0.27726262471E+03  0.00000000000E+00 0. -1.
          1    1    1    2  502    0 -0.44592670397E+02 -0.76294961018E+02  0.30627404629E+02  0.93527884848E+02  0.00000000000E+00 0. -1.
         22    1    3    3    0    0  0.12052037174E+02 -0.15667947303E+02  0.89231338619E+02  0.91394572949E+02  0.00000000000E+00 0.  1.
         22    1    3    3    0    0 -0.53185081909E+01  0.37892222111E+02 -0.30230808552E+02  0.48764831709E+02  0.00000000000E+00 0.  1.
</event>
<event>
 7    1  0.5667373E-006  0.4014103E+02  0.7818608E-02  0.1564760E+00
          2   -1    0    0  502    0  0.00000000000E+00  0.00000000000E+00  0.12013794440E+04  0.12013794440E+04  0.00000000000E+00 0. -1.
          1   -1    0    0  501    0 -0.00000000000E+00 -0.00000000000E+00 -0.34244308618E+03  0.34244308618E+03  0.00000000000E+00 0. -1.
         25    2    1    2    0    0 -0.67195700901E+02 -0.64161721923E+01  0.40379017224E+03  0.42805121792E+03  0.12499964992E+03 0.  0.
          2    1    1    2  501    0  0.40008115768E+02  0.20627913586E+01 -0.32885531634E+03  0.33128646746E+03  0.00000000000E+00 0. -1.
          1    1    1    2  502    0  0.27187585133E+02  0.43533808337E+01  0.78400150193E+03  0.78448484481E+03  0.00000000000E+00 0. -1.
         22    1    3    3    0    0  0.22861656248E+02  0.25778156204E+02  0.44671003558E+02  0.56415132922E+02  0.00000000000E+00 0.  1.
         22    1    3    3    0    0 -0.90057357149E+02 -0.32194328397E+02  0.35911916868E+03  0.37163608499E+03  0.00000000000E+00 0.  1.
</event>
<event>
 7    1  0.7489328E-006  0.1203967E+03  0.7818608E-02  0.1281760E+00
          2   -1    0    0  502    0  0.00000000000E+00  0.00000000000E+00  0.11683999714E+04  0.11683999714E+04  0.00000000000E+00 0. -1.
          1   -1    0    0  501    0 -0.00000000000E+00 -0.00000000000E+00 -0.16816624875E+04  0.16816624875E+04  0.00000000000E+00 0. -1.
         25    2    1    2    0    0  0.15292692987E+03 -0.18415718814E-01 -0.16229642412E+03  0.25563618175E+03  0.12499232744E+03 0.  0.
          2    1    1    2  501    0 -0.51130200795E+02 -0.63993625884E+02 -0.14683286959E+04  0.14706116553E+04  0.00000000000E+00 0. -1.
          1    1    1    2  502    0 -0.10179672907E+03  0.64012041603E+02  0.11173626039E+04  0.11238146218E+04  0.00000000000E+00 0. -1.
         22    1    3    3    0    0  0.78134828278E+02 -0.58460436981E+02 -0.11081166325E+03  0.14765466059E+03  0.00000000000E+00 0. -1.
         22    1    3    3    0    0  0.74792101588E+02  0.58442021262E+02 -0.51484760875E+02  0.10798152116E+03  0.00000000000E+00 0. -1.
</event>
<event>
 7    1  0.5667373E-006  0.6209761E+02  0.7818608E-02  0.1450943E+00
          2   -1    0    0  502    0  0.00000000000E+00  0.00000000000E+00  0.15463044502E+02  0.15463044502E+02  0.00000000000E+00 0. -1.
          1   -1    0    0  501    0 -0.00000000000E+00 -0.00000000000E+00 -0.18106987835E+04  0.18106987835E+04  0.00000000000E+00 0. -1.
         25    2    1    2    0    0  0.35850821327E+02 -0.45986208419E+02 -0.35252766288E+03  0.37855309128E+03  0.12500670808E+03 0.  0.
          2    1    1    2  501    0 -0.11815966219E+01  0.63018920500E+02 -0.12160798613E+04  0.12177122031E+04  0.00000000000E+00 0. -1.
          1    1    1    2  502    0 -0.34669224706E+02 -0.17032712081E+02 -0.22662821480E+03  0.22989653361E+03  0.00000000000E+00 0. -1.
         22    1    3    3    0    0  0.23924056876E+02 -0.27548304635E+02 -0.13637003525E+02  0.38951732321E+02  0.00000000000E+00 0.  1.
         22    1    3    3    0    0  0.11926764451E+02 -0.18437903784E+02 -0.33889065936E+03  0.33960135896E+03  0.00000000000E+00 0.  1.
</event>
<event>
 7    1  0.5667373E-006  0.8619840E+02  0.7818608E-02  0.1436082E+00
          2   -1    0    0  502    0  0.00000000000E+00  0.00000000000E+00  0.17029842452E+04  0.17029842452E+04  0.00000000000E+00 0. -1.
          1   -1    0    0  501    0 -0.00000000000E+00 -0.00000000000E+00 -0.24003384589E+03  0.24003384589E+03  0.00000000000E+00 0. -1.
         25    2    1    2    0    0  0.63521374904E+02  0.12457920663E+02  0.14346859195E+02  0.14149452038E+03  0.12499880828E+03 0.  0.
          2    1    1    2  501    0 -0.89470217116E+02  0.46455517932E+01 -0.16492916872E+03  0.18769158638E+03  0.00000000000E+00 0. -1.
          1    1    1    2  502    0  0.25948842211E+02 -0.17103472456E+02  0.16135327088E+04  0.16138319843E+04  0.00000000000E+00 0. -1.
         22    1    3    3    0    0  0.44037102479E+02 -0.54334732377E+02 -0.22128096155E+01  0.69974467226E+02  0.00000000000E+00 0. -1.
         22    1    3    3    0    0  0.19484272425E+02  0.66792653040E+02  0.16559668811E+02  0.71520053154E+02  0.00000000000E+00 0. -1.
</event>
<event>
 7    1  0.5667373E-006  0.4702078E+02  0.7818608E-02  0.1507994E+00
          2   -1    0    0  502    0  0.00000000000E+00  0.00000000000E+00  0.16152484214E+04  0.16152484214E+04  0.00000000000E+00 0. -1.
          1   -1    0    0  501    0 -0.00000000000E+00 -0.00000000000E+00 -0.68525465826E+03  0.68525465826E+03  0.00000000000E+00 0. -1.
         25    2    1    2    0    0  0.39441613380E+02  0.46743017986E+02  0.17349785700E+03  0.22241001148E+03  0.12499662487E+03 0.  0.
          2    1    1    2  501    0 -0.45129124481E+02 -0.13143060730E+02 -0.65975748118E+03  0.66142974827E+03  0.00000000000E+00 0. -1.
          1    1    1    2  502    0  0.56875111017E+01 -0.33599957256E+02  0.14162533873E+04  0.14166633199E+04  0.00000000000E+00 0. -1.
         22    1    3    3    0    0  0.96012102495E+01  0.81057472356E+02  0.15105775885E+03  0.17170015601E+03  0.00000000000E+00 0. -1.
         22    1    3    3    0    0  0.29840403130E+02 -0.34314454370E+02  0.22440098144E+02  0.50709855476E+02  0.00000000000E+00 0. -1.
</event>
<event>
 7    1  0.5667373E-006  0.3729139E+02  0.7818608E-02  0.1607855E+00
          2   -1    0    0  502    0  0.00000000000E+00  0.00000000000E+00  0.25757652390E+03  0.25757652390E+03  0.00000000000E+00 0. -1.
          1   -1    0    0  501    0 -0.00000000000E+00 -0.00000000000E+00 -0.32388176333E+03  0.32388176333E+03  0.00000000000E+00 0. -1.
         25    2    1    2    0    0  0.35239338483E+02  0.43580585437E+02 -0.11993619482E+03  0.18207338484E+03  0.12499979294E+03 0.  0.
          2    1    1    2  501    0 -0.15121166018E+02 -0.32933013531E+02 -0.17039483256E+03  0.17420571748E+03  0.00000000000E+00 0. -1.
          1    1    1    2  502    0 -0.20118172465E+02 -0.10647571905E+02  0.22402578794E+03  0.22517918490E+03  0.00000000000E+00 0. -1.
         22    1    3    3    0    0 -0.10981028534E+02  0.28134066671E+02  0.18426989793E+02  0.35378844638E+02  0.00000000000E+00 0. -1.
         22    1    3    3    0    0  0.46220367017E+02  0.15446518766E+02 -0.13836318461E+03  0.14669454020E+03  0.00000000000E+00 0. -1.
</event>
<event>
 7    1  0.5667373E-006  0.5066064E+02  0.7818608E-02  0.1549365E+00
          2   -1    0    0  502    0  0.00000000000E+00  0.00000000000E+00  0.12777742284E+04  0.12777742284E+04  0.00000000000E+00 0. -1.
          1   -1    0    0  501    0 -0.00000000000E+00 -0.00000000000E+00 -0.45339159589E+02  0.45339159589E+02  0.00000000000E+00 0. -1.
         25    2    1    2    0    0 -0.67721325903E+02 -0.11901221583E+02  0.11950102566E+03  0.18609899285E+03  0.12499809178E+03 0.  0.
          2    1    1    2  501    0  0.43685428010E+02  0.13020492180E+02  0.31724916320E+02  0.55537556235E+02  0.00000000000E+00 0. -1.
          1    1    1    2  502    0  0.24035897894E+02 -0.11192705974E+01  0.10812091268E+04  0.10814768389E+04  0.00000000000E+00 0. -1.
         22    1    3    3    0    0 -0.72886739794E+02  0.40589770569E+02  0.44918687160E+02  0.94750697986E+02  0.00000000000E+00 0.  1.
         22    1    3    3    0    0  0.51654138904E+01 -0.52490992152E+02  0.74582338503E+02  0.91348294863E+02  0.00000000000E+00 0.  1.
</event>
<event>
 7    1  0.5667373E-006  0.5688630E+02  0.7818608E-02  0.1436933E+00
          2   -1    0    0  502    0  0.00000000000E+00  0.00000000000E+00  0.34238641313E+03  0.34238641313E+03  0.00000000000E+00 0. -1.
          1   -1    0    0  501    0 -0.00000000000E+00 -0.00000000000E+00 -0.47449061207E+02  0.47449061207E+02  0.00000000000E+00 0. -1.
         25    2    1    2    0    0 -0.17432440776E+02  0.83481962728E+01  0.14512752232E+03  0.19250996462E+03  0.12499802547E+03 0.  0.
          2    1    1    2  501    0 -0.10073212452E+02 -0.58142679410E+02  0.33513322399E+02  0.67861502756E+02  0.00000000000E+00 0. -1.
          1    1    1    2  502    0  0.27505653228E+02  0.49794483137E+02  0.11629650720E+03  0.12946400695E+03  0.00000000000E+00 0. -1.
         22    1    3    3    0    0  0.19413379995E+02  0.10976374922E+02  0.15310351272E+03  0.15471924812E+03  0.00000000000E+00 0. -1.
         22    1    3    3    0    0 -0.36845820771E+02 -0.26281786493E+01 -0.79759904003E+01  0.37790716508E+02  0.00000000000E+00 0. -1.
</event>
<event>
 7    1  0.5667373E-006  0.6219121E+03  0.7818608E-02  0.1176595E+00
          2   -1    0    0  502    0  0.00000000000E+00  0.00000000000E+00  0.34597979026E+04  0.34597979026E+04  0.00000000000E+00 0. -1.
          1   -1    0    0  501    0 -0.00000000000E+00 -0.00000000000E+00 -0.18698428617E+04  0.18698428617E+04  0.00000000000E+00 0. -1.
         25    2    1    2    0    0  0.58635435741E+03 -0.11400589985E+03  0.13962234751E+03  0.62604229056E+03  0.12500308790E+03 0.  0.
          2    1    1    2  501    0 -0.62058851287E+03  0.81611138406E+02 -0.15662270345E+04  0.16866705677E+04  0.00000000000E+00 0. -1.
          1    1    1    2  502    0  0.34234155460E+02  0.32394761442E+02  0.30165597279E+04  0.30169279060E+04  0.00000000000E+00 0. -1.
         22    1    3    3    0    0  0.17369709638E+03 -0.83995637403E+02  0.76292658853E+02  0.20747654852E+03  0.00000000000E+00 0. -1.
         22    1    3    3    0    0  0.41265726104E+03 -0.30010262444E+02  0.63329688658E+02  0.41856574204E+03  0.00000000000E+00 0. -1.
</event>
<event>
 7    1  0.5667373E-006  0.5464616E+02  0.7818608E-02  0.1440028E+00
          2   -1    0    0  502    0  0.00000000000E+00  0.00000000000E+00  0.15857211400E+03  0.15857211400E+03  0.00000000000E+00 0. -1.
          1   -1    0    0  501    0 -0.00000000000E+00 -0.00000000000E+00 -0.56073652520E+03  0.56073652520E+03  0.00000000000E+00 0. -1.
         25    2    1    2    0    0 -0.20565846602E+02 -0.12436628539E+02  0.56864887241E+02  0.13941402776E+03  0.12500012783E+03 0.  0.
          2    1    1    2  501    0 -0.46907753920E+02 -0.80568955256E+01 -0.49736067304E+03  0.49963275516E+03  0.00000000000E+00 0. -1.
          1    1    1    2  502    0  0.67473600522E+02  0.20493524065E+02  0.38331374595E+02  0.80261856285E+02  0.00000000000E+00 0. -1.
         22    1    3    3    0    0  0.39185763078E+02 -0.19433001044E+02  0.65372355711E+02  0.78655644735E+02  0.00000000000E+00 0.  1.
         22    1    3    3    0    0 -0.59751609680E+02  0.69963725052E+01 -0.85074684700E+01  0.60758383021E+02  0.00000000000E+00 0.  1.
</event>
<event>
 7    1  0.5667373E-006  0.6711622E+02  0.7818608E-02  0.1390677E+00
          2   -1    0    0  502    0  0.00000000000E+00  0.00000000000E+00  0.15859199678E+04  0.15859199678E+04  0.00000000000E+00 0. -1.
          1   -1    0    0  501    0 -0.00000000000E+00 -0.00000000000E+00 -0.28627579845E+03  0.28627579845E+03  0.00000000000E+00 0. -1.
         25    2    1    2    0    0  0.20199261564E+02  0.14082979911E+02 -0.96987533885E+02  0.16011840875E+03  0.12499993041E+03 0.  0.
          2    1    1    2  501    0 -0.19521756377E+02  0.53331165855E+02 -0.15185317723E+03  0.16212556757E+03  0.00000000000E+00 0. -1.
          1    1    1    2  502    0 -0.67750518694E+00 -0.67414145766E+02  0.15484848805E+04  0.15499517900E+04  0.00000000000E+00 0. -1.
         22    1    3    3    0    0  0.11116742872E+02 -0.14772435131E+02 -0.12043404299E+03  0.12184484200E+03  0.00000000000E+00 0.  1.
         22    1    3    3    0    0  0.90825186925E+01  0.28855415043E+02  0.23446509101E+02  0.38273566755E+02  0.00000000000E+00 0.  1.
</event>
<event>
 7    1  0.5667373E-006  0.1349477E+03  0.7818608E-02  0.1301566E+00
          2   -1    0    0  502    0  0.00000000000E+00  0.00000000000E+00  0.62560244016E+03  0.62560244016E+03  0.00000000000E+00 0. -1.
          1   -1    0    0  501    0 -0.00000000000E+00 -0.00000000000E+00 -0.14915072274E+04  0.14915072274E+04  0.00000000000E+00 0. -1.
         25    2    1    2    0    0 -0.18824027503E+03  0.32892541944E+02 -0.50346033515E+02  0.23382947379E+03  0.12500071706E+03 0.  0.
          2    1    1    2  501    0  0.57020650877E+02 -0.20917969608E+02 -0.13405910258E+04  0.13419661749E+04  0.00000000000E+00 0. -1.
          1    1    1    2  502    0  0.13121962415E+03 -0.11974572337E+02  0.52503227215E+03  0.54131401880E+03  0.00000000000E+00 0. -1.
         22    1    3    3    0    0 -0.19820762588E+03  0.33811037917E+02 -0.69065641890E+02  0.21260176889E+03  0.00000000000E+00 0. -1.
         22    1    3    3    0    0  0.99673508564E+01 -0.91849597292E+00  0.18719608376E+02  0.21227704909E+02  0.00000000000E+00 0. -1.
</event>
<event>
 7    1  0.5667373E-006  0.3567523E+02  0.7818608E-02  0.1554633E+00
          2   -1    0    0  502    0  0.00000000000E+00  0.00000000000E+00  0.22179406276E+03  0.22179406276E+03  0.00000000000E+00 0. -1.
          1   -1    0    0  501    0 -0.00000000000E+00 -0.00000000000E+00 -0.91168813175E+02  0.91168813175E+02  0.00000000000E+00 0. -1.
         25    2    1    2    0    0  0.15814356526E+02  0.85812858557E+00  0.29715010846E+02  0.12945612317E+03  0.12500030280E+03 0.  0.
          2    1    1    2  501    0 -0.19486312396E+02 -0.33688670964E+02 -0.29590207753E+02  0.48889910176E+02  0.00000000000E+00 0. -1.
          1    1    1    2  502    0  0.36719558708E+01  0.32830542379E+02  0.13050044650E+03  0.13461684259E+03  0.00000000000E+00 0. -1.
         22    1    3    3    0    0 -0.19202492380E+02 -0.47702544871E+02  0.44258246148E+02  0.67845860986E+02  0.00000000000E+00 0. -1.
         22    1    3    3    0    0  0.35016848905E+02  0.48560673457E+02 -0.14543235302E+02  0.61610262188E+02  0.00000000000E+00 0. -1.
</event>
<event>
 7    1  0.5667373E-006  0.6312282E+02  0.7818608E-02  0.1410597E+00
          2   -1    0    0  502    0  0.00000000000E+00  0.00000000000E+00  0.12113757413E+03  0.12113757413E+03  0.00000000000E+00 0. -1.
          1   -1    0    0  501    0 -0.00000000000E+00 -0.00000000000E+00 -0.33538109497E+03  0.33538109497E+03  0.00000000000E+00 0. -1.
         25    2    1    2    0    0 -0.40184133014E+02  0.57006847958E+01 -0.17133066811E+03  0.21593236588E+03  0.12500130578E+03 0.  0.
          2    1    1    2  501    0 -0.67797176830E+01 -0.51133345480E+02 -0.12525942931E+03  0.13546404772E+03  0.00000000000E+00 0. -1.
          1    1    1    2  502    0  0.46963850697E+02  0.45432660685E+02  0.82346576575E+02  0.10512225551E+03  0.00000000000E+00 0. -1.
         22    1    3    3    0    0 -0.69088962033E+02  0.20117152828E+02 -0.43501617385E+02  0.84085523295E+02  0.00000000000E+00 0. -1.
         22    1    3    3    0    0  0.28904829019E+02 -0.14416468033E+02 -0.12782905072E+03  0.13184684258E+03  0.00000000000E+00 0. -1.
</event>
<event>
 7    1  0.5667373E-006  0.7174262E+02  0.7818608E-02  0.1363155E+00
          2   -1    0    0  502    0  0.00000000000E+00  0.00000000000E+00  0.41954363775E+03  0.41954363775E+03  0.00000000000E+00 0. -1.
          1   -1    0    0  501    0 -0.00000000000E+00 -0.00000000000E+00 -0.19128836795E+03  0.19128836795E+03  0.00000000000E+00 0. -1.
         25    2    1    2    0    0  0.59749382546E+02 -0.11629081088E+03 -0.12062712211E+02  0.18127587388E+03  0.12498756745E+03 0.  0.
          2    1    1    2  501    0 -0.46116867043E+02  0.48006519692E+02 -0.78670862526E+02  0.10305579057E+03  0.00000000000E+00 0. -1.
          1    1    1    2  502    0 -0.13632515503E+02  0.68284291189E+02  0.31898884453E+03  0.32650034125E+03  0.00000000000E+00 0. -1.
         22    1    3    3    0    0  0.22465740096E+02  0.19781058139E+02 -0.25805057129E+02  0.39520889573E+02  0.00000000000E+00 0. -1.
         22    1    3    3    0    0  0.37283642450E+02 -0.13607186902E+03  0.13742344918E+02  0.14175498431E+03  0.00000000000E+00 0. -1.
</event>
<event>
 7    1  0.5667373E-006  0.1266647E+03  0.7818608E-02  0.1299012E+00
          2   -1    0    0  502    0  0.00000000000E+00  0.00000000000E+00  0.74516691691E+02  0.74516691691E+02  0.00000000000E+00 0. -1.
          1   -1    0    0  501    0 -0.00000000000E+00 -0.00000000000E+00 -0.20950074809E+04  0.20950074809E+04  0.00000000000E+00 0. -1.
         25    2    1    2    0    0 -0.83675854355E+02 -0.25705884622E+02 -0.17224986321E+03  0.23012388433E+03  0.12499818262E+03 0.  0.
          2    1    1    2  501    0 -0.66246324755E+02  0.58533586857E+00 -0.17647033993E+04  0.17659464900E+04  0.00000000000E+00 0. -1.
          1    1    1    2  502    0  0.14992217911E+03  0.25120548753E+02 -0.83537526737E+02  0.17345379826E+03  0.00000000000E+00 0. -1.
         22    1    3    3    0    0  0.95941790335E+01 -0.18674983388E+02  0.11499389879E+02  0.23938238103E+02  0.00000000000E+00 0.  1.
         22    1    3    3    0    0 -0.93270033389E+02 -0.70309012341E+01 -0.18374925309E+03  0.20618564623E+03  0.00000000000E+00 0.  1.
</event>
<event>
 7    1  0.5667373E-006  0.1497353E+03  0.7818608E-02  0.1271684E+00
          2   -1    0    0  502    0  0.00000000000E+00  0.00000000000E+00  0.12828496513E+04  0.12828496513E+04  0.00000000000E+00 0. -1.
          1   -1    0    0  501    0 -0.00000000000E+00 -0.00000000000E+00 -0.33777249722E+03  0.33777249722E+03  0.00000000000E+00 0. -1.
         25    2    1    2    0    0  0.12108008730E+03  0.15145170586E+03  0.24845516973E+03  0.33904702177E+03  0.12499961943E+03 0.  0.
          2    1    1    2  501    0  0.11750534731E+01 -0.72516843021E+02 -0.28251869516E+03  0.29167942401E+03  0.00000000000E+00 0. -1.
          1    1    1    2  502    0 -0.12225514077E+03 -0.78934862839E+02  0.97914067954E+03  0.98989570276E+03  0.00000000000E+00 0. -1.
         22    1    3    3    0    0  0.50944051518E+02 -0.10972147774E+02  0.40388824203E+02  0.65931339531E+02  0.00000000000E+00 0.  1.
         22    1    3    3    0    0  0.70136035782E+02  0.16242385363E+03  0.20806634553E+03  0.27311568224E+03  0.00000000000E+00 0.  1.
</event>
<event>
 7    1  0.5667373E-006  0.1110347E+03  0.7818608E-02  0.1316492E+00
          2   -1    0    0  502    0  0.00000000000E+00  0.00000000000E+00  0.19487340833E+04  0.19487340833E+04  0.00000000000E+00 0. -1.
          1   -1    0    0  501    0 -0.00000000000E+00 -0.00000000000E+00 -0.36087703163E+03  0.36087703163E+03  0.00000000000E+00 0. -1.
         25    2    1    2    0    0 -0.99160045651E+01  0.46610438229E+02  0.57188861266E+03  0.58732617679E+03  0.12499837020E+03 0.  0.
          2    1    1    2  501    0  0.17968517087E+02 -0.11055821395E+03 -0.34349422372E+03  0.36129526430E+03  0.00000000000E+00 0. -1.
          1    1    1    2  502    0 -0.80525125219E+01  0.63947775723E+02  0.13594626627E+04  0.13609896738E+04  0.00000000000E+00 0. -1.
         22    1    3    3    0    0 -0.64773825479E+02  0.42883531935E+02  0.37120994034E+03  0.37925119062E+03  0.00000000000E+00 0.  1.
         22    1    3    3    0    0  0.54857820914E+02  0.37269062948E+01  0.20067867231E+03  0.20807498617E+03  0.00000000000E+00 0.  1.
</event>
<event>
 7    1  0.5667373E-006  0.9568881E+02  0.7818608E-02  0.1464479E+00
          2   -1    0    0  502    0  0.00000000000E+00  0.00000000000E+00  0.93336718341E+03  0.93336718341E+03  0.00000000000E+00 0. -1.
          1   -1    0    0  501    0 -0.00000000000E+00 -0.00000000000E+00 -0.23900111304E+03  0.23900111304E+03  0.00000000000E+00 0. -1.
         25    2    1    2    0    0  0.72519724269E+01 -0.89730775622E+02 -0.24360753709E+02  0.15596058204E+03  0.12500421445E+03 0.  0.
          2    1    1    2  501    0 -0.29744186452E+02  0.92888459460E+02 -0.13269423340E+03  0.16468376395E+03  0.00000000000E+00 0. -1.
          1    1    1    2  502    0  0.22492214025E+02 -0.31576838379E+01  0.85142105748E+03  0.85172395046E+03  0.00000000000E+00 0. -1.
         22    1    3    3    0    0 -0.51501712586E+02 -0.51523178056E+02 -0.41458941061E+02  0.83820689989E+02  0.00000000000E+00 0.  1.
         22    1    3    3    0    0  0.58753685013E+02 -0.38207597566E+02  0.17098187352E+02  0.72139892051E+02  0.00000000000E+00 0.  1.
</event>
<event>
 7    1  0.5667373E-006  0.8962541E+02  0.7818608E-02  0.1308114E+00
          2   -1    0    0  502    0  0.00000000000E+00  0.00000000000E+00  0.36060197472E+04  0.36060197472E+04  0.00000000000E+00 0. -1.
          1   -1    0    0  501    0 -0.00000000000E+00 -0.00000000000E+00 -0.16074264803E+03  0.16074264803E+03  0.00000000000E+00 0. -1.
         25    2    1    2    0    0  0.47707092703E+02  0.20129089028E+02  0.24182127832E+03  0.27709659548E+03  0.12499538256E+03 0.  0.
          2    1    1    2  501    0 -0.57832954681E+02  0.68922478069E+02 -0.12830091313E+03  0.15670380640E+03  0.00000000000E+00 0. -1.
          1    1    1    2  502    0  0.10125861978E+02 -0.89051567097E+02  0.33317567340E+04  0.33329619934E+04  0.00000000000E+00 0. -1.
         22    1    3    3    0    0  0.17999263014E+02  0.69184623713E+02  0.17500600038E+03  0.18904387267E+03  0.00000000000E+00 0.  1.
         22    1    3    3    0    0  0.29707829689E+02 -0.49055534685E+02  0.66815277942E+02  0.88052722812E+02  0.00000000000E+00 0.  1.
</event>
<event>
 7    1  0.5667373E-006  0.5626684E+02  0.7818608E-02  0.1552247E+00
          2   -1    0    0  502    0  0.00000000000E+00  0.00000000000E+00  0.28363584857E+03  0.28363584857E+03  0.00000000000E+00 0. -1.
          1   -1    0    0  501    0 -0.00000000000E+00 -0.00000000000E+00 -0.52844786861E+03  0.52844786861E+03  0.00000000000E+00 0. -1.
         25    2    1    2    0    0  0.66830068903E+02 -0.26180907230E+02 -0.72390995777E+02  0.16129809871E+03  0.12499968945E+03 0.  0.
          2    1    1    2  501    0 -0.11574355042E+02  0.17842190641E+02 -0.40805865296E+03  0.40861249824E+03  0.00000000000E+00 0. -1.
          1    1    1    2  502    0 -0.55255713861E+02  0.83387165892E+01  0.23563762870E+03  0.24217312024E+03  0.00000000000E+00 0. -1.
         22    1    3    3    0    0  0.71769573929E+01  0.19484150732E+02 -0.82882534472E+02  0.85443872616E+02  0.00000000000E+00 0. -1.
         22    1    3    3    0    0  0.59653111510E+02 -0.45665057962E+02  0.10491538695E+02  0.75854226090E+02  0.00000000000E+00 0. -1.
</event>
<event>
 7    1  0.5667373E-006  0.1034050E+03  0.7818608E-02  0.1362711E+00
          2   -1    0    0  502    0  0.00000000000E+00  0.00000000000E+00  0.35242508810E+03  0.35242508810E+03  0.00000000000E+00 0. -1.
          1   -1    0    0  501    0 -0.00000000000E+00 -0.00000000000E+00 -0.61958274464E+03  0.61958274464E+03  0.00000000000E+00 0. -1.
         25    2    1    2    0    0  0.31141411301E+02  0.84751131939E+02 -0.10780030666E+03  0.18814615952E+03  0.12500211744E+03 0.  0.
          2    1    1    2  501    0 -0.42110095156E+02  0.19384935876E+02 -0.46163719125E+03  0.46395897685E+03  0.00000000000E+00 0. -1.
          1    1    1    2  502    0  0.10968683855E+02 -0.10413606781E+03  0.30227984137E+03  0.31990269637E+03  0.00000000000E+00 0. -1.
         22    1    3    3    0    0 -0.40070136308E+02  0.35652010645E+02 -0.81817741736E+02  0.97830591073E+02  0.00000000000E+00 0. -1.
         22    1    3    3    0    0  0.71211547609E+02  0.49099121294E+02 -0.25982564926E+02  0.90315568452E+02  0.00000000000E+00 0. -1.
</event>
<event>
 7    1  0.5667373E-006  0.2944056E+03  0.7818608E-02  0.1142262E+00
          2   -1    0    0  502    0  0.00000000000E+00  0.00000000000E+00  0.60858753018E+03  0.60858753018E+03  0.00000000000E+00 0. -1.
          1   -1    0    0  501    0 -0.00000000000E+00 -0.00000000000E+00 -0.15343918541E+04  0.15343918541E+04  0.00000000000E+00 0. -1.
         25    2    1    2    0    0 -0.42976053160E+02 -0.56023622742E+02 -0.40180726723E+03  0.42668421546E+03  0.12499900911E+03 0.  0.
          2    1    1    2  501    0 -0.63389804820E+01  0.34626952088E+03 -0.10543138204E+04  0.11097388863E+04  0.00000000000E+00 0. -1.
          1    1    1    2  502    0  0.49315033642E+02 -0.29024589814E+03  0.53031676376E+03  0.60655628251E+03  0.00000000000E+00 0. -1.
         22    1    3    3    0    0  0.10877279522E+02 -0.48305172301E+02 -0.34306250406E+03  0.34661734892E+03  0.00000000000E+00 0.  1.
         22    1    3    3    0    0 -0.53853332682E+02 -0.77184504408E+01 -0.58744763167E+02  0.80066866541E+02  0.00000000000E+00 0.  1.
</event>
<event>
 7    1  0.5667373E-006  0.8453167E+02  0.7818608E-02  0.1364132E+00
          2   -1    0    0  502    0  0.00000000000E+00  0.00000000000E+00  0.88702988411E+03  0.88702988411E+03  0.00000000000E+00 0. -1.
          1   -1    0    0  501    0 -0.00000000000E+00 -0.00000000000E+00 -0.89467664694E+02  0.89467664694E+02  0.00000000000E+00 0. -1.
         25    2    1    2    0    0 -0.20635512264E+02 -0.10571615382E+03  0.23413780379E+03  0.28641994717E+03  0.12495657417E+03 0.  0.
          2    1    1    2  501    0  0.48995289437E+02  0.27198432628E+02 -0.47508852438E+02  0.73466891757E+02  0.00000000000E+00 0. -1.
          1    1    1    2  502    0 -0.28359777173E+02  0.78517721196E+02  0.61093326807E+03  0.61661070988E+03  0.00000000000E+00 0. -1.
         22    1    3    3    0    0 -0.35451997919E+02 -0.61047194303E+02  0.22833801971E+03  0.23900178939E+03  0.00000000000E+00 0. -1.
         22    1    3    3    0    0  0.14816485655E+02 -0.44668959521E+02  0.57997840804E+01  0.47418157780E+02  0.00000000000E+00 0. -1.
</event>
<event>
 7    1  0.5667373E-006  0.8282262E+02  0.7818608E-02  0.1344784E+00
          2   -1    0    0  502    0  0.00000000000E+00  0.00000000000E+00  0.23519835200E+03  0.23519835200E+03  0.00000000000E+00 0. -1.
          1   -1    0    0  501    0 -0.00000000000E+00 -0.00000000000E+00 -0.43166211533E+03  0.43166211533E+03  0.00000000000E+00 0. -1.
         25    2    1    2    0    0  0.80321825205E+02  0.25380107189E+02  0.27320842969E+02  0.15319197998E+03  0.12500243527E+03 0.  0.
          2    1    1    2  501    0 -0.73134957411E+02  0.41620204901E+02 -0.35571120052E+03  0.36552896140E+03  0.00000000000E+00 0. -1.
          1    1    1    2  502    0 -0.71868677944E+01 -0.67000312091E+02  0.13192659421E+03  0.14813952595E+03  0.00000000000E+00 0. -1.
         22    1    3    3    0    0 -0.33781670841E+02  0.89971000024E+01  0.11145876867E+01  0.34977012437E+02  0.00000000000E+00 0. -1.
         22    1    3    3    0    0  0.11410349605E+03  0.16383007187E+02  0.26206255283E+02  0.11821496754E+03  0.00000000000E+00 0. -1.
</event>
<event>
 7    1  0.5667373E-006  0.1237193E+03  0.7818608E-02  0.1328964E+00
          2   -1    0    0  502    0  0.00000000000E+00  0.00000000000E+00  0.15798107593E+04  0.15798107593E+04  0.00000000000E+00 0. -1.
          1   -1    0    0  501    0 -0.00000000000E+00 -0.00000000000E+00 -0.17702083107E+03  0.17702083107E+03  0.00000000000E+00 0. -1.
         25    2    1    2    0    0 -0.13951831826E+03  0.10310631788E+03  0.64397292313E+03  0.67853847866E+03  0.12496826548E+03 0.  0.
          2    1    1    2  501    0  0.95494504967E+02 -0.75866298573E+02 -0.13559981896E+03  0.18237929334E+03  0.00000000000E+00 0. -1.
          1    1    1    2  502    0  0.44023813293E+02 -0.27240019304E+02  0.89441682401E+03  0.89591381833E+03  0.00000000000E+00 0. -1.
         22    1    3    3    0    0 -0.39168435172E+02  0.10417318203E+03  0.38630882369E+03  0.40202080223E+03  0.00000000000E+00 0.  1.
         22    1    3    3    0    0 -0.10034988309E+03 -0.10668641512E+01  0.25766409945E+03  0.27651767643E+03  0.00000000000E+00 0.  1.
</event>
<event>
 7    1  0.5667373E-006  0.6889050E+02  0.7818608E-02  0.1433153E+00
          2   -1    0    0  502    0  0.00000000000E+00  0.00000000000E+00  0.20489398359E+02  0.20489398359E+02  0.00000000000E+00 0. -1.
          1   -1    0    0  501    0 -0.00000000000E+00 -0.00000000000E+00 -0.23523098333E+04  0.23523098333E+04  0.00000000000E+00 0. -1.
         25    2    1    2    0    0  0.82836076066E+02 -0.51352919412E+02 -0.52399021838E+03  0.54744081593E+03  0.12500704042E+03 0.  0.
          2    1    1    2  501    0 -0.22439371449E+02  0.32815278094E+02 -0.16994029623E+04  0.16998678761E+04  0.00000000000E+00 0. -1.
          1    1    1    2  502    0 -0.60396704617E+02  0.18537641319E+02 -0.10842725425E+03  0.12549053964E+03  0.00000000000E+00 0. -1.
         22    1    3    3    0    0  0.25606172920E+01 -0.74549266058E+02 -0.26556420456E+03  0.27584143376E+03  0.00000000000E+00 0. -1.
         22    1    3    3    0    0  0.80275458774E+02  0.23196346645E+02 -0.25842601381E+03  0.27159938217E+03  0.00000000000E+00 0. -1.
</event>
<event>
 7    1  0.5667373E-006  0.7915554E+02  0.7818608E-02  0.1389924E+00
          2   -1    0    0  502    0  0.00000000000E+00  0.00000000000E+00  0.19993491714E+02  0.19993491714E+02  0.00000000000E+00 0. -1.
          1   -1    0    0  501    0 -0.00000000000E+00 -0.00000000000E+00 -0.11738183716E+04  0.11738183716E+04  0.00000000000E+00 0. -1.
         25    2    1    2    0    0  0.82460552811E+01 -0.38433522765E+02 -0.27772407822E+03  0.30708392120E+03  0.12499895174E+03 0.  0.
          2    1    1    2  501    0 -0.20311769967E+02  0.85352947601E+02 -0.60572774596E+03  0.61204885090E+03  0.00000000000E+00 0. -1.
          1    1    1    2  502    0  0.12065714686E+02 -0.46919424836E+02 -0.27037305566E+03  0.27467909117E+03  0.00000000000E+00 0. -1.
         22    1    3    3    0    0  0.41208906473E+02 -0.29464066997E+02 -0.34077004296E+02  0.61053643941E+02  0.00000000000E+00 0.  1.
         22    1    3    3    0    0 -0.32962851192E+02 -0.89694557675E+01 -0.24364707392E+03  0.24603027725E+03  0.00000000000E+00 0.  1.
</event>
<event>
 7    1  0.5667373E-006  0.5250135E+02  0.7818608E-02  0.1435052E+00
          2   -1    0    0  502    0  0.00000000000E+00  0.00000000000E+00  0.91388424011E+02  0.91388424011E+02  0.00000000000E+00 0. -1.
          1   -1    0    0  501    0 -0.00000000000E+00 -0.00000000000E+00 -0.12622572419E+04  0.12622572419E+04  0.00000000000E+00 0. -1.
         25    2    1    2    0    0 -0.33254970041E+02  0.82187102587E+02 -0.20832994183E+03  0.25862522085E+03  0.12500010933E+03 0.  0.
          2    1    1    2  501    0  0.40792555637E+02 -0.31308678271E+02 -0.10180478081E+04  0.10193456752E+04  0.00000000000E+00 0. -1.
          1    1    1    2  502    0 -0.75375855959E+01 -0.50878424316E+02  0.55508932053E+02  0.75674769872E+02  0.00000000000E+00 0. -1.
         22    1    3    3    0    0 -0.76551289668E+02  0.74833594904E+02 -0.16669682336E+03  0.19811107439E+03  0.00000000000E+00 0. -1.
         22    1    3    3    0    0  0.43296319627E+02  0.73535076827E+01 -0.41633118474E+02  0.60514146465E+02  0.00000000000E+00 0. -1.
</event>
<event>
 7    1  0.5667373E-006  0.5260306E+02  0.7818608E-02  0.1445694E+00
          2   -1    0    0  502    0  0.00000000000E+00  0.00000000000E+00  0.10929704260E+04  0.10929704260E+04  0.00000000000E+00 0. -1.
          1   -1    0    0  501    0 -0.00000000000E+00 -0.00000000000E+00 -0.56275798581E+03  0.56275798581E+03  0.00000000000E+00 0. -1.
         25    2    1    2    0    0 -0.39677708686E+02  0.17867633538E+01  0.87123781160E+02  0.15745832797E+03  0.12500023486E+03 0.  0.
          2    1    1    2  501    0  0.10352295513E+02 -0.46257465691E+02 -0.52579288651E+03  0.52792526238E+03  0.00000000000E+00 0. -1.
          1    1    1    2  502    0  0.29325413174E+02  0.44470702338E+02  0.96888154556E+03  0.97034482147E+03  0.00000000000E+00 0. -1.
         22    1    3    3    0    0 -0.88819689791E+00  0.39922730579E+02 -0.14260800818E+02  0.42402638486E+02  0.00000000000E+00 0.  1.
         22    1    3    3    0    0 -0.38789511788E+02 -0.38135967225E+02  0.10138458198E+03  0.11505568949E+03  0.00000000000E+00 0.  1.
</event>
<event>
 7    1  0.5667373E-006  0.5488382E+02  0.7818608E-02  0.1492393E+00
          2   -1    0    0  502    0  0.00000000000E+00  0.00000000000E+00  0.10495738592E+03  0.10495738592E+03  0.00000000000E+00 0. -1.
          1   -1    0    0  501    0 -0.00000000000E+00 -0.00000000000E+00 -0.31225712374E+04  0.31225712374E+04  0.00000000000E+00 0. -1.
         25    2    1    2    0    0 -0.57795656474E+02 -0.16764314063E+01 -0.10587667251E+04  0.10676883624E+04  0.12501325001E+03 0.  0.
          2    1    1    2  501    0  0.45390012217E+02  0.31713832065E+02 -0.20563339112E+04  0.20570792826E+04  0.00000000000E+00 0. -1.
          1    1    1    2  502    0  0.12405644258E+02 -0.30037400658E+02  0.97486784862E+02  0.10276097834E+03  0.00000000000E+00 0. -1.
         22    1    3    3    0    0 -0.59381411813E+02 -0.45018192818E+02 -0.36291146322E+03  0.37048281997E+03  0.00000000000E+00 0. -1.
         22    1    3    3    0    0  0.15857553385E+01  0.43341761412E+02 -0.69585526188E+03  0.69720554242E+03  0.00000000000E+00 0. -1.
</event>
<event>
 7    1  0.5667373E-006  0.1800812E+03  0.7818608E-02  0.1323899E+00
          2   -1    0    0  502    0  0.00000000000E+00  0.00000000000E+00  0.82020997313E+03  0.82020997313E+03  0.00000000000E+00 0. -1.
          1   -1    0    0  501    0 -0.00000000000E+00 -0.00000000000E+00 -0.11862356024E+03  0.11862356024E+03  0.00000000000E+00 0. -1.
         25    2    1    2    0    0 -0.15901905964E+03  0.14049079460E+03  0.10099367073E+03  0.26617690330E+03  0.12500279048E+03 0.  0.
          2    1    1    2  501    0  0.30503644478E+02 -0.21286358304E+02 -0.90772734117E+01  0.38288095655E+02  0.00000000000E+00 0. -1.
          1    1    1    2  502    0  0.12851541516E+03 -0.11920443629E+03  0.60967001557E+03  0.63436853442E+03  0.00000000000E+00 0. -1.
         22    1    3    3    0    0 -0.13771472655E+03  0.62917560001E+02  0.21224555253E+02  0.15288704004E+03  0.00000000000E+00 0. -1.
         22    1    3    3    0    0 -0.21304333091E+02  0.77573234596E+02  0.79769115477E+02  0.11328986326E+03  0.00000000000E+00 0. -1.
</event>
<event>
 7    1  0.5667373E-006  0.6848216E+02  0.7818608E-02  0.1431013E+00
          2   -1    0    0  502    0  0.00000000000E+00  0.00000000000E+00  0.18743568466E+04  0.18743568466E+04  0.00000000000E+00 0. -1.
          1   -1    0    0  501    0 -0.00000000000E+00 -0.00000000000E+00 -0.54871177521E+03  0.54871177521E+03  0.00000000000E+00 0. -1.
         25    2    1    2    0    0  0.70794639796E+02  0.10157791175E+02  0.67068524309E+03  0.68597284602E+03  0.12499995370E+03 0.  0.
          2    1    1    2  501    0 -0.61840578954E+02  0.29486547176E+02 -0.53855195424E+03  0.54289218183E+03  0.00000000000E+00 0. -1.
          1    1    1    2  502    0 -0.89540608418E+01 -0.39644338350E+02  0.11935117826E+04  0.11942035940E+04  0.00000000000E+00 0. -1.
         22    1    3    3    0    0  0.81000004529E+02  0.46225321914E+02  0.58583515965E+03  0.59321211670E+03  0.00000000000E+00 0. -1.
         22    1    3    3    0    0 -0.10205364733E+02 -0.36067530739E+02  0.84850083441E+02  0.92760729315E+02  0.00000000000E+00 0. -1.
</event>
<event>
 7    1  0.5667373E-006  0.1515260E+03  0.7818608E-02  0.1290403E+00
          2   -1    0    0  502    0  0.00000000000E+00  0.00000000000E+00  0.57980280155E+03  0.57980280155E+03  0.00000000000E+00 0. -1.
          1   -1    0    0  501    0 -0.00000000000E+00 -0.00000000000E+00 -0.16217631832E+03  0.16217631832E+03  0.00000000000E+00 0. -1.
         25    2    1    2    0    0 -0.11334116423E+02 -0.11126077885E+03  0.86483108937E+02  0.18870883696E+03  0.12499709560E+03 0.  0.
          2    1    1    2  501    0  0.29202718826E+02  0.16853116021E+03 -0.41355584945E+02  0.17597112023E+03  0.00000000000E+00 0. -1.
          1    1    1    2  502    0 -0.17868602404E+02 -0.57270381362E+02  0.37249895924E+03  0.37729916269E+03  0.00000000000E+00 0. -1.
         22    1    3    3    0    0  0.36522230402E+02 -0.32694675570E+02  0.83309027799E+02  0.96660277451E+02  0.00000000000E+00 0.  1.
         22    1    3    3    0    0 -0.47856346825E+02 -0.78566103280E+02  0.31740811389E+01  0.92048559506E+02  0.00000000000E+00 0.  1.
</event>
<event>
 7    1  0.5667373E-006  0.9141894E+02  0.7818608E-02  0.1352771E+00
          2   -1    0    0  502    0  0.00000000000E+00  0.00000000000E+00  0.16162223975E+04  0.16162223975E+04  0.00000000000E+00 0. -1.
          1   -1    0    0  501    0 -0.00000000000E+00 -0.00000000000E+00 -0.12410416718E+03  0.12410416718E+03  0.00000000000E+00 0. -1.
         25    2    1    2    0    0 -0.11097603445E+03 -0.90651470920E+02  0.27672729778E+03  0.33576260920E+03  0.12500065200E+03 0.  0.
          2    1    1    2  501    0  0.74505392339E+02  0.46820445080E+02 -0.73352859263E+02  0.11455937119E+03  0.00000000000E+00 0. -1.
          1    1    1    2  502    0  0.36470642109E+02  0.43831025840E+02  0.12887437918E+04  0.12900045843E+04  0.00000000000E+00 0. -1.
         22    1    3    3    0    0 -0.23475026355E+02  0.60896023505E+01 -0.54829571435E+01  0.24864089330E+02  0.00000000000E+00 0. -1.
         22    1    3    3    0    0 -0.87501008093E+02 -0.96741073270E+02  0.28221025492E+03  0.31089851987E+03  0.00000000000E+00 0. -1.
</event>
<event>
 7    1  0.5667373E-006  0.8076873E+02  0.7818608E-02  0.1397183E+00
          2   -1    0    0  502    0  0.00000000000E+00  0.00000000000E+00  0.87743469535E+02  0.87743469535E+02  0.00000000000E+00 0. -1.
          1   -1    0    0  501    0 -0.00000000000E+00 -0.00000000000E+00 -0.94468968869E+03  0.94468968869E+03  0.00000000000E+00 0. -1.
         25    2    1    2    0    0 -0.31719283215E+02  0.22871066697E+02 -0.32144292143E+03  0.34710087020E+03  0.12499705493E+03 0.  0.
          2    1    1    2  501    0 -0.39476565762E+02  0.21185549761E+02 -0.58589964946E+03  0.58761009692E+03  0.00000000000E+00 0. -1.
          1    1    1    2  502    0  0.71195848978E+02 -0.44056616459E+02  0.50396351735E+02  0.97722191101E+02  0.00000000000E+00 0. -1.
         22    1    3    3    0    0 -0.36145989739E+02  0.57694975830E+02 -0.29604413951E+03  0.30377191336E+03  0.00000000000E+00 0.  1.
         22    1    3    3    0    0  0.44267065232E+01 -0.34823909132E+02 -0.25398781917E+02  0.43328956839E+02  0.00000000000E+00 0.  1.
</event>
<event>
 7    1  0.5667373E-006  0.5213280E+02  0.7818608E-02  0.1531667E+00
          2   -1    0    0  502    0  0.00000000000E+00  0.00000000000E+00  0.32144334367E+04  0.32144334367E+04  0.00000000000E+00 0. -1.
          1   -1    0    0  501    0 -0.00000000000E+00 -0.00000000000E+00 -0.12237750127E+04  0.12237750127E+04  0.00000000000E+00 0. -1.
         25    2    1    2    0    0  0.73789264221E+02 -0.22242193561E+02  0.57015036469E+02  0.15752100994E+03  0.12499033363E+03 0.  0.
          2    1    1    2  501    0 -0.22504290968E+02  0.13485054736E+02 -0.11731575695E+04  0.11734508821E+04  0.00000000000E+00 0. -1.
          1    1    1    2  502    0 -0.51284973253E+02  0.87571388248E+01  0.31068009571E+04  0.31072365573E+04  0.00000000000E+00 0. -1.
         22    1    3    3    0    0 -0.74726210715E+01 -0.57683097025E+02  0.23903145443E+02  0.62885134254E+02  0.00000000000E+00 0. -1.
         22    1    3    3    0    0  0.81261885293E+02  0.35440903464E+02  0.33111891025E+02  0.94635875687E+02  0.00000000000E+00 0. -1.
</event>
<event>
 7    1  0.5667373E-006  0.2792752E+02  0.7818608E-02  0.1678513E+00
          2   -1    0    0  502    0  0.00000000000E+00  0.00000000000E+00  0.10822464815E+04  0.10822464815E+04  0.00000000000E+00 0. -1.
          1   -1    0    0  501    0 -0.00000000000E+00 -0.00000000000E+00 -0.10453575950E+03  0.10453575950E+03  0.00000000000E+00 0. -1.
         25    2    1    2    0    0 -0.86125132839E+01 -0.38924172684E+02  0.57813451202E+03  0.59283335017E+03  0.12499040154E+03 0.  0.
          2    1    1    2  501    0  0.18302239555E+02  0.21062064797E+02 -0.94970560982E+02  0.98984796810E+02  0.00000000000E+00 0. -1.
          1    1    1    2  502    0 -0.96897262706E+01  0.17862107886E+02  0.49454677096E+03  0.49496409401E+03  0.00000000000E+00 0. -1.
         22    1    3    3    0    0  0.91579782911E+01 -0.55582845265E+02  0.10572294674E+03  0.11979425162E+03  0.00000000000E+00 0. -1.
         22    1    3    3    0    0 -0.17770491575E+02  0.16658672582E+02  0.47241156528E+03  0.47303909855E+03  0.00000000000E+00 0. -1.
</event>
<event>
 7    1  0.5667373E-006  0.6169609E+02  0.7818608E-02  0.1424769E+00
          2   -1    0    0  502    0  0.00000000000E+00  0.00000000000E+00  0.17205823377E+04  0.17205823377E+04  0.00000000000E+00 0. -1.
          1   -1    0    0  501    0 -0.00000000000E+00 -0.00000000000E+00 -0.83674455677E+03  0.83674455677E+03  0.00000000000E+00 0. -1.
         25    2    1    2    0    0 -0.27561902763E+02  0.10235255928E+03  0.72327583107E+02  0.17914588211E+03  0.12500505160E+03 0.  0.
          2    1    1    2  501    0  0.76057295940E+00 -0.47300934948E+02 -0.78203269432E+03  0.78346224664E+03  0.00000000000E+00 0. -1.
          1    1    1    2  502    0  0.26801329803E+02 -0.55051624332E+02  0.15935428921E+04  0.15947187657E+04  0.00000000000E+00 0. -1.
         22    1    3    3    0    0 -0.35142573571E+01  0.12488492967E+03  0.35827224573E+02  0.12996994147E+03  0.00000000000E+00 0.  1.
         22    1    3    3    0    0 -0.24047645406E+02 -0.22532370395E+02  0.36500358534E+02  0.49175940645E+02  0.00000000000E+00 0.  1.
</event>
<event>
 7    1  0.5667373E-006  0.7402902E+02  0.7818608E-02  0.1414107E+00
          2   -1    0    0  502    0  0.00000000000E+00  0.00000000000E+00  0.12032126121E+04  0.12032126121E+04  0.00000000000E+00 0. -1.
          1   -1    0    0  501    0 -0.00000000000E+00 -0.00000000000E+00 -0.87823207860E+02  0.87823207860E+02  0.00000000000E+00 0. -1.
         25    2    1    2    0    0 -0.37092294898E+02 -0.23605163086E+02  0.30265985624E+03  0.33039476391E+03  0.12499867749E+03 0.  0.
          2    1    1    2  501    0 -0.40564728677E+02  0.13643162964E+02 -0.65874096676E+02  0.78555901887E+02  0.00000000000E+00 0. -1.
          1    1    1    2  502    0  0.77657023575E+02  0.99620001214E+01  0.87860364463E+03  0.88208515412E+03  0.00000000000E+00 0. -1.
         22    1    3    3    0    0  0.36380964221E+02 -0.35238760626E+02  0.71955739883E+02  0.87994166342E+02  0.00000000000E+00 0.  1.
         22    1    3    3    0    0 -0.73473259118E+02  0.11633597540E+02  0.23070411636E+03  0.24240059757E+03  0.00000000000E+00 0.  1.
</event>
<event>
 7    1  0.5667373E-006  0.8346950E+02  0.7818608E-02  0.1337655E+00
          2   -1    0    0  502    0  0.00000000000E+00  0.00000000000E+00  0.16978352044E+03  0.16978352044E+03  0.00000000000E+00 0. -1.
          1   -1    0    0  501    0 -0.00000000000E+00 -0.00000000000E+00 -0.94801600165E+03  0.94801600165E+03  0.00000000000E+00 0. -1.
         25    2    1    2    0    0 -0.10647562623E+03 -0.89780493972E+02 -0.37195792785E+03  0.41638454902E+03  0.12500318594E+03 0.  0.
          2    1    1    2  501    0  0.69143730533E+02  0.16622957454E+02 -0.53990171483E+03  0.54456500059E+03  0.00000000000E+00 0. -1.
          1    1    1    2  502    0  0.37331895699E+02  0.73157536517E+02  0.13362716146E+03  0.15684997248E+03  0.00000000000E+00 0. -1.
         22    1    3    3    0    0 -0.18733339201E+02 -0.45831365689E+01 -0.22219024283E+03  0.22302566477E+03  0.00000000000E+00 0.  1.
         22    1    3    3    0    0 -0.87742287032E+02 -0.85197357403E+02 -0.14976768502E+03  0.19335888425E+03  0.00000000000E+00 0.  1.
</event>
<event>
 7    1  0.5667373E-006  0.3231165E+02  0.7818608E-02  0.1637326E+00
          2   -1    0    0  502    0  0.00000000000E+00  0.00000000000E+00  0.29706806365E+03  0.29706806365E+03  0.00000000000E+00 0. -1.
          1   -1    0    0  501    0 -0.00000000000E+00 -0.00000000000E+00 -0.35435301868E+02  0.35435301868E+02  0.00000000000E+00 0. -1.
         25    2    1    2    0    0  0.92297262850E+01 -0.10544017125E+02  0.18409946474E+03  0.22296599466E+03  0.12499943085E+03 0.  0.
          2    1    1    2  501    0 -0.30946681670E+02  0.14709685445E+02  0.61561369428E+01  0.34813359136E+02  0.00000000000E+00 0. -1.
          1    1    1    2  502    0  0.21716955385E+02 -0.41656683196E+01  0.71377160093E+02  0.74724011715E+02  0.00000000000E+00 0. -1.
         22    1    3    3    0    0  0.28006789309E+02 -0.26677663588E+01  0.19690979401E+03  0.19890943718E+03  0.00000000000E+00 0. -1.
         22    1    3    3    0    0 -0.18777063024E+02 -0.78762507663E+01 -0.12810329265E+02  0.24056557480E+02  0.00000000000E+00 0. -1.
</event>
<event>
 7    1  0.5667373E-006  0.1206723E+03  0.7818608E-02  0.1259632E+00
          2   -1    0    0  502    0  0.00000000000E+00  0.00000000000E+00  0.35037196439E+04  0.35037196439E+04  0.00000000000E+00 0. -1.
          1   -1    0    0  501    0 -0.00000000000E+00 -0.00000000000E+00 -0.44489373047E+02  0.44489373047E+02  0.00000000000E+00 0. -1.
         25    2    1    2    0    0 -0.73051172260E+02 -0.44959881423E+02  0.33622118467E+03  0.36881803024E+03  0.12499675875E+03 0.  0.
          2    1    1    2  501    0 -0.18231117717E+02  0.12388604273E+03  0.11831491963E+03  0.17227462217E+03  0.00000000000E+00 0. -1.
          1    1    1    2  502    0  0.91282289977E+02 -0.78926161305E+02  0.30046941665E+04  0.30071163645E+04  0.00000000000E+00 0. -1.
         22    1    3    3    0    0 -0.61273602277E+02 -0.44077308662E+02  0.71936174662E+02  0.10426925098E+03  0.00000000000E+00 0.  1.
         22    1    3    3    0    0 -0.11777569983E+02 -0.88257276155E+00  0.26428501001E+03  0.26454877926E+03  0.00000000000E+00 0.  1.
</event>
<event>
 7    1  0.5667373E-006  0.2468506E+03  0.7818608E-02  0.1163852E+00
          2   -1    0    0  502    0  0.00000000000E+00  0.00000000000E+00  0.64621483069E+03  0.64621483069E+03  0.00000000000E+00 0. -1.
          1   -1    0    0  501    0 -0.00000000000E+00 -0.00000000000E+00 -0.57950731335E+03  0.57950731335E+03  0.00000000000E+00 0. -1.
         25    2    1    2    0    0  0.13041630119E+03 -0.11238793421E+03 -0.55254481862E+02  0.21981298421E+03  0.12500092355E+03 0.  0.
          2    1    1    2  501    0  0.12946612014E+03  0.45911869555E+02 -0.39788596685E+03  0.42093065776E+03  0.00000000000E+00 0. -1.
          1    1    1    2  502    0 -0.25988242133E+03  0.66476064652E+02  0.51984796605E+03  0.58497850208E+03  0.00000000000E+00 0. -1.
         22    1    3    3    0    0  0.36370070978E+02 -0.27082850860E+02 -0.78572232940E+02  0.90718568457E+02  0.00000000000E+00 0. -1.
         22    1    3    3    0    0  0.94046230214E+02 -0.85305083347E+02  0.23317751078E+02  0.12909441575E+03  0.00000000000E+00 0. -1.
</event>
<event>
 7    1  0.5667373E-006  0.3434776E+03  0.7818608E-02  0.1185404E+00
          2   -1    0    0  502    0  0.00000000000E+00  0.00000000000E+00  0.11862894884E+04  0.11862894884E+04  0.00000000000E+00 0. -1.
          1   -1    0    0  501    0 -0.00000000000E+00 -0.00000000000E+00 -0.11918921949E+04  0.11918921949E+04  0.00000000000E+00 0. -1.
         25    2    1    2    0    0  0.18991854599E+03 -0.36745635590E+03  0.20382062818E+03  0.47776835397E+03  0.12500609579E+03 0.  0.
          2    1    1    2  501    0 -0.16756813975E+03  0.29345017522E+03 -0.10259839025E+04  0.10802013955E+04  0.00000000000E+00 0. -1.
          1    1    1    2  502    0 -0.22350406239E+02  0.74006180677E+02  0.81656056779E+03  0.82021193377E+03  0.00000000000E+00 0. -1.
         22    1    3    3    0    0  0.43899900837E+02 -0.18013171023E+03  0.13854251378E+03  0.23144904936E+03  0.00000000000E+00 0. -1.
         22    1    3    3    0    0  0.14601864515E+03 -0.18732464567E+03  0.65278114402E+02  0.24631930462E+03  0.00000000000E+00 0. -1.
</event>
<event>
 7    1  0.5667373E-006  0.7399535E+02  0.7818608E-02  0.1481689E+00
          2   -1    0    0  502    0  0.00000000000E+00  0.00000000000E+00  0.12506100892E+03  0.12506100892E+03  0.00000000000E+00 0. -1.
          1   -1    0    0  501    0 -0.00000000000E+00 -0.00000000000E+00 -0.22356444606E+03  0.22356444606E+03  0.00000000000E+00 0. -1.
         25    2    1    2    0    0  0.56012663289E+02 -0.77128875353E+02 -0.28746412384E+02  0.15980346019E+03  0.12499803119E+03 0.  0.
          2    1    1    2  501    0 -0.35371412697E+02  0.61354329867E+02 -0.11592550322E+03  0.13584628418E+03  0.00000000000E+00 0. -1.
          1    1    1    2  502    0 -0.20641250592E+02  0.15774545486E+02  0.46168478460E+02  0.52975710610E+02  0.00000000000E+00 0. -1.
         22    1    3    3    0    0  0.87272798739E+02 -0.86487761477E+02 -0.12947160133E+02  0.12354878891E+03  0.00000000000E+00 0. -1.
         22    1    3    3    0    0 -0.31260135450E+02  0.93588861238E+01 -0.15799252251E+02  0.36254671278E+02  0.00000000000E+00 0. -1.
</event>
<event>
 7    1  0.5667373E-006  0.9015017E+02  0.7818608E-02  0.1364690E+00
          2   -1    0    0  502    0  0.00000000000E+00  0.00000000000E+00  0.16948607458E+04  0.16948607458E+04  0.00000000000E+00 0. -1.
          1   -1    0    0  501    0 -0.00000000000E+00 -0.00000000000E+00 -0.49408864228E+03  0.49408864228E+03  0.00000000000E+00 0. -1.
         25    2    1    2    0    0 -0.32461820500E+02  0.11972890080E+03  0.54338668940E+01  0.17619087618E+03  0.12499967385E+03 0.  0.
          2    1    1    2  501    0 -0.93238092294E+01 -0.88274104940E+02 -0.40345788555E+03  0.41310714885E+03  0.00000000000E+00 0. -1.
          1    1    1    2  502    0  0.41785629730E+02 -0.31454795859E+02  0.15987961222E+04  0.15996513630E+04  0.00000000000E+00 0. -1.
         22    1    3    3    0    0  0.24666413653E+02  0.14206857215E+01 -0.31201654334E+02  0.39799416373E+02  0.00000000000E+00 0. -1.
         22    1    3    3    0    0 -0.57128234154E+02  0.11830821508E+03  0.36635521228E+02  0.13639145981E+03  0.00000000000E+00 0. -1.
</event>
<event>
 7    1  0.5667373E-006  0.7679419E+02  0.7818608E-02  0.1347028E+00
          2   -1    0    0  502    0  0.00000000000E+00  0.00000000000E+00  0.14482919537E+03  0.14482919537E+03  0.00000000000E+00 0. -1.
          1   -1    0    0  501    0 -0.00000000000E+00 -0.00000000000E+00 -0.16686305064E+03  0.16686305064E+03  0.00000000000E+00 0. -1.
         25    2    1    2    0    0  0.89050043506E+01 -0.86119322519E+02  0.19011678540E+02  0.15325235746E+03  0.12501601631E+03 0.  0.
          2    1    1    2  501    0  0.56818692228E+02  0.58508760281E+02 -0.25789637202E+02  0.85537969365E+02  0.00000000000E+00 0. -1.
          1    1    1    2  502    0 -0.65723696579E+02  0.27610562238E+02 -0.15255896608E+02  0.72901919182E+02  0.00000000000E+00 0. -1.
         22    1    3    3    0    0  0.63625885006E+02 -0.38471590365E+02 -0.10171836705E+02  0.75045204843E+02  0.00000000000E+00 0. -1.
         22    1    3    3    0    0 -0.54720880655E+02 -0.47647732154E+02  0.29183515245E+02  0.78207152622E+02  0.00000000000E+00 0. -1.
</event>
<event>
 7    1  0.5667373E-006  0.1952994E+03  0.7818608E-02  0.1363028E+00
          2   -1    0    0  502    0  0.00000000000E+00  0.00000000000E+00  0.24399406863E+04  0.24399406863E+04  0.00000000000E+00 0. -1.
          1   -1    0    0  501    0 -0.00000000000E+00 -0.00000000000E+00 -0.10052375223E+03  0.10052375223E+03  0.00000000000E+00 0. -1.
         25    2    1    2    0    0 -0.18816908929E+03 -0.53679576937E+02  0.24707794140E+03  0.33905654647E+03  0.12499091737E+03 0.  0.
          2    1    1    2  501    0  0.84366614455E+01 -0.22980246431E+02 -0.47090762874E+02  0.53073618026E+02  0.00000000000E+00 0. -1.
          1    1    1    2  502    0  0.17973242785E+03  0.76659823367E+02  0.21394297555E+04  0.21483342740E+04  0.00000000000E+00 0. -1.
         22    1    3    3    0    0 -0.72318701972E+02 -0.81001432922E+02  0.84645846945E+02  0.13768132116E+03  0.00000000000E+00 0.  1.
         22    1    3    3    0    0 -0.11585038732E+03  0.27321855986E+02  0.16243209446E+03  0.20137522531E+03  0.00000000000E+00 0.  1.
</event>
<event>
 7    1  0.5667373E-006  0.1510794E+03  0.7818608E-02  0.1343977E+00
          2   -1    0    0  502    0  0.00000000000E+00  0.00000000000E+00  0.52130075434E+03  0.52130075434E+03  0.00000000000E+00 0. -1.
          1   -1    0    0  501    0 -0.00000000000E+00 -0.00000000000E+00 -0.72603409682E+03  0.72603409682E+03  0.00000000000E+00 0. -1.
         25    2    1    2    0    0  0.20245289752E+01  0.11865751882E+03 -0.67448193402E+02  0.18508408370E+03  0.12499261481E+03 0.  0.
          2    1    1    2  501    0 -0.11114417681E+02  0.35499023704E+02 -0.58627137630E+03  0.58745028524E+03  0.00000000000E+00 0. -1.
          1    1    1    2  502    0  0.90898887059E+01 -0.15415654252E+03  0.44898622722E+03  0.47480048222E+03  0.00000000000E+00 0. -1.
         22    1    3    3    0    0 -0.11020334943E+02  0.14211499120E+03 -0.43283874365E+02  0.14896849427E+03  0.00000000000E+00 0.  1.
         22    1    3    3    0    0  0.13044863918E+02 -0.23457472381E+02 -0.24164319038E+02  0.36115589428E+02  0.00000000000E+00 0.  1.
</event>
<event>
 7    1  0.5667373E-006  0.2085285E+03  0.7818608E-02  0.1320099E+00
          2   -1    0    0  502    0  0.00000000000E+00  0.00000000000E+00  0.71157083084E+03  0.71157083084E+03  0.00000000000E+00 0. -1.
          1   -1    0    0  501    0 -0.00000000000E+00 -0.00000000000E+00 -0.13415213380E+03  0.13415213380E+03  0.00000000000E+00 0. -1.
         25    2    1    2    0    0 -0.15879749183E+03  0.14060020202E+03  0.99015956875E+02  0.26535771002E+03  0.12500197731E+03 0.  0.
          2    1    1    2  501    0 -0.16729751314E+02 -0.28708972536E+02 -0.21006846711E+02  0.39311287079E+02  0.00000000000E+00 0. -1.
          1    1    1    2  502    0  0.17552724315E+03 -0.11189122948E+03  0.49940958687E+03  0.54105396753E+03  0.00000000000E+00 0. -1.
         22    1    3    3    0    0 -0.42838594661E+01  0.56158670224E+02 -0.11476695754E+02  0.57479233108E+02  0.00000000000E+00 0. -1.
         22    1    3    3    0    0 -0.15451363237E+03  0.84441531795E+02  0.11049265263E+03  0.20787847691E+03  0.00000000000E+00 0. -1.
</event>
<event>
 7    1  0.5667373E-006  0.3809943E+02  0.7818608E-02  0.1543418E+00
          2   -1    0    0  502    0  0.00000000000E+00  0.00000000000E+00  0.39556114317E+03  0.39556114317E+03  0.00000000000E+00 0. -1.
          1   -1    0    0  501    0 -0.00000000000E+00 -0.00000000000E+00 -0.10586900247E+04  0.10586900247E+04  0.00000000000E+00 0. -1.
         25    2    1    2    0    0  0.99308996225E+01  0.83754184268E+01  0.94224260102E+02  0.15707269600E+03  0.12499940094E+03 0.  0.
          2    1    1    2  501    0  0.28620565613E+02 -0.16918075973E+02 -0.10255508162E+04  0.10260895841E+04  0.00000000000E+00 0. -1.
          1    1    1    2  502    0 -0.38551465235E+02  0.85426575458E+01  0.26819767451E+03  0.27108888779E+03  0.00000000000E+00 0. -1.
         22    1    3    3    0    0 -0.12856597505E+01 -0.57306133843E+02  0.30756675793E+02  0.65050895481E+02  0.00000000000E+00 0.  1.
         22    1    3    3    0    0  0.11216559373E+02  0.65681552270E+02  0.63467584309E+02  0.92021800519E+02  0.00000000000E+00 0.  1.
</event>
<event>
 7    1  0.5667373E-006  0.8382009E+02  0.7818608E-02  0.1324088E+00
          2   -1    0    0  502    0  0.00000000000E+00  0.00000000000E+00  0.28647085922E+04  0.28647085922E+04  0.00000000000E+00 0. -1.
          1   -1    0    0  501    0 -0.00000000000E+00 -0.00000000000E+00 -0.15156064136E+03  0.15156064136E+03  0.00000000000E+00 0. -1.
         25    2    1    2    0    0 -0.19313111268E+02  0.19252629467E+02  0.56844811983E+03  0.58266770350E+03  0.12499891100E+03 0.  0.
          2    1    1    2  501    0 -0.72335396789E+02 -0.33652088252E+02 -0.13241817951E+03  0.15459445959E+03  0.00000000000E+00 0. -1.
          1    1    1    2  502    0  0.91648508057E+02  0.14399458786E+02  0.22771180105E+04  0.22790070705E+04  0.00000000000E+00 0. -1.
         22    1    3    3    0    0 -0.34822506597E+02  0.98813921788E+01  0.40146630211E+02  0.54055534355E+02  0.00000000000E+00 0. -1.
         22    1    3    3    0    0  0.15509395329E+02  0.93712372879E+01  0.52830148962E+03  0.52861216914E+03  0.00000000000E+00 0. -1.
</event>
<event>
 7    1  0.5667373E-006  0.1015754E+03  0.7818608E-02  0.1451575E+00
          2   -1    0    0  502    0  0.00000000000E+00  0.00000000000E+00  0.13311172095E+04  0.13311172095E+04  0.00000000000E+00 0. -1.
          1   -1    0    0  501    0 -0.00000000000E+00 -0.00000000000E+00 -0.89059547567E+03  0.89059547567E+03  0.00000000000E+00 0. -1.
         25    2    1    2    0    0 -0.89318972338E+02  0.83885192855E+02  0.11599699062E+03  0.20998597950E+03  0.12499682137E+03 0.  0.
          2    1    1    2  501    0  0.79598598776E+02 -0.62484101751E+02 -0.84044733407E+03  0.84651752565E+03  0.00000000000E+00 0. -1.
          1    1    1    2  502    0  0.97203735619E+01 -0.21401091104E+02  0.11649720772E+04  0.11652091800E+04  0.00000000000E+00 0. -1.
         22    1    3    3    0    0 -0.81699979780E+02  0.92220606858E+02  0.13815777026E+03  0.18511373938E+03  0.00000000000E+00 0.  1.
         22    1    3    3    0    0 -0.76189925573E+01 -0.83354140030E+01 -0.22160779636E+02  0.24872240114E+02  0.00000000000E+00 0.  1.
</event>
<event>
 7    1  0.5667373E-006  0.4986661E+02  0.7818608E-02  0.1505438E+00
          2   -1    0    0  502    0  0.00000000000E+00  0.00000000000E+00  0.37706600383E+03  0.37706600383E+03  0.00000000000E+00 0. -1.
          1   -1    0    0  501    0 -0.00000000000E+00 -0.00000000000E+00 -0.24640847462E+03  0.24640847462E+03  0.00000000000E+00 0. -1.
         25    2    1    2    0    0  0.44772180257E+02 -0.46841267480E+01  0.13125190214E+03  0.18675590013E+03  0.12499686096E+03 0.  0.
          2    1    1    2  501    0 -0.41684207560E+02 -0.27866883226E+02 -0.21452336975E+03  0.22030527118E+03  0.00000000000E+00 0. -1.
          1    1    1    2  502    0 -0.30879726967E+01  0.32551009974E+02  0.21392899683E+03  0.21641330714E+03  0.00000000000E+00 0. -1.
         22    1    3    3    0    0  0.12890774557E+02  0.59657387278E+02  0.58922083969E+02  0.84835062945E+02  0.00000000000E+00 0.  1.
         22    1    3    3    0    0  0.31881405700E+02 -0.64341514026E+02  0.72329818168E+02  0.10192083719E+03  0.00000000000E+00 0.  1.
</event>
<event>
 7    1  0.5667373E-006  0.1496970E+03  0.7818608E-02  0.1349973E+00
          2   -1    0    0  502    0  0.00000000000E+00  0.00000000000E+00  0.70894448147E+03  0.70894448147E+03  0.00000000000E+00 0. -1.
          1   -1    0    0  501    0 -0.00000000000E+00 -0.00000000000E+00 -0.61272507837E+03  0.61272507837E+03  0.00000000000E+00 0. -1.
         25    2    1    2    0    0 -0.72325139904E+01 -0.17928152312E+03 -0.13388577135E+03  0.25640806799E+03  0.12500209505E+03 0.  0.
          2    1    1    2  501    0  0.17305594856E+02  0.31180560758E+02 -0.40828527576E+03  0.40983969718E+03  0.00000000000E+00 0. -1.
          1    1    1    2  502    0 -0.10073080865E+02  0.14810096236E+03  0.63839045021E+03  0.65542179467E+03  0.00000000000E+00 0. -1.
         22    1    3    3    0    0 -0.49456869126E+02 -0.27151514270E+02 -0.59111585909E+02  0.81715152938E+02  0.00000000000E+00 0.  1.
         22    1    3    3    0    0  0.42224355136E+02 -0.15213000885E+03 -0.74774185437E+02  0.17469291505E+03  0.00000000000E+00 0.  1.
</event>
<event>
 7    1  0.5667373E-006  0.1093031E+03  0.7818608E-02  0.1321057E+00
          2   -1    0    0  502    0  0.00000000000E+00  0.00000000000E+00  0.15099427654E+04  0.15099427654E+04  0.00000000000E+00 0. -1.
          1   -1    0    0  501    0 -0.00000000000E+00 -0.00000000000E+00 -0.72083340900E+03  0.72083340900E+03  0.00000000000E+00 0. -1.
         25    2    1    2    0    0  0.43543578806E+02  0.41846870029E+02  0.29997202858E+01  0.13886118422E+03  0.12500490541E+03 0.  0.
          2    1    1    2  501    0 -0.58038522091E+01  0.62583845573E+02 -0.64924068788E+03  0.65227593335E+03  0.00000000000E+00 0. -1.
          1    1    1    2  502    0 -0.37739726597E+02 -0.10443071560E+03  0.14353503240E+04  0.14396390568E+04  0.00000000000E+00 0. -1.
         22    1    3    3    0    0  0.78989282295E+02  0.59504638004E+02 -0.22126587333E+01  0.98919181760E+02  0.00000000000E+00 0.  1.
         22    1    3    3    0    0 -0.35445703489E+02 -0.17657767975E+02  0.52123790190E+01  0.39942002463E+02  0.00000000000E+00 0.  1.
</event>
<event>
 7    1  0.5667373E-006  0.7683232E+02  0.7818608E-02  0.1343119E+00
          2   -1    0    0  502    0  0.00000000000E+00  0.00000000000E+00  0.97675121890E+03  0.97675121890E+03  0.00000000000E+00 0. -1.
          1   -1    0    0  501    0 -0.00000000000E+00 -0.00000000000E+00 -0.17875537725E+03  0.17875537725E+03  0.00000000000E+00 0. -1.
         25    2    1    2    0    0  0.29701799349E+01 -0.15157834556E+02  0.69785395020E+02  0.14399129947E+03  0.12499964419E+03 0.  0.
          2    1    1    2  501    0  0.73814154006E+02  0.21323120971E+02 -0.12937909214E+03  0.15047310159E+03  0.00000000000E+00 0. -1.
          1    1    1    2  502    0 -0.76784333941E+02 -0.61652864148E+01  0.85758953878E+03  0.86104219509E+03  0.00000000000E+00 0. -1.
         22    1    3    3    0    0 -0.60239765955E+02 -0.16092182060E+02  0.29055489797E+02  0.68789601053E+02  0.00000000000E+00 0. -1.
         22    1    3    3    0    0  0.63209945890E+02  0.93434750336E+00  0.40729905224E+02  0.75201698413E+02  0.00000000000E+00 0. -1.
</event>
<event>
 7    1  0.5667373E-006  0.5324644E+02  0.7818608E-02  0.1463694E+00
          2   -1    0    0  502    0  0.00000000000E+00  0.00000000000E+00  0.73760108465E+03  0.73760108465E+03  0.00000000000E+00 0. -1.
          1   -1    0    0  501    0 -0.00000000000E+00 -0.00000000000E+00 -0.13432104597E+03  0.13432104597E+03  0.00000000000E+00 0. -1.
         25    2    1    2    0    0  0.74614468494E+02 -0.49439984029E+02  0.26551941065E+03  0.30681679224E+03  0.12499742253E+03 0.  0.
          2    1    1    2  501    0 -0.38814878190E+02  0.13357647822E+02 -0.10847609855E+03  0.11598312584E+03  0.00000000000E+00 0. -1.
          1    1    1    2  502    0 -0.35799590303E+02  0.36082336207E+02  0.44623672657E+03  0.44912221254E+03  0.00000000000E+00 0. -1.
         22    1    3    3    0    0  0.28956776317E+02  0.77955313553E+01  0.21682033156E+03  0.21888426481E+03  0.00000000000E+00 0.  1.
         22    1    3    3    0    0  0.45657692177E+02 -0.57235515384E+02  0.48699079089E+02  0.87932527431E+02  0.00000000000E+00 0.  1.
</event>
<event>
 7    1  0.5667373E-006  0.2574973E+03  0.7818608E-02  0.1144154E+00
          2   -1    0    0  502    0  0.00000000000E+00  0.00000000000E+00  0.47370022607E+03  0.47370022607E+03  0.00000000000E+00 0. -1.
          1   -1    0    0  501    0 -0.00000000000E+00 -0.00000000000E+00 -0.69005492740E+03  0.69005492740E+03  0.00000000000E+00 0. -1.
         25    2    1    2    0    0  0.95887265666E+02  0.12134169953E+03 -0.45786900081E+03  0.49918713181E+03  0.12500237956E+03 0.  0.
          2    1    1    2  501    0  0.16100585899E+03 -0.40521432173E+02 -0.12636816972E+03  0.20864751955E+03  0.00000000000E+00 0. -1.
          1    1    1    2  502    0 -0.25689312466E+03 -0.80820267359E+02  0.36788246920E+03  0.45592050212E+03  0.00000000000E+00 0. -1.
         22    1    3    3    0    0  0.53835944715E+02  0.78636398995E+01 -0.50534923036E+02  0.74255802615E+02  0.00000000000E+00 0.  1.
         22    1    3    3    0    0  0.42051320951E+02  0.11347805963E+03 -0.40733407777E+03  0.42493132919E+03  0.00000000000E+00 0.  1.
</event>
<event>
 7    1  0.5667373E-006  0.2204602E+03  0.7818608E-02  0.1187855E+00
          2   -1    0    0  502    0  0.00000000000E+00  0.00000000000E+00  0.14857319946E+04  0.14857319946E+04  0.00000000000E+00 0. -1.
          1   -1    0    0  501    0 -0.00000000000E+00 -0.00000000000E+00 -0.14374130847E+04  0.14374130847E+04  0.00000000000E+00 0. -1.
         25    2    1    2    0    0  0.19957642828E+02 -0.23265683561E+03  0.13619294008E+03  0.29782756764E+03  0.12500092983E+03 0.  0.
          2    1    1    2  501    0 -0.12564688970E+03  0.18198310566E+03 -0.13448387034E+04  0.13628998972E+04  0.00000000000E+00 0. -1.
          1    1    1    2  502    0  0.10568924687E+03  0.50673729945E+02  0.12569646732E+04  0.12624176146E+04  0.00000000000E+00 0. -1.
         22    1    3    3    0    0 -0.17079222998E+00  0.81037396047E+01 -0.11939019254E+02  0.14430521346E+02  0.00000000000E+00 0.  1.
         22    1    3    3    0    0  0.20128435058E+02 -0.24076057521E+03  0.14813195933E+03  0.28339704629E+03  0.00000000000E+00 0.  1.
</event>
<event>
 7    1  0.5667373E-006  0.1532604E+03  0.7818608E-02  0.1269501E+00
          2   -1    0    0  502    0  0.00000000000E+00  0.00000000000E+00  0.13112499385E+04  0.13112499385E+04  0.00000000000E+00 0. -1.
          1   -1    0    0  501    0 -0.00000000000E+00 -0.00000000000E+00 -0.26904335344E+03  0.26904335344E+03  0.00000000000E+00 0. -1.
         25    2    1    2    0    0  0.18423354346E+03 -0.12244318194E+03  0.36798552691E+03  0.44718519110E+03  0.12500766288E+03 0.  0.
          2    1    1    2  501    0 -0.12089936295E+03  0.87429536663E+02 -0.20354100975E+03  0.25236783173E+03  0.00000000000E+00 0. -1.
          1    1    1    2  502    0 -0.63334180511E+02  0.35013645278E+02  0.87776206790E+03  0.88074026910E+03  0.00000000000E+00 0. -1.
         22    1    3    3    0    0  0.10426044915E+03 -0.87598178676E+02  0.31966614865E+03  0.34746241345E+03  0.00000000000E+00 0.  1.
         22    1    3    3    0    0  0.79973094317E+02 -0.34845003266E+02  0.48319378259E+02  0.99722777651E+02  0.00000000000E+00 0.  1.
</event>
<event>
 7    1  0.5667373E-006  0.6948045E+02  0.7818608E-02  0.1442201E+00
          2   -1    0    0  502    0  0.00000000000E+00  0.00000000000E+00  0.11352025133E+04  0.11352025133E+04  0.00000000000E+00 0. -1.
          1   -1    0    0  501    0 -0.00000000000E+00 -0.00000000000E+00 -0.52320066160E+03  0.52320066160E+03  0.00000000000E+00 0. -1.
         25    2    1    2    0    0  0.42553074280E+02 -0.81096323168E+02 -0.38555819962E+03  0.41552978498E+03  0.12498999619E+03 0.  0.
          2    1    1    2  501    0 -0.13936449861E+02  0.57909866493E+02 -0.11510283853E+03  0.12960108298E+03  0.00000000000E+00 0. -1.
          1    1    1    2  502    0 -0.28616624419E+02  0.23186456675E+02  0.11126628899E+04  0.11132723070E+04  0.00000000000E+00 0. -1.
         22    1    3    3    0    0  0.11163620230E+02  0.31178034870E+02 -0.47260145203E+02  0.57708037565E+02  0.00000000000E+00 0. -1.
         22    1    3    3    0    0  0.31389454050E+02 -0.11227435804E+03 -0.33829805442E+03  0.35782174741E+03  0.00000000000E+00 0. -1.
</event>
<event>
 7    1  0.5667373E-006  0.1024034E+03  0.7818608E-02  0.1384983E+00
          2   -1    0    0  502    0  0.00000000000E+00  0.00000000000E+00  0.44622304813E+04  0.44622304813E+04  0.00000000000E+00 0. -1.
          1   -1    0    0  501    0 -0.00000000000E+00 -0.00000000000E+00 -0.11613923666E+04  0.11613923666E+04  0.00000000000E+00 0. -1.
         25    2    1    2    0    0 -0.70658731272E+02  0.62239565211E+02  0.17206646630E+04  0.17277672198E+04  0.12500505329E+03 0.  0.
          2    1    1    2  501    0  0.96835233443E+02 -0.33369453857E+02 -0.11554369174E+04  0.11599676948E+04  0.00000000000E+00 0. -1.
          1    1    1    2  502    0 -0.26176502171E+02 -0.28870111354E+02  0.27356103691E+04  0.27358879334E+04  0.00000000000E+00 0. -1.
         22    1    3    3    0    0 -0.88995050183E+02 -0.25163533722E+01  0.10193806132E+04  0.10232611033E+04  0.00000000000E+00 0.  1.
         22    1    3    3    0    0  0.18336318911E+02  0.64755918583E+02  0.70128404983E+03  0.70450611646E+03  0.00000000000E+00 0.  1.
</event>
<event>
 7    1  0.5667373E-006  0.4445484E+02  0.7818608E-02  0.1542010E+00
          2   -1    0    0  502    0  0.00000000000E+00  0.00000000000E+00  0.89725239756E+03  0.89725239756E+03  0.00000000000E+00 0. -1.
          1   -1    0    0  501    0 -0.00000000000E+00 -0.00000000000E+00 -0.84157124985E+03  0.84157124985E+03  0.00000000000E+00 0. -1.
         25    2    1    2    0    0  0.18711636438E+02 -0.11280188890E+02  0.34486554032E+03  0.36747189421E+03  0.12500393650E+03 0.  0.
          2    1    1    2  501    0  0.64345170169E+01 -0.28025919489E+02 -0.82901234466E+03  0.82951089370E+03  0.00000000000E+00 0. -1.
          1    1    1    2  502    0 -0.25146153455E+02  0.39306108378E+02  0.53982795206E+03  0.54184085949E+03  0.00000000000E+00 0. -1.
         22    1    3    3    0    0  0.19026730651E+02  0.34149384828E+02  0.29819434011E+02  0.49167017483E+02  0.00000000000E+00 0. -1.
         22    1    3    3    0    0 -0.31509421329E+00 -0.45429573717E+02  0.31504610631E+03  0.31830487673E+03  0.00000000000E+00 0. -1.
</event>
<event>
 7    1  0.5667373E-006  0.6151878E+02  0.7818608E-02  0.1421183E+00
          2   -1    0    0  502    0  0.00000000000E+00  0.00000000000E+00  0.74421162550E+03  0.74421162550E+03  0.00000000000E+00 0. -1.
          1   -1    0    0  501    0 -0.00000000000E+00 -0.00000000000E+00 -0.27850192261E+03  0.27850192261E+03  0.00000000000E+00 0. -1.
         25    2    1    2    0    0 -0.59417530662E+02  0.62144862667E+02  0.39295282310E+03  0.42122374631E+03  0.12500038548E+03 0.  0.
          2    1    1    2  501    0  0.59953258283E+02 -0.13383894430E+02 -0.25899139729E+03  0.26617675645E+03  0.00000000000E+00 0. -1.
          1    1    1    2  502    0 -0.53572762151E+00 -0.48760968237E+02  0.33174827708E+03  0.33531304534E+03  0.00000000000E+00 0. -1.
         22    1    3    3    0    0 -0.34565091351E+02  0.10035106192E+03  0.27463322412E+03  0.29442908987E+03  0.00000000000E+00 0. -1.
         22    1    3    3    0    0 -0.24852439311E+02 -0.38206199254E+02  0.11831959898E+03  0.12679465644E+03  0.00000000000E+00 0. -1.
</event>
<event>
 7    1  0.5667373E-006  0.5008722E+02  0.7818608E-02  0.1503444E+00
          2   -1    0    0  502    0  0.00000000000E+00  0.00000000000E+00  0.11003094643E+04  0.11003094643E+04  0.00000000000E+00 0. -1.
          1   -1    0    0  501    0 -0.00000000000E+00 -0.00000000000E+00 -0.75447472149E+02  0.75447472149E+02  0.00000000000E+00 0. -1.
         25    2    1    2    0    0  0.22022934754E+02  0.25099976870E+02  0.22356845817E+02  0.13134578102E+03  0.12504745956E+03 0.  0.
          2    1    1    2  501    0 -0.21229248664E+02  0.25264358175E+02 -0.69305918915E+01  0.33719458727E+02  0.00000000000E+00 0. -1.
          1    1    1    2  502    0 -0.79368608995E+00 -0.50364335045E+02  0.10094357382E+04  0.10106916967E+04  0.00000000000E+00 0. -1.
         22    1    3    3    0    0 -0.50466682782E+01  0.58780404993E+02 -0.27736017636E+02  0.65191192244E+02  0.00000000000E+00 0.  1.
         22    1    3    3    0    0  0.27069603032E+02 -0.33680428123E+02  0.50092863453E+02  0.66154588774E+02  0.00000000000E+00 0.  1.
</event>
<event>
 7    1  0.5667373E-006  0.2271977E+03  0.7818608E-02  0.1234919E+00
          2   -1    0    0  502    0  0.00000000000E+00  0.00000000000E+00  0.16837875601E+04  0.16837875601E+04  0.00000000000E+00 0. -1.
          1   -1    0    0  501    0 -0.00000000000E+00 -0.00000000000E+00 -0.17811524374E+03  0.17811524374E+03  0.00000000000E+00 0. -1.
         25    2    1    2    0    0  0.15733999767E+03 -0.21894176076E+03  0.60555955258E+03  0.67455182036E+03  0.12500566852E+03 0.  0.
          2    1    1    2  501    0 -0.63793303285E+02  0.25973944654E+02 -0.12355785764E+03  0.14145944835E+03  0.00000000000E+00 0. -1.
          1    1    1    2  502    0 -0.93546694384E+02  0.19296781611E+03  0.10236706214E+04  0.10458915351E+04  0.00000000000E+00 0. -1.
         22    1    3    3    0    0  0.92714796801E+02 -0.17155689448E+03  0.29357724307E+03  0.35244205089E+03  0.00000000000E+00 0.  1.
         22    1    3    3    0    0  0.64625200868E+02 -0.47384866277E+02  0.31198230951E+03  0.32210976947E+03  0.00000000000E+00 0.  1.
</event>
<event>
 7    1  0.5667373E-006  0.1327135E+03  0.7818608E-02  0.1320146E+00
          2   -1    0    0  502    0  0.00000000000E+00  0.00000000000E+00  0.24695997962E+04  0.24695997962E+04  0.00000000000E+00 0. -1.
          1   -1    0    0  501    0 -0.00000000000E+00 -0.00000000000E+00 -0.17633455623E+03  0.17633455623E+03  0.00000000000E+00 0. -1.
         25    2    1    2    0    0 -0.15488690321E+02 -0.97646218872E+02  0.18188954086E+04  0.18258643914E+04  0.12500234010E+03 0.  0.
          2    1    1    2  501    0  0.63993016634E+02  0.11690621006E+03 -0.14590020111E+03  0.19760829136E+03  0.00000000000E+00 0. -1.
          1    1    1    2  502    0 -0.48504326313E+02 -0.19259991188E+02  0.62027003247E+03  0.62246166960E+03  0.00000000000E+00 0. -1.
         22    1    3    3    0    0 -0.69218112604E+02 -0.51004425625E+02  0.84086993307E+03  0.84525430663E+03  0.00000000000E+00 0.  1.
         22    1    3    3    0    0  0.53729422283E+02 -0.46641793248E+02  0.97802547550E+03  0.98061008480E+03  0.00000000000E+00 0.  1.
</event>
<event>
 7    1  0.5667373E-006  0.1530870E+03  0.7818608E-02  0.1284059E+00
          2   -1    0    0  502    0  0.00000000000E+00  0.00000000000E+00  0.20035448551E+03  0.20035448551E+03  0.00000000000E+00 0. -1.
          1   -1    0    0  501    0 -0.00000000000E+00 -0.00000000000E+00 -0.74665000010E+03  0.74665000010E+03  0.00000000000E+00 0. -1.
         25    2    1    2    0    0 -0.71649440950E+02 -0.91385229852E+02 -0.20735499184E+03  0.26852266436E+03  0.12499370390E+03 0.  0.
          2    1    1    2  501    0  0.75446756359E+02  0.15430302448E+03 -0.48762353352E+03  0.51698969705E+03  0.00000000000E+00 0. -1.
          1    1    1    2  502    0 -0.37973154087E+01 -0.62917794631E+02  0.14868301077E+03  0.16149212420E+03  0.00000000000E+00 0. -1.
         22    1    3    3    0    0 -0.13903820000E+02 -0.12719302144E+02 -0.15808600125E+03  0.15920515271E+03  0.00000000000E+00 0. -1.
         22    1    3    3    0    0 -0.57745620951E+02 -0.78665927708E+02 -0.49268990588E+02  0.10931751166E+03  0.00000000000E+00 0. -1.
</event>
<event>
 7    1  0.5667373E-006  0.4528229E+02  0.7818608E-02  0.1484170E+00
          2   -1    0    0  502    0  0.00000000000E+00  0.00000000000E+00  0.18590022337E+04  0.18590022337E+04  0.00000000000E+00 0. -1.
          1   -1    0    0  501    0 -0.00000000000E+00 -0.00000000000E+00 -0.59303516200E+02  0.59303516200E+02  0.00000000000E+00 0. -1.
         25    2    1    2    0    0 -0.52558998383E+02  0.13275182796E+02  0.30443749222E+02  0.13962225754E+03  0.12501549562E+03 0.  0.
          2    1    1    2  501    0  0.15142174656E+02 -0.38872051221E+02  0.94304754130E+02  0.10311987428E+03  0.00000000000E+00 0. -1.
          1    1    1    2  502    0  0.37416823727E+02  0.25596868425E+02  0.16749502141E+04  0.16755636180E+04  0.00000000000E+00 0. -1.
         22    1    3    3    0    0 -0.70354023905E+02  0.13707294352E+02 -0.29186873518E+02  0.77391551115E+02  0.00000000000E+00 0. -1.
         22    1    3    3    0    0  0.17795025522E+02 -0.43211155625E+00  0.59630622740E+02  0.62230706424E+02  0.00000000000E+00 0. -1.
</event>
<event>
 7    1  0.5667373E-006  0.1055917E+03  0.7818608E-02  0.1296233E+00
          2   -1    0    0  502    0  0.00000000000E+00  0.00000000000E+00  0.62059313100E+03  0.62059313100E+03  0.00000000000E+00 0. -1.
          1   -1    0    0  501    0 -0.00000000000E+00 -0.00000000000E+00 -0.14025721764E+04  0.14025721764E+04  0.00000000000E+00 0. -1.
         25    2    1    2    0    0 -0.47081027948E+02  0.65297476095E+02  0.21553722475E+03  0.26184245939E+03  0.12499917883E+03 0.  0.
          2    1    1    2  501    0 -0.25216084302E+02 -0.10300600052E+03 -0.13729990388E+04  0.13770883950E+04  0.00000000000E+00 0. -1.
          1    1    1    2  502    0  0.72297112250E+02  0.37708524424E+02  0.37548276871E+03  0.38423445297E+03  0.00000000000E+00 0. -1.
         22    1    3    3    0    0 -0.65743614153E+02  0.36866740945E+02  0.44656565695E+02  0.87610434593E+02  0.00000000000E+00 0. -1.
         22    1    3    3    0    0  0.18662586205E+02  0.28430735150E+02  0.17088065906E+03  0.17423202480E+03  0.00000000000E+00 0. -1.
</event>
<event>
 7    1  0.5667373E-006  0.7416785E+02  0.7818608E-02  0.1406252E+00
          2   -1    0    0  502    0  0.00000000000E+00  0.00000000000E+00  0.11873743277E+04  0.11873743277E+04  0.00000000000E+00 0. -1.
          1   -1    0    0  501    0 -0.00000000000E+00 -0.00000000000E+00 -0.24288469629E+03  0.24288469629E+03  0.00000000000E+00 0. -1.
         25    2    1    2    0    0 -0.68323609258E+02  0.72669077187E+02  0.32533147879E+03  0.36251228237E+03  0.12500269363E+03 0.  0.
          2    1    1    2  501    0  0.45264499070E+02 -0.37198925449E+01 -0.22040796154E+03  0.22503862332E+03  0.00000000000E+00 0. -1.
          1    1    1    2  502    0  0.23059110188E+02 -0.68949184642E+02  0.83956611415E+03  0.84270811831E+03  0.00000000000E+00 0. -1.
         22    1    3    3    0    0  0.27934300229E+02  0.73703318663E+01  0.18330083574E+02  0.34214600464E+02  0.00000000000E+00 0. -1.
         22    1    3    3    0    0 -0.96257909487E+02  0.65298745321E+02  0.30700139522E+03  0.32829768191E+03  0.00000000000E+00 0. -1.
</event>
<event>
 7    1  0.5667373E-006  0.3829907E+03  0.7818608E-02  0.1227073E+00
          2   -1    0    0  502    0  0.00000000000E+00  0.00000000000E+00  0.69310618656E+03  0.69310618656E+03  0.00000000000E+00 0. -1.
          1   -1    0    0  501    0 -0.00000000000E+00 -0.00000000000E+00 -0.42357199569E+03  0.42357199569E+03  0.00000000000E+00 0. -1.
         25    2    1    2    0    0 -0.35645491877E+03 -0.13701359231E+03  0.14978752670E+03  0.42882830953E+03  0.12499832921E+03 0.  0.
          2    1    1    2  501    0 -0.16174128658E+02  0.41243797912E+02 -0.18926453223E+03  0.19438033970E+03  0.00000000000E+00 0. -1.
          1    1    1    2  502    0  0.37262904743E+03  0.95769794396E+02  0.30901119640E+03  0.49346953301E+03  0.00000000000E+00 0. -1.
         22    1    3    3    0    0 -0.23566790455E+03 -0.14873098892E+03  0.85495956670E+02  0.29149584372E+03  0.00000000000E+00 0.  1.
         22    1    3    3    0    0 -0.12078701422E+03  0.11717396610E+02  0.64291570029E+02  0.13733246581E+03  0.00000000000E+00 0.  1.
</event>
<event>
 7    1  0.5667373E-006  0.7363272E+02  0.7818608E-02  0.1450758E+00
          2   -1    0    0  502    0  0.00000000000E+00  0.00000000000E+00  0.10705390950E+04  0.10705390950E+04  0.00000000000E+00 0. -1.
          1   -1    0    0  501    0 -0.00000000000E+00 -0.00000000000E+00 -0.32519718877E+03  0.32519718877E+03  0.00000000000E+00 0. -1.
         25    2    1    2    0    0 -0.45636597932E+02  0.47072528047E+02  0.32894704845E+03  0.35795211338E+03  0.12500013129E+03 0.  0.
          2    1    1    2  501    0 -0.25141537123E+02 -0.20784673601E+02 -0.30787058855E+03  0.30959392572E+03  0.00000000000E+00 0. -1.
          1    1    1    2  502    0  0.70778135055E+02 -0.26287854446E+02  0.72426544633E+03  0.72819024468E+03  0.00000000000E+00 0. -1.
         22    1    3    3    0    0 -0.28906471621E+02  0.89877122058E+02  0.20295367770E+03  0.22383850531E+03  0.00000000000E+00 0.  1.
         22    1    3    3    0    0 -0.16730126311E+02 -0.42804594010E+02  0.12599337075E+03  0.13411360807E+03  0.00000000000E+00 0.  1.
</event>
<event>
 7    1  0.5667373E-006  0.4904360E+02  0.7818608E-02  0.1453719E+00
          2   -1    0    0  502    0  0.00000000000E+00  0.00000000000E+00  0.18032740988E+03  0.18032740988E+03  0.00000000000E+00 0. -1.
          1   -1    0    0  501    0 -0.00000000000E+00 -0.00000000000E+00 -0.34929211529E+03  0.34929211529E+03  0.00000000000E+00 0. -1.
         25    2    1    2    0    0 -0.24871806841E+02  0.92557923743E+02  0.57120080926E+02  0.16755173051E+03  0.12500121090E+03 0.  0.
          2    1    1    2  501    0  0.89249237078E+01 -0.47367099104E+02 -0.28333626985E+03  0.28740692085E+03  0.00000000000E+00 0. -1.
          1    1    1    2  502    0  0.15946883134E+02 -0.45190824639E+02  0.57251483518E+02  0.74660873811E+02  0.00000000000E+00 0. -1.
         22    1    3    3    0    0 -0.75320835497E+02  0.67664164113E+02  0.35929791875E+02  0.10743657343E+03  0.00000000000E+00 0. -1.
         22    1    3    3    0    0  0.50449028656E+02  0.24893759630E+02  0.21190289051E+02  0.60115157081E+02  0.00000000000E+00 0. -1.
</event>
<event>
 7    1  0.5667373E-006  0.8294206E+02  0.7818608E-02  0.1336815E+00
          2   -1    0    0  502    0  0.00000000000E+00  0.00000000000E+00  0.13383410738E+04  0.13383410738E+04  0.00000000000E+00 0. -1.
          1   -1    0    0  501    0 -0.00000000000E+00 -0.00000000000E+00 -0.50052576405E+03  0.50052576405E+03  0.00000000000E+00 0. -1.
         25    2    1    2    0    0 -0.95352286534E+02  0.12014670344E+02  0.30947939633E+03  0.34732934465E+03  0.12499506411E+03 0.  0.
          2    1    1    2  501    0  0.30191917720E+02 -0.65463866785E+02 -0.47713013970E+03  0.48254558330E+03  0.00000000000E+00 0. -1.
          1    1    1    2  502    0  0.65160368814E+02  0.53449196441E+02  0.10054660531E+04  0.10089919099E+04  0.00000000000E+00 0. -1.
         22    1    3    3    0    0 -0.10153214406E+03  0.19387328634E+02  0.31806213795E+03  0.33443709182E+03  0.00000000000E+00 0. -1.
         22    1    3    3    0    0  0.61798575238E+01 -0.73726582904E+01 -0.85827416208E+01  0.12892252829E+02  0.00000000000E+00 0. -1.
</event>
<event>
 7    1  0.5667373E-006  0.6027551E+02  0.7818608E-02  0.1399614E+00
          2   -1    0    0  502    0  0.00000000000E+00  0.00000000000E+00  0.33196441789E+03  0.33196441789E+03  0.00000000000E+00 0. -1.
          1   -1    0    0  501    0 -0.00000000000E+00 -0.00000000000E+00 -0.26387901901E+03  0.26387901901E+03  0.00000000000E+00 0. -1.
         25    2    1    2    0    0 -0.71551412291E+02  0.73682006132E+02 -0.98704807900E+02  0.18952022003E+03  0.12500652810E+03 0.  0.
          2    1    1    2  501    0  0.56689398365E+02 -0.15937599587E+02 -0.10914596883E+03  0.12401829493E+03  0.00000000000E+00 0. -1.
          1    1    1    2  502    0  0.14862013926E+02 -0.57744406545E+02  0.27593617560E+03  0.28230492194E+03  0.00000000000E+00 0. -1.
         22    1    3    3    0    0 -0.90804198618E+02  0.62578521516E+01 -0.64111069377E+02  0.11133190206E+03  0.00000000000E+00 0.  1.
         22    1    3    3    0    0  0.19252786327E+02  0.67424153980E+02 -0.34593738523E+02  0.78188317965E+02  0.00000000000E+00 0.  1.
</event>
<event>
 7    1  0.5667373E-006  0.1060991E+03  0.7818608E-02  0.1403028E+00
          2   -1    0    0  502    0  0.00000000000E+00  0.00000000000E+00  0.11750841073E+04  0.11750841073E+04  0.00000000000E+00 0. -1.
          1   -1    0    0  501    0 -0.00000000000E+00 -0.00000000000E+00 -0.11269212576E+03  0.11269212576E+03  0.00000000000E+00 0. -1.
         25    2    1    2    0    0 -0.79740704030E+02 -0.54210187952E+02  0.69155984354E+03  0.70935012613E+03  0.12500103958E+03 0.  0.
          2    1    1    2  501    0  0.66033681681E+02  0.83748418408E+02 -0.75651214377E+02  0.13075683898E+03  0.00000000000E+00 0. -1.
          1    1    1    2  502    0  0.13707022349E+02 -0.29538230456E+02  0.44648335243E+03  0.44766926800E+03  0.00000000000E+00 0. -1.
         22    1    3    3    0    0 -0.82989670731E+02 -0.89460596660E+02  0.51280175881E+03  0.52712060066E+03  0.00000000000E+00 0.  1.
         22    1    3    3    0    0  0.32489667012E+01  0.35250408708E+02  0.17875808472E+03  0.18222952547E+03  0.00000000000E+00 0.  1.
</event>
<event>
 7    1  0.5667373E-006  0.8928727E+02  0.7818608E-02  0.1436675E+00
          2   -1    0    0  502    0  0.00000000000E+00  0.00000000000E+00  0.39357897707E+03  0.39357897707E+03  0.00000000000E+00 0. -1.
          1   -1    0    0  501    0 -0.00000000000E+00 -0.00000000000E+00 -0.89670960460E+03  0.89670960460E+03  0.00000000000E+00 0. -1.
         25    2    1    2    0    0  0.91779709454E+02 -0.67188638598E+02  0.24859997784E+03  0.30060939777E+03  0.12500493118E+03 0.  0.
          2    1    1    2  501    0 -0.79672190883E+02  0.39882489766E+02 -0.86650910140E+03  0.87107766233E+03  0.00000000000E+00 0. -1.
          1    1    1    2  502    0 -0.12107518571E+02  0.27306148832E+02  0.11477849603E+03  0.11860152158E+03  0.00000000000E+00 0. -1.
         22    1    3    3    0    0  0.26805447524E+02 -0.94270314284E+02  0.15711880789E+03  0.18518030123E+03  0.00000000000E+00 0. -1.
         22    1    3    3    0    0  0.64974261930E+02  0.27081675686E+02  0.91481169952E+02  0.11542909654E+03  0.00000000000E+00 0. -1.
</event>
<event>
 7    1  0.5667373E-006  0.9931776E+02  0.7818608E-02  0.1473790E+00
          2   -1    0    0  502    0  0.00000000000E+00  0.00000000000E+00  0.54005423308E+02  0.54005423308E+02  0.00000000000E+00 0. -1.
          1   -1    0    0  501    0 -0.00000000000E+00 -0.00000000000E+00 -0.13957785923E+04  0.13957785923E+04  0.00000000000E+00 0. -1.
         25    2    1    2    0    0 -0.23779219860E+02 -0.78579070805E+02 -0.15949438512E+03  0.21863640936E+03  0.12499319560E+03 0.  0.
          2    1    1    2  501    0  0.19656548367E+02  0.98629022962E+02 -0.11999188591E+04  0.12041259620E+04  0.00000000000E+00 0. -1.
          1    1    1    2  502    0  0.41226714934E+01 -0.20049952157E+02  0.17640075224E+02  0.27021644206E+02  0.00000000000E+00 0. -1.
         22    1    3    3    0    0  0.44975898919E+02 -0.45362352951E+02 -0.11133584190E+03  0.12835982331E+03  0.00000000000E+00 0. -1.
         22    1    3    3    0    0 -0.68755118779E+02 -0.33216717855E+02 -0.48158543229E+02  0.90276586052E+02  0.00000000000E+00 0. -1.
</event>
<event>
 7    1  0.5667373E-006  0.1245108E+03  0.7818608E-02  0.1253098E+00
          2   -1    0    0  502    0  0.00000000000E+00  0.00000000000E+00  0.10721980929E+03  0.10721980929E+03  0.00000000000E+00 0. -1.
          1   -1    0    0  501    0 -0.00000000000E+00 -0.00000000000E+00 -0.81199272545E+03  0.81199272545E+03  0.00000000000E+00 0. -1.
         25    2    1    2    0    0  0.11684286382E+03 -0.90111893120E+01 -0.16169461289E+03  0.23562312441E+03  0.12505859651E+03 0.  0.
          2    1    1    2  501    0 -0.95235446059E+02 -0.93358145062E+02 -0.56170473595E+03  0.57731944694E+03  0.00000000000E+00 0. -1.
          1    1    1    2  502    0 -0.21607417758E+02  0.10236933437E+03  0.18626432676E+02  0.10626996338E+03  0.00000000000E+00 0. -1.
         22    1    3    3    0    0  0.66138700368E+02 -0.63944959222E+02 -0.61691086152E+02  0.11076585939E+03  0.00000000000E+00 0. -1.
         22    1    3    3    0    0  0.50704163448E+02  0.54933769910E+02 -0.10000352674E+03  0.12485726502E+03  0.00000000000E+00 0. -1.
</event>
<event>
 7    1  0.5667373E-006  0.4198839E+02  0.7818608E-02  0.1564774E+00
          2   -1    0    0  502    0  0.00000000000E+00  0.00000000000E+00  0.11300800855E+04  0.11300800855E+04  0.00000000000E+00 0. -1.
          1   -1    0    0  501    0 -0.00000000000E+00 -0.00000000000E+00 -0.27485588098E+02  0.27485588098E+02  0.00000000000E+00 0. -1.
         25    2    1    2    0    0 -0.13797219531E+02  0.35544401031E+02  0.15724490805E+03  0.20446223802E+03  0.12500031183E+03 0.  0.
          2    1    1    2  501    0  0.25853653781E+02  0.49332998496E+01  0.47853733594E+02  0.54614363313E+02  0.00000000000E+00 0. -1.
          1    1    1    2  502    0 -0.12056434249E+02 -0.40477700881E+02  0.89749585575E+03  0.89848907225E+03  0.00000000000E+00 0. -1.
         22    1    3    3    0    0  0.22200286372E+02 -0.58103356131E+01  0.14688242098E+03  0.14866424690E+03  0.00000000000E+00 0.  1.
         22    1    3    3    0    0 -0.35997505903E+02  0.41354736644E+02  0.10362487069E+02  0.55797991114E+02  0.00000000000E+00 0.  1.
</event>
<event>
 7    1  0.5667373E-006  0.8940875E+02  0.7818608E-02  0.1452664E+00
          2   -1    0    0  502    0  0.00000000000E+00  0.00000000000E+00  0.69482019654E+03  0.69482019654E+03  0.00000000000E+00 0. -1.
          1   -1    0    0  501    0 -0.00000000000E+00 -0.00000000000E+00 -0.17331215834E+03  0.17331215834E+03  0.00000000000E+00 0. -1.
         25    2    1    2    0    0 -0.61071934796E+02  0.46003336336E+02  0.35054476258E+03  0.37993951548E+03  0.12500526661E+03 0.  0.
          2    1    1    2  501    0  0.83876314208E+02 -0.32522675094E+02 -0.14526056926E+03  0.17086132816E+03  0.00000000000E+00 0. -1.
          1    1    1    2  502    0 -0.22804379412E+02 -0.13480661242E+02  0.31622384488E+03  0.31733151123E+03  0.00000000000E+00 0. -1.
         22    1    3    3    0    0 -0.63029752888E+02  0.77544510336E+02  0.17455678689E+03  0.20113670148E+03  0.00000000000E+00 0. -1.
         22    1    3    3    0    0  0.19578180914E+01 -0.31541173999E+02  0.17598797568E+03  0.17880281400E+03  0.00000000000E+00 0. -1.
</event>
<event>
 7    1  0.5675857E-006  0.7744672E+02  0.7818608E-02  0.1380680E+00
          2   -1    0    0  502    0  0.00000000000E+00  0.00000000000E+00  0.24337422378E+04  0.24337422378E+04  0.00000000000E+00 0. -1.
          1   -1    0    0  501    0 -0.00000000000E+00 -0.00000000000E+00 -0.32560990357E+03  0.32560990357E+03  0.00000000000E+00 0. -1.
         25    2    1    2    0    0  0.24031912681E+02 -0.39136122732E+01 -0.13309662960E+03  0.18420993965E+03  0.12500295943E+03 0.  0.
          2    1    1    2  501    0  0.53179338173E+02 -0.43927487203E+01 -0.16204978866E+03  0.17060912126E+03  0.00000000000E+00 0. -1.
          1    1    1    2  502    0 -0.77211250854E+02  0.83063609935E+01  0.24032787525E+04  0.24045330805E+04  0.00000000000E+00 0. -1.
         22    1    3    3    0    0  0.41724666330E+02  0.53119749687E+02 -0.74096984783E+02  0.10026474326E+03  0.00000000000E+00 0.  1.
         22    1    3    3    0    0 -0.17692753649E+02 -0.57033361960E+02 -0.58999644814E+02  0.83945196386E+02  0.00000000000E+00 0.  1.
</event>
<event>
 7    1  0.5667373E-006  0.7828803E+02  0.7818608E-02  0.1379048E+00
          2   -1    0    0  502    0  0.00000000000E+00  0.00000000000E+00  0.34866028300E+04  0.34866028300E+04  0.00000000000E+00 0. -1.
          1   -1    0    0  501    0 -0.00000000000E+00 -0.00000000000E+00 -0.26319966147E+03  0.26319966147E+03  0.00000000000E+00 0. -1.
         25    2    1    2    0    0 -0.26525231763E+02 -0.52202448070E+01  0.16216299972E+03  0.20652290680E+03  0.12499613467E+03 0.  0.
          2    1    1    2  501    0  0.75808846750E+02  0.26024306954E+02 -0.23413300589E+03  0.24747224136E+03  0.00000000000E+00 0. -1.
          1    1    1    2  502    0 -0.49283614987E+02 -0.20804062147E+02  0.32953731746E+04  0.32958073433E+04  0.00000000000E+00 0. -1.
         22    1    3    3    0    0 -0.24279244820E+02  0.41995222177E+02  0.13246911464E+02  0.50284799672E+02  0.00000000000E+00 0.  1.
         22    1    3    3    0    0 -0.22459869432E+01 -0.47215466984E+02  0.14891608825E+03  0.15623810713E+03  0.00000000000E+00 0.  1.
</event>
<event>
 7    1  0.5667373E-006  0.6489752E+02  0.7818608E-02  0.1478181E+00
          2   -1    0    0  502    0  0.00000000000E+00  0.00000000000E+00  0.19464685546E+04  0.19464685546E+04  0.00000000000E+00 0. -1.
          1   -1    0    0  501    0 -0.00000000000E+00 -0.00000000000E+00 -0.10994773296E+04  0.10994773296E+04  0.00000000000E+00 0. -1.
         25    2    1    2    0    0 -0.36631067396E+02 -0.18884253243E+02  0.24234929285E+03  0.27578159640E+03  0.12499543613E+03 0.  0.
          2    1    1    2  501    0  0.64609503060E+02  0.70868301174E+01 -0.10816489540E+04  0.10836000511E+04  0.00000000000E+00 0. -1.
          1    1    1    2  502    0 -0.27978435664E+02  0.11797423126E+02  0.16862908861E+04  0.16865642368E+04  0.00000000000E+00 0. -1.
         22    1    3    3    0    0 -0.74903103357E+02  0.19987808658E+01  0.20537055463E+03  0.21861275060E+03  0.00000000000E+00 0. -1.
         22    1    3    3    0    0  0.38272035961E+02 -0.20883034109E+02  0.36978738221E+02  0.57168845805E+02  0.00000000000E+00 0. -1.
</event>
<event>
 7    1  0.5667373E-006  0.5255437E+02  0.7818608E-02  0.1469308E+00
          2   -1    0    0  502    0  0.00000000000E+00  0.00000000000E+00  0.16869850829E+04  0.16869850829E+04  0.00000000000E+00 0. -1.
          1   -1    0    0  501    0 -0.00000000000E+00 -0.00000000000E+00 -0.15873963909E+03  0.15873963909E+03  0.00000000000E+00 0. -1.
         25    2    1    2    0    0  0.41741012715E+02 -0.92418608426E+01  0.58078034532E+03  0.59560654785E+03  0.12495449648E+03 0.  0.
          2    1    1    2  501    0  0.35219038477E+01  0.39786744695E+02 -0.14799891942E+03  0.15329406058E+03  0.00000000000E+00 0. -1.
          1    1    1    2  502    0 -0.45262916563E+02 -0.30544883852E+02  0.10954640179E+04  0.10968241136E+04  0.00000000000E+00 0. -1.
         22    1    3    3    0    0  0.31064905732E+02 -0.54850483362E+02  0.48398686064E+03  0.48807467171E+03  0.00000000000E+00 0. -1.
         22    1    3    3    0    0  0.10676106984E+02  0.45608622519E+02  0.96793484686E+02  0.10753187614E+03  0.00000000000E+00 0. -1.
</event>
<event>
 7    1  0.5667373E-006  0.5395624E+02  0.7818608E-02  0.1471084E+00
          2   -1    0    0  502    0  0.00000000000E+00  0.00000000000E+00  0.81239714280E+03  0.81239714280E+03  0.00000000000E+00 0. -1.
          1   -1    0    0  501    0 -0.00000000000E+00 -0.00000000000E+00 -0.33908580964E+02  0.33908580964E+02  0.00000000000E+00 0. -1.
         25    2    1    2    0    0 -0.81822227385E+02  0.14634344931E+01  0.28553180919E+03  0.32225896635E+03  0.12500163520E+03 0.  0.
          2    1    1    2  501    0  0.47818713475E+02  0.16405943015E+02  0.28560439347E+02  0.58064472962E+02  0.00000000000E+00 0. -1.
          1    1    1    2  502    0  0.34003513909E+02 -0.17869377508E+02  0.46439631330E+03  0.46598228445E+03  0.00000000000E+00 0. -1.
         22    1    3    3    0    0 -0.60117039440E+02  0.10331048104E+02  0.34389378757E+02  0.70024412581E+02  0.00000000000E+00 0. -1.
         22    1    3    3    0    0 -0.21705187945E+02 -0.88676136108E+01  0.25114243043E+03  0.25223455377E+03  0.00000000000E+00 0. -1.
</event>
<event>
 7    1  0.5667373E-006  0.8570777E+02  0.7818608E-02  0.1456992E+00
          2   -1    0    0  502    0  0.00000000000E+00  0.00000000000E+00  0.50993480355E+03  0.50993480355E+03  0.00000000000E+00 0. -1.
          1   -1    0    0  501    0 -0.00000000000E+00 -0.00000000000E+00 -0.29157448615E+03  0.29157448615E+03  0.00000000000E+00 0. -1.
         25    2    1    2    0    0  0.34245279422E+02 -0.10522694682E+03  0.11105729873E+03  0.20051605626E+03  0.12501006246E+03 0.  0.
          2    1    1    2  501    0 -0.31059256702E+02  0.78643725229E+02 -0.23907243142E+03  0.25358458236E+03  0.00000000000E+00 0. -1.
          1    1    1    2  502    0 -0.31860227205E+01  0.26583221588E+02  0.34637545009E+03  0.34740865107E+03  0.00000000000E+00 0. -1.
         22    1    3    3    0    0 -0.42844011143E+02 -0.54253236387E+02  0.22980344576E+02  0.72849977255E+02  0.00000000000E+00 0.  1.
         22    1    3    3    0    0  0.77089290565E+02 -0.50973710431E+02  0.88076954157E+02  0.12766607901E+03  0.00000000000E+00 0.  1.
</event>
<event>
 7    1  0.5667373E-006  0.4186410E+02  0.7818608E-02  0.1546815E+00
          2   -1    0    0  502    0  0.00000000000E+00  0.00000000000E+00  0.19543687533E+03  0.19543687533E+03  0.00000000000E+00 0. -1.
          1   -1    0    0  501    0 -0.00000000000E+00 -0.00000000000E+00 -0.18299539624E+04  0.18299539624E+04  0.00000000000E+00 0. -1.
         25    2    1    2    0    0  0.19167476765E+02 -0.26894668724E+02  0.95461740106E+02  0.16071328744E+03  0.12500040626E+03 0.  0.
          2    1    1    2  501    0 -0.23098555303E+02 -0.18509778077E+02 -0.17894818947E+04  0.17897266849E+04  0.00000000000E+00 0. -1.
          1    1    1    2  502    0  0.39310785378E+01  0.45404446801E+02  0.59503067569E+02  0.74950865358E+02  0.00000000000E+00 0. -1.
         22    1    3    3    0    0  0.59918781777E+01 -0.29195251681E+02 -0.25372458985E+02  0.39141116486E+02  0.00000000000E+00 0. -1.
         22    1    3    3    0    0  0.13175598588E+02  0.23005829572E+01  0.12083419909E+03  0.12157217095E+03  0.00000000000E+00 0. -1.
</event>
<event>
 7    1  0.5667373E-006  0.8811181E+02  0.7818608E-02  0.1393534E+00
          2   -1    0    0  502    0  0.00000000000E+00  0.00000000000E+00  0.72763256560E+03  0.72763256560E+03  0.00000000000E+00 0. -1.
          1   -1    0    0  501    0 -0.00000000000E+00 -0.00000000000E+00 -0.36771035158E+03  0.36771035158E+03  0.00000000000E+00 0. -1.
         25    2    1    2    0    0 -0.92064477152E+02  0.25805006919E+02  0.32391739377E+02  0.16067093075E+03  0.12499662744E+03 0.  0.
          2    1    1    2  501    0  0.26370778090E+02  0.33049036696E+02 -0.29899444985E+03  0.30196910075E+03  0.00000000000E+00 0. -1.
          1    1    1    2  502    0  0.65693699062E+02 -0.58854043615E+02  0.62652492450E+03  0.63270288569E+03  0.00000000000E+00 0. -1.
         22    1    3    3    0    0  0.28706547627E+02  0.10549142465E+02  0.23586362946E+02  0.38622102486E+02  0.00000000000E+00 0.  1.
         22    1    3    3    0    0 -0.12077102478E+03  0.15255864454E+02  0.88053764311E+01  0.12204882826E+03  0.00000000000E+00 0.  1.
</event>
<event>
 7    1  0.5667373E-006  0.2604425E+03  0.7818608E-02  0.1135508E+00
          2   -1    0    0  502    0  0.00000000000E+00  0.00000000000E+00  0.56853986913E+03  0.56853986913E+03  0.00000000000E+00 0. -1.
          1   -1    0    0  501    0 -0.00000000000E+00 -0.00000000000E+00 -0.94841764970E+03  0.94841764970E+03  0.00000000000E+00 0. -1.
         25    2    1    2    0    0  0.98289164923E+02  0.39867939910E+03 -0.14182147627E+03  0.45204408885E+03  0.12499801569E+03 0.  0.
          2    1    1    2  501    0 -0.10209181378E+03 -0.21652266674E+03 -0.60751244900E+03  0.65297486885E+03  0.00000000000E+00 0. -1.
          1    1    1    2  502    0  0.38026488545E+01 -0.18215673236E+03  0.36945614470E+03  0.41193856112E+03  0.00000000000E+00 0. -1.
         22    1    3    3    0    0 -0.42967252014E+01 -0.76631737606E+01  0.19086190339E+01  0.89904897618E+01  0.00000000000E+00 0. -1.
         22    1    3    3    0    0  0.10258589012E+03  0.40634257286E+03 -0.14373009530E+03  0.44305359909E+03  0.00000000000E+00 0. -1.
</event>
<event>
 7    1  0.5667373E-006  0.7021649E+02  0.7818608E-02  0.1513652E+00
          2   -1    0    0  502    0  0.00000000000E+00  0.00000000000E+00  0.18197037527E+04  0.18197037527E+04  0.00000000000E+00 0. -1.
          1   -1    0    0  501    0 -0.00000000000E+00 -0.00000000000E+00 -0.84144198333E+03  0.84144198333E+03  0.00000000000E+00 0. -1.
         25    2    1    2    0    0  0.49910771697E+02 -0.75325447176E+02  0.18566532292E+03  0.24137632044E+03  0.12500363120E+03 0.  0.
          2    1    1    2  501    0 -0.61821850474E+01  0.21074705906E+02 -0.81268233058E+03  0.81297904836E+03  0.00000000000E+00 0. -1.
          1    1    1    2  502    0 -0.43728586650E+02  0.54250741270E+02  0.16052787770E+04  0.16067903672E+04  0.00000000000E+00 0. -1.
         22    1    3    3    0    0  0.69231873874E+02 -0.98023888565E+02  0.12227267201E+03  0.17132525036E+03  0.00000000000E+00 0. -1.
         22    1    3    3    0    0 -0.19321102177E+02  0.22698441390E+02  0.63392650906E+02  0.70051070083E+02  0.00000000000E+00 0. -1.
</event>
<event>
 7    1  0.5667373E-006  0.4996823E+02  0.7818608E-02  0.1486301E+00
          2   -1    0    0  502    0  0.00000000000E+00  0.00000000000E+00  0.22309040599E+03  0.22309040599E+03  0.00000000000E+00 0. -1.
          1   -1    0    0  501    0 -0.00000000000E+00 -0.00000000000E+00 -0.93973101374E+03  0.93973101374E+03  0.00000000000E+00 0. -1.
         25    2    1    2    0    0  0.45346614121E+02  0.15301063135E+02 -0.16283520522E+02  0.13482614789E+03  0.12498999627E+03 0.  0.
          2    1    1    2  501    0 -0.22592408918E+02 -0.44786366229E+02 -0.86132011017E+03  0.86277955917E+03  0.00000000000E+00 0. -1.
          1    1    1    2  502    0 -0.22754205203E+02  0.29485303094E+02  0.16096302295E+03  0.16521571266E+03  0.00000000000E+00 0. -1.
         22    1    3    3    0    0 -0.10852100817E+02 -0.46279353165E+02  0.75185485964E+01  0.48125618900E+02  0.00000000000E+00 0.  1.
         22    1    3    3    0    0  0.56198714938E+02  0.61580416301E+02 -0.23802069119E+02  0.86700528988E+02  0.00000000000E+00 0.  1.
</event>
<event>
 7    1  0.5667373E-006  0.9184922E+02  0.7818608E-02  0.1305164E+00
          2   -1    0    0  502    0  0.00000000000E+00  0.00000000000E+00  0.10341398400E+04  0.10341398400E+04  0.00000000000E+00 0. -1.
          1   -1    0    0  501    0 -0.00000000000E+00 -0.00000000000E+00 -0.48025317963E+03  0.48025317963E+03  0.00000000000E+00 0. -1.
         25    2    1    2    0    0 -0.41900145650E+02  0.43344794775E+01  0.37517591385E+03  0.39768846517E+03  0.12499895629E+03 0.  0.
          2    1    1    2  501    0  0.43369848941E+02  0.81993075956E+02 -0.46148415571E+03  0.47071374982E+03  0.00000000000E+00 0. -1.
          1    1    1    2  502    0 -0.14697032912E+01 -0.86327555433E+02  0.64019490220E+03  0.64599080462E+03  0.00000000000E+00 0. -1.
         22    1    3    3    0    0  0.41307965011E+02 -0.18911706338E+02  0.12277574530E+03  0.13091174219E+03  0.00000000000E+00 0.  1.
         22    1    3    3    0    0 -0.83208110661E+02  0.23246185815E+02  0.25240016856E+03  0.26677672298E+03  0.00000000000E+00 0.  1.
</event>
<event>
 7    1  0.5667373E-006  0.8965808E+02  0.7818608E-02  0.1336834E+00
          2   -1    0    0  502    0  0.00000000000E+00  0.00000000000E+00  0.76864069616E+03  0.76864069616E+03  0.00000000000E+00 0. -1.
          1   -1    0    0  501    0 -0.00000000000E+00 -0.00000000000E+00 -0.15457650472E+04  0.15457650472E+04  0.00000000000E+00 0. -1.
         25    2    1    2    0    0  0.60907123414E+01  0.15242505024E+03 -0.15079091916E+03  0.24826081616E+03  0.12500015528E+03 0.  0.
          2    1    1    2  501    0 -0.15676214023E+02 -0.86438117861E+02 -0.13432573202E+04  0.13461268589E+04  0.00000000000E+00 0. -1.
          1    1    1    2  502    0  0.95855016820E+01 -0.65986932380E+02  0.71692388832E+03  0.72001806833E+03  0.00000000000E+00 0. -1.
         22    1    3    3    0    0  0.44025091708E+02  0.14146513544E+03 -0.83036273862E+02  0.16983997180E+03  0.00000000000E+00 0.  1.
         22    1    3    3    0    0 -0.37934379367E+02  0.10959914805E+02 -0.67754645298E+02  0.78420844359E+02  0.00000000000E+00 0.  1.
</event>
<event>
 7    1  0.5667373E-006  0.6832683E+02  0.7818608E-02  0.1383560E+00
          2   -1    0    0  502    0  0.00000000000E+00  0.00000000000E+00  0.16492610407E+04  0.16492610407E+04  0.00000000000E+00 0. -1.
          1   -1    0    0  501    0 -0.00000000000E+00 -0.00000000000E+00 -0.27756371279E+02  0.27756371279E+02  0.00000000000E+00 0. -1.
         25    2    1    2    0    0  0.21561631068E+02 -0.10280139569E+03  0.37977608100E+03  0.41338583312E+03  0.12499977776E+03 0.  0.
          2    1    1    2  501    0  0.24254404985E+02  0.53875327582E+02  0.77391336161E+02  0.97366554813E+02  0.00000000000E+00 0. -1.
          1    1    1    2  502    0 -0.45816036053E+02  0.48926068103E+02  0.11643372523E+04  0.11662650241E+04  0.00000000000E+00 0. -1.
         22    1    3    3    0    0  0.21695008208E+02  0.23236631654E+02  0.40709715932E+02  0.51651673768E+02  0.00000000000E+00 0.  1.
         22    1    3    3    0    0 -0.13337714061E+00 -0.12603802734E+03  0.33906636507E+03  0.36173415935E+03  0.00000000000E+00 0.  1.
</event>
<event>
 7    1  0.5667373E-006  0.6519324E+02  0.7818608E-02  0.1454656E+00
          2   -1    0    0  502    0  0.00000000000E+00  0.00000000000E+00  0.83328518247E+02  0.83328518247E+02  0.00000000000E+00 0. -1.
          1   -1    0    0  501    0 -0.00000000000E+00 -0.00000000000E+00 -0.11389296303E+04  0.11389296303E+04  0.00000000000E+00 0. -1.
         25    2    1    2    0    0  0.61461218082E+02  0.22143956309E+02 -0.80175453759E+02  0.16224396956E+03  0.12500866427E+03 0.  0.
          2    1    1    2  501    0 -0.19534397569E+02  0.30005915673E+02 -0.99072645380E+03  0.99137321627E+03  0.00000000000E+00 0. -1.
          1    1    1    2  502    0 -0.41926820513E+02 -0.52149871982E+02  0.15300795475E+02  0.68640962757E+02  0.00000000000E+00 0. -1.
         22    1    3    3    0    0 -0.25685410933E+02  0.28385176849E+02 -0.62212126341E+02  0.73046610211E+02  0.00000000000E+00 0. -1.
         22    1    3    3    0    0  0.87146629015E+02 -0.62412205396E+01 -0.17963327418E+02  0.89197359346E+02  0.00000000000E+00 0. -1.
</event>
<event>
 7    1  0.5667373E-006  0.7254077E+02  0.7818608E-02  0.1432965E+00
          2   -1    0    0  502    0  0.00000000000E+00  0.00000000000E+00  0.47567298046E+03  0.47567298046E+03  0.00000000000E+00 0. -1.
          1   -1    0    0  501    0 -0.00000000000E+00 -0.00000000000E+00 -0.92700062870E+02  0.92700062870E+02  0.00000000000E+00 0. -1.
         25    2    1    2    0    0  0.54916168169E+00  0.51008396121E+02  0.52353565732E+02  0.14480320049E+03  0.12499965189E+03 0.  0.
          2    1    1    2  501    0 -0.34423734113E+02  0.15632501895E+02 -0.34314777469E+02  0.51057541446E+02  0.00000000000E+00 0. -1.
          1    1    1    2  502    0  0.33874572431E+02 -0.66640898015E+02  0.36493412933E+03  0.37251230140E+03  0.00000000000E+00 0. -1.
         22    1    3    3    0    0 -0.54090119878E+02  0.40761748471E+02 -0.10201500217E+01  0.67737005492E+02  0.00000000000E+00 0.  1.
         22    1    3    3    0    0  0.54639281560E+02  0.10246647649E+02  0.53373715754E+02  0.77066194994E+02  0.00000000000E+00 0.  1.
</event>
<event>
 7    1  0.5667373E-006  0.1296189E+03  0.7818608E-02  0.1333781E+00
          2   -1    0    0  502    0  0.00000000000E+00  0.00000000000E+00  0.18211592311E+04  0.18211592311E+04  0.00000000000E+00 0. -1.
          1   -1    0    0  501    0 -0.00000000000E+00 -0.00000000000E+00 -0.21144091388E+03  0.21144091388E+03  0.00000000000E+00 0. -1.
         25    2    1    2    0    0 -0.70993005529E+02  0.75486247141E+02  0.16175023964E+02  0.16318162806E+03  0.12501372722E+03 0.  0.
          2    1    1    2  501    0  0.11834515141E+03 -0.76698585611E+02 -0.10147435283E+03  0.17373914982E+03  0.00000000000E+00 0. -1.
          1    1    1    2  502    0 -0.47352145882E+02  0.12123384696E+01  0.16950176461E+04  0.16956793671E+04  0.00000000000E+00 0. -1.
         22    1    3    3    0    0 -0.91674910944E+02  0.92031535380E+02  0.29978768146E+02  0.13331473790E+03  0.00000000000E+00 0.  1.
         22    1    3    3    0    0  0.20681905415E+02 -0.16545288239E+02 -0.13803744182E+02  0.29866890162E+02  0.00000000000E+00 0.  1.
</event>
<event>
 7    1  0.5667373E-006  0.1963933E+03  0.7818608E-02  0.1213993E+00
          2   -1    0    0  502    0  0.00000000000E+00  0.00000000000E+00  0.82682676570E+02  0.82682676570E+02  0.00000000000E+00 0. -1.
          1   -1    0    0  501    0 -0.00000000000E+00 -0.00000000000E+00 -0.14319796603E+04  0.14319796603E+04  0.00000000000E+00 0. -1.
         25    2    1    2    0    0 -0.16311023332E+03 -0.98538380158E+02 -0.55073138504E+03  0.59602441351E+03  0.12500112983E+03 0.  0.
          2    1    1    2  501    0  0.20851796777E+03  0.10454189089E+02 -0.79229379417E+03  0.81934027683E+03  0.00000000000E+00 0. -1.
          1    1    1    2  502    0 -0.45407734452E+02  0.88084191069E+02 -0.62718044694E+01  0.99297646476E+02  0.00000000000E+00 0. -1.
         22    1    3    3    0    0 -0.14324464931E+03 -0.12783078399E+03 -0.47877768302E+03  0.51583699814E+03  0.00000000000E+00 0.  1.
         22    1    3    3    0    0 -0.19865584007E+02  0.29292403830E+02 -0.71953702013E+02  0.80187415368E+02  0.00000000000E+00 0.  1.
</event>
<event>
 7    1  0.5667373E-006  0.3747351E+03  0.7818608E-02  0.1181071E+00
          2   -1    0    0  502    0  0.00000000000E+00  0.00000000000E+00  0.28357576455E+04  0.28357576455E+04  0.00000000000E+00 0. -1.
          1   -1    0    0  501    0 -0.00000000000E+00 -0.00000000000E+00 -0.44220703851E+03  0.44220703851E+03  0.00000000000E+00 0. -1.
         25    2    1    2    0    0  0.31146939669E+03  0.25192635195E+03  0.39669680898E+02  0.42151996560E+03  0.12500130375E+03 0.  0.
          2    1    1    2  501    0 -0.31543633878E+03 -0.17765767082E+03 -0.12003865852E+03  0.38140740864E+03  0.00000000000E+00 0. -1.
          1    1    1    2  502    0  0.39669420937E+01 -0.74268681122E+02  0.24739195846E+04  0.24750373098E+04  0.00000000000E+00 0. -1.
         22    1    3    3    0    0  0.43362903707E+02  0.10168207699E+03  0.27663651010E+02  0.11395114649E+03  0.00000000000E+00 0. -1.
         22    1    3    3    0    0  0.26810649298E+03  0.15024427496E+03  0.12006029888E+02  0.30756881911E+03  0.00000000000E+00 0. -1.
</event>
<event>
 7    1  0.5667373E-006  0.1079533E+03  0.7818608E-02  0.1288738E+00
          2   -1    0    0  502    0  0.00000000000E+00  0.00000000000E+00  0.92192686115E+03  0.92192686115E+03  0.00000000000E+00 0. -1.
          1   -1    0    0  501    0 -0.00000000000E+00 -0.00000000000E+00 -0.13879019981E+04  0.13879019981E+04  0.00000000000E+00 0. -1.
         25    2    1    2    0    0  0.71149654718E+02 -0.11421319402E+03  0.21882742423E+03  0.28568767769E+03  0.12500032214E+03 0.  0.
          2    1    1    2  501    0 -0.10230600305E+03  0.34557685083E+02 -0.13495753224E+04  0.13538885858E+04  0.00000000000E+00 0. -1.
          1    1    1    2  502    0  0.31156348334E+02  0.79655508935E+02  0.66477276120E+03  0.67025259580E+03  0.00000000000E+00 0. -1.
         22    1    3    3    0    0  0.16171679087E+02 -0.11579265040E+02 -0.14708088873E+02  0.24737228254E+02  0.00000000000E+00 0.  1.
         22    1    3    3    0    0  0.54977975631E+02 -0.10263392898E+03  0.23353551310E+03  0.26095044944E+03  0.00000000000E+00 0.  1.
</event>
<event>
 7    1  0.5667373E-006  0.7464940E+02  0.7818608E-02  0.1450960E+00
          2   -1    0    0  502    0  0.00000000000E+00  0.00000000000E+00  0.23042077429E+04  0.23042077429E+04  0.00000000000E+00 0. -1.
          1   -1    0    0  501    0 -0.00000000000E+00 -0.00000000000E+00 -0.26717759410E+03  0.26717759410E+03  0.00000000000E+00 0. -1.
         25    2    1    2    0    0 -0.87512226412E+02  0.52675215547E+02  0.13426548695E+03  0.20996521813E+03  0.12500041494E+03 0.  0.
          2    1    1    2  501    0  0.68805970027E+02 -0.26554163435E+02 -0.22327350835E+03  0.23513920268E+03  0.00000000000E+00 0. -1.
          1    1    1    2  502    0  0.18706256386E+02 -0.26121052112E+02  0.21260381702E+04  0.21262809162E+04  0.00000000000E+00 0. -1.
         22    1    3    3    0    0  0.32469709433E+02  0.97387456987E+01  0.25344181883E+02  0.42325556745E+02  0.00000000000E+00 0.  1.
         22    1    3    3    0    0 -0.11998193584E+03  0.42936469848E+02  0.10892130506E+03  0.16763966138E+03  0.00000000000E+00 0.  1.
</event>
<event>
 7    1  0.5667373E-006  0.7122622E+02  0.7818608E-02  0.1494051E+00
          2   -1    0    0  502    0  0.00000000000E+00  0.00000000000E+00  0.90892763491E+03  0.90892763491E+03  0.00000000000E+00 0. -1.
          1   -1    0    0  501    0 -0.00000000000E+00 -0.00000000000E+00 -0.32822420336E+02  0.32822420336E+02  0.00000000000E+00 0. -1.
         25    2    1    2    0    0 -0.49677180551E+02  0.14583227624E+02  0.22258371550E+03  0.26047802709E+03  0.12499919759E+03 0.  0.
          2    1    1    2  501    0 -0.15462652295E+02  0.19332393852E+02  0.11525318806E+01  0.24782320266E+02  0.00000000000E+00 0. -1.
          1    1    1    2  502    0  0.65139832847E+02 -0.33915621476E+02  0.65236896720E+03  0.65648970789E+03  0.00000000000E+00 0. -1.
         22    1    3    3    0    0 -0.14144935252E+02 -0.54777432222E+02  0.10770787801E+03  0.12166196308E+03  0.00000000000E+00 0.  1.
         22    1    3    3    0    0 -0.35532245300E+02  0.69360659846E+02  0.11487583749E+03  0.13881606401E+03  0.00000000000E+00 0.  1.
</event>
<event>
 7    1  0.5667373E-006  0.7671985E+02  0.7818608E-02  0.1351363E+00
          2   -1    0    0  502    0  0.00000000000E+00  0.00000000000E+00  0.89049499872E+03  0.89049499872E+03  0.00000000000E+00 0. -1.
          1   -1    0    0  501    0 -0.00000000000E+00 -0.00000000000E+00 -0.10997207077E+04  0.10997207077E+04  0.00000000000E+00 0. -1.
         25    2    1    2    0    0 -0.36036382243E+02  0.51944382815E+02  0.22502324164E+02  0.14187580516E+03  0.12500219896E+03 0.  0.
          2    1    1    2  501    0  0.77407473397E+02  0.29808248310E+01 -0.10371244364E+04  0.10400134128E+04  0.00000000000E+00 0. -1.
          1    1    1    2  502    0 -0.41371091154E+02 -0.54925207646E+02  0.80539640323E+03  0.80832648846E+03  0.00000000000E+00 0. -1.
         22    1    3    3    0    0  0.39600107277E+02 -0.10784353965E+02  0.13477095422E+02  0.43198413024E+02  0.00000000000E+00 0.  1.
         22    1    3    3    0    0 -0.75636489520E+02  0.62728736780E+02  0.90252287424E+01  0.98677392136E+02  0.00000000000E+00 0.  1.
</event>
<event>
 7    1  0.5667373E-006  0.4715283E+02  0.7818608E-02  0.1508146E+00
          2   -1    0    0  502    0  0.00000000000E+00  0.00000000000E+00  0.11439051658E+04  0.11439051658E+04  0.00000000000E+00 0. -1.
          1   -1    0    0  501    0 -0.00000000000E+00 -0.00000000000E+00 -0.13721505043E+03  0.13721505043E+03  0.00000000000E+00 0. -1.
         25    2    1    2    0    0 -0.43822809510E+02  0.61696252467E+02  0.45369214420E+03  0.47664300627E+03  0.12500051006E+03 0.  0.
          2    1    1    2  501    0  0.14480030007E+02 -0.44625352219E+02 -0.12092117292E+03  0.12970359822E+03  0.00000000000E+00 0. -1.
          1    1    1    2  502    0  0.29342779503E+02 -0.17070900248E+02  0.67391914406E+03  0.67477361172E+03  0.00000000000E+00 0. -1.
         22    1    3    3    0    0 -0.47868646277E+02  0.66333228967E+02  0.13471117781E+03  0.15760268395E+03  0.00000000000E+00 0.  1.
         22    1    3    3    0    0  0.40458367668E+01 -0.46369765005E+01  0.31898096638E+03  0.31904032231E+03  0.00000000000E+00 0.  1.
</event>
<event>
 7    1  0.5667373E-006  0.1510689E+03  0.7818608E-02  0.1392848E+00
          2   -1    0    0  502    0  0.00000000000E+00  0.00000000000E+00  0.20669644239E+03  0.20669644239E+03  0.00000000000E+00 0. -1.
          1   -1    0    0  501    0 -0.00000000000E+00 -0.00000000000E+00 -0.21190921073E+03  0.21190921073E+03  0.00000000000E+00 0. -1.
         25    2    1    2    0    0  0.13544819693E+03  0.29603777422E+02 -0.78355325504E+02  0.20245204583E+03  0.12499870454E+03 0.  0.
          2    1    1    2  501    0  0.19098648117E+02 -0.15814025894E+02 -0.22833985253E+02  0.33708050336E+02  0.00000000000E+00 0. -1.
          1    1    1    2  502    0 -0.15454684504E+03 -0.13789751528E+02  0.95976542413E+02  0.18244555696E+03  0.00000000000E+00 0. -1.
         22    1    3    3    0    0  0.15666592946E+03  0.89398073964E+01 -0.63049661795E+02  0.16911355197E+03  0.00000000000E+00 0.  1.
         22    1    3    3    0    0 -0.21217732529E+02  0.20663970026E+02 -0.15305663709E+02  0.33338493855E+02  0.00000000000E+00 0.  1.
</event>
<event>
 7    1  0.5667373E-006  0.1311870E+03  0.7818608E-02  0.1320349E+00
          2   -1    0    0  502    0  0.00000000000E+00  0.00000000000E+00  0.10518222786E+04  0.10518222786E+04  0.00000000000E+00 0. -1.
          1   -1    0    0  501    0 -0.00000000000E+00 -0.00000000000E+00 -0.10103610603E+03  0.10103610603E+03  0.00000000000E+00 0. -1.
         25    2    1    2    0    0  0.40247650933E+02  0.99326968892E+02  0.56536183331E+03  0.58885001172E+03  0.12499845436E+03 0.  0.
          2    1    1    2  501    0  0.96275260447E+01  0.51812906724E+02 -0.66515937669E+02  0.84862456510E+02  0.00000000000E+00 0. -1.
          1    1    1    2  502    0 -0.49875176978E+02 -0.15113987562E+03  0.45194027693E+03  0.47914591639E+03  0.00000000000E+00 0. -1.
         22    1    3    3    0    0 -0.36030176218E+02  0.27505937241E+02  0.76788424860E+02  0.89169570899E+02  0.00000000000E+00 0.  1.
         22    1    3    3    0    0  0.76277827151E+02  0.71821031651E+02  0.48857340845E+03  0.49968044082E+03  0.00000000000E+00 0.  1.
</event>
<event>
 7    1  0.5667373E-006  0.1258081E+03  0.7818608E-02  0.1256653E+00
          2   -1    0    0  502    0  0.00000000000E+00  0.00000000000E+00  0.14412004875E+04  0.14412004875E+04  0.00000000000E+00 0. -1.
          1   -1    0    0  501    0 -0.00000000000E+00 -0.00000000000E+00 -0.74174317502E+03  0.74174317502E+03  0.00000000000E+00 0. -1.
         25    2    1    2    0    0  0.33456726773E+02  0.21508039596E+03 -0.27058194218E+03  0.36907800559E+03  0.12500022994E+03 0.  0.
          2    1    1    2  501    0 -0.42712936052E+02 -0.90376285841E+02 -0.41313204014E+03  0.42505335023E+03  0.00000000000E+00 0. -1.
          1    1    1    2  502    0  0.92562092790E+01 -0.12470411012E+03  0.13831712948E+04  0.13888123067E+04  0.00000000000E+00 0. -1.
         22    1    3    3    0    0 -0.31619856929E+02  0.27212348119E+02 -0.13013297241E+02  0.43699807178E+02  0.00000000000E+00 0.  1.
         22    1    3    3    0    0  0.65076583702E+02  0.18786804784E+03 -0.25756864494E+03  0.32537819841E+03  0.00000000000E+00 0.  1.
</event>
<event>
 7    1  0.5667373E-006  0.1507099E+03  0.7818608E-02  0.1257722E+00
          2   -1    0    0  502    0  0.00000000000E+00  0.00000000000E+00  0.13997240187E+04  0.13997240187E+04  0.00000000000E+00 0. -1.
          1   -1    0    0  501    0 -0.00000000000E+00 -0.00000000000E+00 -0.52806071823E+03  0.52806071823E+03  0.00000000000E+00 0. -1.
         25    2    1    2    0    0  0.77005258785E+02  0.36171500554E+02  0.10429241722E+02  0.15156545864E+03  0.12500052735E+03 0.  0.
          2    1    1    2  501    0 -0.12719622892E+03 -0.10173356946E+03 -0.44164749293E+03  0.47072402511E+03  0.00000000000E+00 0. -1.
          1    1    1    2  502    0  0.50190970138E+02  0.65562068904E+02  0.13028815517E+04  0.13054952532E+04  0.00000000000E+00 0. -1.
         22    1    3    3    0    0  0.21188513448E+02  0.14348590442E+02  0.65408501611E+02  0.70236082128E+02  0.00000000000E+00 0.  1.
         22    1    3    3    0    0  0.55816745337E+02  0.21822910113E+02 -0.54979259888E+02  0.81329376511E+02  0.00000000000E+00 0.  1.
</event>
<event>
 7    1  0.5667373E-006  0.5842291E+02  0.7818608E-02  0.1475759E+00
          2   -1    0    0  502    0  0.00000000000E+00  0.00000000000E+00  0.79494421811E+03  0.79494421811E+03  0.00000000000E+00 0. -1.
          1   -1    0    0  501    0 -0.00000000000E+00 -0.00000000000E+00 -0.99416691957E+03  0.99416691957E+03  0.00000000000E+00 0. -1.
         25    2    1    2    0    0 -0.84722306712E+02 -0.32717962010E+02 -0.53752511400E+03  0.55929115579E+03  0.12500005788E+03 0.  0.
          2    1    1    2  501    0  0.27712205077E+02  0.20234727309E+02 -0.44400990564E+03  0.44533381503E+03  0.00000000000E+00 0. -1.
          1    1    1    2  502    0  0.57010101634E+02  0.12483234701E+02  0.78231231817E+03  0.78448616686E+03  0.00000000000E+00 0. -1.
         22    1    3    3    0    0 -0.10232822656E+02  0.38397372903E+02 -0.26487777737E+03  0.26784194191E+03  0.00000000000E+00 0. -1.
         22    1    3    3    0    0 -0.74489484056E+02 -0.71115334913E+02 -0.27264733663E+03  0.29144921387E+03  0.00000000000E+00 0. -1.
</event>
<event>
 7    1  0.5667373E-006  0.5498819E+02  0.7818608E-02  0.1473474E+00
          2   -1    0    0  502    0  0.00000000000E+00  0.00000000000E+00  0.83278464017E+03  0.83278464017E+03  0.00000000000E+00 0. -1.
          1   -1    0    0  501    0 -0.00000000000E+00 -0.00000000000E+00 -0.98700042130E+03  0.98700042130E+03  0.00000000000E+00 0. -1.
         25    2    1    2    0    0  0.38220183787E+02  0.62258502377E+02 -0.45573079091E+03  0.47817679139E+03  0.12500234589E+03 0.  0.
          2    1    1    2  501    0 -0.21673102111E+01 -0.53701504341E+02 -0.51823839133E+03  0.52101782988E+03  0.00000000000E+00 0. -1.
          1    1    1    2  502    0 -0.36052873576E+02 -0.85569980355E+01  0.81975340111E+03  0.82059044020E+03  0.00000000000E+00 0. -1.
         22    1    3    3    0    0 -0.36732036657E+02  0.48189025837E+02 -0.12697042762E+03  0.14068729231E+03  0.00000000000E+00 0.  1.
         22    1    3    3    0    0  0.74952220444E+02  0.14069476540E+02 -0.32876036329E+03  0.33748949908E+03  0.00000000000E+00 0.  1.
</event>
<event>
 7    1  0.5667373E-006  0.6724182E+02  0.7818608E-02  0.1384432E+00
          2   -1    0    0  502    0  0.00000000000E+00  0.00000000000E+00  0.12901111289E+03  0.12901111289E+03  0.00000000000E+00 0. -1.
          1   -1    0    0  501    0 -0.00000000000E+00 -0.00000000000E+00 -0.54997095914E+03  0.54997095914E+03  0.00000000000E+00 0. -1.
         25    2    1    2    0    0  0.21542216271E+02  0.25652511820E+02 -0.20884984486E+03  0.24568795418E+03  0.12498877823E+03 0.  0.
          2    1    1    2  501    0 -0.78253028705E+02 -0.72769436522E+01 -0.30938208493E+03  0.31920802760E+03  0.00000000000E+00 0. -1.
          1    1    1    2  502    0  0.56710812434E+02 -0.18375568168E+02  0.97272083536E+02  0.11408609025E+03  0.00000000000E+00 0. -1.
         22    1    3    3    0    0  0.15679969444E+02 -0.34310976210E+01 -0.21482491907E+03  0.21542372136E+03  0.00000000000E+00 0. -1.
         22    1    3    3    0    0  0.58622468267E+01  0.29083609441E+02  0.59750742074E+01  0.30264232813E+02  0.00000000000E+00 0. -1.
</event>
<event>
 7    1  0.5667373E-006  0.8883801E+02  0.7818608E-02  0.1439736E+00
          2   -1    0    0  502    0  0.00000000000E+00  0.00000000000E+00  0.71747679288E+03  0.71747679288E+03  0.00000000000E+00 0. -1.
          1   -1    0    0  501    0 -0.00000000000E+00 -0.00000000000E+00 -0.11043112986E+04  0.11043112986E+04  0.00000000000E+00 0. -1.
         25    2    1    2    0    0 -0.96169028782E+02  0.42117461947E+02 -0.27967112923E+03  0.32382629780E+03  0.12500067170E+03 0.  0.
          2    1    1    2  501    0  0.85720495893E+01 -0.28060483167E+02 -0.79946276909E+03  0.80000099369E+03  0.00000000000E+00 0. -1.
          1    1    1    2  502    0  0.87596979193E+02 -0.14056978779E+02  0.69229939257E+03  0.69796080002E+03  0.00000000000E+00 0. -1.
         22    1    3    3    0    0 -0.12630022722E+03  0.32421453704E+02 -0.20824486779E+03  0.24570067769E+03  0.00000000000E+00 0.  1.
         22    1    3    3    0    0  0.30131198436E+02  0.96960082425E+01 -0.71426261441E+02  0.78125620116E+02  0.00000000000E+00 0.  1.
</event>
<event>
 7    1  0.5667373E-006  0.1523041E+03  0.7818608E-02  0.1248164E+00
          2   -1    0    0  502    0  0.00000000000E+00  0.00000000000E+00  0.20362379396E+04  0.20362379396E+04  0.00000000000E+00 0. -1.
          1   -1    0    0  501    0 -0.00000000000E+00 -0.00000000000E+00 -0.11505180580E+03  0.11505180580E+03  0.00000000000E+00 0. -1.
         25    2    1    2    0    0 -0.43849689646E+02  0.20986592072E+03  0.33972892379E+03  0.42072194265E+03  0.12499884562E+03 0.  0.
          2    1    1    2  501    0 -0.33259750286E+02 -0.83465402260E+02 -0.42838193925E+02  0.99537908469E+02  0.00000000000E+00 0. -1.
          1    1    1    2  502    0  0.77109439932E+02 -0.12640051846E+03  0.16242954039E+04  0.16310298943E+04  0.00000000000E+00 0. -1.
         22    1    3    3    0    0 -0.29655202172E+02  0.22470043040E+03  0.32085890704E+03  0.39283603789E+03  0.00000000000E+00 0.  1.
         22    1    3    3    0    0 -0.14194487474E+02 -0.14834509680E+02  0.18870016749E+02  0.27885904758E+02  0.00000000000E+00 0.  1.
</event>
<event>
 7    1  0.5667373E-006  0.1409493E+03  0.7818608E-02  0.1281303E+00
          2   -1    0    0  502    0  0.00000000000E+00  0.00000000000E+00  0.24847825988E+04  0.24847825988E+04  0.00000000000E+00 0. -1.
          1   -1    0    0  501    0 -0.00000000000E+00 -0.00000000000E+00 -0.67776564105E+03  0.67776564105E+03  0.00000000000E+00 0. -1.
         25    2    1    2    0    0 -0.18263462511E+03  0.11160007781E+02  0.22476154767E+03  0.31563149290E+03  0.12500213573E+03 0.  0.
          2    1    1    2  501    0  0.54664485713E+02  0.44157508165E+02 -0.62817545125E+03  0.63209373441E+03  0.00000000000E+00 0. -1.
          1    1    1    2  502    0  0.12797013939E+03 -0.55317515946E+02  0.22104308614E+04  0.22148230126E+04  0.00000000000E+00 0. -1.
         22    1    3    3    0    0 -0.16952704636E+03  0.48053998720E+02  0.20914686543E+03  0.27347946460E+03  0.00000000000E+00 0. -1.
         22    1    3    3    0    0 -0.13107578752E+02 -0.36893990939E+02  0.15614682241E+02  0.42152028298E+02  0.00000000000E+00 0. -1.
</event>
<event>
 7    1  0.5667373E-006  0.8462606E+02  0.7818608E-02  0.1420184E+00
          2   -1    0    0  502    0  0.00000000000E+00  0.00000000000E+00  0.37474184561E+03  0.37474184561E+03  0.00000000000E+00 0. -1.
          1   -1    0    0  501    0 -0.00000000000E+00 -0.00000000000E+00 -0.21094722390E+03  0.21094722390E+03  0.00000000000E+00 0. -1.
         25    2    1    2    0    0  0.11516728782E+03  0.11873731850E+01  0.11841372038E+03  0.20716062023E+03  0.12501519652E+03 0.  0.
          2    1    1    2  501    0 -0.35720529161E+02 -0.32663030117E+00 -0.15705136527E+03  0.16106270277E+03  0.00000000000E+00 0. -1.
          1    1    1    2  502    0 -0.79446758660E+02 -0.86074288384E+00  0.20243226660E+03  0.21746574650E+03  0.00000000000E+00 0. -1.
         22    1    3    3    0    0  0.72698711676E+02  0.54180650514E+02  0.29638881883E+02  0.95389249335E+02  0.00000000000E+00 0. -1.
         22    1    3    3    0    0  0.42468576146E+02 -0.52993277329E+02  0.88774838498E+02  0.11177137090E+03  0.00000000000E+00 0. -1.
</event>
<event>
 7    1  0.5667373E-006  0.5082535E+02  0.7818608E-02  0.1532589E+00
          2   -1    0    0  502    0  0.00000000000E+00  0.00000000000E+00  0.15966676291E+04  0.15966676291E+04  0.00000000000E+00 0. -1.
          1   -1    0    0  501    0 -0.00000000000E+00 -0.00000000000E+00 -0.16516570222E+03  0.16516570222E+03  0.00000000000E+00 0. -1.
         25    2    1    2    0    0 -0.16909919275E+02 -0.74743534978E+02  0.41151147459E+02  0.15228700180E+03  0.12500149035E+03 0.  0.
          2    1    1    2  501    0  0.10756715590E+02  0.24489170162E+02 -0.10753173602E+03  0.11080839606E+03  0.00000000000E+00 0. -1.
          1    1    1    2  502    0  0.61532036844E+01  0.50254364817E+02  0.14978825155E+04  0.14987379335E+04  0.00000000000E+00 0. -1.
         22    1    3    3    0    0  0.22941157591E+02  0.26427659717E+02  0.23430996930E+02  0.42115668425E+02  0.00000000000E+00 0.  1.
         22    1    3    3    0    0 -0.39851076865E+02 -0.10117119470E+03  0.17720150528E+02  0.11017133338E+03  0.00000000000E+00 0.  1.
</event>
<event>
 7    1  0.5667373E-006  0.9416697E+02  0.7818608E-02  0.1330487E+00
          2   -1    0    0  502    0  0.00000000000E+00  0.00000000000E+00  0.12895137524E+04  0.12895137524E+04  0.00000000000E+00 0. -1.
          1   -1    0    0  501    0 -0.00000000000E+00 -0.00000000000E+00 -0.79657674862E+03  0.79657674862E+03  0.00000000000E+00 0. -1.
         25    2    1    2    0    0  0.37313187430E+02 -0.11250873816E+03  0.16697444815E+02  0.17307424845E+03  0.12500160277E+03 0.  0.
          2    1    1    2  501    0 -0.63361631018E+02  0.22118930503E+02 -0.71496267591E+03  0.71810554330E+03  0.00000000000E+00 0. -1.
          1    1    1    2  502    0  0.26048443588E+02  0.90389807661E+02  0.11912022348E+04  0.11949107092E+04  0.00000000000E+00 0. -1.
         22    1    3    3    0    0 -0.65548051350E+01 -0.12432549792E+03 -0.49278051404E+00  0.12449914753E+03  0.00000000000E+00 0.  1.
         22    1    3    3    0    0  0.43867992565E+02  0.11816759753E+02  0.17190225329E+02  0.48575100922E+02  0.00000000000E+00 0.  1.
</event>
<event>
 7    1  0.5667373E-006  0.8757701E+02  0.7818608E-02  0.1363297E+00
          2   -1    0    0  502    0  0.00000000000E+00  0.00000000000E+00  0.43408138445E+03  0.43408138445E+03  0.00000000000E+00 0. -1.
          1   -1    0    0  501    0 -0.00000000000E+00 -0.00000000000E+00 -0.41111696125E+03  0.41111696125E+03  0.00000000000E+00 0. -1.
         25    2    1    2    0    0 -0.40044577671E+02 -0.89547432915E+02 -0.12856131711E+03  0.20439038117E+03  0.12500041886E+03 0.  0.
          2    1    1    2  501    0  0.74417077319E+02  0.47294525497E+02 -0.23472279146E+03  0.25073783594E+03  0.00000000000E+00 0. -1.
          1    1    1    2  502    0 -0.34372499648E+02  0.42252907418E+02  0.38624853178E+03  0.39007012859E+03  0.00000000000E+00 0. -1.
         22    1    3    3    0    0  0.59428571166E+01 -0.37025909908E+02  0.18340866456E+02  0.41744735447E+02  0.00000000000E+00 0. -1.
         22    1    3    3    0    0 -0.45987434788E+02 -0.52521523007E+02 -0.14690218356E+03  0.16264564572E+03  0.00000000000E+00 0. -1.
</event>
<event>
 7    1  0.5667373E-006  0.5283762E+02  0.7818608E-02  0.1551908E+00
          2   -1    0    0  502    0  0.00000000000E+00  0.00000000000E+00  0.19222030504E+04  0.19222030504E+04  0.00000000000E+00 0. -1.
          1   -1    0    0  501    0 -0.00000000000E+00 -0.00000000000E+00 -0.18702746235E+03  0.18702746235E+03  0.00000000000E+00 0. -1.
         25    2    1    2    0    0  0.45150419934E+02  0.29280861481E+01 -0.19130821829E+02  0.13430451649E+03  0.12499832278E+03 0.  0.
          2    1    1    2  501    0  0.11398194555E+01  0.22668387857E+02 -0.10876291246E+03  0.11110592298E+03  0.00000000000E+00 0. -1.
          1    1    1    2  502    0 -0.46290239390E+02 -0.25596474005E+02  0.18630693223E+04  0.18638200732E+04  0.00000000000E+00 0. -1.
         22    1    3    3    0    0  0.21795634651E+02  0.23387875602E+02 -0.68722619167E+02  0.75794728050E+02  0.00000000000E+00 0. -1.
         22    1    3    3    0    0  0.23354785283E+02 -0.20459789454E+02  0.49591797338E+02  0.58509788440E+02  0.00000000000E+00 0. -1.
</event>
<event>
 7    1  0.5667373E-006  0.1013585E+03  0.7818608E-02  0.1458227E+00
          2   -1    0    0  502    0  0.00000000000E+00  0.00000000000E+00  0.19875808679E+04  0.19875808679E+04  0.00000000000E+00 0. -1.
          1   -1    0    0  501    0 -0.00000000000E+00 -0.00000000000E+00 -0.14970810683E+03  0.14970810683E+03  0.00000000000E+00 0. -1.
         25    2    1    2    0    0  0.76673614902E+02 -0.57463348710E+02  0.43229864565E+03  0.46009449968E+03  0.12499579966E+03 0.  0.
          2    1    1    2  501    0 -0.92712965231E+02  0.41774486844E+02 -0.11668052159E+03  0.15477449981E+03  0.00000000000E+00 0. -1.
          1    1    1    2  502    0  0.16039350329E+02  0.15688861866E+02  0.15222546370E+04  0.15224199752E+04  0.00000000000E+00 0. -1.
         22    1    3    3    0    0  0.22541197214E+02 -0.83608679965E+02  0.33247688364E+03  0.34356861773E+03  0.00000000000E+00 0. -1.
         22    1    3    3    0    0  0.54132417688E+02  0.26145331255E+02  0.99821762018E+02  0.11652588195E+03  0.00000000000E+00 0. -1.
</event>
<event>
 7    1  0.5667373E-006  0.5134997E+02  0.7818608E-02  0.1555606E+00
          2   -1    0    0  502    0  0.00000000000E+00  0.00000000000E+00  0.71439846558E+03  0.71439846558E+03  0.00000000000E+00 0. -1.
          1   -1    0    0  501    0 -0.00000000000E+00 -0.00000000000E+00 -0.48222199738E+02  0.48222199738E+02  0.00000000000E+00 0. -1.
         25    2    1    2    0    0  0.21038018800E+02 -0.37764459957E+02  0.27429524241E+03  0.30451483943E+03  0.12499061866E+03 0.  0.
          2    1    1    2  501    0 -0.42570957580E+02  0.30241968929E+02 -0.12000662019E+02  0.53580584197E+02  0.00000000000E+00 0. -1.
          1    1    1    2  502    0  0.21532938780E+02  0.75224910285E+01  0.40388168545E+03  0.40452524169E+03  0.00000000000E+00 0. -1.
         22    1    3    3    0    0 -0.29045923545E+02 -0.33324521981E+01  0.65542789403E+01  0.29962134180E+02  0.00000000000E+00 0. -1.
         22    1    3    3    0    0  0.50083942345E+02 -0.34432007759E+02  0.26774096347E+03  0.27455270525E+03  0.00000000000E+00 0. -1.
</event>
<event>
 7    1  0.5667373E-006  0.8808318E+02  0.7818608E-02  0.1444368E+00
          2   -1    0    0  502    0  0.00000000000E+00  0.00000000000E+00  0.18768861757E+04  0.18768861757E+04  0.00000000000E+00 0. -1.
          1   -1    0    0  501    0 -0.00000000000E+00 -0.00000000000E+00 -0.46910974220E+02  0.46910974220E+02  0.00000000000E+00 0. -1.
         25    2    1    2    0    0 -0.39124343862E+02  0.50250769207E+02  0.34816548278E+03  0.37536624946E+03  0.12499905499E+03 0.  0.
          2    1    1    2  501    0 -0.25188371014E+02  0.13521052482E+02 -0.25556666860E+02  0.38346005210E+02  0.00000000000E+00 0. -1.
          1    1    1    2  502    0  0.64312714876E+02 -0.63771821689E+02  0.15073663855E+04  0.15100848952E+04  0.00000000000E+00 0. -1.
         22    1    3    3    0    0 -0.84033232123E+02  0.25432329267E+02  0.19552553331E+03  0.21433296911E+03  0.00000000000E+00 0. -1.
         22    1    3    3    0    0  0.44908888261E+02  0.24818439940E+02  0.15263994947E+03  0.16103328035E+03  0.00000000000E+00 0. -1.
</event>
<event>
 7    1  0.5667373E-006  0.7079294E+02  0.7818608E-02  0.1368925E+00
          2   -1    0    0  502    0  0.00000000000E+00  0.00000000000E+00  0.64951499510E+03  0.64951499510E+03  0.00000000000E+00 0. -1.
          1   -1    0    0  501    0 -0.00000000000E+00 -0.00000000000E+00 -0.55130837509E+03  0.55130837509E+03  0.00000000000E+00 0. -1.
         25    2    1    2    0    0  0.34133763901E+01 -0.13375098777E+03 -0.10952729371E+03  0.21335414344E+03  0.12499113803E+03 0.  0.
          2    1    1    2  501    0 -0.74018426527E+01  0.63869530676E+02 -0.38514385704E+03  0.39047393619E+03  0.00000000000E+00 0. -1.
          1    1    1    2  502    0  0.39884662625E+01  0.69881457098E+02  0.59287777075E+03  0.59699529057E+03  0.00000000000E+00 0. -1.
         22    1    3    3    0    0  0.33107452774E+01 -0.90318523213E+02  0.53531626308E+01  0.90537577943E+02  0.00000000000E+00 0. -1.
         22    1    3    3    0    0  0.10263111276E+00 -0.43432464561E+02 -0.11488045634E+03  0.12281656549E+03  0.00000000000E+00 0. -1.
</event>
<event>
 7    1  0.5667373E-006  0.1347045E+03  0.7818608E-02  0.1258184E+00
          2   -1    0    0  502    0  0.00000000000E+00  0.00000000000E+00  0.24061534771E+03  0.24061534771E+03  0.00000000000E+00 0. -1.
          1   -1    0    0  501    0 -0.00000000000E+00 -0.00000000000E+00 -0.46592323924E+03  0.46592323924E+03  0.00000000000E+00 0. -1.
         25    2    1    2    0    0 -0.18783111981E+03  0.82877786646E+02 -0.12312444175E+03  0.27008871163E+03  0.12505609503E+03 0.  0.
          2    1    1    2  501    0  0.96260948571E+02 -0.74424855022E+02 -0.24097820017E+03  0.26995503741E+03  0.00000000000E+00 0. -1.
          1    1    1    2  502    0  0.91570171241E+02 -0.84529316243E+01  0.13879475040E+03  0.16649483791E+03  0.00000000000E+00 0. -1.
         22    1    3    3    0    0 -0.11708880082E+03  0.92239297918E+02 -0.13081162211E+03  0.19831680674E+03  0.00000000000E+00 0.  1.
         22    1    3    3    0    0 -0.70742318992E+02 -0.93615112719E+01  0.76871803536E+01  0.71771904889E+02  0.00000000000E+00 0.  1.
</event>
<event>
 7    1  0.5667373E-006  0.4118772E+02  0.7818608E-02  0.1530914E+00
          2   -1    0    0  502    0  0.00000000000E+00  0.00000000000E+00  0.42516174533E+03  0.42516174533E+03  0.00000000000E+00 0. -1.
          1   -1    0    0  501    0 -0.00000000000E+00 -0.00000000000E+00 -0.10064431892E+04  0.10064431892E+04  0.00000000000E+00 0. -1.
         25    2    1    2    0    0  0.15904773877E+02 -0.44020509757E+01 -0.16529192755E+03  0.20789060976E+03  0.12499897771E+03 0.  0.
          2    1    1    2  501    0 -0.18442538583E+02  0.37677569882E+02 -0.81862454565E+03  0.81969864783E+03  0.00000000000E+00 0. -1.
          1    1    1    2  502    0  0.25377647060E+01 -0.33275518907E+02  0.40263502931E+03  0.40401567697E+03  0.00000000000E+00 0. -1.
         22    1    3    3    0    0  0.25994124182E+02  0.51441660118E+02 -0.39447410655E+02  0.69842945922E+02  0.00000000000E+00 0.  1.
         22    1    3    3    0    0 -0.10089350306E+02 -0.55843711093E+02 -0.12584451689E+03  0.13804766384E+03  0.00000000000E+00 0.  1.
</event>
<event>
 7    1  0.5667373E-006  0.1293057E+03  0.7818608E-02  0.1281089E+00
          2   -1    0    0  502    0  0.00000000000E+00  0.00000000000E+00  0.12851458630E+03  0.12851458630E+03  0.00000000000E+00 0. -1.
          1   -1    0    0  501    0 -0.00000000000E+00 -0.00000000000E+00 -0.11477243924E+04  0.11477243924E+04  0.00000000000E+00 0. -1.
         25    2    1    2    0    0  0.52568352168E+02 -0.91341266087E+02 -0.12179751178E+03  0.20387904772E+03  0.12500149472E+03 0.  0.
          2    1    1    2  501    0 -0.12123767012E+03  0.57049747223E+02 -0.96246419620E+03  0.97174614755E+03  0.00000000000E+00 0. -1.
          1    1    1    2  502    0  0.68669317951E+02  0.34291518864E+02  0.65051901840E+02  0.10061378348E+03  0.00000000000E+00 0. -1.
         22    1    3    3    0    0  0.15231059369E+02 -0.34896288478E+02 -0.13022749370E+03  0.13567953506E+03  0.00000000000E+00 0.  1.
         22    1    3    3    0    0  0.37337292798E+02 -0.56444977609E+02  0.84299819212E+01  0.68199512652E+02  0.00000000000E+00 0.  1.
</event>
<event>
 7    1  0.5667373E-006  0.5378609E+02  0.7818608E-02  0.1518411E+00
          2   -1    0    0  502    0  0.00000000000E+00  0.00000000000E+00  0.24542848007E+03  0.24542848007E+03  0.00000000000E+00 0. -1.
          1   -1    0    0  501    0 -0.00000000000E+00 -0.00000000000E+00 -0.63799914945E+02  0.63799914945E+02  0.00000000000E+00 0. -1.
         25    2    1    2    0    0 -0.15400458906E+02 -0.26164816036E+02  0.11553878483E+03  0.17290511063E+03  0.12500077900E+03 0.  0.
          2    1    1    2  501    0  0.32651843476E+02  0.47925146429E+02 -0.67377705916E+01  0.58381162160E+02  0.00000000000E+00 0. -1.
          1    1    1    2  502    0 -0.17251384570E+02 -0.21760330392E+02  0.72827550889E+02  0.77942122225E+02  0.00000000000E+00 0. -1.
         22    1    3    3    0    0 -0.27363883621E+02  0.43906201817E+02  0.74878943361E+02  0.91013146543E+02  0.00000000000E+00 0.  1.
         22    1    3    3    0    0  0.11963424714E+02 -0.70071017853E+02  0.40659841465E+02  0.81891964086E+02  0.00000000000E+00 0.  1.
</event>
<event>
 7    1  0.5667373E-006  0.3450116E+02  0.7818608E-02  0.1615580E+00
          2   -1    0    0  502    0  0.00000000000E+00  0.00000000000E+00  0.16684036387E+04  0.16684036387E+04  0.00000000000E+00 0. -1.
          1   -1    0    0  501    0 -0.00000000000E+00 -0.00000000000E+00 -0.32730470261E+03  0.32730470261E+03  0.00000000000E+00 0. -1.
         25    2    1    2    0    0 -0.29179737662E+00  0.55225831734E+02  0.61936850541E+03  0.63426477796E+03  0.12499794170E+03 0.  0.
          2    1    1    2  501    0 -0.84671589459E+01 -0.33417032020E+02 -0.31879464334E+03  0.32065310763E+03  0.00000000000E+00 0. -1.
          1    1    1    2  502    0  0.87589563225E+01 -0.21808799714E+02  0.10405250740E+04  0.10407904558E+04  0.00000000000E+00 0. -1.
         22    1    3    3    0    0 -0.34539655620E+02  0.61061251162E+01  0.46348295253E+02  0.58124324057E+02  0.00000000000E+00 0.  1.
         22    1    3    3    0    0  0.34247858244E+02  0.49119706617E+02  0.57302021016E+03  0.57614045391E+03  0.00000000000E+00 0.  1.
</event>
<event>
 7    1  0.5667373E-006  0.6813825E+02  0.7818608E-02  0.1395979E+00
          2   -1    0    0  502    0  0.00000000000E+00  0.00000000000E+00  0.96810831779E+03  0.96810831779E+03  0.00000000000E+00 0. -1.
          1   -1    0    0  501    0 -0.00000000000E+00 -0.00000000000E+00 -0.28287788443E+03  0.28287788443E+03  0.00000000000E+00 0. -1.
         25    2    1    2    0    0  0.70358653371E+02  0.34247898779E+02  0.25490162591E+03  0.29448740797E+03  0.12499894355E+03 0.  0.
          2    1    1    2  501    0 -0.44669137178E+02  0.29657802144E+02 -0.25861796861E+03  0.26411772136E+03  0.00000000000E+00 0. -1.
          1    1    1    2  502    0 -0.25689516193E+02 -0.63905700923E+02  0.68894677607E+03  0.69238107290E+03  0.00000000000E+00 0. -1.
         22    1    3    3    0    0  0.18432926025E+02 -0.14991925539E+02  0.20703546488E+03  0.20839437207E+03  0.00000000000E+00 0.  1.
         22    1    3    3    0    0  0.51925727346E+02  0.49239824317E+02  0.47866161028E+02  0.86093035902E+02  0.00000000000E+00 0.  1.
</event>
<event>
 7    1  0.5667373E-006  0.5572390E+02  0.7818608E-02  0.1417217E+00
          2   -1    0    0  502    0  0.00000000000E+00  0.00000000000E+00  0.20239279901E+04  0.20239279901E+04  0.00000000000E+00 0. -1.
          1   -1    0    0  501    0 -0.00000000000E+00 -0.00000000000E+00 -0.66916112112E+03  0.66916112112E+03  0.00000000000E+00 0. -1.
         25    2    1    2    0    0 -0.11810330529E+02  0.13271025782E+02  0.36278770373E+03  0.38412756764E+03  0.12499386469E+03 0.  0.
          2    1    1    2  501    0  0.41763045256E+02  0.36559756903E+02 -0.65680826713E+03  0.65914935147E+03  0.00000000000E+00 0. -1.
          1    1    1    2  502    0 -0.29952714726E+02 -0.49830782685E+02  0.16487874324E+04  0.16498121921E+04  0.00000000000E+00 0. -1.
         22    1    3    3    0    0  0.46653047480E+02 -0.25937946882E+02  0.19494259235E+03  0.20211852523E+03  0.00000000000E+00 0.  1.
         22    1    3    3    0    0 -0.58463378010E+02  0.39208972665E+02  0.16784511137E+03  0.18200904241E+03  0.00000000000E+00 0.  1.
</event>
<event>
 7    1  0.5667373E-006  0.1085476E+03  0.7818608E-02  0.1276977E+00
          2   -1    0    0  502    0  0.00000000000E+00  0.00000000000E+00  0.97839407892E+03  0.97839407892E+03  0.00000000000E+00 0. -1.
          1   -1    0    0  501    0 -0.00000000000E+00 -0.00000000000E+00 -0.40717740324E+04  0.40717740324E+04  0.00000000000E+00 0. -1.
         25    2    1    2    0    0  0.70731316892E+02 -0.15579994305E+03 -0.10291004259E+04  0.10506898826E+04  0.12500000529E+03 0.  0.
          2    1    1    2  501    0  0.17934874122E+02  0.93381166172E+02 -0.30280923536E+04  0.30295849557E+04  0.00000000000E+00 0. -1.
          1    1    1    2  502    0 -0.88666191014E+02  0.62418776880E+02  0.96381282610E+03  0.96989327294E+03  0.00000000000E+00 0. -1.
         22    1    3    3    0    0  0.92383619542E+02 -0.14505635964E+03 -0.70435827112E+03  0.72504941537E+03  0.00000000000E+00 0.  1.
         22    1    3    3    0    0 -0.21652302650E+02 -0.10743583417E+02 -0.32474215479E+03  0.32564046722E+03  0.00000000000E+00 0.  1.
</event>
<event>
 7    1  0.5667373E-006  0.9511745E+02  0.7818608E-02  0.1357198E+00
          2   -1    0    0  502    0  0.00000000000E+00  0.00000000000E+00  0.14918337362E+04  0.14918337362E+04  0.00000000000E+00 0. -1.
          1   -1    0    0  501    0 -0.00000000000E+00 -0.00000000000E+00 -0.18193585600E+03  0.18193585600E+03  0.00000000000E+00 0. -1.
         25    2    1    2    0    0 -0.10757024351E+03 -0.12518241073E+02  0.14816246777E+03  0.22204628021E+03  0.12499748017E+03 0.  0.
          2    1    1    2  501    0  0.19718006249E+02  0.48965433597E+02 -0.13839412783E+03  0.14811937104E+03  0.00000000000E+00 0. -1.
          1    1    1    2  502    0  0.87852237259E+02 -0.36447192524E+02  0.13001295402E+04  0.13036039409E+04  0.00000000000E+00 0. -1.
         22    1    3    3    0    0 -0.76171765952E+02  0.28782168134E+02  0.20097537925E+02  0.83871700600E+02  0.00000000000E+00 0. -1.
         22    1    3    3    0    0 -0.31398477555E+02 -0.41300409207E+02  0.12806492984E+03  0.13817457961E+03  0.00000000000E+00 0. -1.
</event>
<event>
 7    1  0.5667373E-006  0.3332880E+02  0.7818608E-02  0.1592470E+00
          2   -1    0    0  502    0  0.00000000000E+00  0.00000000000E+00  0.11860965498E+03  0.11860965498E+03  0.00000000000E+00 0. -1.
          1   -1    0    0  501    0 -0.00000000000E+00 -0.00000000000E+00 -0.35703504533E+03  0.35703504533E+03  0.00000000000E+00 0. -1.
         25    2    1    2    0    0 -0.51942536912E+02 -0.31430293200E+02 -0.35744308929E+02  0.14348711602E+03  0.12500002549E+03 0.  0.
          2    1    1    2  501    0  0.27501158240E+02  0.17897064470E+02 -0.26333884920E+03  0.26537514601E+03  0.00000000000E+00 0. -1.
          1    1    1    2  502    0  0.24441378672E+02  0.13533228729E+02  0.60657767772E+02  0.66782438278E+02  0.00000000000E+00 0. -1.
         22    1    3    3    0    0  0.16153737330E+02 -0.39308833892E+02 -0.57559825705E+02  0.71549012481E+02  0.00000000000E+00 0. -1.
         22    1    3    3    0    0 -0.68096274242E+02  0.78785406927E+01  0.21815516777E+02  0.71938103543E+02  0.00000000000E+00 0. -1.
</event>
<event>
 7    1  0.5667373E-006  0.1322486E+03  0.7818608E-02  0.1431831E+00
          2   -1    0    0  502    0  0.00000000000E+00  0.00000000000E+00  0.68266491917E+03  0.68266491917E+03  0.00000000000E+00 0. -1.
          1   -1    0    0  501    0 -0.00000000000E+00 -0.00000000000E+00 -0.25287690353E+03  0.25287690353E+03  0.00000000000E+00 0. -1.
         25    2    1    2    0    0 -0.75790887621E+02  0.12228182028E+03  0.25172832369E+03  0.31573649487E+03  0.12500113211E+03 0.  0.
          2    1    1    2  501    0 -0.31538349895E+01 -0.20677116323E+02 -0.20996460957E+03  0.21100385562E+03  0.00000000000E+00 0. -1.
          1    1    1    2  502    0  0.78944722610E+02 -0.10160470396E+03  0.38802430153E+03  0.40880147220E+03  0.00000000000E+00 0. -1.
         22    1    3    3    0    0 -0.68794467211E+02  0.16144774163E+01  0.10639669891E+03  0.12671046837E+03  0.00000000000E+00 0. -1.
         22    1    3    3    0    0 -0.69964204099E+01  0.12066734287E+03  0.14533162478E+03  0.18902602650E+03  0.00000000000E+00 0. -1.
</event>
<event>
 7    1  0.5667373E-006  0.5708173E+02  0.7818608E-02  0.1510749E+00
          2   -1    0    0  502    0  0.00000000000E+00  0.00000000000E+00  0.40106915981E+02  0.40106915981E+02  0.00000000000E+00 0. -1.
          1   -1    0    0  501    0 -0.00000000000E+00 -0.00000000000E+00 -0.61394553293E+03  0.61394553293E+03  0.00000000000E+00 0. -1.
         25    2    1    2    0    0  0.18478514640E+02  0.32736843042E+02 -0.40469555198E+03  0.42522467386E+03  0.12499750823E+03 0.  0.
          2    1    1    2  501    0 -0.10644286197E+02  0.25412404650E+02 -0.16789426992E+03  0.17013987484E+03  0.00000000000E+00 0. -1.
          1    1    1    2  502    0 -0.78342284429E+01 -0.58149247692E+02 -0.12487950455E+01  0.58687900214E+02  0.00000000000E+00 0. -1.
         22    1    3    3    0    0  0.40026208311E+02 -0.13172447175E+02 -0.43783210706E+02  0.60766604777E+02  0.00000000000E+00 0.  1.
         22    1    3    3    0    0 -0.21547693671E+02  0.45909290218E+02 -0.36091234128E+03  0.36445806908E+03  0.00000000000E+00 0.  1.
</event>
<event>
 7    1  0.5667373E-006  0.8561377E+02  0.7818608E-02  0.1373682E+00
          2   -1    0    0  502    0  0.00000000000E+00  0.00000000000E+00  0.48297615207E+03  0.48297615207E+03  0.00000000000E+00 0. -1.
          1   -1    0    0  501    0 -0.00000000000E+00 -0.00000000000E+00 -0.16330706939E+03  0.16330706939E+03  0.00000000000E+00 0. -1.
         25    2    1    2    0    0  0.19069099116E+02  0.12538703168E+03  0.20042811343E+03  0.26810813554E+03  0.12500002175E+03 0.  0.
          2    1    1    2  501    0  0.47128449197E+01 -0.50899846392E+02 -0.11788458138E+03  0.12849038796E+03  0.00000000000E+00 0. -1.
          1    1    1    2  502    0 -0.23781944035E+02 -0.74487185284E+02  0.23712555063E+03  0.24968469796E+03  0.00000000000E+00 0. -1.
         22    1    3    3    0    0  0.69566786029E+02  0.98542592956E+02  0.12908239440E+03  0.17667044147E+03  0.00000000000E+00 0. -1.
         22    1    3    3    0    0 -0.50497686913E+02  0.26844438720E+02  0.71345719030E+02  0.91437694075E+02  0.00000000000E+00 0. -1.
</event>
<event>
 7    1  0.5667373E-006  0.5959137E+02  0.7818608E-02  0.1419488E+00
          2   -1    0    0  502    0  0.00000000000E+00  0.00000000000E+00  0.19700537534E+04  0.19700537534E+04  0.00000000000E+00 0. -1.
          1   -1    0    0  501    0 -0.00000000000E+00 -0.00000000000E+00 -0.18801351212E+03  0.18801351212E+03  0.00000000000E+00 0. -1.
         25    2    1    2    0    0  0.23095157084E+02 -0.10514418845E+03 -0.27000202041E+02  0.16714256187E+03  0.12497575138E+03 0.  0.
          2    1    1    2  501    0  0.12350924556E+01  0.50986670711E+02 -0.83289145187E+02  0.97663953174E+02  0.00000000000E+00 0. -1.
          1    1    1    2  502    0 -0.24330249539E+02  0.54157517743E+02  0.18923295885E+04  0.18932607505E+04  0.00000000000E+00 0. -1.
         22    1    3    3    0    0  0.68102666001E+02 -0.83194574229E+02 -0.41129537478E+02  0.11511276711E+03  0.00000000000E+00 0.  1.
         22    1    3    3    0    0 -0.45007508918E+02 -0.21949614225E+02  0.14129335436E+02  0.52029794767E+02  0.00000000000E+00 0.  1.
</event>
<event>
 7    1  0.5667373E-006  0.5584730E+02  0.7818608E-02  0.1468267E+00
          2   -1    0    0  502    0  0.00000000000E+00  0.00000000000E+00  0.21482029933E+04  0.21482029933E+04  0.00000000000E+00 0. -1.
          1   -1    0    0  501    0 -0.00000000000E+00 -0.00000000000E+00 -0.34638109249E+04  0.34638109249E+04  0.00000000000E+00 0. -1.
         25    2    1    2    0    0 -0.18866026480E+02  0.24123375762E+02 -0.16812922340E+04  0.16862108203E+04  0.12500196023E+03 0.  0.
          2    1    1    2  501    0  0.56715765837E+02 -0.25334745271E+02 -0.17793503116E+04  0.17804342332E+04  0.00000000000E+00 0. -1.
          1    1    1    2  502    0 -0.37849739357E+02  0.12113695095E+01  0.21450346140E+04  0.21453688647E+04  0.00000000000E+00 0. -1.
         22    1    3    3    0    0  0.44977969587E-01  0.66547394304E+02 -0.13545467773E+04  0.13561804930E+04  0.00000000000E+00 0.  1.
         22    1    3    3    0    0 -0.18911004450E+02 -0.42424018542E+02 -0.32674545668E+03  0.33003032725E+03  0.00000000000E+00 0.  1.
</event>
<event>
 7    1  0.5667373E-006  0.1674580E+03  0.7818608E-02  0.1198337E+00
          2   -1    0    0  502    0  0.00000000000E+00  0.00000000000E+00  0.16324060721E+04  0.16324060721E+04  0.00000000000E+00 0. -1.
          1   -1    0    0  501    0 -0.00000000000E+00 -0.00000000000E+00 -0.18592936979E+03  0.18592936979E+03  0.00000000000E+00 0. -1.
         25    2    1    2    0    0  0.79942692073E+02 -0.10296104130E+01  0.15672030841E+03  0.21581942857E+03  0.12499950626E+03 0.  0.
          2    1    1    2  501    0 -0.17792686347E+03 -0.95460626572E+02 -0.86313173216E+02  0.21959203957E+03  0.00000000000E+00 0. -1.
          1    1    1    2  502    0  0.97984171398E+02  0.96490236985E+02  0.13760695671E+04  0.13829239737E+04  0.00000000000E+00 0. -1.
         22    1    3    3    0    0  0.11234430001E+03  0.32553117334E+01  0.10041213092E+03  0.15071308780E+03  0.00000000000E+00 0.  1.
         22    1    3    3    0    0 -0.32401607939E+02 -0.42849221464E+01  0.56308177495E+02  0.65106340764E+02  0.00000000000E+00 0.  1.
</event>
<event>
 7    1  0.5667373E-006  0.6628692E+02  0.7818608E-02  0.1454177E+00
          2   -1    0    0  502    0  0.00000000000E+00  0.00000000000E+00  0.52406389650E+03  0.52406389650E+03  0.00000000000E+00 0. -1.
          1   -1    0    0  501    0 -0.00000000000E+00 -0.00000000000E+00 -0.64651089599E+02  0.64651089599E+02  0.00000000000E+00 0. -1.
         25    2    1    2    0    0 -0.80070906377E+02  0.22943721482E+02  0.38102237876E+03  0.40956206597E+03  0.12500107346E+03 0.  0.
          2    1    1    2  501    0  0.32852493362E+02  0.13016771564E+02 -0.35897552130E+02  0.50372183901E+02  0.00000000000E+00 0. -1.
          1    1    1    2  502    0  0.47218413015E+02 -0.35960493047E+02  0.11428798027E+03  0.12878073623E+03  0.00000000000E+00 0. -1.
         22    1    3    3    0    0  0.32669465588E+02 -0.22953903840E+01  0.11416550054E+03  0.11877004804E+03  0.00000000000E+00 0.  1.
         22    1    3    3    0    0 -0.11274037196E+03  0.25239111866E+02  0.26685687822E+03  0.29079201793E+03  0.00000000000E+00 0.  1.
</event>
<event>
 7    1  0.5667373E-006  0.1305653E+03  0.7818608E-02  0.1364649E+00
          2   -1    0    0  502    0  0.00000000000E+00  0.00000000000E+00  0.64130265882E+03  0.64130265882E+03  0.00000000000E+00 0. -1.
          1   -1    0    0  501    0 -0.00000000000E+00 -0.00000000000E+00 -0.87352315735E+02  0.87352315735E+02  0.00000000000E+00 0. -1.
         25    2    1    2    0    0 -0.10019048794E+03  0.25070991720E+02  0.15565962968E+03  0.22476756534E+03  0.12499539837E+03 0.  0.
          2    1    1    2  501    0 -0.35845882505E+02  0.44764611570E+01 -0.34077610949E+02  0.49661348804E+02  0.00000000000E+00 0. -1.
          1    1    1    2  502    0  0.13603637045E+03 -0.29547452877E+02  0.43236832436E+03  0.45422606042E+03  0.00000000000E+00 0. -1.
         22    1    3    3    0    0  0.28392296027E+02  0.73549793266E+00  0.45852447181E+02  0.53936169158E+02  0.00000000000E+00 0. -1.
         22    1    3    3    0    0 -0.12858278397E+03  0.24335493787E+02  0.10980718250E+03  0.17083139618E+03  0.00000000000E+00 0. -1.
</event>
<event>
 7    1  0.9304593E-006  0.9073727E+02  0.7818608E-02  0.1301534E+00
          2   -1    0    0  502    0  0.00000000000E+00  0.00000000000E+00  0.80680501545E+03  0.80680501545E+03  0.00000000000E+00 0. -1.
          1   -1    0    0  501    0 -0.00000000000E+00 -0.00000000000E+00 -0.21971408294E+04  0.21971408294E+04  0.00000000000E+00 0. -1.
         25    2    1    2    0    0  0.17252030790E+02 -0.14596150630E+02 -0.42422859206E+03  0.44283939243E+03  0.12500459585E+03 0.  0.
          2    1    1    2  501    0 -0.66387562972E+02 -0.61854209642E+02 -0.17598451982E+04  0.17621828434E+04  0.00000000000E+00 0. -1.
          1    1    1    2  502    0  0.49135532182E+02  0.76450360272E+02  0.79373797631E+03  0.79892360908E+03  0.00000000000E+00 0. -1.
         22    1    3    3    0    0  0.19215386413E+02  0.45300958382E+02 -0.30963917485E+03  0.31352484193E+03  0.00000000000E+00 0.  1.
         22    1    3    3    0    0 -0.19633556237E+01 -0.59897109013E+02 -0.11458941721E+03  0.12931455050E+03  0.00000000000E+00 0.  1.
</event>
<event>
 7    1  0.5667373E-006  0.2385941E+03  0.7818608E-02  0.1200629E+00
          2   -1    0    0  502    0  0.00000000000E+00  0.00000000000E+00  0.67570717267E+03  0.67570717267E+03  0.00000000000E+00 0. -1.
          1   -1    0    0  501    0 -0.00000000000E+00 -0.00000000000E+00 -0.58428358538E+03  0.58428358538E+03  0.00000000000E+00 0. -1.
         25    2    1    2    0    0  0.54476850157E+02  0.23776899704E+03  0.94251829196E+02  0.28983789231E+03  0.12498309226E+03 0.  0.
          2    1    1    2  501    0 -0.13887221221E+03 -0.19605135613E+03 -0.45164380351E+03  0.51156988849E+03  0.00000000000E+00 0. -1.
          1    1    1    2  502    0  0.84395362049E+02 -0.41717640912E+02  0.44881556160E+03  0.45858297726E+03  0.00000000000E+00 0. -1.
         22    1    3    3    0    0  0.23088287839E+01 -0.14188082165E+02  0.14602798424E+02  0.20490829355E+02  0.00000000000E+00 0. -1.
         22    1    3    3    0    0  0.52168021373E+02  0.25195707921E+03  0.79649030773E+02  0.26934706295E+03  0.00000000000E+00 0. -1.
</event>
<event>
 7    1  0.9407172E-006  0.1024512E+03  0.7818608E-02  0.1315183E+00
          2   -1    0    0  502    0  0.00000000000E+00  0.00000000000E+00  0.17979397126E+04  0.17979397126E+04  0.00000000000E+00 0. -1.
          1   -1    0    0  501    0 -0.00000000000E+00 -0.00000000000E+00 -0.19864856696E+04  0.19864856696E+04  0.00000000000E+00 0. -1.
         25    2    1    2    0    0 -0.31272874908E+02  0.22584184079E+02 -0.77478687397E+02  0.15203896467E+03  0.12499944680E+03 0.  0.
          2    1    1    2  501    0 -0.17681083174E+02  0.68432495632E+02 -0.18695419266E+04  0.18708775060E+04  0.00000000000E+00 0. -1.
          1    1    1    2  502    0  0.48953958082E+02 -0.91016679711E+02  0.17584746570E+04  0.17615089115E+04  0.00000000000E+00 0. -1.
         22    1    3    3    0    0 -0.68415102111E+02  0.47609108468E+02 -0.35297041269E+02  0.90515935218E+02  0.00000000000E+00 0. -1.
         22    1    3    3    0    0  0.37142227203E+02 -0.25024924389E+02 -0.42181646128E+02  0.61523029447E+02  0.00000000000E+00 0. -1.
</event>
<event>
 7    1  0.5667373E-006  0.4587131E+02  0.7818608E-02  0.1547136E+00
          2   -1    0    0  502    0  0.00000000000E+00  0.00000000000E+00  0.16681217931E+04  0.16681217931E+04  0.00000000000E+00 0. -1.
          1   -1    0    0  501    0 -0.00000000000E+00 -0.00000000000E+00 -0.20118476405E+02  0.20118476405E+02  0.00000000000E+00 0. -1.
         25    2    1    2    0    0 -0.34971741871E+02  0.91392543452E+01  0.42249309172E+03  0.44207677382E+03  0.12499965082E+03 0.  0.
          2    1    1    2  501    0  0.31676598001E+02 -0.35895315073E+02  0.46152243798E+02  0.66497444407E+02  0.00000000000E+00 0. -1.
          1    1    1    2  502    0  0.32951438694E+01  0.26756060727E+02  0.11793579812E+04  0.11796660513E+04  0.00000000000E+00 0. -1.
         22    1    3    3    0    0 -0.36525333280E+01 -0.36367596117E+02  0.34487796626E+03  0.34680939240E+03  0.00000000000E+00 0.  1.
         22    1    3    3    0    0 -0.31319208543E+02  0.45506850462E+02  0.77615125454E+02  0.95267381416E+02  0.00000000000E+00 0.  1.
</event>
<event>
 7    1  0.5667373E-006  0.7279376E+02  0.7818608E-02  0.1364853E+00
          2   -1    0    0  502    0  0.00000000000E+00  0.00000000000E+00  0.14400795472E+04  0.14400795472E+04  0.00000000000E+00 0. -1.
          1   -1    0    0  501    0 -0.00000000000E+00 -0.00000000000E+00 -0.60686833262E+03  0.60686833262E+03  0.00000000000E+00 0. -1.
         25    2    1    2    0    0  0.22925598570E+01  0.12656207052E+03 -0.15030299485E+03  0.23288900837E+03  0.12499234550E+03 0.  0.
          2    1    1    2  501    0 -0.27545392708E+02 -0.58525791176E+02 -0.41180476970E+03  0.41685391354E+03  0.00000000000E+00 0. -1.
          1    1    1    2  502    0  0.25252832852E+02 -0.68036279340E+02  0.13953189792E+04  0.13972049579E+04  0.00000000000E+00 0. -1.
         22    1    3    3    0    0 -0.12561749480E+01 -0.24553018941E+02 -0.35017380534E+02  0.42786045086E+02  0.00000000000E+00 0.  1.
         22    1    3    3    0    0  0.35487348050E+01  0.15111508946E+03 -0.11528561432E+03  0.19010296328E+03  0.00000000000E+00 0.  1.
</event>
<event>
 7    1  0.5667373E-006  0.7134004E+02  0.7818608E-02  0.1412577E+00
          2   -1    0    0  502    0  0.00000000000E+00  0.00000000000E+00  0.86464704755E+02  0.86464704755E+02  0.00000000000E+00 0. -1.
          1   -1    0    0  501    0 -0.00000000000E+00 -0.00000000000E+00 -0.45461239523E+03  0.45461239523E+03  0.00000000000E+00 0. -1.
         25    2    1    2    0    0 -0.33890610869E+02  0.17142417795E+02 -0.77740610423E+02  0.15202025631E+03  0.12499647926E+03 0.  0.
          2    1    1    2  501    0 -0.30795672502E+02  0.32731967188E+02 -0.30308415359E+03  0.30639804059E+03  0.00000000000E+00 0. -1.
          1    1    1    2  502    0  0.64686283371E+02 -0.49874384983E+02  0.12677073536E+02  0.82658803084E+02  0.00000000000E+00 0. -1.
         22    1    3    3    0    0 -0.59550460356E+02  0.53899180782E+02 -0.69972655741E+02  0.10652488709E+03  0.00000000000E+00 0.  1.
         22    1    3    3    0    0  0.25659849487E+02 -0.36756762987E+02 -0.77679546820E+01  0.45495369225E+02  0.00000000000E+00 0.  1.
</event>
<event>
 7    1  0.5667373E-006  0.1328749E+03  0.7818608E-02  0.1429626E+00
          2   -1    0    0  502    0  0.00000000000E+00  0.00000000000E+00  0.52088446521E+03  0.52088446521E+03  0.00000000000E+00 0. -1.
          1   -1    0    0  501    0 -0.00000000000E+00 -0.00000000000E+00 -0.11988331613E+03  0.11988331613E+03  0.00000000000E+00 0. -1.
         25    2    1    2    0    0 -0.11690664443E+03 -0.47182438776E+02  0.62020754282E+02  0.18805562455E+03  0.12499999169E+03 0.  0.
          2    1    1    2  501    0  0.12407294365E+01 -0.21131901053E+02 -0.42930013753E+02  0.47865256005E+02  0.00000000000E+00 0. -1.
          1    1    1    2  502    0  0.11566591500E+03  0.68314339829E+02  0.38191040855E+03  0.40484690078E+03  0.00000000000E+00 0. -1.
         22    1    3    3    0    0 -0.64999638756E+02 -0.70371558623E+02  0.83699426559E+02  0.12721125464E+03  0.00000000000E+00 0.  1.
         22    1    3    3    0    0 -0.51907005677E+02  0.23189119847E+02 -0.21678672276E+02  0.60844369906E+02  0.00000000000E+00 0.  1.
</event>
<event>
 7    1  0.5667373E-006  0.8971101E+02  0.7818608E-02  0.1424491E+00
          2   -1    0    0  502    0  0.00000000000E+00  0.00000000000E+00  0.87206833479E+03  0.87206833479E+03  0.00000000000E+00 0. -1.
          1   -1    0    0  501    0 -0.00000000000E+00 -0.00000000000E+00 -0.17903062976E+03  0.17903062976E+03  0.00000000000E+00 0. -1.
         25    2    1    2    0    0 -0.80557640119E+02 -0.11896564918E+02  0.18299893855E+03  0.23610265775E+03  0.12499916739E+03 0.  0.
          2    1    1    2  501    0  0.88393665144E+02 -0.19750882883E+02 -0.13858281839E+03  0.16555583640E+03  0.00000000000E+00 0. -1.
          1    1    1    2  502    0 -0.78360250256E+01  0.31647447801E+02  0.64862158486E+03  0.64944047040E+03  0.00000000000E+00 0. -1.
         22    1    3    3    0    0 -0.77473170274E+02 -0.43433483753E+02  0.18409061186E+03  0.20439646034E+03  0.00000000000E+00 0.  1.
         22    1    3    3    0    0 -0.30844698448E+01  0.31536918835E+02 -0.10916733081E+01  0.31706197414E+02  0.00000000000E+00 0.  1.
</event>
<event>
 7    1  0.5667373E-006  0.2075232E+03  0.7818608E-02  0.1158013E+00
          2   -1    0    0  502    0  0.00000000000E+00  0.00000000000E+00  0.67866697378E+03  0.67866697378E+03  0.00000000000E+00 0. -1.
          1   -1    0    0  501    0 -0.00000000000E+00 -0.00000000000E+00 -0.10545400775E+04  0.10545400775E+04  0.00000000000E+00 0. -1.
         25    2    1    2    0    0  0.35860295978E+03 -0.10562274185E+03  0.16129163386E+03  0.42590186189E+03  0.12500063381E+03 0.  0.
          2    1    1    2  501    0 -0.18620921828E+03  0.76296700981E+02 -0.89055914924E+03  0.91301186074E+03  0.00000000000E+00 0. -1.
          1    1    1    2  502    0 -0.17239374150E+03  0.29326040873E+02  0.35339441169E+03  0.39429332862E+03  0.00000000000E+00 0. -1.
         22    1    3    3    0    0 -0.70950507622E+01 -0.61692044095E+01  0.18798737904E+02  0.21018833820E+02  0.00000000000E+00 0.  1.
         22    1    3    3    0    0  0.36569801054E+03 -0.99453537445E+02  0.14249289596E+03  0.40488302807E+03  0.00000000000E+00 0.  1.
</event>
<event>
 7    1  0.5667373E-006  0.1670797E+03  0.7818608E-02  0.1347243E+00
          2   -1    0    0  502    0  0.00000000000E+00  0.00000000000E+00  0.14574351001E+04  0.14574351001E+04  0.00000000000E+00 0. -1.
          1   -1    0    0  501    0 -0.00000000000E+00 -0.00000000000E+00 -0.32343176085E+03  0.32343176085E+03  0.00000000000E+00 0. -1.
         25    2    1    2    0    0 -0.10117958021E+03  0.10404506351E+03 -0.13353000859E+02  0.19200507055E+03  0.12499984718E+03 0.  0.
          2    1    1    2  501    0  0.11328599909E+03 -0.13442736447E+03 -0.18552136823E+03  0.25558288671E+03  0.00000000000E+00 0. -1.
          1    1    1    2  502    0 -0.12106418882E+02  0.30382300960E+02  0.13328777084E+04  0.13332789037E+04  0.00000000000E+00 0. -1.
         22    1    3    3    0    0 -0.40898581608E+02  0.95637779082E+02 -0.55573070855E+02  0.11793067866E+03  0.00000000000E+00 0. -1.
         22    1    3    3    0    0 -0.60280998601E+02  0.84072844275E+01  0.42220069995E+02  0.74074391892E+02  0.00000000000E+00 0. -1.
</event>
<event>
 7    1  0.5667373E-006  0.1838968E+03  0.7818608E-02  0.1303610E+00
          2   -1    0    0  502    0  0.00000000000E+00  0.00000000000E+00  0.13585650511E+04  0.13585650511E+04  0.00000000000E+00 0. -1.
          1   -1    0    0  501    0 -0.00000000000E+00 -0.00000000000E+00 -0.12591028210E+04  0.12591028210E+04  0.00000000000E+00 0. -1.
         25    2    1    2    0    0 -0.13481642175E+03  0.76000246359E+02 -0.20555759901E+03  0.28606208381E+03  0.12500433697E+03 0.  0.
          2    1    1    2  501    0  0.17792966848E+03 -0.68614908942E+02 -0.10039519538E+04  0.10219033703E+04  0.00000000000E+00 0. -1.
          1    1    1    2  502    0 -0.43113246724E+02 -0.73853374172E+01  0.13089717829E+04  0.13097024180E+04  0.00000000000E+00 0. -1.
         22    1    3    3    0    0 -0.77585132819E+02 -0.11977144658E-01 -0.16558075395E+03  0.18285633447E+03  0.00000000000E+00 0.  1.
         22    1    3    3    0    0 -0.57231288936E+02  0.76012223504E+02 -0.39976845058E+02  0.10320574934E+03  0.00000000000E+00 0.  1.
</event>
<event>
 7    1  0.5667373E-006  0.4150412E+02  0.7818608E-02  0.1514941E+00
          2   -1    0    0  502    0  0.00000000000E+00  0.00000000000E+00  0.11114378285E+04  0.11114378285E+04  0.00000000000E+00 0. -1.
          1   -1    0    0  501    0 -0.00000000000E+00 -0.00000000000E+00 -0.95956294927E+02  0.95956294927E+02  0.00000000000E+00 0. -1.
         25    2    1    2    0    0  0.39732408501E+02 -0.63091838262E+02 -0.21207923861E+02  0.14708859842E+03  0.12500414157E+03 0.  0.
          2    1    1    2  501    0 -0.28546745491E+02  0.23278889676E+02  0.18397024609E+02  0.41173703952E+02  0.00000000000E+00 0. -1.
          1    1    1    2  502    0 -0.11185663010E+02  0.39812948587E+02  0.10182924328E+04  0.10191318210E+04  0.00000000000E+00 0. -1.
         22    1    3    3    0    0 -0.37511982765E+02  0.96197389590E+01 -0.12298660308E+02  0.40631825875E+02  0.00000000000E+00 0. -1.
         22    1    3    3    0    0  0.77244391266E+02 -0.72711577221E+02 -0.89092635528E+01  0.10645677255E+03  0.00000000000E+00 0. -1.
</event>
<event>
 7    1  0.5667373E-006  0.4016031E+02  0.7818608E-02  0.1590376E+00
          2   -1    0    0  502    0  0.00000000000E+00  0.00000000000E+00  0.60282375611E+03  0.60282375611E+03  0.00000000000E+00 0. -1.
          1   -1    0    0  501    0 -0.00000000000E+00 -0.00000000000E+00 -0.35064333978E+03  0.35064333978E+03  0.00000000000E+00 0. -1.
         25    2    1    2    0    0  0.27203703911E+02  0.56702823963E+02 -0.59295910018E+02  0.15197533585E+03  0.12500098404E+03 0.  0.
          2    1    1    2  501    0 -0.13780423033E+02 -0.19014141736E+02 -0.24372357741E+03  0.24485224081E+03  0.00000000000E+00 0. -1.
          1    1    1    2  502    0 -0.13423280877E+02 -0.37688682227E+02  0.55519990375E+03  0.55663951923E+03  0.00000000000E+00 0. -1.
         22    1    3    3    0    0 -0.13880208076E+02 -0.33709240293E+02 -0.33170856700E+02  0.49287714409E+02  0.00000000000E+00 0.  1.
         22    1    3    3    0    0  0.41083911987E+02  0.90412064256E+02 -0.26125053317E+02  0.10268762145E+03  0.00000000000E+00 0.  1.
</event>
<event>
 7    1  0.5667373E-006  0.5719452E+02  0.7818608E-02  0.1416143E+00
          2   -1    0    0  502    0  0.00000000000E+00  0.00000000000E+00  0.48652914296E+03  0.48652914296E+03  0.00000000000E+00 0. -1.
          1   -1    0    0  501    0 -0.00000000000E+00 -0.00000000000E+00 -0.69628230956E+02  0.69628230956E+02  0.00000000000E+00 0. -1.
         25    2    1    2    0    0  0.12020287952E+02 -0.71074616612E+02  0.38114158140E+02  0.14924254230E+03  0.12499823571E+03 0.  0.
          2    1    1    2  501    0 -0.47514076214E+02  0.29680011821E+02  0.54787611128E+02  0.78359255186E+02  0.00000000000E+00 0. -1.
          1    1    1    2  502    0  0.35493788262E+02  0.41394604790E+02  0.32399914274E+03  0.32855557643E+03  0.00000000000E+00 0. -1.
         22    1    3    3    0    0  0.27851618251E+02 -0.39826567486E+01  0.68391058314E+02  0.73952086186E+02  0.00000000000E+00 0.  1.
         22    1    3    3    0    0 -0.15831330300E+02 -0.67091959863E+02 -0.30276900174E+02  0.75290456111E+02  0.00000000000E+00 0.  1.
</event>
<event>
 7    1  0.5667373E-006  0.5958367E+02  0.7818608E-02  0.1504513E+00
          2   -1    0    0  502    0  0.00000000000E+00  0.00000000000E+00  0.25023314723E+03  0.25023314723E+03  0.00000000000E+00 0. -1.
          1   -1    0    0  501    0 -0.00000000000E+00 -0.00000000000E+00 -0.10328611525E+03  0.10328611525E+03  0.00000000000E+00 0. -1.
         25    2    1    2    0    0  0.14496786037E+02  0.62160682960E+02 -0.27931587291E+02  0.14310747666E+03  0.12500187597E+03 0.  0.
          2    1    1    2  501    0 -0.36620303059E+02 -0.45762582536E+02  0.35901593019E+02  0.68732706464E+02  0.00000000000E+00 0. -1.
          1    1    1    2  502    0  0.22123517022E+02 -0.16398100424E+02  0.13897702625E+03  0.14167907936E+03  0.00000000000E+00 0. -1.
         22    1    3    3    0    0  0.48955460508E+02 -0.18741047213E+02 -0.10242130336E+02  0.53411283434E+02  0.00000000000E+00 0.  1.
         22    1    3    3    0    0 -0.34458674472E+02  0.80901730173E+02 -0.17689456956E+02  0.89696193223E+02  0.00000000000E+00 0.  1.
</event>
<event>
 7    1  0.5667373E-006  0.5226299E+02  0.7818608E-02  0.1459947E+00
          2   -1    0    0  502    0  0.00000000000E+00  0.00000000000E+00  0.28655785593E+03  0.28655785593E+03  0.00000000000E+00 0. -1.
          1   -1    0    0  501    0 -0.00000000000E+00 -0.00000000000E+00 -0.11160183220E+04  0.11160183220E+04  0.00000000000E+00 0. -1.
         25    2    1    2    0    0  0.80814619825E+01 -0.26529602246E+02  0.15404258776E+03  0.20030604037E+03  0.12499704454E+03 0.  0.
          2    1    1    2  501    0 -0.49807203748E+02  0.16253959674E+02 -0.10880112408E+04  0.10892719628E+04  0.00000000000E+00 0. -1.
          1    1    1    2  502    0  0.41725741766E+02  0.10275642572E+02  0.10450818699E+03  0.11299817478E+03  0.00000000000E+00 0. -1.
         22    1    3    3    0    0 -0.44755963132E+00 -0.34844024522E+00 -0.22058211885E+02  0.22065503207E+02  0.00000000000E+00 0. -1.
         22    1    3    3    0    0  0.85290216138E+01 -0.26181162000E+02  0.17610079965E+03  0.17824053717E+03  0.00000000000E+00 0. -1.
</event>
<event>
 7    1  0.5667373E-006  0.1245348E+03  0.7818608E-02  0.1272065E+00
          2   -1    0    0  502    0  0.00000000000E+00  0.00000000000E+00  0.84726624793E+03  0.84726624793E+03  0.00000000000E+00 0. -1.
          1   -1    0    0  501    0 -0.00000000000E+00 -0.00000000000E+00 -0.12001905984E+03  0.12001905984E+03  0.00000000000E+00 0. -1.
         25    2    1    2    0    0  0.65621036390E+02  0.58176342820E+02  0.69843009278E+02  0.16790804580E+03  0.12499783446E+03 0.  0.
          2    1    1    2  501    0 -0.15125384523E+03 -0.43493396744E+02  0.23003931647E+02  0.15905528011E+03  0.00000000000E+00 0. -1.
          1    1    1    2  502    0  0.85632808844E+02 -0.14682946076E+02  0.63440024717E+03  0.64032198187E+03  0.00000000000E+00 0. -1.
         22    1    3    3    0    0  0.18820955619E+02  0.61056113355E+02  0.95161706616E+02  0.11462036361E+03  0.00000000000E+00 0. -1.
         22    1    3    3    0    0  0.46800080771E+02 -0.28797705344E+01 -0.25318697338E+02  0.53287682192E+02  0.00000000000E+00 0. -1.
</event>
<event>
 7    1  0.5667373E-006  0.1058258E+03  0.7818608E-02  0.1444643E+00
          2   -1    0    0  502    0  0.00000000000E+00  0.00000000000E+00  0.22719722578E+04  0.22719722578E+04  0.00000000000E+00 0. -1.
          1   -1    0    0  501    0 -0.00000000000E+00 -0.00000000000E+00 -0.63547683209E+02  0.63547683209E+02  0.00000000000E+00 0. -1.
         25    2    1    2    0    0  0.65017053130E+02  0.84244326360E+02  0.69543195119E+03  0.71454522319E+03  0.12499981409E+03 0.  0.
          2    1    1    2  501    0 -0.81761723947E+02 -0.67406620073E+02 -0.18151938184E+01  0.10598078534E+03  0.00000000000E+00 0. -1.
          1    1    1    2  502    0  0.16744670817E+02 -0.16837706286E+02  0.15148078172E+04  0.15149939325E+04  0.00000000000E+00 0. -1.
         22    1    3    3    0    0 -0.19782343044E+01  0.24225382096E+02  0.48608937530E+03  0.48669668515E+03  0.00000000000E+00 0.  1.
         22    1    3    3    0    0  0.66995287435E+02  0.60018944264E+02  0.20934257589E+03  0.22784853804E+03  0.00000000000E+00 0.  1.
</event>
<event>
 7    1  0.5667373E-006  0.1340479E+03  0.7818608E-02  0.1284110E+00
          2   -1    0    0  502    0  0.00000000000E+00  0.00000000000E+00  0.47502427282E+03  0.47502427282E+03  0.00000000000E+00 0. -1.
          1   -1    0    0  501    0 -0.00000000000E+00 -0.00000000000E+00 -0.53096280893E+03  0.53096280893E+03  0.00000000000E+00 0. -1.
         25    2    1    2    0    0 -0.15744538840E+03  0.21152838022E+01 -0.53137547578E+02  0.20794785639E+03  0.12500074904E+03 0.  0.
          2    1    1    2  501    0  0.11748125825E+03 -0.61946599434E+02 -0.38596581170E+03  0.40817745531E+03  0.00000000000E+00 0. -1.
          1    1    1    2  502    0  0.39964130148E+02  0.59831315631E+02  0.38316482317E+03  0.38986177004E+03  0.00000000000E+00 0. -1.
         22    1    3    3    0    0 -0.10351472617E+03 -0.20202433323E+02 -0.90225449511E+02  0.13879505966E+03  0.00000000000E+00 0. -1.
         22    1    3    3    0    0 -0.53930662234E+02  0.22317717125E+02  0.37087901933E+02  0.69152796737E+02  0.00000000000E+00 0. -1.
</event>
<event>
 7    1  0.5667373E-006  0.9691932E+02  0.7818608E-02  0.1347763E+00
          2   -1    0    0  502    0  0.00000000000E+00  0.00000000000E+00  0.87764355381E+03  0.87764355381E+03  0.00000000000E+00 0. -1.
          1   -1    0    0  501    0 -0.00000000000E+00 -0.00000000000E+00 -0.12669039498E+03  0.12669039498E+03  0.00000000000E+00 0. -1.
         25    2    1    2    0    0 -0.47653054840E+01  0.50192866784E+02  0.19547309857E+03  0.23743716806E+03  0.12499857798E+03 0.  0.
          2    1    1    2  501    0 -0.62701486225E+01  0.55779466988E+02 -0.93594491452E+02  0.10913566114E+03  0.00000000000E+00 0. -1.
          1    1    1    2  502    0  0.11035454106E+02 -0.10597233377E+03  0.64907455171E+03  0.65776111959E+03  0.00000000000E+00 0. -1.
         22    1    3    3    0    0 -0.43348817880E+02  0.71875786018E+02  0.90060871411E+02  0.12311055676E+03  0.00000000000E+00 0.  1.
         22    1    3    3    0    0  0.38583512396E+02 -0.21682919234E+02  0.10541222716E+03  0.11432661129E+03  0.00000000000E+00 0.  1.
</event>
<event>
 7    1  0.5667373E-006  0.7470784E+02  0.7818608E-02  0.1370436E+00
          2   -1    0    0  502    0  0.00000000000E+00  0.00000000000E+00  0.29847346405E+03  0.29847346405E+03  0.00000000000E+00 0. -1.
          1   -1    0    0  501    0 -0.00000000000E+00 -0.00000000000E+00 -0.33161896282E+03  0.33161896282E+03  0.00000000000E+00 0. -1.
         25    2    1    2    0    0 -0.81767841464E+02 -0.83902672395E+02 -0.33297714449E+02  0.17451482008E+03  0.12498418423E+03 0.  0.
          2    1    1    2  501    0  0.13397408465E+02  0.58659527262E+02 -0.21769756488E+03  0.22585982478E+03  0.00000000000E+00 0. -1.
          1    1    1    2  502    0  0.68370432999E+02  0.25243145134E+02  0.21784978056E+03  0.22971778202E+03  0.00000000000E+00 0. -1.
         22    1    3    3    0    0 -0.50705172358E+02 -0.11570015964E+03 -0.18535338174E+02  0.12767576202E+03  0.00000000000E+00 0. -1.
         22    1    3    3    0    0 -0.31062669106E+02  0.31797487246E+02 -0.14762376275E+02  0.46839058065E+02  0.00000000000E+00 0. -1.
</event>
<event>
 7    1  0.5667373E-006  0.7601333E+02  0.7818608E-02  0.1413230E+00
          2   -1    0    0  502    0  0.00000000000E+00  0.00000000000E+00  0.12822477613E+03  0.12822477613E+03  0.00000000000E+00 0. -1.
          1   -1    0    0  501    0 -0.00000000000E+00 -0.00000000000E+00 -0.91801066473E+03  0.91801066473E+03  0.00000000000E+00 0. -1.
         25    2    1    2    0    0  0.17726751088E+02  0.46405845634E+02 -0.79131155143E+03  0.80266191919E+03  0.12499777952E+03 0.  0.
          2    1    1    2  501    0 -0.30247361007E+02  0.29088935718E+02 -0.10461736535E+03  0.11272028283E+03  0.00000000000E+00 0. -1.
          1    1    1    2  502    0  0.12520609918E+02 -0.75494781352E+02  0.10614302818E+03  0.13085323884E+03  0.00000000000E+00 0. -1.
         22    1    3    3    0    0 -0.49477430069E+02  0.13317334997E+02 -0.46747009413E+03  0.47026976982E+03  0.00000000000E+00 0.  1.
         22    1    3    3    0    0  0.67204181158E+02  0.33088510637E+02 -0.32384145729E+03  0.33239214937E+03  0.00000000000E+00 0.  1.
</event>
<event>
 7    1  0.5667373E-006  0.4986999E+02  0.7818608E-02  0.1472706E+00
          2   -1    0    0  502    0  0.00000000000E+00  0.00000000000E+00  0.10543033844E+03  0.10543033844E+03  0.00000000000E+00 0. -1.
          1   -1    0    0  501    0 -0.00000000000E+00 -0.00000000000E+00 -0.33655664914E+03  0.33655664914E+03  0.00000000000E+00 0. -1.
         25    2    1    2    0    0  0.23199049519E+02  0.22061857777E+02  0.75912936695E+01  0.12925733017E+03  0.12499963278E+03 0.  0.
          2    1    1    2  501    0  0.63777436348E+01 -0.50573776503E+02 -0.26104308419E+03  0.26597344658E+03  0.00000000000E+00 0. -1.
          1    1    1    2  502    0 -0.29576793154E+02  0.28511918726E+02  0.22325479819E+02  0.46756210837E+02  0.00000000000E+00 0. -1.
         22    1    3    3    0    0  0.38205482753E+02  0.42045598836E+01 -0.52345680579E+02  0.64941569980E+02  0.00000000000E+00 0. -1.
         22    1    3    3    0    0 -0.15006433234E+02  0.17857297893E+02  0.59936974249E+02  0.64315760188E+02  0.00000000000E+00 0. -1.
</event>
<event>
 7    1  0.5667373E-006  0.1054850E+03  0.7818608E-02  0.1307298E+00
          2   -1    0    0  502    0  0.00000000000E+00  0.00000000000E+00  0.21939251760E+04  0.21939251760E+04  0.00000000000E+00 0. -1.
          1   -1    0    0  501    0 -0.00000000000E+00 -0.00000000000E+00 -0.14214029136E+04  0.14214029136E+04  0.00000000000E+00 0. -1.
         25    2    1    2    0    0  0.12495297571E+02 -0.12264447450E+03  0.11393033080E+03  0.20929042098E+03  0.12499824179E+03 0.  0.
          2    1    1    2  501    0 -0.66499174745E+02  0.31839160809E+02 -0.13713588819E+04  0.13733393809E+04  0.00000000000E+00 0. -1.
          1    1    1    2  502    0  0.54003877174E+02  0.90805313694E+02  0.20299508135E+04  0.20326982877E+04  0.00000000000E+00 0. -1.
         22    1    3    3    0    0  0.20740644949E+02 -0.81975430581E+02 -0.36146743993E+01  0.84635757472E+02  0.00000000000E+00 0. -1.
         22    1    3    3    0    0 -0.82453473783E+01 -0.40669043922E+02  0.11754500520E+03  0.12465466350E+03  0.00000000000E+00 0. -1.
</event>
<event>
 7    1  0.5667373E-006  0.4252785E+02  0.7818608E-02  0.1542978E+00
          2   -1    0    0  502    0  0.00000000000E+00  0.00000000000E+00  0.28987287047E+04  0.28987287047E+04  0.00000000000E+00 0. -1.
          1   -1    0    0  501    0 -0.00000000000E+00 -0.00000000000E+00 -0.87765085712E+01  0.87765085712E+01  0.00000000000E+00 0. -1.
         25    2    1    2    0    0 -0.12473487067E+02 -0.48924803633E+02  0.14413084893E+04  0.14475991998E+04  0.12499622994E+03 0.  0.
          2    1    1    2  501    0 -0.15879475767E+02  0.39526998370E+02  0.77485782602E+02  0.88422779057E+02  0.00000000000E+00 0. -1.
          1    1    1    2  502    0  0.28352962834E+02  0.93978052631E+01  0.13711579242E+04  0.13714832344E+04  0.00000000000E+00 0. -1.
         22    1    3    3    0    0 -0.30066171179E+02  0.32428846751E+02  0.74915314285E+03  0.75045721809E+03  0.00000000000E+00 0.  1.
         22    1    3    3    0    0  0.17592684112E+02 -0.81353650384E+02  0.69215534647E+03  0.69714198168E+03  0.00000000000E+00 0.  1.
</event>
<event>
 7    1  0.5667373E-006  0.1347354E+03  0.7818608E-02  0.1296302E+00
          2   -1    0    0  502    0  0.00000000000E+00  0.00000000000E+00  0.13103021361E+04  0.13103021361E+04  0.00000000000E+00 0. -1.
          1   -1    0    0  501    0 -0.00000000000E+00 -0.00000000000E+00 -0.58029968155E+02  0.58029968155E+02  0.00000000000E+00 0. -1.
         25    2    1    2    0    0 -0.75692681668E+02  0.55772414513E+02  0.24227597476E+03  0.28838872600E+03  0.12502185834E+03 0.  0.
          2    1    1    2  501    0 -0.62622628950E+02 -0.12519268494E+02  0.44595940385E+01  0.64017292346E+02  0.00000000000E+00 0. -1.
          1    1    1    2  502    0  0.13831531062E+03 -0.43253146018E+02  0.10055365992E+04  0.10159260859E+04  0.00000000000E+00 0. -1.
         22    1    3    3    0    0 -0.97545831925E+02  0.57115701199E+02  0.12272603339E+03  0.16685044777E+03  0.00000000000E+00 0.  1.
         22    1    3    3    0    0  0.21853150258E+02 -0.13432866869E+01  0.11954994137E+03  0.12153827823E+03  0.00000000000E+00 0.  1.
</event>
<event>
 7    1  0.5667373E-006  0.1443889E+03  0.7818608E-02  0.1302837E+00
          2   -1    0    0  502    0  0.00000000000E+00  0.00000000000E+00  0.23453184852E+04  0.23453184852E+04  0.00000000000E+00 0. -1.
          1   -1    0    0  501    0 -0.00000000000E+00 -0.00000000000E+00 -0.15536650550E+03  0.15536650550E+03  0.00000000000E+00 0. -1.
         25    2    1    2    0    0  0.13184028062E+03  0.99845600864E+02  0.93151577734E+01  0.20751541023E+03  0.12499947885E+03 0.  0.
          2    1    1    2  501    0 -0.76322815578E+02 -0.10795035493E+03  0.22264001139E+02  0.13406765849E+03  0.00000000000E+00 0. -1.
          1    1    1    2  502    0 -0.55517465043E+02  0.81047540623E+01  0.21583728208E+04  0.21591019220E+04  0.00000000000E+00 0. -1.
         22    1    3    3    0    0  0.39972735766E+02  0.10237565699E+03  0.28705764180E+02  0.11358968107E+03  0.00000000000E+00 0.  1.
         22    1    3    3    0    0  0.91867544854E+02 -0.25300561261E+01 -0.19390606406E+02  0.93925729161E+02  0.00000000000E+00 0.  1.
</event>
<event>
 7    1  0.5667373E-006  0.1464236E+03  0.7818608E-02  0.1272407E+00
          2   -1    0    0  502    0  0.00000000000E+00  0.00000000000E+00  0.12683021682E+04  0.12683021682E+04  0.00000000000E+00 0. -1.
          1   -1    0    0  501    0 -0.00000000000E+00 -0.00000000000E+00 -0.82746550192E+03  0.82746550192E+03  0.00000000000E+00 0. -1.
         25    2    1    2    0    0 -0.17378031860E+03 -0.70226636936E+01 -0.44569287814E+03  0.49448717577E+03  0.12500603363E+03 0.  0.
          2    1    1    2  501    0  0.12256122415E+03  0.59948308224E+02 -0.34321135834E+03  0.36933601208E+03  0.00000000000E+00 0. -1.
          1    1    1    2  502    0  0.51219094452E+02 -0.52925644530E+02  0.12297409028E+04  0.12319444823E+04  0.00000000000E+00 0. -1.
         22    1    3    3    0    0 -0.16264302551E+03 -0.30297482686E+02 -0.43698636783E+03  0.46725557982E+03  0.00000000000E+00 0.  1.
         22    1    3    3    0    0 -0.11137293087E+02  0.23274818992E+02 -0.87065103105E+01  0.27231595954E+02  0.00000000000E+00 0.  1.
</event>
<event>
 7    1  0.5667373E-006  0.1187654E+03  0.7818608E-02  0.1306517E+00
          2   -1    0    0  502    0  0.00000000000E+00  0.00000000000E+00  0.73233748740E+02  0.73233748740E+02  0.00000000000E+00 0. -1.
          1   -1    0    0  501    0 -0.00000000000E+00 -0.00000000000E+00 -0.82460370214E+03  0.82460370214E+03  0.00000000000E+00 0. -1.
         25    2    1    2    0    0  0.12410103057E+03 -0.13067522231E+02 -0.29659067253E+03  0.34520146231E+03  0.12500478641E+03 0.  0.
          2    1    1    2  501    0 -0.14659997329E+02  0.64302130044E+02 -0.42242097305E+03  0.42753848707E+03  0.00000000000E+00 0. -1.
          1    1    1    2  502    0 -0.10944103325E+03 -0.51234607813E+02 -0.32358307817E+02  0.12509750150E+03  0.00000000000E+00 0. -1.
         22    1    3    3    0    0  0.11087639271E+03  0.17414916184E+02 -0.11535887143E+03  0.16094882101E+03  0.00000000000E+00 0.  1.
         22    1    3    3    0    0  0.13224637861E+02 -0.30482438415E+02 -0.18123180109E+03  0.18425264130E+03  0.00000000000E+00 0.  1.
</event>
<event>
 7    1  0.5667373E-006  0.5522797E+02  0.7818608E-02  0.1489228E+00
          2   -1    0    0  502    0  0.00000000000E+00  0.00000000000E+00  0.13265630404E+04  0.13265630404E+04  0.00000000000E+00 0. -1.
          1   -1    0    0  501    0 -0.00000000000E+00 -0.00000000000E+00 -0.72466421628E+03  0.72466421628E+03  0.00000000000E+00 0. -1.
         25    2    1    2    0    0  0.58107260054E+02 -0.83422397106E+01 -0.23672986243E+03  0.27406846017E+03  0.12500578569E+03 0.  0.
          2    1    1    2  501    0 -0.50391489956E+02 -0.23758500141E+02 -0.46740218088E+03  0.47071070445E+03  0.00000000000E+00 0. -1.
          1    1    1    2  502    0 -0.77157700985E+01  0.32100739852E+02  0.13060308674E+04  0.13064480921E+04  0.00000000000E+00 0. -1.
         22    1    3    3    0    0  0.79457782221E+02  0.34761731238E+02 -0.17915695606E+03  0.19904555262E+03  0.00000000000E+00 0.  1.
         22    1    3    3    0    0 -0.21350522167E+02 -0.43103970949E+02 -0.57572906370E+02  0.75022907543E+02  0.00000000000E+00 0.  1.
</event>
<event>
 7    1  0.5667373E-006  0.5006591E+02  0.7818608E-02  0.1528418E+00
          2   -1    0    0  502    0  0.00000000000E+00  0.00000000000E+00  0.27357475596E+03  0.27357475596E+03  0.00000000000E+00 0. -1.
          1   -1    0    0  501    0 -0.00000000000E+00 -0.00000000000E+00 -0.62880630654E+03  0.62880630654E+03  0.00000000000E+00 0. -1.
         25    2    1    2    0    0 -0.40072119826E+02  0.10623571736E+02 -0.17860474131E+03  0.22190824529E+03  0.12499992259E+03 0.  0.
          2    1    1    2  501    0 -0.74840642066E+01 -0.26888093049E+02 -0.42558130665E+03  0.42649552088E+03  0.00000000000E+00 0. -1.
          1    1    1    2  502    0  0.47556184033E+02  0.16264521314E+02  0.24895449737E+03  0.25397729634E+03  0.00000000000E+00 0. -1.
         22    1    3    3    0    0 -0.47111747551E+02  0.41522916929E+01 -0.44633496941E+01  0.47504523723E+02  0.00000000000E+00 0.  1.
         22    1    3    3    0    0  0.70396277249E+01  0.64712800426E+01 -0.17414139161E+03  0.17440372157E+03  0.00000000000E+00 0.  1.
</event>
<event>
 7    1  0.5667373E-006  0.1299451E+03  0.7818608E-02  0.1298036E+00
          2   -1    0    0  502    0  0.00000000000E+00  0.00000000000E+00  0.50985376422E+03  0.50985376422E+03  0.00000000000E+00 0. -1.
          1   -1    0    0  501    0 -0.00000000000E+00 -0.00000000000E+00 -0.12996100510E+04  0.12996100510E+04  0.00000000000E+00 0. -1.
         25    2    1    2    0    0 -0.50746224219E+02  0.10741188389E+03 -0.28461594814E+03  0.33278072134E+03  0.12499711393E+03 0.  0.
          2    1    1    2  501    0 -0.56422916412E+02 -0.32595465678E+02 -0.98101971861E+03  0.98318141672E+03  0.00000000000E+00 0. -1.
          1    1    1    2  502    0  0.10716914063E+03 -0.74816418211E+02  0.47587937993E+03  0.49350167718E+03  0.00000000000E+00 0. -1.
         22    1    3    3    0    0  0.30118284472E+02  0.67520009267E+02 -0.18045525313E+03  0.19501323312E+03  0.00000000000E+00 0.  1.
         22    1    3    3    0    0 -0.80864508691E+02  0.39891874622E+02 -0.10416069501E+03  0.13776748823E+03  0.00000000000E+00 0.  1.
</event>
<event>
 7    1  0.5667373E-006  0.1418793E+03  0.7818608E-02  0.1250974E+00
          2   -1    0    0  502    0  0.00000000000E+00  0.00000000000E+00  0.16789379023E+04  0.16789379023E+04  0.00000000000E+00 0. -1.
          1   -1    0    0  501    0 -0.00000000000E+00 -0.00000000000E+00 -0.20644969420E+04  0.20644969420E+04  0.00000000000E+00 0. -1.
         25    2    1    2    0    0  0.21357553161E+03 -0.84685113299E+02  0.18192676515E+03  0.31860333638E+03  0.12499864783E+03 0.  0.
          2    1    1    2  501    0 -0.81190508011E+02  0.46931371212E+02 -0.19917366233E+04  0.19939431358E+04  0.00000000000E+00 0. -1.
          1    1    1    2  502    0 -0.13238502360E+03  0.37753742087E+02  0.14242508184E+04  0.14308883721E+04  0.00000000000E+00 0. -1.
         22    1    3    3    0    0  0.22022769230E+03 -0.73845370637E+02  0.19280096613E+03  0.30187015050E+03  0.00000000000E+00 0. -1.
         22    1    3    3    0    0 -0.66521606914E+01 -0.10839742662E+02 -0.10874200981E+02  0.16733185884E+02  0.00000000000E+00 0. -1.
</event>
<event>
 7    1  0.5667373E-006  0.1121492E+03  0.7818608E-02  0.1303022E+00
          2   -1    0    0  502    0  0.00000000000E+00  0.00000000000E+00  0.19823130171E+03  0.19823130171E+03  0.00000000000E+00 0. -1.
          1   -1    0    0  501    0 -0.00000000000E+00 -0.00000000000E+00 -0.17129316238E+04  0.17129316238E+04  0.00000000000E+00 0. -1.
         25    2    1    2    0    0 -0.10107663508E+03  0.61189390840E+02 -0.15351401098E+03  0.23054794191E+03  0.12500069698E+03 0.  0.
          2    1    1    2  501    0  0.43326824168E+02 -0.10437719944E+03 -0.15105409072E+04  0.15147625708E+04  0.00000000000E+00 0. -1.
          1    1    1    2  502    0  0.57749810907E+02  0.43187808602E+02  0.14935459609E+03  0.16585241284E+03  0.00000000000E+00 0. -1.
         22    1    3    3    0    0 -0.59920293978E+02  0.28776290592E+02  0.19438999572E+01  0.66500340434E+02  0.00000000000E+00 0. -1.
         22    1    3    3    0    0 -0.41156341097E+02  0.32413100247E+02 -0.15545791093E+03  0.16404760148E+03  0.00000000000E+00 0. -1.
</event>
<event>
 7    1  0.5667373E-006  0.1025015E+03  0.7818608E-02  0.1465849E+00
          2   -1    0    0  502    0  0.00000000000E+00  0.00000000000E+00  0.14463061201E+04  0.14463061201E+04  0.00000000000E+00 0. -1.
          1   -1    0    0  501    0 -0.00000000000E+00 -0.00000000000E+00 -0.21905963233E+03  0.21905963233E+03  0.00000000000E+00 0. -1.
         25    2    1    2    0    0  0.18428341521E+02 -0.12117509711E+03  0.94709692893E+02  0.19904409986E+03  0.12500247929E+03 0.  0.
          2    1    1    2  501    0 -0.78743543136E+00  0.20979848189E+02 -0.16423184553E+03  0.16556833384E+03  0.00000000000E+00 0. -1.
          1    1    1    2  502    0 -0.17640906090E+02  0.10019524892E+03  0.12967686404E+04  0.13007533188E+04  0.00000000000E+00 0. -1.
         22    1    3    3    0    0 -0.26163349996E+02 -0.51855121080E+01  0.66453218640E+02  0.71606149781E+02  0.00000000000E+00 0.  1.
         22    1    3    3    0    0  0.44591691517E+02 -0.11598958501E+03  0.28256474253E+02  0.12743795008E+03  0.00000000000E+00 0.  1.
</event>
<event>
 7    1  0.5667373E-006  0.9222031E+02  0.7818608E-02  0.1333157E+00
          2   -1    0    0  502    0  0.00000000000E+00  0.00000000000E+00  0.84729410648E+03  0.84729410648E+03  0.00000000000E+00 0. -1.
          1   -1    0    0  501    0 -0.00000000000E+00 -0.00000000000E+00 -0.88404878849E+02  0.88404878849E+02  0.00000000000E+00 0. -1.
         25    2    1    2    0    0  0.21551186582E+02 -0.13441520480E+03  0.82507444562E+02  0.20239662705E+03  0.12500006124E+03 0.  0.
          2    1    1    2  501    0  0.29928649688E+02  0.59878736461E+02  0.18829170823E+02  0.69539376084E+02  0.00000000000E+00 0. -1.
          1    1    1    2  502    0 -0.51479836270E+02  0.74536468342E+02  0.65755261224E+03  0.66376298219E+03  0.00000000000E+00 0. -1.
         22    1    3    3    0    0 -0.45422152937E+02 -0.18615000628E+02  0.35598485953E+02  0.60637797025E+02  0.00000000000E+00 0.  1.
         22    1    3    3    0    0  0.66973339519E+02 -0.11580020418E+03  0.46908958609E+02  0.14175883003E+03  0.00000000000E+00 0.  1.
</event>
<event>
 7    1  0.5667373E-006  0.8915556E+02  0.7818608E-02  0.1311900E+00
          2   -1    0    0  502    0  0.00000000000E+00  0.00000000000E+00  0.66756019332E+03  0.66756019332E+03  0.00000000000E+00 0. -1.
          1   -1    0    0  501    0 -0.00000000000E+00 -0.00000000000E+00 -0.19836869964E+03  0.19836869964E+03  0.00000000000E+00 0. -1.
         25    2    1    2    0    0 -0.10618877368E+03  0.12234818797E+02  0.65118307971E+02  0.17689187698E+03  0.12499838263E+03 0.  0.
          2    1    1    2  501    0  0.55547655356E+02  0.62560563534E+02 -0.12604226155E+03  0.15128125403E+03  0.00000000000E+00 0. -1.
          1    1    1    2  502    0  0.50641118320E+02 -0.74795382332E+02  0.53011544726E+03  0.53775576195E+03  0.00000000000E+00 0. -1.
         22    1    3    3    0    0  0.23010643141E+02 -0.18206308660E+02  0.70328114189E+00  0.29350536233E+02  0.00000000000E+00 0.  1.
         22    1    3    3    0    0 -0.12919941682E+03  0.30441127458E+02  0.64415026829E+02  0.14754134074E+03  0.00000000000E+00 0.  1.
</event>
<event>
 7    1  0.5667373E-006  0.9258472E+02  0.7818608E-02  0.1306038E+00
          2   -1    0    0  502    0  0.00000000000E+00  0.00000000000E+00  0.61772616664E+03  0.61772616664E+03  0.00000000000E+00 0. -1.
          1   -1    0    0  501    0 -0.00000000000E+00 -0.00000000000E+00 -0.10697966229E+04  0.10697966229E+04  0.00000000000E+00 0. -1.
         25    2    1    2    0    0 -0.79035395375E+01  0.43091649057E+01 -0.66885550486E+03  0.68049461324E+03  0.12499678965E+03 0.  0.
          2    1    1    2  501    0 -0.84964751808E+02  0.11843130094E+01 -0.38694872329E+03  0.39616881011E+03  0.00000000000E+00 0. -1.
          1    1    1    2  502    0  0.92868291345E+02 -0.54934779151E+01  0.60373377193E+03  0.61085936615E+03  0.00000000000E+00 0. -1.
         22    1    3    3    0    0  0.19348422843E+02  0.23860568403E+01 -0.11627823114E+02  0.22699361315E+02  0.00000000000E+00 0. -1.
         22    1    3    3    0    0 -0.27251962380E+02  0.19231080654E+01 -0.65722768175E+03  0.65779525192E+03  0.00000000000E+00 0. -1.
</event>
<event>
 7    1  0.5667373E-006  0.5572766E+02  0.7818608E-02  0.1456200E+00
          2   -1    0    0  502    0  0.00000000000E+00  0.00000000000E+00  0.85250205323E+02  0.85250205323E+02  0.00000000000E+00 0. -1.
          1   -1    0    0  501    0 -0.00000000000E+00 -0.00000000000E+00 -0.12962368386E+04  0.12962368386E+04  0.00000000000E+00 0. -1.
         25    2    1    2    0    0  0.31697806743E+01 -0.18696112578E+02 -0.38951527668E+03  0.40951981385E+03  0.12499894011E+03 0.  0.
          2    1    1    2  501    0 -0.24816597942E+02  0.54004362620E+02 -0.88995336530E+03  0.89193571917E+03  0.00000000000E+00 0. -1.
          1    1    1    2  502    0  0.21646817267E+02 -0.35308250042E+02  0.68482008717E+02  0.80031510899E+02  0.00000000000E+00 0. -1.
         22    1    3    3    0    0  0.60155787414E+01 -0.18866527877E+02 -0.39906378238E+03  0.39955479658E+03  0.00000000000E+00 0. -1.
         22    1    3    3    0    0 -0.28457980671E+01  0.17041529926E+00  0.95485056994E+01  0.99650172656E+01  0.00000000000E+00 0. -1.
</event>
<event>
 7    1  0.5667373E-006  0.1091249E+03  0.7818608E-02  0.1293453E+00
          2   -1    0    0  502    0  0.00000000000E+00  0.00000000000E+00  0.21538889264E+04  0.21538889264E+04  0.00000000000E+00 0. -1.
          1   -1    0    0  501    0 -0.00000000000E+00 -0.00000000000E+00 -0.31525936282E+03  0.31525936282E+03  0.00000000000E+00 0. -1.
         25    2    1    2    0    0 -0.27564336156E+02  0.83826825759E+01  0.14102795573E+04  0.14161016611E+04  0.12500169081E+03 0.  0.
          2    1    1    2  501    0  0.10238718738E+03 -0.39316719326E+02 -0.30040896349E+03  0.31980382409E+03  0.00000000000E+00 0. -1.
          1    1    1    2  502    0 -0.74822851228E+02  0.30934036750E+02  0.72875896971E+03  0.73324280400E+03  0.00000000000E+00 0. -1.
         22    1    3    3    0    0 -0.20165827689E+02  0.58780501727E+02  0.10924538674E+04  0.10942199324E+04  0.00000000000E+00 0. -1.
         22    1    3    3    0    0 -0.73985084672E+01 -0.50397819151E+02  0.31782568992E+03  0.32188172870E+03  0.00000000000E+00 0. -1.
</event>
<event>
 7    1  0.5667373E-006  0.3861401E+02  0.7818608E-02  0.1532669E+00
          2   -1    0    0  502    0  0.00000000000E+00  0.00000000000E+00  0.59831439617E+03  0.59831439617E+03  0.00000000000E+00 0. -1.
          1   -1    0    0  501    0 -0.00000000000E+00 -0.00000000000E+00 -0.64570865536E+02  0.64570865536E+02  0.00000000000E+00 0. -1.
         25    2    1    2    0    0 -0.11959755203E+02  0.23510445940E+02  0.85700048154E+02  0.15386212592E+03  0.12503311051E+03 0.  0.
          2    1    1    2  501    0 -0.27255256786E+02 -0.22255784340E+02 -0.19234024642E+02  0.40101329940E+02  0.00000000000E+00 0. -1.
          1    1    1    2  502    0  0.39215011989E+02 -0.12546615995E+01  0.46727750712E+03  0.46892180585E+03  0.00000000000E+00 0. -1.
         22    1    3    3    0    0  0.19433444000E+02  0.62083723430E+02  0.81025283888E+02  0.10390930704E+03  0.00000000000E+00 0. -1.
         22    1    3    3    0    0 -0.31393199203E+02 -0.38573277490E+02  0.46747642657E+01  0.49952818874E+02  0.00000000000E+00 0. -1.
</event>
<event>
 7    1  0.5667373E-006  0.1318499E+03  0.7818608E-02  0.1310758E+00
          2   -1    0    0  502    0  0.00000000000E+00  0.00000000000E+00  0.12118808184E+04  0.12118808184E+04  0.00000000000E+00 0. -1.
          1   -1    0    0  501    0 -0.00000000000E+00 -0.00000000000E+00 -0.66314808319E+03  0.66314808319E+03  0.00000000000E+00 0. -1.
         25    2    1    2    0    0  0.94676504644E+02 -0.85028543041E+02 -0.30414792188E+03  0.35259796006E+03  0.12500347752E+03 0.  0.
          2    1    1    2  501    0 -0.13244453735E+03  0.42123710990E+02 -0.31962427657E+03  0.34853355745E+03  0.00000000000E+00 0. -1.
          1    1    1    2  502    0  0.37768032705E+02  0.42904832051E+02  0.11725049336E+04  0.11738973840E+04  0.00000000000E+00 0. -1.
         22    1    3    3    0    0  0.79054877431E+02 -0.75911889513E+02 -0.10224890655E+03  0.14989038496E+03  0.00000000000E+00 0.  1.
         22    1    3    3    0    0  0.15621627213E+02 -0.91166535285E+01 -0.20189901533E+03  0.20270757509E+03  0.00000000000E+00 0.  1.
</event>
<event>
 7    1  0.5667373E-006  0.1189137E+03  0.7818608E-02  0.1293959E+00
          2   -1    0    0  502    0  0.00000000000E+00  0.00000000000E+00  0.78751497284E+02  0.78751497284E+02  0.00000000000E+00 0. -1.
          1   -1    0    0  501    0 -0.00000000000E+00 -0.00000000000E+00 -0.89163091302E+03  0.89163091302E+03  0.00000000000E+00 0. -1.
         25    2    1    2    0    0 -0.92586886600E+02 -0.86525612823E+02 -0.19733717508E+03  0.26575570175E+03  0.12500047640E+03 0.  0.
          2    1    1    2  501    0  0.66300064813E+02 -0.32757029638E+02 -0.56920378457E+03  0.57398751725E+03  0.00000000000E+00 0. -1.
          1    1    1    2  502    0  0.26286821787E+02  0.11928264246E+03 -0.46338456085E+02  0.13063919130E+03  0.00000000000E+00 0. -1.
         22    1    3    3    0    0 -0.10659912222E+03 -0.52637010403E+02 -0.81210083263E+02  0.14397605824E+03  0.00000000000E+00 0. -1.
         22    1    3    3    0    0  0.14012235619E+02 -0.33888602420E+02 -0.11612709182E+03  0.12177964351E+03  0.00000000000E+00 0. -1.
</event>
<event>
 7    1  0.5667373E-006  0.1127365E+03  0.7818608E-02  0.1337679E+00
          2   -1    0    0  502    0  0.00000000000E+00  0.00000000000E+00  0.36910717952E+04  0.36910717952E+04  0.00000000000E+00 0. -1.
          1   -1    0    0  501    0 -0.00000000000E+00 -0.00000000000E+00 -0.32673275730E+03  0.32673275730E+03  0.00000000000E+00 0. -1.
         25    2    1    2    0    0  0.36380400277E+02 -0.60279147307E+02 -0.10335097362E+02  0.14383279072E+03  0.12499579323E+03 0.  0.
          2    1    1    2  501    0 -0.72835807696E+02  0.98254023632E+02 -0.23446539704E+03  0.26444835119E+03  0.00000000000E+00 0. -1.
          1    1    1    2  502    0  0.36455407419E+02 -0.37974876325E+02  0.36091395323E+04  0.36095234106E+04  0.00000000000E+00 0. -1.
         22    1    3    3    0    0  0.18860908546E+02 -0.65194832728E+02 -0.60219683084E+02  0.90733182003E+02  0.00000000000E+00 0.  1.
         22    1    3    3    0    0  0.17519491731E+02  0.49156854212E+01  0.49884585722E+02  0.53099608721E+02  0.00000000000E+00 0.  1.
</event>
<event>
 7    1  0.5667373E-006  0.8958104E+02  0.7818608E-02  0.1313996E+00
          2   -1    0    0  502    0  0.00000000000E+00  0.00000000000E+00  0.11196697237E+04  0.11196697237E+04  0.00000000000E+00 0. -1.
          1   -1    0    0  501    0 -0.00000000000E+00 -0.00000000000E+00 -0.15099458240E+04  0.15099458240E+04  0.00000000000E+00 0. -1.
         25    2    1    2    0    0 -0.64752996311E+02 -0.10013939493E+03  0.18522523817E+03  0.25328700445E+03  0.12500027527E+03 0.  0.
          2    1    1    2  501    0 -0.22230906507E+02  0.78620740142E+02 -0.14725503696E+04  0.14748152511E+04  0.00000000000E+00 0. -1.
          1    1    1    2  502    0  0.86983902818E+02  0.21518654789E+02  0.89704903103E+03  0.90151329215E+03  0.00000000000E+00 0. -1.
         22    1    3    3    0    0 -0.70177824100E+01 -0.85662740950E+02  0.37034405132E+02  0.93589003737E+02  0.00000000000E+00 0. -1.
         22    1    3    3    0    0 -0.57735213900E+02 -0.14476653982E+02  0.14819083304E+03  0.15969800071E+03  0.00000000000E+00 0. -1.
</event>
<event>
 7    1  0.5667373E-006  0.3579515E+02  0.7818608E-02  0.1576653E+00
          2   -1    0    0  502    0  0.00000000000E+00  0.00000000000E+00  0.17484052145E+04  0.17484052145E+04  0.00000000000E+00 0. -1.
          1   -1    0    0  501    0 -0.00000000000E+00 -0.00000000000E+00 -0.47879148938E+02  0.47879148938E+02  0.00000000000E+00 0. -1.
         25    2    1    2    0    0 -0.10924140251E+02 -0.58062212284E+02  0.46980336267E+03  0.48972654738E+03  0.12500533707E+03 0.  0.
          2    1    1    2  501    0  0.16773243273E+02  0.23245160096E+02 -0.32217857206E+02  0.43123885269E+02  0.00000000000E+00 0. -1.
          1    1    1    2  502    0 -0.58491030219E+01  0.34817052188E+02  0.12629405601E+04  0.12634339308E+04  0.00000000000E+00 0. -1.
         22    1    3    3    0    0  0.89406922339E+01 -0.89150047457E+01 -0.37847008091E+01  0.13180942586E+02  0.00000000000E+00 0. -1.
         22    1    3    3    0    0 -0.19864832485E+02 -0.49147207539E+02  0.47358806348E+03  0.47654560479E+03  0.00000000000E+00 0. -1.
</event>
<event>
 7    1  0.5667373E-006  0.3436694E+03  0.7818608E-02  0.1311331E+00
          2   -1    0    0  502    0  0.00000000000E+00  0.00000000000E+00  0.20406782979E+04  0.20406782979E+04  0.00000000000E+00 0. -1.
          1   -1    0    0  501    0 -0.00000000000E+00 -0.00000000000E+00 -0.14165279007E+04  0.14165279007E+04  0.00000000000E+00 0. -1.
         25    2    1    2    0    0 -0.91136287049E+02  0.34291632849E+03 -0.28231971205E+03  0.47034059063E+03  0.12497367809E+03 0.  0.
          2    1    1    2  501    0 -0.14470412990E+02 -0.16326172608E+02 -0.10249505714E+04  0.10251827206E+04  0.00000000000E+00 0. -1.
          1    1    1    2  502    0  0.10560670004E+03 -0.32659015588E+03  0.19314206806E+04  0.19616828874E+04  0.00000000000E+00 0. -1.
         22    1    3    3    0    0 -0.29923095496E+02  0.15594292012E+03 -0.51231916379E+02  0.16684812026E+03  0.00000000000E+00 0. -1.
         22    1    3    3    0    0 -0.61213191553E+02  0.18697340836E+03 -0.23108779568E+03  0.30349247036E+03  0.00000000000E+00 0. -1.
</event>
<event>
 7    1  0.5667373E-006  0.1787207E+03  0.7818608E-02  0.1204795E+00
          2   -1    0    0  502    0  0.00000000000E+00  0.00000000000E+00  0.58007773168E+03  0.58007773168E+03  0.00000000000E+00 0. -1.
          1   -1    0    0  501    0 -0.00000000000E+00 -0.00000000000E+00 -0.15018857767E+04  0.15018857767E+04  0.00000000000E+00 0. -1.
         25    2    1    2    0    0  0.21696592968E+03 -0.15550035624E+03 -0.10020576807E+04  0.10445106792E+04  0.12501355150E+03 0.  0.
          2    1    1    2  501    0 -0.11996874610E+03  0.65660942062E+01 -0.45649737845E+03  0.47204392821E+03  0.00000000000E+00 0. -1.
          1    1    1    2  502    0 -0.96997183580E+02  0.14893426204E+03  0.53674701417E+03  0.56540890093E+03  0.00000000000E+00 0. -1.
         22    1    3    3    0    0  0.12345285629E+03 -0.19233278502E+02 -0.34299868663E+03  0.36504605977E+03  0.00000000000E+00 0. -1.
         22    1    3    3    0    0  0.93513073396E+02 -0.13626707774E+03 -0.65905899412E+03  0.67946461946E+03  0.00000000000E+00 0. -1.
</event>
<event>
 7    1  0.5667373E-006  0.7204945E+02  0.7818608E-02  0.1506892E+00
          2   -1    0    0  502    0  0.00000000000E+00  0.00000000000E+00  0.84626680577E+03  0.84626680577E+03  0.00000000000E+00 0. -1.
          1   -1    0    0  501    0 -0.00000000000E+00 -0.00000000000E+00 -0.12847800662E+03  0.12847800662E+03  0.00000000000E+00 0. -1.
         25    2    1    2    0    0  0.67467375817E+02 -0.60268602078E+02  0.12225558753E+03  0.19686385451E+03  0.12499918933E+03 0.  0.
          2    1    1    2  501    0 -0.58170992312E+02  0.39880995263E+02 -0.77319661922E+02  0.10465509185E+03  0.00000000000E+00 0. -1.
          1    1    1    2  502    0 -0.92963835049E+01  0.20387606814E+02  0.67285287354E+03  0.67322586603E+03  0.00000000000E+00 0. -1.
         22    1    3    3    0    0  0.70285342137E+02  0.15711306359E+02  0.31882591838E+02  0.78761501568E+02  0.00000000000E+00 0. -1.
         22    1    3    3    0    0 -0.28179663205E+01 -0.75979908437E+02  0.90372995689E+02  0.11810235294E+03  0.00000000000E+00 0. -1.
</event>
<event>
 7    1  0.5667373E-006  0.1158959E+03  0.7818608E-02  0.1267606E+00
          2   -1    0    0  502    0  0.00000000000E+00  0.00000000000E+00  0.20641018114E+04  0.20641018114E+04  0.00000000000E+00 0. -1.
          1   -1    0    0  501    0 -0.00000000000E+00 -0.00000000000E+00 -0.33837166780E+03  0.33837166780E+03  0.00000000000E+00 0. -1.
         25    2    1    2    0    0  0.84350218764E+02 -0.12344470135E+03 -0.22824130072E+03  0.30012095735E+03  0.12499977596E+03 0.  0.
          2    1    1    2  501    0  0.27619286300E+02  0.93478152974E+02 -0.39748526713E+02  0.10526602222E+03  0.00000000000E+00 0. -1.
          1    1    1    2  502    0 -0.11196950506E+03  0.29966548375E+02  0.19937199710E+04  0.19970864996E+04  0.00000000000E+00 0. -1.
         22    1    3    3    0    0  0.38014780527E+02 -0.46541935954E+02 -0.19554345060E+03  0.20456909936E+03  0.00000000000E+00 0.  1.
         22    1    3    3    0    0  0.46335438237E+02 -0.76902765395E+02 -0.32697850114E+02  0.95551857983E+02  0.00000000000E+00 0.  1.
</event>
<event>
 7    1  0.5667373E-006  0.5535174E+02  0.7818608E-02  0.1483019E+00
          2   -1    0    0  502    0  0.00000000000E+00  0.00000000000E+00  0.19390809431E+03  0.19390809431E+03  0.00000000000E+00 0. -1.
          1   -1    0    0  501    0 -0.00000000000E+00 -0.00000000000E+00 -0.12817987156E+03  0.12817987156E+03  0.00000000000E+00 0. -1.
         25    2    1    2    0    0 -0.65831161629E+01  0.45102372419E+02  0.32234587862E+02  0.13689619805E+03  0.12499575581E+03 0.  0.
          2    1    1    2  501    0 -0.27328250342E+02 -0.50911085055E+02 -0.61364186015E+02  0.84287218328E+02  0.00000000000E+00 0. -1.
          1    1    1    2  502    0  0.33911366505E+02  0.58087126361E+01  0.94857820903E+02  0.10090454949E+03  0.00000000000E+00 0. -1.
         22    1    3    3    0    0 -0.18840714972E+02  0.74193700922E+02  0.58087363215E+02  0.96092765401E+02  0.00000000000E+00 0. -1.
         22    1    3    3    0    0  0.12257598809E+02 -0.29091328504E+02 -0.25852775353E+02  0.40803432651E+02  0.00000000000E+00 0. -1.
</event>
<event>
 7    1  0.5667373E-006  0.5401058E+02  0.7818608E-02  0.1433258E+00
          2   -1    0    0  502    0  0.00000000000E+00  0.00000000000E+00  0.68638665620E+03  0.68638665620E+03  0.00000000000E+00 0. -1.
          1   -1    0    0  501    0 -0.00000000000E+00 -0.00000000000E+00 -0.36970282393E+03  0.36970282393E+03  0.00000000000E+00 0. -1.
         25    2    1    2    0    0  0.12188537050E+02 -0.71584826717E+02  0.58387137033E+03  0.60150147314E+03  0.12500118899E+03 0.  0.
          2    1    1    2  501    0 -0.43626736070E+02  0.31852066077E+02 -0.35182330358E+03  0.35594589920E+03  0.00000000000E+00 0. -1.
          1    1    1    2  502    0  0.31438199020E+02  0.39732760641E+02  0.84635765516E+02  0.98642107795E+02  0.00000000000E+00 0. -1.
         22    1    3    3    0    0  0.52574336589E+02 -0.40306799176E+02  0.49151945766E+03  0.49596378516E+03  0.00000000000E+00 0.  1.
         22    1    3    3    0    0 -0.40385799539E+02 -0.31278027541E+02  0.92351912664E+02  0.10553768798E+03  0.00000000000E+00 0.  1.
</event>
<event>
 7    1  0.5667373E-006  0.1363887E+03  0.7818608E-02  0.1301100E+00
          2   -1    0    0  502    0  0.00000000000E+00  0.00000000000E+00  0.21848824913E+04  0.21848824913E+04  0.00000000000E+00 0. -1.
          1   -1    0    0  501    0 -0.00000000000E+00 -0.00000000000E+00 -0.12750148805E+03  0.12750148805E+03  0.00000000000E+00 0. -1.
         25    2    1    2    0    0 -0.16679468332E+03 -0.87161926436E+02  0.42949595171E+03  0.48529215506E+03  0.12499614165E+03 0.  0.
          2    1    1    2  501    0  0.12366575359E+03  0.44943827175E+02 -0.55370073237E+02  0.14275507424E+03  0.00000000000E+00 0. -1.
          1    1    1    2  502    0  0.43128929732E+02  0.42218099261E+02  0.16832551248E+04  0.16843367501E+04  0.00000000000E+00 0. -1.
         22    1    3    3    0    0 -0.24887153972E+02 -0.22110515608E+02  0.22791139543E+03  0.23032987106E+03  0.00000000000E+00 0.  1.
         22    1    3    3    0    0 -0.14190752935E+03 -0.65051410828E+02  0.20158455628E+03  0.25496228401E+03  0.00000000000E+00 0.  1.
</event>
<event>
 7    1  0.5667373E-006  0.9163766E+02  0.7818608E-02  0.1481023E+00
          2   -1    0    0  502    0  0.00000000000E+00  0.00000000000E+00  0.11926530724E+04  0.11926530724E+04  0.00000000000E+00 0. -1.
          1   -1    0    0  501    0 -0.00000000000E+00 -0.00000000000E+00 -0.19126373280E+03  0.19126373280E+03  0.00000000000E+00 0. -1.
         25    2    1    2    0    0 -0.58057891742E+01 -0.74618832932E+02 -0.38542315339E+02  0.15070706373E+03  0.12500172627E+03 0.  0.
          2    1    1    2  501    0 -0.14770366297E+02 -0.15034408974E+02 -0.93604321359E+02  0.95947726137E+02  0.00000000000E+00 0. -1.
          1    1    1    2  502    0  0.20576155471E+02  0.89653241906E+02  0.11335359763E+04  0.11372620154E+04  0.00000000000E+00 0. -1.
         22    1    3    3    0    0 -0.14918894804E+02 -0.61954220199E+02  0.36920621488E+02  0.73648021791E+02  0.00000000000E+00 0. -1.
         22    1    3    3    0    0  0.91131056295E+01 -0.12664612733E+02 -0.75462936828E+02  0.77059041939E+02  0.00000000000E+00 0. -1.
</event>
<event>
 7    1  0.5667373E-006  0.1001098E+03  0.7818608E-02  0.1457348E+00
          2   -1    0    0  502    0  0.00000000000E+00  0.00000000000E+00  0.18313450518E+03  0.18313450518E+03  0.00000000000E+00 0. -1.
          1   -1    0    0  501    0 -0.00000000000E+00 -0.00000000000E+00 -0.12912366849E+04  0.12912366849E+04  0.00000000000E+00 0. -1.
         25    2    1    2    0    0  0.27466006892E+02  0.79787551751E+02 -0.29661137456E+03  0.33275143547E+03  0.12499910136E+03 0.  0.
          2    1    1    2  501    0  0.21154194356E+02  0.86709730001E+01 -0.96097500194E+03  0.96124691941E+03  0.00000000000E+00 0. -1.
          1    1    1    2  502    0 -0.48620201248E+02 -0.88458524751E+02  0.14948419681E+03  0.18037283517E+03  0.00000000000E+00 0. -1.
         22    1    3    3    0    0 -0.17271402581E+02 -0.50615940581E+01  0.29227134161E+01  0.18233577138E+02  0.00000000000E+00 0.  1.
         22    1    3    3    0    0  0.44737409473E+02  0.84849145809E+02 -0.29953408798E+03  0.31451785833E+03  0.00000000000E+00 0.  1.
</event>
<event>
 7    1  0.5667373E-006  0.6969804E+02  0.7818608E-02  0.1390343E+00
          2   -1    0    0  502    0  0.00000000000E+00  0.00000000000E+00  0.20500975662E+03  0.20500975662E+03  0.00000000000E+00 0. -1.
          1   -1    0    0  501    0 -0.00000000000E+00 -0.00000000000E+00 -0.14344269261E+03  0.14344269261E+03  0.00000000000E+00 0. -1.
         25    2    1    2    0    0 -0.72624841236E+02  0.87326470731E+02  0.63900776714E+02  0.18057779580E+03  0.12499900406E+03 0.  0.
          2    1    1    2  501    0  0.42062768755E+02 -0.35179661796E+02 -0.62119033665E+02  0.82859275057E+02  0.00000000000E+00 0. -1.
          1    1    1    2  502    0  0.30562072481E+02 -0.52146808935E+02  0.59785320963E+02  0.85015378368E+02  0.00000000000E+00 0. -1.
         22    1    3    3    0    0 -0.91432161883E+02  0.35417185449E+02  0.75998763031E+02  0.12405655659E+03  0.00000000000E+00 0.  1.
         22    1    3    3    0    0  0.18807320647E+02  0.51909285282E+02 -0.12097986317E+02  0.56521239206E+02  0.00000000000E+00 0.  1.
</event>
<event>
 7    1  0.5667373E-006  0.5955814E+02  0.7818608E-02  0.1495005E+00
          2   -1    0    0  502    0  0.00000000000E+00  0.00000000000E+00  0.40188156751E+03  0.40188156751E+03  0.00000000000E+00 0. -1.
          1   -1    0    0  501    0 -0.00000000000E+00 -0.00000000000E+00 -0.15981368841E+03  0.15981368841E+03  0.00000000000E+00 0. -1.
         25    2    1    2    0    0  0.40544013301E+02  0.20341560136E+02 -0.21260919607E+02  0.13468510979E+03  0.12502182215E+03 0.  0.
          2    1    1    2  501    0 -0.63440055127E+02 -0.18822546231E+01 -0.68787394297E+02  0.93594279158E+02  0.00000000000E+00 0. -1.
          1    1    1    2  502    0  0.22896041826E+02 -0.18459305513E+02  0.33211619300E+03  0.33341586697E+03  0.00000000000E+00 0. -1.
         22    1    3    3    0    0  0.27015965506E+02 -0.52401022788E+02 -0.75707331685E+01  0.59439427842E+02  0.00000000000E+00 0.  1.
         22    1    3    3    0    0  0.13528047795E+02  0.72742582924E+02 -0.13690186438E+02  0.75245681951E+02  0.00000000000E+00 0.  1.
</event>
<event>
 7    1  0.5667373E-006  0.7135713E+02  0.7818608E-02  0.1407434E+00
          2   -1    0    0  502    0  0.00000000000E+00  0.00000000000E+00  0.96217749224E+02  0.96217749224E+02  0.00000000000E+00 0. -1.
          1   -1    0    0  501    0 -0.00000000000E+00 -0.00000000000E+00 -0.47578610826E+03  0.47578610826E+03  0.00000000000E+00 0. -1.
         25    2    1    2    0    0  0.58884842098E+02  0.65287957395E+01 -0.32186753470E+03  0.35033473851E+03  0.12500267722E+03 0.  0.
          2    1    1    2  501    0 -0.81906862029E+02  0.34183488973E+02 -0.11655098257E+03  0.14649701875E+03  0.00000000000E+00 0. -1.
          1    1    1    2  502    0  0.23022019931E+02 -0.40712284713E+02  0.58850158229E+02  0.75172100223E+02  0.00000000000E+00 0. -1.
         22    1    3    3    0    0 -0.11799394503E+02  0.25824957468E+02 -0.23492742135E+03  0.23663695283E+03  0.00000000000E+00 0. -1.
         22    1    3    3    0    0  0.70684236601E+02 -0.19296161728E+02 -0.86940113342E+02  0.11369778568E+03  0.00000000000E+00 0. -1.
</event>
<event>
 7    1  0.5667373E-006  0.1176850E+03  0.7818608E-02  0.1350156E+00
          2   -1    0    0  502    0  0.00000000000E+00  0.00000000000E+00  0.18131229874E+04  0.18131229874E+04  0.00000000000E+00 0. -1.
          1   -1    0    0  501    0 -0.00000000000E+00 -0.00000000000E+00 -0.59707890564E+02  0.59707890564E+02  0.00000000000E+00 0. -1.
         25    2    1    2    0    0 -0.52153703073E+02 -0.62973279931E+02  0.65288748541E+03  0.66975570265E+03  0.12499995961E+03 0.  0.
          2    1    1    2  501    0  0.56253724743E+02  0.10807781537E+03  0.22261443135E+02  0.12385825598E+03  0.00000000000E+00 0. -1.
          1    1    1    2  502    0 -0.41000216699E+01 -0.45104535444E+02  0.10782661683E+04  0.10792169193E+04  0.00000000000E+00 0. -1.
         22    1    3    3    0    0 -0.50880123748E+02  0.27944453816E+02  0.27842402564E+03  0.28441100110E+03  0.00000000000E+00 0.  1.
         22    1    3    3    0    0 -0.12735793248E+01 -0.90917733747E+02  0.37446345977E+03  0.38534470156E+03  0.00000000000E+00 0.  1.
</event>
<event>
 7    1  0.5667373E-006  0.9114956E+02  0.7818608E-02  0.1458535E+00
          2   -1    0    0  502    0  0.00000000000E+00  0.00000000000E+00  0.13987829440E+04  0.13987829440E+04  0.00000000000E+00 0. -1.
          1   -1    0    0  501    0 -0.00000000000E+00 -0.00000000000E+00 -0.10679389480E+04  0.10679389480E+04  0.00000000000E+00 0. -1.
         25    2    1    2    0    0  0.23008339800E+02 -0.89699268114E+02  0.27588488251E+02  0.15798366227E+03  0.12498948139E+03 0.  0.
          2    1    1    2  501    0 -0.24849742870E+02 -0.14769393996E+01 -0.10009944458E+04  0.10013039357E+04  0.00000000000E+00 0. -1.
          1    1    1    2  502    0  0.18414030697E+01  0.91176207513E+02  0.13042499536E+04  0.13074342940E+04  0.00000000000E+00 0. -1.
         22    1    3    3    0    0  0.52927924926E+02 -0.10177206123E+03  0.42641347771E+02  0.12238138021E+03  0.00000000000E+00 0. -1.
         22    1    3    3    0    0 -0.29919585126E+02  0.12072793111E+02 -0.15052859520E+02  0.35602282053E+02  0.00000000000E+00 0. -1.
</event>
<event>
 7    1  0.5667373E-006  0.1218503E+03  0.7818608E-02  0.1417812E+00
          2   -1    0    0  502    0  0.00000000000E+00  0.00000000000E+00  0.34436184219E+03  0.34436184219E+03  0.00000000000E+00 0. -1.
          1   -1    0    0  501    0 -0.00000000000E+00 -0.00000000000E+00 -0.26228454070E+03  0.26228454070E+03  0.00000000000E+00 0. -1.
         25    2    1    2    0    0 -0.11557770403E+03  0.63120973713E+02 -0.43197774353E+02  0.18663994414E+03  0.12500383214E+03 0.  0.
          2    1    1    2  501    0  0.73724747505E+00 -0.25255838834E+02 -0.13270701776E+03  0.13509090825E+03  0.00000000000E+00 0. -1.
          1    1    1    2  502    0  0.11484045655E+03 -0.37865134879E+02  0.25798209361E+03  0.28491553050E+03  0.00000000000E+00 0. -1.
         22    1    3    3    0    0 -0.38271953040E+02  0.10970291472E+02 -0.77622321177E+02  0.87237116122E+02  0.00000000000E+00 0.  1.
         22    1    3    3    0    0 -0.77305750987E+02  0.52150682241E+02  0.34424546824E+02  0.99402828017E+02  0.00000000000E+00 0.  1.
</event>
<event>
 7    1  0.5667373E-006  0.1641485E+03  0.7818608E-02  0.1366423E+00
          2   -1    0    0  502    0  0.00000000000E+00  0.00000000000E+00  0.21999269322E+04  0.21999269322E+04  0.00000000000E+00 0. -1.
          1   -1    0    0  501    0 -0.00000000000E+00 -0.00000000000E+00 -0.39439162661E+03  0.39439162661E+03  0.00000000000E+00 0. -1.
         25    2    1    2    0    0 -0.91514752998E+02  0.12319347115E+03 -0.20590721092E+02  0.19899800219E+03  0.12499858291E+03 0.  0.
          2    1    1    2  501    0 -0.26862752315E+02 -0.89422008548E+01 -0.28067818868E+03  0.28210249205E+03  0.00000000000E+00 0. -1.
          1    1    1    2  502    0  0.11837750531E+03 -0.11425127030E+03  0.21068042154E+04  0.21132180646E+04  0.00000000000E+00 0. -1.
         22    1    3    3    0    0  0.29819714071E+02  0.42865789883E+02 -0.93636278554E+01  0.53050625032E+02  0.00000000000E+00 0.  1.
         22    1    3    3    0    0 -0.12133446707E+03  0.80327681269E+02 -0.11227093237E+02  0.14594737716E+03  0.00000000000E+00 0.  1.
</event>
<event>
 7    1  0.5667373E-006  0.3654650E+02  0.7818608E-02  0.1593312E+00
          2   -1    0    0  502    0  0.00000000000E+00  0.00000000000E+00  0.12524492380E+04  0.12524492380E+04  0.00000000000E+00 0. -1.
          1   -1    0    0  501    0 -0.00000000000E+00 -0.00000000000E+00 -0.35984905570E+02  0.35984905570E+02  0.00000000000E+00 0. -1.
         25    2    1    2    0    0  0.36793341643E+02  0.87707870274E+01  0.29478443017E+03  0.32241691568E+03  0.12499652216E+03 0.  0.
          2    1    1    2  501    0 -0.33100570347E+02  0.16306930931E+02 -0.65202533043E+01  0.37471021561E+02  0.00000000000E+00 0. -1.
          1    1    1    2  502    0 -0.36927712956E+01 -0.25077717958E+02  0.92820015553E+03  0.92854620629E+03  0.00000000000E+00 0. -1.
         22    1    3    3    0    0  0.46792945439E+02  0.31197626088E+02  0.46646177303E+02  0.73066664583E+02  0.00000000000E+00 0. -1.
         22    1    3    3    0    0 -0.99996037961E+01 -0.22426839060E+02  0.24813825287E+03  0.24935025110E+03  0.00000000000E+00 0. -1.
</event>
<event>
 7    1  0.5667373E-006  0.1152356E+03  0.7818608E-02  0.1348500E+00
          2   -1    0    0  502    0  0.00000000000E+00  0.00000000000E+00  0.30363195030E+04  0.30363195030E+04  0.00000000000E+00 0. -1.
          1   -1    0    0  501    0 -0.00000000000E+00 -0.00000000000E+00 -0.95176575514E+02  0.95176575514E+02  0.00000000000E+00 0. -1.
         25    2    1    2    0    0  0.98722641970E+02  0.12710694429E+03  0.17675313265E+03  0.26976243068E+03  0.12501105464E+03 0.  0.
          2    1    1    2  501    0 -0.27110504894E+02 -0.38285430562E+02 -0.35929846039E+02  0.59090671897E+02  0.00000000000E+00 0. -1.
          1    1    1    2  502    0 -0.71612137076E+02 -0.88821513730E+02  0.28003196409E+04  0.28026429759E+04  0.00000000000E+00 0. -1.
         22    1    3    3    0    0  0.29056836353E+02  0.25473313815E+02  0.13380640192E+03  0.13927434312E+03  0.00000000000E+00 0.  1.
         22    1    3    3    0    0  0.69665805617E+02  0.10163363048E+03  0.42946730726E+02  0.13048808756E+03  0.00000000000E+00 0.  1.
</event>
<event>
 7    1  0.5667373E-006  0.8318284E+02  0.7818608E-02  0.1439848E+00
          2   -1    0    0  502    0  0.00000000000E+00  0.00000000000E+00  0.91388324939E+03  0.91388324939E+03  0.00000000000E+00 0. -1.
          1   -1    0    0  501    0 -0.00000000000E+00 -0.00000000000E+00 -0.33822331285E+03  0.33822331285E+03  0.00000000000E+00 0. -1.
         25    2    1    2    0    0  0.59590341749E+02 -0.13510976556E+02  0.46185006558E+03  0.48235326300E+03  0.12500252773E+03 0.  0.
          2    1    1    2  501    0 -0.71969089952E+02  0.42268804370E+02 -0.32209107285E+03  0.33272941100E+03  0.00000000000E+00 0. -1.
          1    1    1    2  502    0  0.12378748203E+02 -0.28757827814E+02  0.43590094382E+03  0.43702388823E+03  0.00000000000E+00 0. -1.
         22    1    3    3    0    0  0.82594212933E+02 -0.32406192076E+02  0.42875722646E+03  0.43784098088E+03  0.00000000000E+00 0.  1.
         22    1    3    3    0    0 -0.23003871184E+02  0.18895215520E+02  0.33092839113E+02  0.44512282120E+02  0.00000000000E+00 0.  1.
</event>
<event>
 7    1  0.5667373E-006  0.6713805E+02  0.7818608E-02  0.1499536E+00
          2   -1    0    0  502    0  0.00000000000E+00  0.00000000000E+00  0.15312525230E+04  0.15312525230E+04  0.00000000000E+00 0. -1.
          1   -1    0    0  501    0 -0.00000000000E+00 -0.00000000000E+00 -0.24233288978E+02  0.24233288978E+02  0.00000000000E+00 0. -1.
         25    2    1    2    0    0 -0.36439147578E+02 -0.41162461318E+02  0.10572213712E+04  0.10660038788E+04  0.12500032816E+03 0.  0.
          2    1    1    2  501    0  0.60006754838E+02  0.31996373537E+02  0.39982465788E+02  0.78887109949E+02  0.00000000000E+00 0. -1.
          1    1    1    2  502    0 -0.23567607260E+02  0.91660877810E+01  0.40981539702E+03  0.41059482328E+03  0.00000000000E+00 0. -1.
         22    1    3    3    0    0 -0.45223370417E+02  0.36574450442E+02  0.42541554473E+03  0.42937306547E+03  0.00000000000E+00 0. -1.
         22    1    3    3    0    0  0.87842228390E+01 -0.77736911759E+02  0.63180582652E+03  0.63663081330E+03  0.00000000000E+00 0. -1.
</event>
<event>
 7    1  0.5667373E-006  0.1620664E+03  0.7818608E-02  0.1222435E+00
          2   -1    0    0  502    0  0.00000000000E+00  0.00000000000E+00  0.16859245815E+04  0.16859245815E+04  0.00000000000E+00 0. -1.
          1   -1    0    0  501    0 -0.00000000000E+00 -0.00000000000E+00 -0.58707138540E+03  0.58707138540E+03  0.00000000000E+00 0. -1.
         25    2    1    2    0    0  0.17441566085E+03  0.86792863027E+02 -0.57595948394E+02  0.23853216984E+03  0.12500591568E+03 0.  0.
          2    1    1    2  501    0 -0.13872445932E+02 -0.10899539597E+03 -0.42793322124E+03  0.44181362919E+03  0.00000000000E+00 0. -1.
          1    1    1    2  502    0 -0.16054321492E+03  0.22202532948E+02  0.15843823657E+04  0.15926501678E+04  0.00000000000E+00 0. -1.
         22    1    3    3    0    0  0.11285458608E+03  0.65461756536E+02  0.25505298578E+02  0.13293577180E+03  0.00000000000E+00 0. -1.
         22    1    3    3    0    0  0.61561074770E+02  0.21331106490E+02 -0.83101246973E+02  0.10559639804E+03  0.00000000000E+00 0. -1.
</event>
<event>
 7    1  0.5667373E-006  0.2566664E+03  0.7818608E-02  0.1197417E+00
          2   -1    0    0  502    0  0.00000000000E+00  0.00000000000E+00  0.27051711373E+03  0.27051711373E+03  0.00000000000E+00 0. -1.
          1   -1    0    0  501    0 -0.00000000000E+00 -0.00000000000E+00 -0.72685038985E+03  0.72685038985E+03  0.00000000000E+00 0. -1.
         25    2    1    2    0    0 -0.29668255651E+03 -0.53852135687E+02 -0.66133273703E+01  0.32647991628E+03  0.12499923112E+03 0.  0.
          2    1    1    2  501    0  0.70498647184E+02  0.56946916503E+02 -0.43485126769E+03  0.44419436687E+03  0.00000000000E+00 0. -1.
          1    1    1    2  502    0  0.22618390933E+03 -0.30947808165E+01 -0.14868681067E+02  0.22669322042E+03  0.00000000000E+00 0. -1.
         22    1    3    3    0    0 -0.13654537045E+03  0.36262624387E+02  0.12005069836E+02  0.14178765045E+03  0.00000000000E+00 0. -1.
         22    1    3    3    0    0 -0.16013718606E+03 -0.90114760074E+02 -0.18618397206E+02  0.18469226583E+03  0.00000000000E+00 0. -1.
</event>
<event>
 7    1  0.5667373E-006  0.1528100E+03  0.7818608E-02  0.1284308E+00
          2   -1    0    0  502    0  0.00000000000E+00  0.00000000000E+00  0.53133235929E+03  0.53133235929E+03  0.00000000000E+00 0. -1.
          1   -1    0    0  501    0 -0.00000000000E+00 -0.00000000000E+00 -0.61263251408E+03  0.61263251408E+03  0.00000000000E+00 0. -1.
         25    2    1    2    0    0 -0.20348639312E+03  0.23087416788E+02  0.15189572812E+02  0.24040972059E+03  0.12500547842E+03 0.  0.
          2    1    1    2  501    0  0.56724349060E+02 -0.27407543040E+02 -0.48455990070E+03  0.48863802815E+03  0.00000000000E+00 0. -1.
          1    1    1    2  502    0  0.14676204406E+03  0.43201262524E+01  0.38807017309E+03  0.41491712463E+03  0.00000000000E+00 0. -1.
         22    1    3    3    0    0 -0.10058215056E+03  0.54847776377E+02  0.53054463564E+02  0.12625301457E+03  0.00000000000E+00 0. -1.
         22    1    3    3    0    0 -0.10290424256E+03 -0.31760359589E+02 -0.37864890753E+02  0.11415670602E+03  0.00000000000E+00 0. -1.
</event>
<event>
 7    1  0.5667373E-006  0.1336013E+03  0.7818608E-02  0.1304821E+00
          2   -1    0    0  502    0  0.00000000000E+00  0.00000000000E+00  0.44185715058E+03  0.44185715058E+03  0.00000000000E+00 0. -1.
          1   -1    0    0  501    0 -0.00000000000E+00 -0.00000000000E+00 -0.93429466316E+03  0.93429466316E+03  0.00000000000E+00 0. -1.
         25    2    1    2    0    0  0.35847392908E+02  0.87475140867E+02  0.14482506214E+03  0.21339165634E+03  0.12499905809E+03 0.  0.
          2    1    1    2  501    0  0.15037221807E+00 -0.13490552199E+03 -0.89149672220E+03  0.90164623227E+03  0.00000000000E+00 0. -1.
          1    1    1    2  502    0 -0.35997765126E+02  0.47430381119E+02  0.25423414748E+03  0.26111392512E+03  0.00000000000E+00 0. -1.
         22    1    3    3    0    0  0.53914948086E+02  0.64939795454E+02  0.22010753510E+02  0.87226555193E+02  0.00000000000E+00 0.  1.
         22    1    3    3    0    0 -0.18067555178E+02  0.22535345413E+02  0.12281430863E+03  0.12616510115E+03  0.00000000000E+00 0.  1.
</event>
<event>
 7    1  0.5667373E-006  0.7274676E+02  0.7818608E-02  0.1447005E+00
          2   -1    0    0  502    0  0.00000000000E+00  0.00000000000E+00  0.43400474425E+03  0.43400474425E+03  0.00000000000E+00 0. -1.
          1   -1    0    0  501    0 -0.00000000000E+00 -0.00000000000E+00 -0.22284048488E+03  0.22284048488E+03  0.00000000000E+00 0. -1.
         25    2    1    2    0    0 -0.10360172928E+03 -0.11077645482E+02  0.78003288387E+02  0.18045822572E+03  0.12499850276E+03 0.  0.
          2    1    1    2  501    0  0.33733623946E+02  0.37825224178E+01 -0.16582279130E+03  0.16926152243E+03  0.00000000000E+00 0. -1.
          1    1    1    2  502    0  0.69868105331E+02  0.72951230640E+01  0.29898376228E+03  0.30712548099E+03  0.00000000000E+00 0. -1.
         22    1    3    3    0    0  0.25564189974E+02  0.13163913718E+02  0.24288162194E+01  0.28856811702E+02  0.00000000000E+00 0. -1.
         22    1    3    3    0    0 -0.12916591925E+03 -0.24241559199E+02  0.75574472167E+02  0.15160141402E+03  0.00000000000E+00 0. -1.
</event>
<event>
 7    1  0.5667373E-006  0.4084745E+02  0.7818608E-02  0.1605659E+00
          2   -1    0    0  502    0  0.00000000000E+00  0.00000000000E+00  0.11844564402E+03  0.11844564402E+03  0.00000000000E+00 0. -1.
          1   -1    0    0  501    0 -0.00000000000E+00 -0.00000000000E+00 -0.12319391047E+04  0.12319391047E+04  0.00000000000E+00 0. -1.
         25    2    1    2    0    0 -0.19793163905E+00  0.56883440110E+02 -0.37156755442E+03  0.39614499266E+03  0.12503056735E+03 0.  0.
          2    1    1    2  501    0  0.10951854102E+02 -0.38782488395E+02 -0.84655481643E+03  0.84751346994E+03  0.00000000000E+00 0. -1.
          1    1    1    2  502    0 -0.10753922463E+02 -0.18100951714E+02  0.10462891018E+03  0.10672628611E+03  0.00000000000E+00 0. -1.
         22    1    3    3    0    0  0.32589617909E+02  0.62621005385E+02 -0.99218284507E+02  0.12176921405E+03  0.00000000000E+00 0.  1.
         22    1    3    3    0    0 -0.32787549548E+02 -0.57375652750E+01 -0.27234926992E+03  0.27437577860E+03  0.00000000000E+00 0.  1.
</event>
<event>
 7    1  0.5667373E-006  0.8119348E+02  0.7818608E-02  0.1385606E+00
          2   -1    0    0  502    0  0.00000000000E+00  0.00000000000E+00  0.38572972167E+04  0.38572972167E+04  0.00000000000E+00 0. -1.
          1   -1    0    0  501    0 -0.00000000000E+00 -0.00000000000E+00 -0.46042659738E+02  0.46042659738E+02  0.00000000000E+00 0. -1.
         25    2    1    2    0    0  0.10337758114E+03  0.12772061036E+02  0.12969116982E+04  0.13070788219E+04  0.12500017611E+03 0.  0.
          2    1    1    2  501    0 -0.75929557269E+02  0.27701971099E+02 -0.61533445630E+00  0.80827442780E+02  0.00000000000E+00 0. -1.
          1    1    1    2  502    0 -0.27448023872E+02 -0.40474032136E+02  0.25149581932E+04  0.25154336117E+04  0.00000000000E+00 0. -1.
         22    1    3    3    0    0  0.38049557259E+01  0.46682553687E+02  0.64861984578E+03  0.65030872887E+03  0.00000000000E+00 0.  1.
         22    1    3    3    0    0  0.99572625415E+02 -0.33910492650E+02  0.64829185240E+03  0.65677009306E+03  0.00000000000E+00 0.  1.
</event>
<event>
 7    1  0.5695278E-006  0.6232170E+02  0.7818608E-02  0.1398273E+00
          2   -1    0    0  502    0  0.00000000000E+00  0.00000000000E+00  0.70725496584E+03  0.70725496584E+03  0.00000000000E+00 0. -1.
          1   -1    0    0  501    0 -0.00000000000E+00 -0.00000000000E+00 -0.10365688717E+04  0.10365688717E+04  0.00000000000E+00 0. -1.
         25    2    1    2    0    0 -0.21988663286E+02  0.41698381327E+02 -0.46742265168E+03  0.48613934668E+03  0.12500109104E+03 0.  0.
          2    1    1    2  501    0 -0.39623542655E+02 -0.51075525091E+02 -0.55652193530E+03  0.56026368691E+03  0.00000000000E+00 0. -1.
          1    1    1    2  502    0  0.61612205941E+02  0.93771437641E+01  0.69463068108E+03  0.69742080400E+03  0.00000000000E+00 0. -1.
         22    1    3    3    0    0 -0.61676224722E+02  0.63121393816E+02 -0.32293255834E+03  0.33477410935E+03  0.00000000000E+00 0. -1.
         22    1    3    3    0    0  0.39687561436E+02 -0.21423012489E+02 -0.14449009334E+03  0.15136523733E+03  0.00000000000E+00 0. -1.
</event>
<event>
 7    1  0.5667373E-006  0.1525437E+03  0.7818608E-02  0.1329144E+00
          2   -1    0    0  502    0  0.00000000000E+00  0.00000000000E+00  0.20105056597E+04  0.20105056597E+04  0.00000000000E+00 0. -1.
          1   -1    0    0  501    0 -0.00000000000E+00 -0.00000000000E+00 -0.18363743431E+04  0.18363743431E+04  0.00000000000E+00 0. -1.
         25    2    1    2    0    0 -0.10006583151E+03 -0.11948091101E+03  0.34206320057E+03  0.39613292656E+03  0.12500081434E+03 0.  0.
          2    1    1    2  501    0  0.12576711905E+03  0.86362633634E+02 -0.18058547416E+04  0.18122878415E+04  0.00000000000E+00 0. -1.
          1    1    1    2  502    0 -0.25701287538E+02  0.33118277374E+02  0.16379228576E+04  0.16384592347E+04  0.00000000000E+00 0. -1.
         22    1    3    3    0    0  0.13048289047E+02 -0.78165700911E+02  0.12924047679E+03  0.15160222784E+03  0.00000000000E+00 0.  1.
         22    1    3    3    0    0 -0.11311412056E+03 -0.41315210096E+02  0.21282272378E+03  0.24453069871E+03  0.00000000000E+00 0.  1.
</event>
<event>
 7    1  0.5667373E-006  0.4240680E+02  0.7818608E-02  0.1519882E+00
          2   -1    0    0  502    0  0.00000000000E+00  0.00000000000E+00  0.43103738079E+03  0.43103738079E+03  0.00000000000E+00 0. -1.
          1   -1    0    0  501    0 -0.00000000000E+00 -0.00000000000E+00 -0.19208763159E+04  0.19208763159E+04  0.00000000000E+00 0. -1.
         25    2    1    2    0    0  0.17712647804E+02 -0.16576029465E+01 -0.56955136578E+03  0.58337784386E+03  0.12499785960E+03 0.  0.
          2    1    1    2  501    0 -0.32063090231E+02 -0.30128422858E+02 -0.13433340045E+04  0.13440543186E+04  0.00000000000E+00 0. -1.
          1    1    1    2  502    0  0.14350442427E+02  0.31786025804E+02  0.42304643516E+03  0.42448153427E+03  0.00000000000E+00 0. -1.
         22    1    3    3    0    0  0.34223405658E+02 -0.29704497723E+02 -0.74099204521E+02  0.86857876963E+02  0.00000000000E+00 0. -1.
         22    1    3    3    0    0 -0.16510757854E+02  0.28046894777E+02 -0.49545216126E+03  0.49651996690E+03  0.00000000000E+00 0. -1.
</event>
<event>
 7    1  0.5667373E-006  0.1162448E+03  0.7818608E-02  0.1281705E+00
          2   -1    0    0  502    0  0.00000000000E+00  0.00000000000E+00  0.15379953608E+04  0.15379953608E+04  0.00000000000E+00 0. -1.
          1   -1    0    0  501    0 -0.00000000000E+00 -0.00000000000E+00 -0.24023837810E+04  0.24023837810E+04  0.00000000000E+00 0. -1.
         25    2    1    2    0    0 -0.20039485144E+02  0.12713862841E+03  0.26626091898E+03  0.32106995346E+03  0.12500090496E+03 0.  0.
          2    1    1    2  501    0 -0.60225675078E+02 -0.99527399848E+02 -0.23721046712E+04  0.23749554535E+04  0.00000000000E+00 0. -1.
          1    1    1    2  502    0  0.80265160222E+02 -0.27611228559E+02  0.12414553320E+04  0.12443537347E+04  0.00000000000E+00 0. -1.
         22    1    3    3    0    0 -0.53304715240E+02  0.12649617103E+03  0.16583695433E+03  0.21527788873E+03  0.00000000000E+00 0.  1.
         22    1    3    3    0    0  0.33265230096E+02  0.64245737407E+00  0.10042396465E+03  0.10579206474E+03  0.00000000000E+00 0.  1.
</event>
<event>
 7    1  0.5667373E-006  0.5280638E+02  0.7818608E-02  0.1447373E+00
          2   -1    0    0  502    0  0.00000000000E+00  0.00000000000E+00  0.17957630986E+04  0.17957630986E+04  0.00000000000E+00 0. -1.
          1   -1    0    0  501    0 -0.00000000000E+00 -0.00000000000E+00 -0.24169110696E+03  0.24169110696E+03  0.00000000000E+00 0. -1.
         25    2    1    2    0    0 -0.67986519868E+01  0.16293197528E+02 -0.78536282073E+02  0.14867655452E+03  0.12500032123E+03 0.  0.
          2    1    1    2  501    0 -0.45698681113E+02 -0.93029590858E+01 -0.12342712218E+03  0.13194380998E+03  0.00000000000E+00 0. -1.
          1    1    1    2  502    0  0.52497333099E+02 -0.69902384420E+01  0.17560353959E+04  0.17568338410E+04  0.00000000000E+00 0. -1.
         22    1    3    3    0    0  0.25890923319E+02 -0.38353582826E+02  0.16226858772E+01  0.46303027281E+02  0.00000000000E+00 0. -1.
         22    1    3    3    0    0 -0.32689575306E+02  0.54646780354E+02 -0.80158967950E+02  0.10237352724E+03  0.00000000000E+00 0. -1.
</event>
<event>
 7    1  0.5667373E-006  0.8229797E+02  0.7818608E-02  0.1393962E+00
          2   -1    0    0  502    0  0.00000000000E+00  0.00000000000E+00  0.26882788762E+04  0.26882788762E+04  0.00000000000E+00 0. -1.
          1   -1    0    0  501    0 -0.00000000000E+00 -0.00000000000E+00 -0.53807939523E+02  0.53807939523E+02  0.00000000000E+00 0. -1.
         25    2    1    2    0    0  0.52773831654E+02 -0.29037828111E+02  0.60274043371E+03  0.61850549855E+03  0.12499899413E+03 0.  0.
          2    1    1    2  501    0 -0.84162332040E+02 -0.33649547473E+01 -0.68445002148E+01  0.84507208202E+02  0.00000000000E+00 0. -1.
          1    1    1    2  502    0  0.31388500387E+02  0.32402782858E+02  0.20385750031E+04  0.20390741089E+04  0.00000000000E+00 0. -1.
         22    1    3    3    0    0  0.64305621985E+02 -0.12401583517E+02  0.59195976638E+03  0.59557147120E+03  0.00000000000E+00 0. -1.
         22    1    3    3    0    0 -0.11531790331E+02 -0.16636244593E+02  0.10780667335E+02  0.22934027352E+02  0.00000000000E+00 0. -1.
</event>
<event>
 7    1  0.5667373E-006  0.5371767E+02  0.7818608E-02  0.1525994E+00
          2   -1    0    0  502    0  0.00000000000E+00  0.00000000000E+00  0.39832512331E+03  0.39832512331E+03  0.00000000000E+00 0. -1.
          1   -1    0    0  501    0 -0.00000000000E+00 -0.00000000000E+00 -0.55560946403E+03  0.55560946403E+03  0.00000000000E+00 0. -1.
         25    2    1    2    0    0 -0.37986914431E+02 -0.67604920134E+02  0.97234574795E+02  0.17633147465E+03  0.12499918209E+03 0.  0.
          2    1    1    2  501    0  0.33721969395E+02  0.41517486375E+02 -0.51400182002E+03  0.51677726718E+03  0.00000000000E+00 0. -1.
          1    1    1    2  502    0  0.42649450356E+01  0.26087433760E+02  0.25948290451E+03  0.26082584551E+03  0.00000000000E+00 0. -1.
         22    1    3    3    0    0  0.25950416365E+01 -0.89178645531E+02  0.28521280756E+02  0.93664446380E+02  0.00000000000E+00 0. -1.
         22    1    3    3    0    0 -0.40581956068E+02  0.21573725396E+02  0.68713294039E+02  0.82667028272E+02  0.00000000000E+00 0. -1.
</event>
<event>
 7    1  0.5667373E-006  0.6691458E+02  0.7818608E-02  0.1398993E+00
          2   -1    0    0  502    0  0.00000000000E+00  0.00000000000E+00  0.13345282314E+04  0.13345282314E+04  0.00000000000E+00 0. -1.
          1   -1    0    0  501    0 -0.00000000000E+00 -0.00000000000E+00 -0.34720099754E+02  0.34720099754E+02  0.00000000000E+00 0. -1.
         25    2    1    2    0    0  0.75546806909E+01 -0.15793817470E+02  0.74360335183E+03  0.75424120138E+03  0.12500930819E+03 0.  0.
          2    1    1    2  501    0 -0.47097947292E+02  0.51541836877E+02  0.15292763951E+02  0.71474794278E+02  0.00000000000E+00 0. -1.
          1    1    1    2  502    0  0.39543266601E+02 -0.35748019407E+02  0.54091201588E+03  0.54353233551E+03  0.00000000000E+00 0. -1.
         22    1    3    3    0    0  0.50359179335E+02 -0.24198546774E+02  0.63123464576E+03  0.63370244959E+03  0.00000000000E+00 0.  1.
         22    1    3    3    0    0 -0.42804498644E+02  0.84047293041E+01  0.11236870607E+03  0.12053875179E+03  0.00000000000E+00 0.  1.
</event>
<event>
 7    1  0.5667373E-006  0.5644375E+02  0.7818608E-02  0.1434313E+00
          2   -1    0    0  502    0  0.00000000000E+00  0.00000000000E+00  0.19624911102E+04  0.19624911102E+04  0.00000000000E+00 0. -1.
          1   -1    0    0  501    0 -0.00000000000E+00 -0.00000000000E+00 -0.29931141741E+03  0.29931141741E+03  0.00000000000E+00 0. -1.
         25    2    1    2    0    0  0.26878696388E+02 -0.94709438001E+02  0.27895609063E+03  0.32114037624E+03  0.12498919467E+03 0.  0.
          2    1    1    2  501    0  0.17540150519E+01  0.56063005891E+02 -0.27504021713E+03  0.28070136843E+03  0.00000000000E+00 0. -1.
          1    1    1    2  502    0 -0.28632711440E+02  0.38646432111E+02  0.16592638193E+04  0.16599607830E+04  0.00000000000E+00 0. -1.
         22    1    3    3    0    0  0.74542945146E+01  0.13911169267E+02  0.15248316151E+03  0.15329775498E+03  0.00000000000E+00 0. -1.
         22    1    3    3    0    0  0.19424401873E+02 -0.10862060727E+03  0.12647292912E+03  0.16784262126E+03  0.00000000000E+00 0. -1.
</event>
<event>
 7    1  0.5667373E-006  0.1036899E+03  0.7818608E-02  0.1328234E+00
          2   -1    0    0  502    0  0.00000000000E+00  0.00000000000E+00  0.71020922204E+03  0.71020922204E+03  0.00000000000E+00 0. -1.
          1   -1    0    0  501    0 -0.00000000000E+00 -0.00000000000E+00 -0.13912143818E+04  0.13912143818E+04  0.00000000000E+00 0. -1.
         25    2    1    2    0    0 -0.14530944355E+03 -0.77438302070E+02  0.69119777948E+02  0.21797791418E+03  0.12500120941E+03 0.  0.
          2    1    1    2  501    0  0.88185030977E+02  0.52907948528E+02 -0.13130635995E+04  0.13170846090E+04  0.00000000000E+00 0. -1.
          1    1    1    2  502    0  0.57124412569E+02  0.24530353541E+02  0.56293866183E+03  0.56636108071E+03  0.00000000000E+00 0. -1.
         22    1    3    3    0    0 -0.68859972730E+01  0.12350853353E+02 -0.24489260373E+02  0.28278691813E+02  0.00000000000E+00 0.  1.
         22    1    3    3    0    0 -0.13842344627E+03 -0.89789155423E+02  0.93609038321E+02  0.18969922236E+03  0.00000000000E+00 0.  1.
</event>
<event>
 7    1  0.5667373E-006  0.8056993E+02  0.7818608E-02  0.1361125E+00
          2   -1    0    0  502    0  0.00000000000E+00  0.00000000000E+00  0.16855333053E+04  0.16855333053E+04  0.00000000000E+00 0. -1.
          1   -1    0    0  501    0 -0.00000000000E+00 -0.00000000000E+00 -0.28406509172E+03  0.28406509172E+03  0.00000000000E+00 0. -1.
         25    2    1    2    0    0 -0.10181495500E+03  0.89972058918E+02  0.25490817711E+01  0.18463868567E+03  0.12499475981E+03 0.  0.
          2    1    1    2  501    0  0.52775992371E+02 -0.54896124983E+02 -0.18491359754E+03  0.19997982014E+03  0.00000000000E+00 0. -1.
          1    1    1    2  502    0  0.49038962629E+02 -0.35075933935E+02  0.15838327293E+04  0.15849798912E+04  0.00000000000E+00 0. -1.
         22    1    3    3    0    0 -0.10211982139E+03  0.11559890203E+02  0.19013507765E+02  0.10451603925E+03  0.00000000000E+00 0.  1.
         22    1    3    3    0    0  0.30486639138E+00  0.78412168716E+02 -0.16464425994E+02  0.80122646421E+02  0.00000000000E+00 0.  1.
</event>
<event>
 7    1  0.5667373E-006  0.7177595E+02  0.7818608E-02  0.1446453E+00
          2   -1    0    0  502    0  0.00000000000E+00  0.00000000000E+00  0.79409119916E+02  0.79409119916E+02  0.00000000000E+00 0. -1.
          1   -1    0    0  501    0 -0.00000000000E+00 -0.00000000000E+00 -0.80334382224E+03  0.80334382224E+03  0.00000000000E+00 0. -1.
         25    2    1    2    0    0 -0.62035868972E+02 -0.65469207708E+02 -0.12803404888E+03  0.20038424240E+03  0.12500584278E+03 0.  0.
          2    1    1    2  501    0  0.34499257206E+02  0.17771600515E+01 -0.61048600287E+03  0.61146260454E+03  0.00000000000E+00 0. -1.
          1    1    1    2  502    0  0.27536611766E+02  0.63692047657E+02  0.14585349429E+02  0.70906095226E+02  0.00000000000E+00 0. -1.
         22    1    3    3    0    0  0.17046421894E+01  0.24204418366E+02  0.78892540658E+01  0.25514701706E+02  0.00000000000E+00 0. -1.
         22    1    3    3    0    0 -0.63740511161E+02 -0.89673626074E+02 -0.13592330295E+03  0.17486954069E+03  0.00000000000E+00 0. -1.
</event>
<event>
 7    1  0.5667373E-006  0.6916442E+02  0.7818608E-02  0.1415688E+00
          2   -1    0    0  502    0  0.00000000000E+00  0.00000000000E+00  0.19328521929E+03  0.19328521929E+03  0.00000000000E+00 0. -1.
          1   -1    0    0  501    0 -0.00000000000E+00 -0.00000000000E+00 -0.23241113687E+03  0.23241113687E+03  0.00000000000E+00 0. -1.
         25    2    1    2    0    0 -0.77660444304E+01 -0.76915430519E+02  0.16253151682E+02  0.14787721625E+03  0.12500884468E+03 0.  0.
          2    1    1    2  501    0 -0.34408005109E+02  0.60516426326E+02 -0.15416986800E+03  0.16915820071E+03  0.00000000000E+00 0. -1.
          1    1    1    2  502    0  0.42174049539E+02  0.16399004194E+02  0.98790798738E+02  0.10866093920E+03  0.00000000000E+00 0. -1.
         22    1    3    3    0    0  0.38186594419E+02 -0.89137660770E+02  0.23495323881E+02  0.99778598934E+02  0.00000000000E+00 0. -1.
         22    1    3    3    0    0 -0.45952638850E+02  0.12222230251E+02 -0.72421721993E+01  0.48098617316E+02  0.00000000000E+00 0. -1.
</event>
<event>
 7    1  0.5667373E-006  0.3813409E+02  0.7818608E-02  0.1542876E+00
          2   -1    0    0  502    0  0.00000000000E+00  0.00000000000E+00  0.12313052273E+04  0.12313052273E+04  0.00000000000E+00 0. -1.
          1   -1    0    0  501    0 -0.00000000000E+00 -0.00000000000E+00 -0.31250244364E+03  0.31250244364E+03  0.00000000000E+00 0. -1.
         25    2    1    2    0    0  0.11036678183E+02  0.52120215338E+01  0.53663243678E+03  0.55113380455E+03  0.12500049949E+03 0.  0.
          2    1    1    2  501    0  0.18127569812E+01  0.33284319219E+02 -0.30374015509E+03  0.30556376390E+03  0.00000000000E+00 0. -1.
          1    1    1    2  502    0 -0.12849435164E+02 -0.38496340753E+02  0.68591050196E+03  0.68711010248E+03  0.00000000000E+00 0. -1.
         22    1    3    3    0    0  0.35803283275E+02  0.46312287340E+02  0.43290302818E+03  0.43684291784E+03  0.00000000000E+00 0.  1.
         22    1    3    3    0    0 -0.24766605093E+02 -0.41100265806E+02  0.10372940860E+03  0.11429088671E+03  0.00000000000E+00 0.  1.
</event>
<event>
 7    1  0.5667373E-006  0.3129644E+03  0.7818608E-02  0.1155405E+00
          2   -1    0    0  502    0  0.00000000000E+00  0.00000000000E+00  0.25160633014E+04  0.25160633014E+04  0.00000000000E+00 0. -1.
          1   -1    0    0  501    0 -0.00000000000E+00 -0.00000000000E+00 -0.21947543169E+04  0.21947543169E+04  0.00000000000E+00 0. -1.
         25    2    1    2    0    0 -0.38096381124E+03  0.16055081226E+03  0.20357429972E+03  0.47747115541E+03  0.12500487971E+03 0.  0.
          2    1    1    2  501    0  0.11951793894E+03 -0.27028783306E+01 -0.20453338729E+04  0.20488246618E+04  0.00000000000E+00 0. -1.
          1    1    1    2  502    0  0.26144587230E+03 -0.15784793393E+03  0.21630685576E+04  0.21845218011E+04  0.00000000000E+00 0. -1.
         22    1    3    3    0    0 -0.91829664497E+02  0.52247892831E+02 -0.34952062052E+01  0.10571067143E+03  0.00000000000E+00 0.  1.
         22    1    3    3    0    0 -0.28913414674E+03  0.10830291943E+03  0.20706950593E+03  0.37176048399E+03  0.00000000000E+00 0.  1.
</event>
<event>
 7    1  0.5667373E-006  0.7542523E+02  0.7818608E-02  0.1454422E+00
          2   -1    0    0  502    0  0.00000000000E+00  0.00000000000E+00  0.71132180670E+03  0.71132180670E+03  0.00000000000E+00 0. -1.
          1   -1    0    0  501    0 -0.00000000000E+00 -0.00000000000E+00 -0.83719194012E+03  0.83719194012E+03  0.00000000000E+00 0. -1.
         25    2    1    2    0    0  0.71420601984E+02  0.69123312115E+02 -0.34073312992E+03  0.37630095871E+03  0.12499764414E+03 0.  0.
          2    1    1    2  501    0 -0.30421971379E+02 -0.59598434383E+01 -0.47612528771E+03  0.47713342544E+03  0.00000000000E+00 0. -1.
          1    1    1    2  502    0 -0.40998630605E+02 -0.63163468677E+02  0.69098828421E+03  0.69507936267E+03  0.00000000000E+00 0. -1.
         22    1    3    3    0    0  0.24004588847E+02 -0.24044212596E+02 -0.21070916679E+02  0.39979094221E+02  0.00000000000E+00 0. -1.
         22    1    3    3    0    0  0.47416013137E+02  0.93167524711E+02 -0.31966221324E+03  0.33632186449E+03  0.00000000000E+00 0. -1.
</event>
<event>
 7    1  0.5667373E-006  0.5432405E+02  0.7818608E-02  0.1481297E+00
          2   -1    0    0  502    0  0.00000000000E+00  0.00000000000E+00  0.77765447140E+03  0.77765447140E+03  0.00000000000E+00 0. -1.
          1   -1    0    0  501    0 -0.00000000000E+00 -0.00000000000E+00 -0.77811502083E+03  0.77811502083E+03  0.00000000000E+00 0. -1.
         25    2    1    2    0    0 -0.34109963005E+02  0.52145370333E+02  0.44862400422E+02  0.14669379517E+03  0.12499522130E+03 0.  0.
          2    1    1    2  501    0 -0.13060351026E+01 -0.54339052722E+02 -0.72572066502E+03  0.72775333871E+03  0.00000000000E+00 0. -1.
          1    1    1    2  502    0  0.35415998107E+02  0.21936823891E+01  0.68039771517E+03  0.68132235834E+03  0.00000000000E+00 0. -1.
         22    1    3    3    0    0 -0.35872473447E+02  0.37807952944E+02 -0.36776313937E+02  0.63786933801E+02  0.00000000000E+00 0.  1.
         22    1    3    3    0    0  0.17625104419E+01  0.14337417389E+02  0.81638714359E+02  0.82906861372E+02  0.00000000000E+00 0.  1.
</event>
<event>
 7    1  0.5667373E-006  0.5808534E+02  0.7818608E-02  0.1477813E+00
          2   -1    0    0  502    0  0.00000000000E+00  0.00000000000E+00  0.74255981094E+03  0.74255981094E+03  0.00000000000E+00 0. -1.
          1   -1    0    0  501    0 -0.00000000000E+00 -0.00000000000E+00 -0.25291271529E+03  0.25291271529E+03  0.00000000000E+00 0. -1.
         25    2    1    2    0    0 -0.62396048702E+02  0.33937624921E+02  0.77111697087E+02  0.16315381235E+03  0.12501169296E+03 0.  0.
          2    1    1    2  501    0  0.44598550359E+01 -0.33719920057E+02 -0.20715350739E+03  0.20992736587E+03  0.00000000000E+00 0. -1.
          1    1    1    2  502    0  0.57936193666E+02 -0.21770486432E+00  0.61968890594E+03  0.62239134801E+03  0.00000000000E+00 0. -1.
         22    1    3    3    0    0 -0.31804623558E+02 -0.47175213287E+02  0.34744121568E+02  0.66664749394E+02  0.00000000000E+00 0.  1.
         22    1    3    3    0    0 -0.30591425144E+02  0.81112838208E+02  0.42367575519E+02  0.96489062955E+02  0.00000000000E+00 0.  1.
</event>
<event>
 7    1  0.5667373E-006  0.2128653E+03  0.7818608E-02  0.1314141E+00
          2   -1    0    0  502    0  0.00000000000E+00  0.00000000000E+00  0.18352086701E+04  0.18352086701E+04  0.00000000000E+00 0. -1.
          1   -1    0    0  501    0 -0.00000000000E+00 -0.00000000000E+00 -0.10739906769E+04  0.10739906769E+04  0.00000000000E+00 0. -1.
         25    2    1    2    0    0 -0.99260532260E+02  0.15721388430E+03  0.80236112929E+02  0.23797257532E+03  0.12499701638E+03 0.  0.
          2    1    1    2  501    0  0.97471500088E+02 -0.19150589125E+03 -0.98334289806E+03  0.10065477907E+04  0.00000000000E+00 0. -1.
          1    1    1    2  502    0  0.17890321713E+01  0.34292006952E+02  0.16643247783E+04  0.16646789811E+04  0.00000000000E+00 0. -1.
         22    1    3    3    0    0 -0.59440285159E+02  0.33020181750E+02  0.83283439208E+02  0.10751563211E+03  0.00000000000E+00 0.  1.
         22    1    3    3    0    0 -0.39820247100E+02  0.12419370255E+03 -0.30473262794E+01  0.13045694320E+03  0.00000000000E+00 0.  1.
</event>
<event>
 7    1  0.5667373E-006  0.1229720E+03  0.7818608E-02  0.1261262E+00
          2   -1    0    0  502    0  0.00000000000E+00  0.00000000000E+00  0.96881098270E+03  0.96881098270E+03  0.00000000000E+00 0. -1.
          1   -1    0    0  501    0 -0.00000000000E+00 -0.00000000000E+00 -0.54558500244E+02  0.54558500244E+02  0.00000000000E+00 0. -1.
         25    2    1    2    0    0 -0.24781436172E+02  0.66904202319E+02  0.10500505460E+03  0.17816147028E+03  0.12500062453E+03 0.  0.
          2    1    1    2  501    0  0.75899189296E+02  0.61567417241E+02  0.23424233623E+03  0.25381234384E+03  0.00000000000E+00 0. -1.
          1    1    1    2  502    0 -0.51117753124E+02 -0.12847161956E+03  0.57500509163E+03  0.59139566883E+03  0.00000000000E+00 0. -1.
         22    1    3    3    0    0 -0.60306954092E+02  0.46047431830E+02  0.12501848054E+02  0.76899875778E+02  0.00000000000E+00 0.  1.
         22    1    3    3    0    0  0.35525517920E+02  0.20856770489E+02  0.92503206547E+02  0.10126159450E+03  0.00000000000E+00 0.  1.
</event>
<event>
 7    1  0.5667373E-006  0.2106943E+03  0.7818608E-02  0.1318842E+00
          2   -1    0    0  502    0  0.00000000000E+00  0.00000000000E+00  0.15992682842E+04  0.15992682842E+04  0.00000000000E+00 0. -1.
          1   -1    0    0  501    0 -0.00000000000E+00 -0.00000000000E+00 -0.29975329951E+03  0.29975329951E+03  0.00000000000E+00 0. -1.
         25    2    1    2    0    0  0.61465364956E+02 -0.22327599378E+03  0.70982070315E+03  0.75703051223E+03  0.12497841949E+03 0.  0.
          2    1    1    2  501    0  0.23319063722E+01  0.33176152757E+02 -0.26347949007E+03  0.26557021027E+03  0.00000000000E+00 0. -1.
          1    1    1    2  502    0 -0.63797271328E+02  0.19009984103E+03  0.85317377161E+03  0.87642086121E+03  0.00000000000E+00 0. -1.
         22    1    3    3    0    0  0.77742259725E+02 -0.20326276463E+03  0.49577032352E+03  0.54143127368E+03  0.00000000000E+00 0. -1.
         22    1    3    3    0    0 -0.16276894769E+02 -0.20013229150E+02  0.21405037963E+03  0.21559923855E+03  0.00000000000E+00 0. -1.
</event>
<event>
 7    1  0.5667373E-006  0.1422923E+03  0.7818608E-02  0.1287488E+00
          2   -1    0    0  502    0  0.00000000000E+00  0.00000000000E+00  0.64541368091E+03  0.64541368091E+03  0.00000000000E+00 0. -1.
          1   -1    0    0  501    0 -0.00000000000E+00 -0.00000000000E+00 -0.16065265699E+03  0.16065265699E+03  0.00000000000E+00 0. -1.
         25    2    1    2    0    0  0.16027516898E+03 -0.82412773195E+02  0.12819740611E+03  0.25404657346E+03  0.12500036629E+03 0.  0.
          2    1    1    2  501    0 -0.63892246703E+02 -0.15121287355E+02 -0.74716545103E+02  0.99465746024E+02  0.00000000000E+00 0. -1.
          1    1    1    2  502    0 -0.96382922279E+02  0.97534060549E+02  0.43128016290E+03  0.45255401842E+03  0.00000000000E+00 0. -1.
         22    1    3    3    0    0  0.10486953488E+03 -0.74418952821E+02  0.14670699494E+03  0.19508649940E+03  0.00000000000E+00 0. -1.
         22    1    3    3    0    0  0.55405634101E+02 -0.79938203734E+01 -0.18509588822E+02  0.58960074056E+02  0.00000000000E+00 0. -1.
</event>
<event>
 7    1  0.5962773E-006  0.4649215E+02  0.7818608E-02  0.1475192E+00
          2   -1    0    0  502    0  0.00000000000E+00  0.00000000000E+00  0.12634503782E+04  0.12634503782E+04  0.00000000000E+00 0. -1.
          1   -1    0    0  501    0 -0.00000000000E+00 -0.00000000000E+00 -0.42034988508E+03  0.42034988508E+03  0.00000000000E+00 0. -1.
         25    2    1    2    0    0  0.29077649989E+02 -0.40294003813E+02 -0.11832545598E+03  0.17915091163E+03  0.12500007652E+03 0.  0.
          2    1    1    2  501    0 -0.47532572006E+02  0.11314087815E+01 -0.26914737123E+03  0.27331471407E+03  0.00000000000E+00 0. -1.
          1    1    1    2  502    0  0.18454922017E+02  0.39162595031E+02  0.12305733203E+04  0.12313346376E+04  0.00000000000E+00 0. -1.
         22    1    3    3    0    0  0.12361788344E+02 -0.54265988237E+01  0.26236905672E+02  0.29506558680E+02  0.00000000000E+00 0. -1.
         22    1    3    3    0    0  0.16715861644E+02 -0.34867404989E+02 -0.14456236166E+03  0.14964435295E+03  0.00000000000E+00 0. -1.
</event>
<event>
 7    1  0.5667373E-006  0.4951230E+02  0.7818608E-02  0.1473442E+00
          2   -1    0    0  502    0  0.00000000000E+00  0.00000000000E+00  0.10127947316E+04  0.10127947316E+04  0.00000000000E+00 0. -1.
          1   -1    0    0  501    0 -0.00000000000E+00 -0.00000000000E+00 -0.30998761148E+03  0.30998761148E+03  0.00000000000E+00 0. -1.
         25    2    1    2    0    0 -0.11840983859E+02  0.11803986737E+01 -0.28863503002E+02  0.12883959478E+03  0.12499974855E+03 0.  0.
          2    1    1    2  501    0  0.49156265058E+02  0.16194021721E+02 -0.22779205788E+03  0.23359753073E+03  0.00000000000E+00 0. -1.
          1    1    1    2  502    0 -0.37315281200E+02 -0.17374420394E+02  0.95946268103E+03  0.96034521761E+03  0.00000000000E+00 0. -1.
         22    1    3    3    0    0  0.47966408805E+02  0.30409343645E+02 -0.13485191869E+01  0.56809533166E+02  0.00000000000E+00 0. -1.
         22    1    3    3    0    0 -0.59807392663E+02 -0.29228944971E+02 -0.27514983815E+02  0.72030061611E+02  0.00000000000E+00 0. -1.
</event>
<event>
 7    1  0.5667373E-006  0.8300643E+02  0.7818608E-02  0.1441573E+00
          2   -1    0    0  502    0  0.00000000000E+00  0.00000000000E+00  0.53959671479E+02  0.53959671479E+02  0.00000000000E+00 0. -1.
          1   -1    0    0  501    0 -0.00000000000E+00 -0.00000000000E+00 -0.11904474657E+04  0.11904474657E+04  0.00000000000E+00 0. -1.
         25    2    1    2    0    0 -0.46667007403E+02 -0.36560475822E+02 -0.31039422447E+03  0.33983047444E+03  0.12500279516E+03 0.  0.
          2    1    1    2  501    0 -0.30899516520E+02 -0.21472128020E+01 -0.81680515810E+03  0.81739222956E+03  0.00000000000E+00 0. -1.
          1    1    1    2  502    0  0.77566523923E+02  0.38707688624E+02 -0.92884116078E+01  0.87184433142E+02  0.00000000000E+00 0. -1.
         22    1    3    3    0    0 -0.60415330497E+02 -0.74181970792E+02 -0.18625837120E+03  0.20939235371E+03  0.00000000000E+00 0. -1.
         22    1    3    3    0    0  0.13748323094E+02  0.37621494970E+02 -0.12413585328E+03  0.13043812073E+03  0.00000000000E+00 0. -1.
</event>
<event>
 7    1  0.5667373E-006  0.3873110E+02  0.7818608E-02  0.1587690E+00
          2   -1    0    0  502    0  0.00000000000E+00  0.00000000000E+00  0.49382952930E+03  0.49382952930E+03  0.00000000000E+00 0. -1.
          1   -1    0    0  501    0 -0.00000000000E+00 -0.00000000000E+00 -0.18640577144E+03  0.18640577144E+03  0.00000000000E+00 0. -1.
         25    2    1    2    0    0  0.48641354475E+02  0.39525058307E+02  0.16625310314E+03  0.21724035093E+03  0.12500025668E+03 0.  0.
          2    1    1    2  501    0 -0.32177300666E+02 -0.21043257319E+02 -0.15809733016E+03  0.16270514177E+03  0.00000000000E+00 0. -1.
          1    1    1    2  502    0 -0.16464053809E+02 -0.18481800988E+02  0.29926798487E+03  0.30028980803E+03  0.00000000000E+00 0. -1.
         22    1    3    3    0    0  0.86547298234E+02  0.13154571357E+02  0.76292390262E+02  0.11612065445E+03  0.00000000000E+00 0. -1.
         22    1    3    3    0    0 -0.37905943759E+02  0.26370486950E+02  0.89960712877E+02  0.10111969648E+03  0.00000000000E+00 0. -1.
</event>
<event>
 7    1  0.5667373E-006  0.8226588E+02  0.7818608E-02  0.1326756E+00
          2   -1    0    0  502    0  0.00000000000E+00  0.00000000000E+00  0.25627661044E+03  0.25627661044E+03  0.00000000000E+00 0. -1.
          1   -1    0    0  501    0 -0.00000000000E+00 -0.00000000000E+00 -0.32383771884E+03  0.32383771884E+03  0.00000000000E+00 0. -1.
         25    2    1    2    0    0 -0.15680498315E+02 -0.91389098453E+01 -0.15638101513E+02  0.12727177718E+03  0.12499662934E+03 0.  0.
          2    1    1    2  501    0 -0.56439855912E+00  0.89784916904E+02 -0.23530505715E+03  0.25185336959E+03  0.00000000000E+00 0. -1.
          1    1    1    2  502    0  0.16244896874E+02 -0.80646007058E+02  0.18338205027E+03  0.20098918252E+03  0.00000000000E+00 0. -1.
         22    1    3    3    0    0 -0.54078882448E+02 -0.35135326312E+02 -0.38982013110E+02  0.75356579195E+02  0.00000000000E+00 0.  1.
         22    1    3    3    0    0  0.38398384133E+02  0.25996416467E+02  0.23343911597E+02  0.51915197984E+02  0.00000000000E+00 0.  1.
</event>
<event>
 7    1  0.5667373E-006  0.8037334E+02  0.7818608E-02  0.1414353E+00
          2   -1    0    0  502    0  0.00000000000E+00  0.00000000000E+00  0.31286906661E+03  0.31286906661E+03  0.00000000000E+00 0. -1.
          1   -1    0    0  501    0 -0.00000000000E+00 -0.00000000000E+00 -0.32748846870E+03  0.32748846870E+03  0.00000000000E+00 0. -1.
         25    2    1    2    0    0  0.28441696741E+02  0.33367516174E+02 -0.17087795612E+03  0.21621039494E+03  0.12500135096E+03 0.  0.
          2    1    1    2  501    0  0.35268449063E+02  0.17439027127E+02 -0.12514422115E+03  0.13118330402E+03  0.00000000000E+00 0. -1.
          1    1    1    2  502    0 -0.63710145804E+02 -0.50806543301E+02  0.28140277519E+03  0.29296383634E+03  0.00000000000E+00 0. -1.
         22    1    3    3    0    0 -0.32585557013E+02 -0.11320988163E+02 -0.12047318569E+03  0.12531469096E+03  0.00000000000E+00 0.  1.
         22    1    3    3    0    0  0.61027253754E+02  0.44688504337E+02 -0.50404770429E+02  0.90895703983E+02  0.00000000000E+00 0.  1.
</event>
<event>
 7    1  0.5667373E-006  0.1552759E+03  0.7818608E-02  0.1331654E+00
          2   -1    0    0  502    0  0.00000000000E+00  0.00000000000E+00  0.29680452888E+03  0.29680452888E+03  0.00000000000E+00 0. -1.
          1   -1    0    0  501    0 -0.00000000000E+00 -0.00000000000E+00 -0.18352730720E+04  0.18352730720E+04  0.00000000000E+00 0. -1.
         25    2    1    2    0    0 -0.10141459279E+03 -0.13142320424E+03  0.71044963085E+02  0.21961316340E+03  0.12500230605E+03 0.  0.
          2    1    1    2  501    0  0.39713121616E+02 -0.67614973680E+01 -0.17228963389E+04  0.17233672401E+04  0.00000000000E+00 0. -1.
          1    1    1    2  502    0  0.61701471173E+02  0.13818470160E+03  0.11338283266E+03  0.18909719734E+03  0.00000000000E+00 0. -1.
         22    1    3    3    0    0 -0.11467371515E+03 -0.79920608757E+02  0.12216065759E+02  0.14030893383E+03  0.00000000000E+00 0.  1.
         22    1    3    3    0    0  0.13259122363E+02 -0.51502595479E+02  0.58828897326E+02  0.79304229569E+02  0.00000000000E+00 0.  1.
</event>
<event>
 7    1  0.5667373E-006  0.5885553E+02  0.7818608E-02  0.1467721E+00
          2   -1    0    0  502    0  0.00000000000E+00  0.00000000000E+00  0.15567683039E+04  0.15567683039E+04  0.00000000000E+00 0. -1.
          1   -1    0    0  501    0 -0.00000000000E+00 -0.00000000000E+00 -0.39796333654E+03  0.39796333654E+03  0.00000000000E+00 0. -1.
         25    2    1    2    0    0  0.55202210690E+02  0.76113992832E+02  0.62471372715E+02  0.16842712370E+03  0.12499759845E+03 0.  0.
          2    1    1    2  501    0 -0.36252672155E+02 -0.45417003879E+02 -0.34231056693E+03  0.34720812881E+03  0.00000000000E+00 0. -1.
          1    1    1    2  502    0 -0.18949538535E+02 -0.30696988954E+02  0.14386441616E+04  0.14390963880E+04  0.00000000000E+00 0. -1.
         22    1    3    3    0    0  0.13307468627E+02  0.47858119722E+02 -0.33534904676E+02  0.59933948445E+02  0.00000000000E+00 0.  1.
         22    1    3    3    0    0  0.41894742063E+02  0.28255873110E+02  0.96006277391E+02  0.10849317525E+03  0.00000000000E+00 0.  1.
</event>
<event>
 7    1  0.5667373E-006  0.5230802E+02  0.7818608E-02  0.1555271E+00
          2   -1    0    0  502    0  0.00000000000E+00  0.00000000000E+00  0.88721995845E+03  0.88721995845E+03  0.00000000000E+00 0. -1.
          1   -1    0    0  501    0 -0.00000000000E+00 -0.00000000000E+00 -0.97287876959E+02  0.97287876959E+02  0.00000000000E+00 0. -1.
         25    2    1    2    0    0 -0.44455298416E+02 -0.17610789748E+02  0.20160063220E+03  0.24198005425E+03  0.12500047311E+03 0.  0.
          2    1    1    2  501    0  0.36037093191E+02  0.38411116990E+02 -0.67888661201E+02  0.85924131150E+02  0.00000000000E+00 0. -1.
          1    1    1    2  502    0  0.84182052249E+01 -0.20800327242E+02  0.65622011049E+03  0.65660365001E+03  0.00000000000E+00 0. -1.
         22    1    3    3    0    0 -0.49081163843E+02  0.12115720424E+02  0.20551553239E+03  0.21164211627E+03  0.00000000000E+00 0. -1.
         22    1    3    3    0    0  0.46258654266E+01 -0.29726510172E+02 -0.39149001813E+01  0.30337937988E+02  0.00000000000E+00 0. -1.
</event>
<event>
 7    1  0.5667373E-006  0.1144287E+03  0.7818608E-02  0.1380155E+00
          2   -1    0    0  502    0  0.00000000000E+00  0.00000000000E+00  0.99856305276E+03  0.99856305276E+03  0.00000000000E+00 0. -1.
          1   -1    0    0  501    0 -0.00000000000E+00 -0.00000000000E+00 -0.48440031739E+03  0.48440031739E+03  0.00000000000E+00 0. -1.
         25    2    1    2    0    0  0.63007187992E+02 -0.75967254850E+02  0.10708116119E+03  0.19191601410E+03  0.12499780734E+03 0.  0.
          2    1    1    2  501    0 -0.18236171734E+02 -0.31352143677E+02 -0.43724708806E+03  0.43874882438E+03  0.00000000000E+00 0. -1.
          1    1    1    2  502    0 -0.44771016258E+02  0.10731939853E+03  0.84432866224E+03  0.85229853167E+03  0.00000000000E+00 0. -1.
         22    1    3    3    0    0  0.36739792209E+02  0.27100692072E+02  0.76013336165E+01  0.46282179239E+02  0.00000000000E+00 0. -1.
         22    1    3    3    0    0  0.26267395783E+02 -0.10306794692E+03  0.99479827571E+02  0.14563383487E+03  0.00000000000E+00 0. -1.
</event>
<event>
 7    1  0.5667373E-006  0.7090431E+02  0.7818608E-02  0.1471009E+00
          2   -1    0    0  502    0  0.00000000000E+00  0.00000000000E+00  0.55120837491E+03  0.55120837491E+03  0.00000000000E+00 0. -1.
          1   -1    0    0  501    0 -0.00000000000E+00 -0.00000000000E+00 -0.82488694378E+03  0.82488694378E+03  0.00000000000E+00 0. -1.
         25    2    1    2    0    0 -0.63222921973E+01 -0.64594730359E+02  0.11462178233E+02  0.14131267908E+03  0.12500176466E+03 0.  0.
          2    1    1    2  501    0 -0.22788767908E+02  0.67410231270E+02 -0.75784304733E+03  0.76117642607E+03  0.00000000000E+00 0. -1.
          1    1    1    2  502    0  0.29111060105E+02 -0.28155009111E+01  0.47270230023E+03  0.47360621354E+03  0.00000000000E+00 0. -1.
         22    1    3    3    0    0  0.56594728590E+02 -0.50677994640E+02  0.63247347099E+00  0.75971194986E+02  0.00000000000E+00 0. -1.
         22    1    3    3    0    0 -0.62917020788E+02 -0.13916735719E+02  0.10829704762E+02  0.65341484090E+02  0.00000000000E+00 0. -1.
</event>
<event>
 7    1  0.5706718E-006  0.1419262E+03  0.7818608E-02  0.1265387E+00
          2   -1    0    0  502    0  0.00000000000E+00  0.00000000000E+00  0.22030572497E+04  0.22030572497E+04  0.00000000000E+00 0. -1.
          1   -1    0    0  501    0 -0.00000000000E+00 -0.00000000000E+00 -0.63710019608E+03  0.63710019608E+03  0.00000000000E+00 0. -1.
         25    2    1    2    0    0 -0.12486303395E+03  0.16987033800E+02 -0.14225428963E+03  0.22746553460E+03  0.12499979980E+03 0.  0.
          2    1    1    2  501    0 -0.21953226423E+01 -0.81302688967E+02 -0.44621364171E+03  0.45356538749E+03  0.00000000000E+00 0. -1.
          1    1    1    2  502    0  0.12705835659E+03  0.64315655168E+02  0.21544249850E+04  0.21591265237E+04  0.00000000000E+00 0. -1.
         22    1    3    3    0    0 -0.45714273955E+02  0.63801512613E+02 -0.34302466576E+02  0.85656798143E+02  0.00000000000E+00 0. -1.
         22    1    3    3    0    0 -0.79148759998E+02 -0.46814478813E+02 -0.10795182306E+03  0.14180873646E+03  0.00000000000E+00 0. -1.
</event>
<event>
 7    1  0.5667373E-006  0.4442747E+02  0.7818608E-02  0.1484035E+00
          2   -1    0    0  502    0  0.00000000000E+00  0.00000000000E+00  0.31410456297E+04  0.31410456297E+04  0.00000000000E+00 0. -1.
          1   -1    0    0  501    0 -0.00000000000E+00 -0.00000000000E+00 -0.42559346438E+03  0.42559346438E+03  0.00000000000E+00 0. -1.
         25    2    1    2    0    0 -0.10748538334E+02 -0.12847427162E+02  0.10913331682E+03  0.16678012811E+03  0.12499977133E+03 0.  0.
          2    1    1    2  501    0 -0.23485369232E+02  0.38134034434E+02 -0.39535491250E+03  0.39788349299E+03  0.00000000000E+00 0. -1.
          1    1    1    2  502    0  0.34233907567E+02 -0.25286607273E+02  0.30016737610E+04  0.30019754730E+04  0.00000000000E+00 0. -1.
         22    1    3    3    0    0  0.20346075419E+02 -0.63042007463E+02  0.67183392611E+02  0.94349699166E+02  0.00000000000E+00 0.  1.
         22    1    3    3    0    0 -0.31094613754E+02  0.50194580301E+02  0.41949924206E+02  0.72430428944E+02  0.00000000000E+00 0.  1.
</event>
<event>
 7    1  0.5667373E-006  0.2056103E+03  0.7818608E-02  0.1327897E+00
          2   -1    0    0  502    0  0.00000000000E+00  0.00000000000E+00  0.14297545539E+04  0.14297545539E+04  0.00000000000E+00 0. -1.
          1   -1    0    0  501    0 -0.00000000000E+00 -0.00000000000E+00 -0.27136031706E+03  0.27136031706E+03  0.00000000000E+00 0. -1.
         25    2    1    2    0    0  0.70182418163E+02 -0.20052379261E+03  0.21105915854E+03  0.32450741625E+03  0.12499492620E+03 0.  0.
          2    1    1    2  501    0 -0.95065623751E+02  0.18129774684E+03 -0.16555264310E+03  0.26327556565E+03  0.00000000000E+00 0. -1.
          1    1    1    2  502    0  0.24883205588E+02  0.19226045776E+02  0.11128877214E+04  0.11133318890E+04  0.00000000000E+00 0. -1.
         22    1    3    3    0    0  0.61834397404E+02 -0.50139513952E+02  0.21622897842E+02  0.82492504343E+02  0.00000000000E+00 0.  1.
         22    1    3    3    0    0  0.83480207585E+01 -0.15038427866E+03  0.18943626070E+03  0.24201491191E+03  0.00000000000E+00 0.  1.
</event>
<event>
 7    1  0.5667373E-006  0.9110480E+02  0.7818608E-02  0.1340015E+00
          2   -1    0    0  502    0  0.00000000000E+00  0.00000000000E+00  0.84752663031E+03  0.84752663031E+03  0.00000000000E+00 0. -1.
          1   -1    0    0  501    0 -0.00000000000E+00 -0.00000000000E+00 -0.18068122089E+03  0.18068122089E+03  0.00000000000E+00 0. -1.
         25    2    1    2    0    0  0.26642724112E+02 -0.59691139849E+02  0.34694346896E+03  0.37452340096E+03  0.12500056117E+03 0.  0.
          2    1    1    2  501    0  0.63681222972E+02  0.43951403425E+01 -0.15473037735E+03  0.16738012156E+03  0.00000000000E+00 0. -1.
          1    1    1    2  502    0 -0.90323947084E+02  0.55295999506E+02  0.47463231781E+03  0.48630432868E+03  0.00000000000E+00 0. -1.
         22    1    3    3    0    0 -0.15354935030E+02  0.29593003781E+02  0.39790242178E+02  0.51911301998E+02  0.00000000000E+00 0. -1.
         22    1    3    3    0    0  0.41997659142E+02 -0.89284143629E+02  0.30715322678E+03  0.32261209896E+03  0.00000000000E+00 0. -1.
</event>
<event>
 7    1  0.5667373E-006  0.1780385E+03  0.7818608E-02  0.1210541E+00
          2   -1    0    0  502    0  0.00000000000E+00  0.00000000000E+00  0.72759312156E+03  0.72759312156E+03  0.00000000000E+00 0. -1.
          1   -1    0    0  501    0 -0.00000000000E+00 -0.00000000000E+00 -0.78840196096E+03  0.78840196096E+03  0.00000000000E+00 0. -1.
         25    2    1    2    0    0  0.91115477260E+02  0.17184009461E+03 -0.78658657228E+01  0.23133926720E+03  0.12499974557E+03 0.  0.
          2    1    1    2  501    0  0.68919963386E+02 -0.90057968595E+02 -0.65067827351E+03  0.66048664989E+03  0.00000000000E+00 0. -1.
          1    1    1    2  502    0 -0.16003544065E+03 -0.81782126020E+02  0.59773529984E+03  0.62416916543E+03  0.00000000000E+00 0. -1.
         22    1    3    3    0    0  0.99917478389E+01  0.13984387146E+03 -0.25147347106E+02  0.14243781969E+03  0.00000000000E+00 0. -1.
         22    1    3    3    0    0  0.81123729422E+02  0.31996223152E+02  0.17281481384E+02  0.88901447514E+02  0.00000000000E+00 0. -1.
</event>
<event>
 7    1  0.5667373E-006  0.3344198E+02  0.7818608E-02  0.1577673E+00
          2   -1    0    0  502    0  0.00000000000E+00  0.00000000000E+00  0.26676008564E+03  0.26676008564E+03  0.00000000000E+00 0. -1.
          1   -1    0    0  501    0 -0.00000000000E+00 -0.00000000000E+00 -0.67983165756E+03  0.67983165756E+03  0.00000000000E+00 0. -1.
         25    2    1    2    0    0  0.14058594426E+02  0.11645611474E+02 -0.73462670154E+01  0.12653826989E+03  0.12499880705E+03 0.  0.
          2    1    1    2  501    0 -0.21657274564E+02  0.21459636028E+02 -0.61111454628E+03  0.61187461313E+03  0.00000000000E+00 0. -1.
          1    1    1    2  502    0  0.75986801382E+01 -0.33105247502E+02  0.20538924137E+03  0.20817886017E+03  0.00000000000E+00 0. -1.
         22    1    3    3    0    0 -0.15943618525E+02 -0.52579181185E+02  0.23370859531E+01  0.54993010797E+02  0.00000000000E+00 0. -1.
         22    1    3    3    0    0  0.30002212951E+02  0.64224792659E+02 -0.96833529685E+01  0.71545259094E+02  0.00000000000E+00 0. -1.
</event>
<event>
 7    1  0.5667373E-006  0.9045107E+02  0.7818608E-02  0.1394180E+00
          2   -1    0    0  502    0  0.00000000000E+00  0.00000000000E+00  0.14945173770E+03  0.14945173770E+03  0.00000000000E+00 0. -1.
          1   -1    0    0  501    0 -0.00000000000E+00 -0.00000000000E+00 -0.19123886669E+04  0.19123886669E+04  0.00000000000E+00 0. -1.
         25    2    1    2    0    0 -0.35379898651E+02  0.47725614599E+02 -0.13383991930E+03  0.19253063314E+03  0.12500179671E+03 0.  0.
          2    1    1    2  501    0  0.76197306395E+02 -0.51316410333E+02 -0.17444645248E+04  0.17468817595E+04  0.00000000000E+00 0. -1.
          1    1    1    2  502    0 -0.40817407744E+02  0.35907957342E+01  0.11536751495E+03  0.12242801188E+03  0.00000000000E+00 0. -1.
         22    1    3    3    0    0  0.10989276247E+02 -0.14730113646E+02  0.15568533953E+02  0.24085673956E+02  0.00000000000E+00 0.  1.
         22    1    3    3    0    0 -0.46369174898E+02  0.62455728245E+02 -0.14940845325E+03  0.16844495918E+03  0.00000000000E+00 0.  1.
</event>
<event>
 7    1  0.5667373E-006  0.6187727E+02  0.7818608E-02  0.1417802E+00
          2   -1    0    0  502    0  0.00000000000E+00  0.00000000000E+00  0.85399353763E+03  0.85399353763E+03  0.00000000000E+00 0. -1.
          1   -1    0    0  501    0 -0.00000000000E+00 -0.00000000000E+00 -0.19647819734E+03  0.19647819734E+03  0.00000000000E+00 0. -1.
         25    2    1    2    0    0 -0.19921096924E+02 -0.18946259270E+02  0.31424494280E+03  0.33930964618E+03  0.12500136428E+03 0.  0.
          2    1    1    2  501    0 -0.48617286135E+02  0.10601607331E+02 -0.17826330267E+03  0.18507792864E+03  0.00000000000E+00 0. -1.
          1    1    1    2  502    0  0.68538383059E+02  0.83446519400E+01  0.52153370015E+03  0.52608416015E+03  0.00000000000E+00 0. -1.
         22    1    3    3    0    0 -0.38811191876E+02 -0.36927367521E+02  0.48428044284E+02  0.72216442450E+02  0.00000000000E+00 0.  1.
         22    1    3    3    0    0  0.18890094952E+02  0.17981108251E+02  0.26581689852E+03  0.26709320373E+03  0.00000000000E+00 0.  1.
</event>
<event>
 7    1  0.5667373E-006  0.2303276E+03  0.7818608E-02  0.1249435E+00
          2   -1    0    0  502    0  0.00000000000E+00  0.00000000000E+00  0.20285001360E+03  0.20285001360E+03  0.00000000000E+00 0. -1.
          1   -1    0    0  501    0 -0.00000000000E+00 -0.00000000000E+00 -0.14028764719E+04  0.14028764719E+04  0.00000000000E+00 0. -1.
         25    2    1    2    0    0 -0.33643968075E+02 -0.24021523798E+03 -0.75815236641E+03  0.80576386917E+03  0.12500050009E+03 0.  0.
          2    1    1    2  501    0  0.57488034014E+02  0.11674353002E+02 -0.54496633960E+03  0.54811447333E+03  0.00000000000E+00 0. -1.
          1    1    1    2  502    0 -0.23844065939E+02  0.22854088498E+03  0.10309224772E+03  0.25184814299E+03  0.00000000000E+00 0. -1.
         22    1    3    3    0    0 -0.52187697933E+01 -0.96385538393E+02 -0.13729905314E+03  0.16783455413E+03  0.00000000000E+00 0. -1.
         22    1    3    3    0    0 -0.28425198282E+02 -0.14382969959E+03 -0.62085331327E+03  0.63792931504E+03  0.00000000000E+00 0. -1.
</event>
<event>
 7    1  0.5667373E-006  0.1007812E+03  0.7818608E-02  0.1395178E+00
          2   -1    0    0  502    0  0.00000000000E+00  0.00000000000E+00  0.10050342962E+04  0.10050342962E+04  0.00000000000E+00 0. -1.
          1   -1    0    0  501    0 -0.00000000000E+00 -0.00000000000E+00 -0.46034754727E+03  0.46034754727E+03  0.00000000000E+00 0. -1.
         25    2    1    2    0    0  0.75452287458E+02 -0.42009938814E+02 -0.57987956590E+02  0.16261986971E+03  0.12499894509E+03 0.  0.
          2    1    1    2  501    0 -0.98472572875E+01 -0.35129378087E+02 -0.34639207690E+03  0.34830807143E+03  0.00000000000E+00 0. -1.
          1    1    1    2  502    0 -0.65605030170E+02  0.77139316901E+02  0.94906678246E+03  0.95445390238E+03  0.00000000000E+00 0. -1.
         22    1    3    3    0    0 -0.62740218447E+01 -0.38522853188E+02  0.24794436313E+02  0.46240000431E+02  0.00000000000E+00 0. -1.
         22    1    3    3    0    0  0.81726309303E+02 -0.34870856258E+01 -0.82782392902E+02  0.11637986928E+03  0.00000000000E+00 0. -1.
</event>
<event>
 7    1  0.5667373E-006  0.5592563E+02  0.7818608E-02  0.1424115E+00
          2   -1    0    0  502    0  0.00000000000E+00  0.00000000000E+00  0.66574363243E+03  0.66574363243E+03  0.00000000000E+00 0. -1.
          1   -1    0    0  501    0 -0.00000000000E+00 -0.00000000000E+00 -0.14249048421E+03  0.14249048421E+03  0.00000000000E+00 0. -1.
         25    2    1    2    0    0  0.88017126233E+01 -0.24845723856E+02 -0.10679177585E+02  0.12820119148E+03  0.12500688190E+03 0.  0.
          2    1    1    2  501    0 -0.50667002613E+02 -0.13557172119E+02 -0.62107744259E+02  0.81291536869E+02  0.00000000000E+00 0. -1.
          1    1    1    2  502    0  0.41865289989E+02  0.38402895976E+02  0.59604007007E+03  0.59874138829E+03  0.00000000000E+00 0. -1.
         22    1    3    3    0    0  0.55126648479E+02 -0.47137099170E+02  0.91371200247E+01  0.73104996088E+02  0.00000000000E+00 0.  1.
         22    1    3    3    0    0 -0.46324935855E+02  0.22291375314E+02 -0.19816297610E+02  0.55096195389E+02  0.00000000000E+00 0.  1.
</event>
<event>
 7    1  0.5667373E-006  0.5898241E+02  0.7818608E-02  0.1458628E+00
          2   -1    0    0  502    0  0.00000000000E+00  0.00000000000E+00  0.24767932229E+04  0.24767932229E+04  0.00000000000E+00 0. -1.
          1   -1    0    0  501    0 -0.00000000000E+00 -0.00000000000E+00 -0.63423318518E+02  0.63423318518E+02  0.00000000000E+00 0. -1.
         25    2    1    2    0    0 -0.34203285204E+02 -0.11481462355E+02  0.28242519570E+03  0.31095169641E+03  0.12500111054E+03 0.  0.
          2    1    1    2  501    0  0.57909292992E+02 -0.18783179848E+02 -0.30075238037E+02  0.67902974920E+02  0.00000000000E+00 0. -1.
          1    1    1    2  502    0 -0.23706007788E+02  0.30264642203E+02  0.21610199467E+04  0.21613618701E+04  0.00000000000E+00 0. -1.
         22    1    3    3    0    0  0.22258080594E+02 -0.31300661111E+02  0.23115373626E+02  0.44827157344E+02  0.00000000000E+00 0.  1.
         22    1    3    3    0    0 -0.56461365798E+02  0.19819198756E+02  0.25930982207E+03  0.26612453906E+03  0.00000000000E+00 0.  1.
</event>
<event>
 7    1  0.5667373E-006  0.7805117E+02  0.7818608E-02  0.1453619E+00
          2   -1    0    0  502    0  0.00000000000E+00  0.00000000000E+00  0.19537380861E+04  0.19537380861E+04  0.00000000000E+00 0. -1.
          1   -1    0    0  501    0 -0.00000000000E+00 -0.00000000000E+00 -0.11657372330E+03  0.11657372330E+03  0.00000000000E+00 0. -1.
         25    2    1    2    0    0 -0.69516274724E+02 -0.64849189649E+02  0.14440412445E+04  0.14525553890E+04  0.12499644988E+03 0.  0.
          2    1    1    2  501    0  0.39473488856E+02  0.67191157749E+02 -0.98282183715E+02  0.12542804965E+03  0.00000000000E+00 0. -1.
          1    1    1    2  502    0  0.30042785868E+02 -0.23419681005E+01  0.49140530197E+03  0.49232837071E+03  0.00000000000E+00 0. -1.
         22    1    3    3    0    0 -0.93987316224E+02 -0.82398513484E+02  0.12434520845E+04  0.12497184551E+04  0.00000000000E+00 0.  1.
         22    1    3    3    0    0  0.24471041500E+02  0.17549323835E+02  0.20058916004E+03  0.20283693392E+03  0.00000000000E+00 0.  1.
</event>
<event>
 7    1  0.5667373E-006  0.1245024E+03  0.7818608E-02  0.1315264E+00
          2   -1    0    0  502    0  0.00000000000E+00  0.00000000000E+00  0.10705739729E+04  0.10705739729E+04  0.00000000000E+00 0. -1.
          1   -1    0    0  501    0 -0.00000000000E+00 -0.00000000000E+00 -0.31288801979E+03  0.31288801979E+03  0.00000000000E+00 0. -1.
         25    2    1    2    0    0 -0.17585716615E+03 -0.31561418660E+02  0.13929055121E+03  0.25874548035E+03  0.12500199963E+03 0.  0.
          2    1    1    2  501    0  0.11895733395E+03  0.19718373607E+02 -0.23776111044E+03  0.26658958569E+03  0.00000000000E+00 0. -1.
          1    1    1    2  502    0  0.56899832204E+02  0.11843045052E+02  0.85615651233E+03  0.85812692664E+03  0.00000000000E+00 0. -1.
         22    1    3    3    0    0 -0.19214420141E+02  0.40067210927E+02  0.40832551824E+02  0.60347929718E+02  0.00000000000E+00 0. -1.
         22    1    3    3    0    0 -0.15664274601E+03 -0.71628629586E+02  0.98457999381E+02  0.19839755063E+03  0.00000000000E+00 0. -1.
</event>
<event>
 7    1  0.5667373E-006  0.2038199E+03  0.7818608E-02  0.1206458E+00
          2   -1    0    0  502    0  0.00000000000E+00  0.00000000000E+00  0.44124202576E+03  0.44124202576E+03  0.00000000000E+00 0. -1.
          1   -1    0    0  501    0 -0.00000000000E+00 -0.00000000000E+00 -0.50762169915E+03  0.50762169915E+03  0.00000000000E+00 0. -1.
         25    2    1    2    0    0  0.12729170662E+02 -0.24441022183E+03  0.15641020756E+03  0.31620779941E+03  0.12499932425E+03 0.  0.
          2    1    1    2  501    0  0.70067779348E+02  0.76154507625E+02 -0.37632614478E+03  0.39029523438E+03  0.00000000000E+00 0. -1.
          1    1    1    2  502    0 -0.82796950010E+02  0.16825571420E+03  0.15353626383E+03  0.24236069113E+03  0.00000000000E+00 0. -1.
         22    1    3    3    0    0  0.35547147479E+02 -0.17560032927E+03  0.47457745522E+02  0.18534107193E+03  0.00000000000E+00 0. -1.
         22    1    3    3    0    0 -0.22817976817E+02 -0.68809892560E+02  0.10895246203E+03  0.13086672749E+03  0.00000000000E+00 0. -1.
</event>
<event>
 7    1  0.5667373E-006  0.7647846E+02  0.7818608E-02  0.1496363E+00
          2   -1    0    0  502    0  0.00000000000E+00  0.00000000000E+00  0.34900474520E+03  0.34900474520E+03  0.00000000000E+00 0. -1.
          1   -1    0    0  501    0 -0.00000000000E+00 -0.00000000000E+00 -0.33334796583E+04  0.33334796583E+04  0.00000000000E+00 0. -1.
         25    2    1    2    0    0 -0.36256864051E+02  0.41812976378E+02 -0.21415720403E+03  0.25406014166E+03  0.12498144805E+03 0.  0.
          2    1    1    2  501    0  0.56211819745E+02 -0.52611917557E+02 -0.30985010765E+04  0.30994574853E+04  0.00000000000E+00 0. -1.
          1    1    1    2  502    0 -0.19954955693E+02  0.10798941179E+02  0.32818336741E+03  0.32896677649E+03  0.00000000000E+00 0. -1.
         22    1    3    3    0    0  0.39881999732E+02  0.28299728656E+02 -0.13417405286E+03  0.14280800050E+03  0.00000000000E+00 0.  1.
         22    1    3    3    0    0 -0.76138863783E+02  0.13513247722E+02 -0.79983151173E+02  0.11125214116E+03  0.00000000000E+00 0.  1.
</event>
<event>
 7    1  0.5667373E-006  0.6323892E+02  0.7818608E-02  0.1542274E+00
          2   -1    0    0  502    0  0.00000000000E+00  0.00000000000E+00  0.58305083317E+03  0.58305083317E+03  0.00000000000E+00 0. -1.
          1   -1    0    0  501    0 -0.00000000000E+00 -0.00000000000E+00 -0.89849687101E+03  0.89849687101E+03  0.00000000000E+00 0. -1.
         25    2    1    2    0    0  0.72565372146E+02  0.40441068661E+02  0.12651409612E+03  0.19628687782E+03  0.12498603369E+03 0.  0.
          2    1    1    2  501    0 -0.56285992098E+02 -0.28516792205E+02 -0.86221553687E+03  0.86452122725E+03  0.00000000000E+00 0. -1.
          1    1    1    2  502    0 -0.16279380047E+02 -0.11924276457E+02  0.42025540291E+03  0.42073959911E+03  0.00000000000E+00 0. -1.
         22    1    3    3    0    0  0.75052575991E+02 -0.27054213075E+02  0.86976862381E+02  0.11802454913E+03  0.00000000000E+00 0. -1.
         22    1    3    3    0    0 -0.24872038449E+01  0.67495281736E+02  0.39537233736E+02  0.78262328685E+02  0.00000000000E+00 0. -1.
</event>
<event>
 7    1  0.5667373E-006  0.6047439E+02  0.7818608E-02  0.1546268E+00
          2   -1    0    0  502    0  0.00000000000E+00  0.00000000000E+00  0.43173830165E+03  0.43173830165E+03  0.00000000000E+00 0. -1.
          1   -1    0    0  501    0 -0.00000000000E+00 -0.00000000000E+00 -0.33279515483E+03  0.33279515483E+03  0.00000000000E+00 0. -1.
         25    2    1    2    0    0  0.27634653777E+02 -0.30849773880E+02  0.11125964870E+03  0.17239324559E+03  0.12500135623E+03 0.  0.
          2    1    1    2  501    0 -0.46222798676E+02  0.39643589272E+02 -0.29878871988E+03  0.30493091088E+03  0.00000000000E+00 0. -1.
          1    1    1    2  502    0  0.18588144899E+02 -0.87938153917E+01  0.28647221800E+03  0.28720930000E+03  0.00000000000E+00 0. -1.
         22    1    3    3    0    0  0.51995572982E+02 -0.20947106466E+01 -0.29549121048E+01  0.52121578333E+02  0.00000000000E+00 0. -1.
         22    1    3    3    0    0 -0.24360919205E+02 -0.28755063234E+02  0.11421456080E+03  0.12027166726E+03  0.00000000000E+00 0. -1.
</event>
<event>
 7    1  0.5667373E-006  0.3448906E+02  0.7818608E-02  0.1617586E+00
          2   -1    0    0  502    0  0.00000000000E+00  0.00000000000E+00  0.18222015806E+04  0.18222015806E+04  0.00000000000E+00 0. -1.
          1   -1    0    0  501    0 -0.00000000000E+00 -0.00000000000E+00 -0.16085152923E+03  0.16085152923E+03  0.00000000000E+00 0. -1.
         25    2    1    2    0    0  0.12297377769E+02  0.23061758878E+01  0.41620334760E+03  0.43474986475E+03  0.12500269758E+03 0.  0.
          2    1    1    2  501    0  0.22579734401E+02 -0.54750334829E+01 -0.15046698226E+03  0.15225023202E+03  0.00000000000E+00 0. -1.
          1    1    1    2  502    0 -0.34877112170E+02  0.31688575950E+01  0.13956136861E+04  0.13960530131E+04  0.00000000000E+00 0. -1.
         22    1    3    3    0    0  0.67341430466E+02  0.12149686374E+02  0.25942889253E+03  0.26830175813E+03  0.00000000000E+00 0. -1.
         22    1    3    3    0    0 -0.55044052697E+02 -0.98435104862E+01  0.15677445507E+03  0.16644810662E+03  0.00000000000E+00 0. -1.
</event>
<event>
 7    1  0.5667373E-006  0.1498894E+03  0.7818608E-02  0.1255738E+00
          2   -1    0    0  502    0  0.00000000000E+00  0.00000000000E+00  0.36071764160E+04  0.36071764160E+04  0.00000000000E+00 0. -1.
          1   -1    0    0  501    0 -0.00000000000E+00 -0.00000000000E+00 -0.31985243237E+03  0.31985243237E+03  0.00000000000E+00 0. -1.
         25    2    1    2    0    0 -0.22827087267E+03 -0.49105514307E+01  0.37529316289E+03  0.45672612618E+03  0.12498836502E+03 0.  0.
          2    1    1    2  501    0  0.14568564919E+03 -0.13736837328E+02 -0.25935416214E+03  0.29778782799E+03  0.00000000000E+00 0. -1.
          1    1    1    2  502    0  0.82585223484E+02  0.18647388759E+02  0.31713849829E+04  0.31725148942E+04  0.00000000000E+00 0. -1.
         22    1    3    3    0    0 -0.14191586850E+03 -0.55874969878E+01  0.11583328692E+03  0.18327215886E+03  0.00000000000E+00 0. -1.
         22    1    3    3    0    0 -0.86355004173E+02  0.67694555713E+00  0.25945987597E+03  0.27345396731E+03  0.00000000000E+00 0. -1.
</event>
<event>
 7    1  0.5667373E-006  0.3045059E+02  0.7818608E-02  0.1619261E+00
          2   -1    0    0  502    0  0.00000000000E+00  0.00000000000E+00  0.21730896392E+03  0.21730896392E+03  0.00000000000E+00 0. -1.
          1   -1    0    0  501    0 -0.00000000000E+00 -0.00000000000E+00 -0.21480393619E+03  0.21480393619E+03  0.00000000000E+00 0. -1.
         25    2    1    2    0    0  0.30790225450E+02  0.18575313666E+02  0.25901975836E+01  0.13009634426E+03  0.12500107762E+03 0.  0.
          2    1    1    2  501    0 -0.29641491739E+02  0.74571209220E+01 -0.14835676782E+03  0.15147262869E+03  0.00000000000E+00 0. -1.
          1    1    1    2  502    0 -0.11487337107E+01 -0.26032434588E+02  0.14827159797E+03  0.15054392715E+03  0.00000000000E+00 0. -1.
         22    1    3    3    0    0 -0.11132105800E+02  0.63262150745E+02 -0.15750831420E+02  0.66137071199E+02  0.00000000000E+00 0. -1.
         22    1    3    3    0    0  0.41922331250E+02 -0.44686837079E+02  0.18341029004E+02  0.63959273061E+02  0.00000000000E+00 0. -1.
</event>
<event>
 7    1  0.5667373E-006  0.8449846E+02  0.7818608E-02  0.1396148E+00
          2   -1    0    0  502    0  0.00000000000E+00  0.00000000000E+00  0.87291188459E+03  0.87291188459E+03  0.00000000000E+00 0. -1.
          1   -1    0    0  501    0 -0.00000000000E+00 -0.00000000000E+00 -0.72332924301E+02  0.72332924301E+02  0.00000000000E+00 0. -1.
         25    2    1    2    0    0  0.22089320381E+02 -0.10664244531E+03  0.17490000209E+03  0.24098875428E+03  0.12500007896E+03 0.  0.
          2    1    1    2  501    0 -0.42413190382E+02  0.68545834569E+02  0.36068216482E+01  0.80687169473E+02  0.00000000000E+00 0. -1.
          1    1    1    2  502    0  0.20323870001E+02  0.38096610742E+02  0.62207213654E+03  0.62356888513E+03  0.00000000000E+00 0. -1.
         22    1    3    3    0    0  0.15686435118E+02 -0.43656794636E+02 -0.83282781054E+01  0.47131095689E+02  0.00000000000E+00 0. -1.
         22    1    3    3    0    0  0.64028852629E+01 -0.62985650675E+02  0.18322828020E+03  0.19385765859E+03  0.00000000000E+00 0. -1.
</event>
<event>
 7    1  0.5667373E-006  0.1542819E+03  0.7818608E-02  0.1335891E+00
          2   -1    0    0  502    0  0.00000000000E+00  0.00000000000E+00  0.10067009683E+04  0.10067009683E+04  0.00000000000E+00 0. -1.
          1   -1    0    0  501    0 -0.00000000000E+00 -0.00000000000E+00 -0.11314431697E+04  0.11314431697E+04  0.00000000000E+00 0. -1.
         25    2    1    2    0    0 -0.17075869799E+03  0.42840552713E+02 -0.48941368733E+02  0.22139189666E+03  0.12500107375E+03 0.  0.
          2    1    1    2  501    0  0.13853935916E+03 -0.64938709695E+02 -0.98998241901E+03  0.10017361828E+04  0.00000000000E+00 0. -1.
          1    1    1    2  502    0  0.32219338827E+02  0.22098156982E+02  0.91418158641E+03  0.91501605847E+03  0.00000000000E+00 0. -1.
         22    1    3    3    0    0 -0.34884941603E+02  0.44025107561E+02  0.30578355539E+02  0.63954711115E+02  0.00000000000E+00 0. -1.
         22    1    3    3    0    0 -0.13587375639E+03 -0.11845548477E+01 -0.79519724272E+02  0.15743718555E+03  0.00000000000E+00 0. -1.
</event>
<event>
 7    1  0.5667373E-006  0.3694589E+02  0.7818608E-02  0.1587825E+00
          2   -1    0    0  502    0  0.00000000000E+00  0.00000000000E+00  0.37924573078E+03  0.37924573078E+03  0.00000000000E+00 0. -1.
          1   -1    0    0  501    0 -0.00000000000E+00 -0.00000000000E+00 -0.33642954964E+02  0.33642954964E+02  0.00000000000E+00 0. -1.
         25    2    1    2    0    0  0.19459906390E+02  0.54837379455E+02  0.20979086975E+03  0.25104292038E+03  0.12499805080E+03 0.  0.
          2    1    1    2  501    0 -0.32921346384E+01 -0.34569844589E+02  0.14227335012E+02  0.37527714651E+02  0.00000000000E+00 0. -1.
          1    1    1    2  502    0 -0.16167771752E+02 -0.20267534866E+02  0.12158457106E+03  0.12431805071E+03  0.00000000000E+00 0. -1.
         22    1    3    3    0    0  0.57437616538E+02  0.27532696885E+02  0.40668627975E+02  0.75571598453E+02  0.00000000000E+00 0. -1.
         22    1    3    3    0    0 -0.37977710148E+02  0.27304682570E+02  0.16912224177E+03  0.17547132193E+03  0.00000000000E+00 0. -1.
</event>
<event>
 7    1  0.5667373E-006  0.4934627E+02  0.7818608E-02  0.1538501E+00
          2   -1    0    0  502    0  0.00000000000E+00  0.00000000000E+00  0.14435366088E+04  0.14435366088E+04  0.00000000000E+00 0. -1.
          1   -1    0    0  501    0 -0.00000000000E+00 -0.00000000000E+00 -0.50221930818E+03  0.50221930818E+03  0.00000000000E+00 0. -1.
         25    2    1    2    0    0  0.26127480342E+02 -0.23198342164E+01  0.74144759807E+03  0.75236813011E+03  0.12500094265E+03 0.  0.
          2    1    1    2  501    0 -0.44499217748E+02  0.21421937914E+02 -0.49527840113E+03  0.49773464258E+03  0.00000000000E+00 0. -1.
          1    1    1    2  502    0  0.18371737406E+02 -0.19102103697E+02  0.69514810368E+03  0.69565314428E+03  0.00000000000E+00 0. -1.
         22    1    3    3    0    0  0.32970427857E+02 -0.30951522495E+02  0.94623197041E+02  0.10487418784E+03  0.00000000000E+00 0.  1.
         22    1    3    3    0    0 -0.68429475146E+01  0.28631688279E+02  0.64682440103E+03  0.64749394226E+03  0.00000000000E+00 0.  1.
</event>
<event>
 7    1  0.5667373E-006  0.1209081E+03  0.7818608E-02  0.1259854E+00
          2   -1    0    0  502    0  0.00000000000E+00  0.00000000000E+00  0.63747671715E+03  0.63747671715E+03  0.00000000000E+00 0. -1.
          1   -1    0    0  501    0 -0.00000000000E+00 -0.00000000000E+00 -0.90042128441E+03  0.90042128441E+03  0.00000000000E+00 0. -1.
         25    2    1    2    0    0 -0.23542733747E+02  0.54215639546E+02  0.28690096489E+02  0.14121373215E+03  0.12499840250E+03 0.  0.
          2    1    1    2  501    0  0.74852124827E+02  0.67485268750E+02 -0.83318649695E+03  0.83925969806E+03  0.00000000000E+00 0. -1.
          1    1    1    2  502    0 -0.51309391080E+02 -0.12170090830E+03  0.54155183320E+03  0.55742457134E+03  0.00000000000E+00 0. -1.
         22    1    3    3    0    0 -0.18266764423E+02  0.88643286625E+02  0.46873156174E+02  0.10192349933E+03  0.00000000000E+00 0.  1.
         22    1    3    3    0    0 -0.52759693246E+01 -0.34427647079E+02 -0.18183059685E+02  0.39290232822E+02  0.00000000000E+00 0.  1.
</event>
<event>
 7    1  0.5667373E-006  0.8795856E+02  0.7818608E-02  0.1404166E+00
          2   -1    0    0  502    0  0.00000000000E+00  0.00000000000E+00  0.64809019440E+03  0.64809019440E+03  0.00000000000E+00 0. -1.
          1   -1    0    0  501    0 -0.00000000000E+00 -0.00000000000E+00 -0.11618761262E+03  0.11618761262E+03  0.00000000000E+00 0. -1.
         25    2    1    2    0    0  0.36111508994E+02  0.11583557319E+03  0.10554567671E+03  0.20368283624E+03  0.12499954722E+03 0.  0.
          2    1    1    2  501    0 -0.23419800288E+02 -0.79033315299E+02 -0.40691564282E+02  0.91926902354E+02  0.00000000000E+00 0. -1.
          1    1    1    2  502    0 -0.12691708706E+02 -0.36802257891E+02  0.46704846934E+03  0.46866806843E+03  0.00000000000E+00 0. -1.
         22    1    3    3    0    0 -0.34556113918E+02  0.67439417813E+02  0.11781889280E+02  0.76687763034E+02  0.00000000000E+00 0. -1.
         22    1    3    3    0    0  0.70667622912E+02  0.48396155377E+02  0.93763787435E+02  0.12699507320E+03  0.00000000000E+00 0. -1.
</event>
<event>
 7    1  0.5667373E-006  0.3950606E+03  0.7818608E-02  0.1229729E+00
          2   -1    0    0  502    0  0.00000000000E+00  0.00000000000E+00  0.13860308391E+04  0.13860308391E+04  0.00000000000E+00 0. -1.
          1   -1    0    0  501    0 -0.00000000000E+00 -0.00000000000E+00 -0.24608191086E+03  0.24608191086E+03  0.00000000000E+00 0. -1.
         25    2    1    2    0    0 -0.32502529332E+03 -0.17761418573E+03  0.59616305812E+02  0.39543302077E+03  0.12499971891E+03 0.  0.
          2    1    1    2  501    0 -0.39806161352E+02  0.12702178945E+02 -0.33193079320E+02  0.53363436417E+02  0.00000000000E+00 0. -1.
          1    1    1    2  502    0  0.36483145467E+03  0.16491200678E+03  0.11135257018E+04  0.11833162928E+04  0.00000000000E+00 0. -1.
         22    1    3    3    0    0 -0.28856302986E+03 -0.11886413347E+03  0.82136140644E+02  0.32271295299E+03  0.00000000000E+00 0. -1.
         22    1    3    3    0    0 -0.36462263458E+02 -0.58750052259E+02 -0.22519834832E+02  0.72720067779E+02  0.00000000000E+00 0. -1.
</event>
<event>
 7    1  0.5667373E-006  0.1243957E+03  0.7818608E-02  0.1365332E+00
          2   -1    0    0  502    0  0.00000000000E+00  0.00000000000E+00  0.24474190195E+03  0.24474190195E+03  0.00000000000E+00 0. -1.
          1   -1    0    0  501    0 -0.00000000000E+00 -0.00000000000E+00 -0.14952211542E+03  0.14952211542E+03  0.00000000000E+00 0. -1.
         25    2    1    2    0    0  0.54380050329E+02  0.80629073563E+02 -0.74209833443E+01  0.15855152656E+03  0.12500111280E+03 0.  0.
          2    1    1    2  501    0  0.29698193122E+02  0.23224007348E+02 -0.29437061498E+02  0.47831765404E+02  0.00000000000E+00 0. -1.
          1    1    1    2  502    0 -0.84078243452E+02 -0.10385308091E+03  0.13207783137E+03  0.18788072540E+03  0.00000000000E+00 0. -1.
         22    1    3    3    0    0 -0.16578131478E+02  0.82828562327E+02  0.11062273904E+02  0.85192599939E+02  0.00000000000E+00 0.  1.
         22    1    3    3    0    0  0.70958181807E+02 -0.21994887634E+01 -0.18483257248E+02  0.73358926619E+02  0.00000000000E+00 0.  1.
</event>
<event>
 7    1  0.5667373E-006  0.1130861E+03  0.7818608E-02  0.1388412E+00
          2   -1    0    0  502    0  0.00000000000E+00  0.00000000000E+00  0.14523120878E+03  0.14523120878E+03  0.00000000000E+00 0. -1.
          1   -1    0    0  501    0 -0.00000000000E+00 -0.00000000000E+00 -0.14922820384E+04  0.14922820384E+04  0.00000000000E+00 0. -1.
         25    2    1    2    0    0 -0.99387969657E+02  0.10116732027E+03 -0.12500062808E+04  0.12642206843E+04  0.12500176502E+03 0.  0.
          2    1    1    2  501    0  0.98876480048E+01 -0.32870476071E+02 -0.21060505455E+03  0.21338397968E+03  0.00000000000E+00 0. -1.
          1    1    1    2  502    0  0.89500321653E+02 -0.68296844194E+02  0.11356050579E+03  0.15990858319E+03  0.00000000000E+00 0. -1.
         22    1    3    3    0    0 -0.11385490653E+03  0.11449322283E+03 -0.11938450170E+04  0.12047147224E+04  0.00000000000E+00 0. -1.
         22    1    3    3    0    0  0.14466936875E+02 -0.13325902561E+02 -0.56161263806E+02  0.59505961835E+02  0.00000000000E+00 0. -1.
</event>
<event>
 7    1  0.5667373E-006  0.1097482E+04  0.7818608E-02  0.1073686E+00
          2   -1    0    0  502    0  0.00000000000E+00  0.00000000000E+00  0.12106838351E+04  0.12106838351E+04  0.00000000000E+00 0. -1.
          1   -1    0    0  501    0 -0.00000000000E+00 -0.00000000000E+00 -0.16769377986E+04  0.16769377986E+04  0.00000000000E+00 0. -1.
         25    2    1    2    0    0 -0.10928670571E+04  0.21901216015E+03 -0.59500351107E+03  0.12696381873E+04  0.12500887062E+03 0.  0.
          2    1    1    2  501    0  0.10721392299E+04 -0.12545012685E+03 -0.34608419544E+03  0.11335759935E+04  0.00000000000E+00 0. -1.
          1    1    1    2  502    0  0.20727827140E+02 -0.93562033305E+02  0.47483374309E+03  0.48440745294E+03  0.00000000000E+00 0. -1.
         22    1    3    3    0    0 -0.44799129951E+03  0.11365101148E+03 -0.31152992290E+03  0.55737209269E+03  0.00000000000E+00 0.  1.
         22    1    3    3    0    0 -0.64487575755E+03  0.10536114867E+03 -0.28347358818E+03  0.71226609460E+03  0.00000000000E+00 0.  1.
</event>
<event>
 7    1  0.5667373E-006  0.1008438E+03  0.7818608E-02  0.1324928E+00
          2   -1    0    0  502    0  0.00000000000E+00  0.00000000000E+00  0.39788539348E+03  0.39788539348E+03  0.00000000000E+00 0. -1.
          1   -1    0    0  501    0 -0.00000000000E+00 -0.00000000000E+00 -0.31743086993E+03  0.31743086993E+03  0.00000000000E+00 0. -1.
         25    2    1    2    0    0 -0.78837467953E+02  0.26870912676E+02  0.10375025809E+03  0.18256145719E+03  0.12500870888E+03 0.  0.
          2    1    1    2  501    0 -0.26377397249E+02 -0.60303178067E+02 -0.26179562118E+03  0.26994293404E+03  0.00000000000E+00 0. -1.
          1    1    1    2  502    0  0.10521486520E+03  0.33432265390E+02  0.23849988664E+03  0.26281187217E+03  0.00000000000E+00 0. -1.
         22    1    3    3    0    0  0.48375253236E+01  0.53516872754E+01 -0.25830444788E+02  0.26818912840E+02  0.00000000000E+00 0.  1.
         22    1    3    3    0    0 -0.83674993277E+02  0.21519225401E+02  0.12958070288E+03  0.15574254435E+03  0.00000000000E+00 0.  1.
</event>
<event>
 7    1  0.5667373E-006  0.1231870E+03  0.7818608E-02  0.1363942E+00
          2   -1    0    0  502    0  0.00000000000E+00  0.00000000000E+00  0.20399683216E+03  0.20399683216E+03  0.00000000000E+00 0. -1.
          1   -1    0    0  501    0 -0.00000000000E+00 -0.00000000000E+00 -0.11658138911E+04  0.11658138911E+04  0.00000000000E+00 0. -1.
         25    2    1    2    0    0  0.10402425213E+03  0.84190123973E+02 -0.45103488152E+01  0.18317259359E+03  0.12499133486E+03 0.  0.
          2    1    1    2  501    0 -0.69571126706E+02 -0.10140579246E+03 -0.10650972870E+04  0.10721732636E+04  0.00000000000E+00 0. -1.
          1    1    1    2  502    0 -0.34453125426E+02  0.17215668484E+02  0.10779057689E+03  0.11446486605E+03  0.00000000000E+00 0. -1.
         22    1    3    3    0    0  0.90205203227E+02  0.57381621557E+01 -0.36299560858E+02  0.97404123694E+02  0.00000000000E+00 0. -1.
         22    1    3    3    0    0  0.13819048906E+02  0.78451961817E+02  0.31789212043E+02  0.85768469894E+02  0.00000000000E+00 0. -1.
</event>
<event>
 7    1  0.5667373E-006  0.2554721E+03  0.7818608E-02  0.1208127E+00
          2   -1    0    0  502    0  0.00000000000E+00  0.00000000000E+00  0.11424068597E+04  0.11424068597E+04  0.00000000000E+00 0. -1.
          1   -1    0    0  501    0 -0.00000000000E+00 -0.00000000000E+00 -0.45031770697E+03  0.45031770697E+03  0.00000000000E+00 0. -1.
         25    2    1    2    0    0 -0.20164328352E+03  0.37365853832E+02  0.95888828219E+02  0.25860259769E+03  0.12499766132E+03 0.  0.
          2    1    1    2  501    0 -0.66197755210E+02 -0.46845725229E+02 -0.34557046077E+03  0.35495860058E+03  0.00000000000E+00 0. -1.
          1    1    1    2  502    0  0.26784103873E+03  0.94798713971E+01  0.94177078528E+03  0.97916336839E+03  0.00000000000E+00 0. -1.
         22    1    3    3    0    0 -0.21490690026E+03  0.32630219894E+02  0.10543243182E+03  0.24158995159E+03  0.00000000000E+00 0.  1.
         22    1    3    3    0    0  0.13263616737E+02  0.47356339378E+01 -0.95436036054E+01  0.17012646105E+02  0.00000000000E+00 0.  1.
</event>
<event>
 7    1  0.5667373E-006  0.5214296E+02  0.7818608E-02  0.1464441E+00
          2   -1    0    0  502    0  0.00000000000E+00  0.00000000000E+00  0.25140928406E+03  0.25140928406E+03  0.00000000000E+00 0. -1.
          1   -1    0    0  501    0 -0.00000000000E+00 -0.00000000000E+00 -0.23879874201E+04  0.23879874201E+04  0.00000000000E+00 0. -1.
         25    2    1    2    0    0  0.15685898022E+02  0.78170051176E+02 -0.44351343071E+02  0.15475732324E+03  0.12500473258E+03 0.  0.
          2    1    1    2  501    0 -0.33001237738E+02 -0.40243823720E+02 -0.22859187592E+04  0.22865111460E+04  0.00000000000E+00 0. -1.
          1    1    1    2  502    0  0.17315339716E+02 -0.37926227456E+02  0.19369196620E+03  0.19812823496E+03  0.00000000000E+00 0. -1.
         22    1    3    3    0    0  0.36045350696E+01  0.34324709601E+02 -0.86262938052E+02  0.92911101832E+02  0.00000000000E+00 0. -1.
         22    1    3    3    0    0  0.12081362952E+02  0.43845341574E+02  0.41911594981E+02  0.61846221408E+02  0.00000000000E+00 0. -1.
</event>
<event>
 7    1  0.5667373E-006  0.8831957E+02  0.7818608E-02  0.1385624E+00
          2   -1    0    0  502    0  0.00000000000E+00  0.00000000000E+00  0.27955718867E+04  0.27955718867E+04  0.00000000000E+00 0. -1.
          1   -1    0    0  501    0 -0.00000000000E+00 -0.00000000000E+00 -0.29018497272E+04  0.29018497272E+04  0.00000000000E+00 0. -1.
         25    2    1    2    0    0 -0.60421316437E+02  0.10023464039E+02 -0.15943606378E+04  0.16004256689E+04  0.12500109211E+03 0.  0.
          2    1    1    2  501    0 -0.23196248570E+02 -0.38503348586E+02 -0.13033704673E+04  0.13041453710E+04  0.00000000000E+00 0. -1.
          1    1    1    2  502    0  0.83617565007E+02  0.28479884547E+02  0.27914532645E+04  0.27928505740E+04  0.00000000000E+00 0. -1.
         22    1    3    3    0    0 -0.79355474633E+02 -0.17023061121E+02 -0.59384646507E+03  0.59936691604E+03  0.00000000000E+00 0. -1.
         22    1    3    3    0    0  0.18934158196E+02  0.27046525160E+02 -0.10005141727E+04  0.10010587528E+04  0.00000000000E+00 0. -1.
</event>
<event>
 7    1  0.5667373E-006  0.6846848E+02  0.7818608E-02  0.1418597E+00
          2   -1    0    0  502    0  0.00000000000E+00  0.00000000000E+00  0.52104235907E+02  0.52104235907E+02  0.00000000000E+00 0. -1.
          1   -1    0    0  501    0 -0.00000000000E+00 -0.00000000000E+00 -0.20283780122E+04  0.20283780122E+04  0.00000000000E+00 0. -1.
         25    2    1    2    0    0 -0.11026419517E+03 -0.51460616115E+01 -0.46213340197E+03  0.49131346329E+03  0.12504784406E+03 0.  0.
          2    1    1    2  501    0  0.44674762712E+02 -0.13359343492E+01 -0.15221222210E+04  0.15227782750E+04  0.00000000000E+00 0. -1.
          1    1    1    2  502    0  0.65589432457E+02  0.64819959607E+01  0.79818466531E+01  0.66390509846E+02  0.00000000000E+00 0. -1.
         22    1    3    3    0    0 -0.65128844456E+02  0.35323031576E+02 -0.10175117999E+03  0.12586812770E+03  0.00000000000E+00 0. -1.
         22    1    3    3    0    0 -0.45135350713E+02 -0.40469093187E+02 -0.36038222198E+03  0.36544533559E+03  0.00000000000E+00 0. -1.
</event>
<event>
 7    1  0.5667373E-006  0.1068966E+03  0.7818608E-02  0.1432060E+00
          2   -1    0    0  502    0  0.00000000000E+00  0.00000000000E+00  0.20950114946E+04  0.20950114946E+04  0.00000000000E+00 0. -1.
          1   -1    0    0  501    0 -0.00000000000E+00 -0.00000000000E+00 -0.14132289198E+04  0.14132289198E+04  0.00000000000E+00 0. -1.
         25    2    1    2    0    0  0.46109967172E+02  0.70781661135E+02  0.11064125470E+04  0.11166506246E+04  0.12499488230E+03 0.  0.
          2    1    1    2  501    0 -0.45847141912E+02 -0.96612484736E+02 -0.14059092882E+04  0.14099705171E+04  0.00000000000E+00 0. -1.
          1    1    1    2  502    0 -0.26282525990E+00  0.25830823601E+02  0.98127931597E+03  0.98161927267E+03  0.00000000000E+00 0. -1.
         22    1    3    3    0    0  0.47290108498E+02  0.10287926062E+03  0.96589390692E+03  0.97250785912E+03  0.00000000000E+00 0. -1.
         22    1    3    3    0    0 -0.11801413260E+01 -0.32097599480E+02  0.14051864010E+03  0.14414276549E+03  0.00000000000E+00 0. -1.
</event>
<event>
 7    1  0.5667373E-006  0.8245583E+02  0.7818608E-02  0.1371354E+00
          2   -1    0    0  502    0  0.00000000000E+00  0.00000000000E+00  0.18503078841E+03  0.18503078841E+03  0.00000000000E+00 0. -1.
          1   -1    0    0  501    0 -0.00000000000E+00 -0.00000000000E+00 -0.44415337201E+03  0.44415337201E+03  0.00000000000E+00 0. -1.
         25    2    1    2    0    0  0.79584396462E+02 -0.17093187758E+02  0.36532207384E+02  0.15357447487E+03  0.12499865571E+03 0.  0.
          2    1    1    2  501    0 -0.53055492741E+02  0.64246952635E+02 -0.37245732274E+03  0.38166348200E+03  0.00000000000E+00 0. -1.
          1    1    1    2  502    0 -0.26528903722E+02 -0.47153764877E+02  0.76802531757E+02  0.93946203537E+02  0.00000000000E+00 0. -1.
         22    1    3    3    0    0 -0.29851772161E+02 -0.25390727022E+02  0.13363743147E+02  0.41405397604E+02  0.00000000000E+00 0.  1.
         22    1    3    3    0    0  0.10943616862E+03  0.82975392635E+01  0.23168464238E+02  0.11216907727E+03  0.00000000000E+00 0.  1.
</event>
<event>
 7    1  0.5667373E-006  0.5627329E+02  0.7818608E-02  0.1441502E+00
          2   -1    0    0  502    0  0.00000000000E+00  0.00000000000E+00  0.88612322033E+02  0.88612322033E+02  0.00000000000E+00 0. -1.
          1   -1    0    0  501    0 -0.00000000000E+00 -0.00000000000E+00 -0.57523824877E+03  0.57523824877E+03  0.00000000000E+00 0. -1.
         25    2    1    2    0    0  0.73067296235E+02  0.28384648450E+02 -0.72294694605E+02  0.16430581893E+03  0.12500144487E+03 0.  0.
          2    1    1    2  501    0 -0.42465756157E+02  0.16920896548E+02 -0.43770507609E+03  0.44008566305E+03  0.00000000000E+00 0. -1.
          1    1    1    2  502    0 -0.30601540078E+02 -0.45305544997E+02  0.23373843954E+02  0.59459088825E+02  0.00000000000E+00 0. -1.
         22    1    3    3    0    0  0.44848767580E+02 -0.47808542371E+01 -0.10204465287E+03  0.11156782556E+03  0.00000000000E+00 0.  1.
         22    1    3    3    0    0  0.28218528655E+02  0.33165502687E+02  0.29749958268E+02  0.52737993372E+02  0.00000000000E+00 0.  1.
</event>
<event>
 7    1  0.5667373E-006  0.1104942E+03  0.7818608E-02  0.1268479E+00
          2   -1    0    0  502    0  0.00000000000E+00  0.00000000000E+00  0.72665981118E+02  0.72665981118E+02  0.00000000000E+00 0. -1.
          1   -1    0    0  501    0 -0.00000000000E+00 -0.00000000000E+00 -0.17969418823E+04  0.17969418823E+04  0.00000000000E+00 0. -1.
         25    2    1    2    0    0  0.68625891606E+02  0.81846512777E+02 -0.10997141036E+03  0.19780600530E+03  0.12500055993E+03 0.  0.
          2    1    1    2  501    0 -0.10461532129E+03  0.35561116067E+02 -0.14999115957E+04  0.15039759816E+04  0.00000000000E+00 0. -1.
          1    1    1    2  502    0  0.35989429684E+02 -0.11740762884E+03 -0.11439289510E+03  0.16782587646E+03  0.00000000000E+00 0. -1.
         22    1    3    3    0    0 -0.23129681941E+02 -0.15005535504E+02 -0.35714486801E+02  0.45118431377E+02  0.00000000000E+00 0. -1.
         22    1    3    3    0    0  0.91755573547E+02  0.96852048281E+02 -0.74256923555E+02  0.15268757392E+03  0.00000000000E+00 0. -1.
</event>
<event>
 7    1  0.5667373E-006  0.5915552E+02  0.7818608E-02  0.1497813E+00
          2   -1    0    0  502    0  0.00000000000E+00  0.00000000000E+00  0.54594908570E+03  0.54594908570E+03  0.00000000000E+00 0. -1.
          1   -1    0    0  501    0 -0.00000000000E+00 -0.00000000000E+00 -0.29733437483E+03  0.29733437483E+03  0.00000000000E+00 0. -1.
         25    2    1    2    0    0 -0.63264574058E+02 -0.15730100416E+02  0.80554811703E+02  0.16237030669E+03  0.12500078567E+03 0.  0.
          2    1    1    2  501    0  0.18202920702E+02 -0.22629652819E+02 -0.25353109634E+03  0.25518907563E+03  0.00000000000E+00 0. -1.
          1    1    1    2  502    0  0.45061653356E+02  0.38359753236E+02  0.42159099551E+03  0.42572407821E+03  0.00000000000E+00 0. -1.
         22    1    3    3    0    0  0.37763762207E+02 -0.17396078636E+01  0.31435425404E+02  0.49166186977E+02  0.00000000000E+00 0. -1.
         22    1    3    3    0    0 -0.10102833626E+03 -0.13990492553E+02  0.49119386299E+02  0.11320411972E+03  0.00000000000E+00 0. -1.
</event>
<event>
 7    1  0.5667373E-006  0.1561021E+03  0.7818608E-02  0.1288637E+00
          2   -1    0    0  502    0  0.00000000000E+00  0.00000000000E+00  0.38141019180E+04  0.38141019180E+04  0.00000000000E+00 0. -1.
          1   -1    0    0  501    0 -0.00000000000E+00 -0.00000000000E+00 -0.28774057414E+03  0.28774057414E+03  0.00000000000E+00 0. -1.
         25    2    1    2    0    0 -0.13879423293E+03 -0.14615055250E+03  0.46126064491E+03  0.51865875986E+03  0.12498681349E+03 0.  0.
          2    1    1    2  501    0  0.56921215880E+02  0.16289925016E+02 -0.25386092211E+03  0.26067365469E+03  0.00000000000E+00 0. -1.
          1    1    1    2  502    0  0.81873017055E+02  0.12986062749E+03  0.33189616211E+04  0.33225100776E+04  0.00000000000E+00 0. -1.
         22    1    3    3    0    0 -0.12316053840E+03 -0.14066033411E+03  0.46542667763E+03  0.50157336459E+03  0.00000000000E+00 0.  1.
         22    1    3    3    0    0 -0.15633694537E+02 -0.54902183930E+01 -0.41660327280E+01  0.17085395271E+02  0.00000000000E+00 0.  1.
</event>
<event>
 7    1  0.5667373E-006  0.7866044E+02  0.7818608E-02  0.1393750E+00
          2   -1    0    0  502    0  0.00000000000E+00  0.00000000000E+00  0.14123562852E+04  0.14123562852E+04  0.00000000000E+00 0. -1.
          1   -1    0    0  501    0 -0.00000000000E+00 -0.00000000000E+00 -0.22428346952E+02  0.22428346952E+02  0.00000000000E+00 0. -1.
         25    2    1    2    0    0  0.70746563019E+02 -0.98153251025E+02  0.41623348223E+03  0.45112566350E+03  0.12499966268E+03 0.  0.
          2    1    1    2  501    0 -0.21785191160E+02  0.41960764690E+02  0.16803905559E+03  0.17456352577E+03  0.00000000000E+00 0. -1.
          1    1    1    2  502    0 -0.48961371859E+02  0.56192486335E+02  0.80565540045E+03  0.80909544291E+03  0.00000000000E+00 0. -1.
         22    1    3    3    0    0 -0.25423368645E+02 -0.15418055859E+00  0.21845295730E+02  0.33519970025E+02  0.00000000000E+00 0. -1.
         22    1    3    3    0    0  0.96169931664E+02 -0.97999070466E+02  0.39438818650E+03  0.41760569347E+03  0.00000000000E+00 0. -1.
</event>
<event>
 7    1  0.5667373E-006  0.2401693E+03  0.7818608E-02  0.1176426E+00
          2   -1    0    0  502    0  0.00000000000E+00  0.00000000000E+00  0.18208851768E+03  0.18208851768E+03  0.00000000000E+00 0. -1.
          1   -1    0    0  501    0 -0.00000000000E+00 -0.00000000000E+00 -0.15872768076E+04  0.15872768076E+04  0.00000000000E+00 0. -1.
         25    2    1    2    0    0 -0.48779738049E+02  0.14845982888E+03 -0.32350466482E+03  0.38039585918E+03  0.12500383147E+03 0.  0.
          2    1    1    2  501    0  0.21665785431E+02  0.12034571120E+03 -0.11105503934E+04  0.11172621325E+04  0.00000000000E+00 0. -1.
          1    1    1    2  502    0  0.27113952618E+02 -0.26880554008E+03  0.28866768326E+02  0.27170733357E+03  0.00000000000E+00 0. -1.
         22    1    3    3    0    0 -0.68272951337E+02  0.13449539583E+03 -0.17972384377E+03  0.23462921260E+03  0.00000000000E+00 0.  1.
         22    1    3    3    0    0  0.19493213288E+02  0.13964433059E+02 -0.14378082105E+03  0.14576664658E+03  0.00000000000E+00 0.  1.
</event>
<event>
 7    1  0.5667373E-006  0.6970883E+02  0.7818608E-02  0.1434538E+00
          2   -1    0    0  502    0  0.00000000000E+00  0.00000000000E+00  0.32229580629E+04  0.32229580629E+04  0.00000000000E+00 0. -1.
          1   -1    0    0  501    0 -0.00000000000E+00 -0.00000000000E+00 -0.23847686736E+04  0.23847686736E+04  0.00000000000E+00 0. -1.
         25    2    1    2    0    0  0.23650277429E+02  0.20853967940E+02 -0.93214215260E+02  0.15908544622E+03  0.12500026268E+03 0.  0.
          2    1    1    2  501    0  0.21589756038E+02  0.32333742836E+02 -0.22580693840E+04  0.22584040674E+04  0.00000000000E+00 0. -1.
          1    1    1    2  502    0 -0.45240033466E+02 -0.53187710776E+02  0.31894729886E+04  0.31902372229E+04  0.00000000000E+00 0. -1.
         22    1    3    3    0    0  0.53799474758E+02 -0.25033593778E+02 -0.11195691251E+02  0.60385493326E+02  0.00000000000E+00 0.  1.
         22    1    3    3    0    0 -0.30149197329E+02  0.45887561717E+02 -0.82018524008E+02  0.98699952890E+02  0.00000000000E+00 0.  1.
</event>
<event>
 7    1  0.5667373E-006  0.1987985E+03  0.7818608E-02  0.1253209E+00
          2   -1    0    0  502    0  0.00000000000E+00  0.00000000000E+00  0.39288225246E+03  0.39288225246E+03  0.00000000000E+00 0. -1.
          1   -1    0    0  501    0 -0.00000000000E+00 -0.00000000000E+00 -0.46060455888E+03  0.46060455888E+03  0.00000000000E+00 0. -1.
         25    2    1    2    0    0 -0.10578475360E+03 -0.21905039088E+03 -0.16056233629E+03  0.31714102421E+03  0.12499871027E+03 0.  0.
          2    1    1    2  501    0  0.82690184170E+02  0.15780435483E+03 -0.18148718473E+03  0.25431767375E+03  0.00000000000E+00 0. -1.
          1    1    1    2  502    0  0.23094569426E+02  0.61246036044E+02  0.27432721459E+03  0.28202811337E+03  0.00000000000E+00 0. -1.
         22    1    3    3    0    0 -0.80393716424E+02 -0.15473834223E+03 -0.17440543286E+03  0.24662594999E+03  0.00000000000E+00 0.  1.
         22    1    3    3    0    0 -0.25391037173E+02 -0.64312048645E+02  0.13843096577E+02  0.70515074221E+02  0.00000000000E+00 0.  1.
</event>
<event>
 7    1  0.5667373E-006  0.6087827E+02  0.7818608E-02  0.1462459E+00
          2   -1    0    0  502    0  0.00000000000E+00  0.00000000000E+00  0.14111779291E+04  0.14111779291E+04  0.00000000000E+00 0. -1.
          1   -1    0    0  501    0 -0.00000000000E+00 -0.00000000000E+00 -0.31377001058E+02  0.31377001058E+02  0.00000000000E+00 0. -1.
         25    2    1    2    0    0 -0.36744392533E+02 -0.72785767807E+02  0.17467982666E+03  0.22975152270E+03  0.12499920784E+03 0.  0.
          2    1    1    2  501    0 -0.10252102722E+02  0.34744159005E+02  0.10597196259E+03  0.11199249551E+03  0.00000000000E+00 0. -1.
          1    1    1    2  502    0  0.46996495255E+02  0.38041608802E+02  0.10991491388E+04  0.11008109119E+04  0.00000000000E+00 0. -1.
         22    1    3    3    0    0 -0.45806808176E+02 -0.81756360602E+02  0.53515198351E+02  0.10791775863E+03  0.00000000000E+00 0. -1.
         22    1    3    3    0    0  0.90624156437E+01  0.89705927950E+01  0.12116462831E+03  0.12183376406E+03  0.00000000000E+00 0. -1.
</event>
<event>
 7    1  0.5667373E-006  0.4975437E+02  0.7818608E-02  0.1500355E+00
          2   -1    0    0  502    0  0.00000000000E+00  0.00000000000E+00  0.97153130015E+03  0.97153130015E+03  0.00000000000E+00 0. -1.
          1   -1    0    0  501    0 -0.00000000000E+00 -0.00000000000E+00 -0.29636704369E+03  0.29636704369E+03  0.00000000000E+00 0. -1.
         25    2    1    2    0    0 -0.16182375582E+02 -0.18100392697E+01  0.59227902528E+03  0.60554460245E+03  0.12499870498E+03 0.  0.
          2    1    1    2  501    0  0.47941019374E+02  0.13755781977E+02 -0.28680513386E+03  0.29110951150E+03  0.00000000000E+00 0. -1.
          1    1    1    2  502    0 -0.31758643791E+02 -0.11945742707E+02  0.36969036504E+03  0.37124422989E+03  0.00000000000E+00 0. -1.
         22    1    3    3    0    0 -0.43285942741E+02  0.49044311248E+02  0.24830552666E+03  0.25677743646E+03  0.00000000000E+00 0. -1.
         22    1    3    3    0    0  0.27103567159E+02 -0.50854350517E+02  0.34397349862E+03  0.34876716599E+03  0.00000000000E+00 0. -1.
</event>
<event>
 7    1  0.5667373E-006  0.7378761E+02  0.7818608E-02  0.1398494E+00
          2   -1    0    0  502    0  0.00000000000E+00  0.00000000000E+00  0.32316055200E+04  0.32316055200E+04  0.00000000000E+00 0. -1.
          1   -1    0    0  501    0 -0.00000000000E+00 -0.00000000000E+00 -0.57368308597E+02  0.57368308597E+02  0.00000000000E+00 0. -1.
         25    2    1    2    0    0 -0.33357015500E+02 -0.31395267486E+01  0.70651930714E+03  0.71827376725E+03  0.12500050499E+03 0.  0.
          2    1    1    2  501    0  0.63079920028E+02  0.41506188543E+02 -0.23443427812E+02  0.79066012329E+02  0.00000000000E+00 0. -1.
          1    1    1    2  502    0 -0.29722904528E+02 -0.38366661794E+02  0.24911613321E+04  0.24916340490E+04  0.00000000000E+00 0. -1.
         22    1    3    3    0    0 -0.74414851751E+02  0.77049670244E+01  0.58029173987E+03  0.58509438558E+03  0.00000000000E+00 0.  1.
         22    1    3    3    0    0  0.41057836251E+02 -0.10844493773E+02  0.12622756727E+03  0.13317938167E+03  0.00000000000E+00 0.  1.
</event>
<event>
 7    1  0.5667373E-006  0.7234002E+02  0.7818608E-02  0.1382004E+00
          2   -1    0    0  502    0  0.00000000000E+00  0.00000000000E+00  0.21213671731E+03  0.21213671731E+03  0.00000000000E+00 0. -1.
          1   -1    0    0  501    0 -0.00000000000E+00 -0.00000000000E+00 -0.85739222370E+03  0.85739222370E+03  0.00000000000E+00 0. -1.
         25    2    1    2    0    0  0.52362510378E+02  0.26276733246E+02 -0.15567597484E+03  0.20806748868E+03  0.12499908599E+03 0.  0.
          2    1    1    2  501    0  0.15804810742E+02 -0.54260199580E+02 -0.66697771894E+03  0.66936779042E+03  0.00000000000E+00 0. -1.
          1    1    1    2  502    0 -0.68167321120E+02  0.27983466334E+02  0.17739818739E+03  0.19209366191E+03  0.00000000000E+00 0. -1.
         22    1    3    3    0    0 -0.14427930320E+02  0.52142158283E+02 -0.11145599690E+03  0.12389273219E+03  0.00000000000E+00 0. -1.
         22    1    3    3    0    0  0.66790440698E+02 -0.25865425037E+02 -0.44219977941E+02  0.84174756489E+02  0.00000000000E+00 0. -1.
</event>
<event>
 7    1  0.5667373E-006  0.1315369E+03  0.7818608E-02  0.1278202E+00
          2   -1    0    0  502    0  0.00000000000E+00  0.00000000000E+00  0.83532895177E+03  0.83532895177E+03  0.00000000000E+00 0. -1.
          1   -1    0    0  501    0 -0.00000000000E+00 -0.00000000000E+00 -0.42183421241E+03  0.42183421241E+03  0.00000000000E+00 0. -1.
         25    2    1    2    0    0  0.53364738967E+02 -0.35032302611E+02  0.32237387128E+03  0.35160795291E+03  0.12501272763E+03 0.  0.
          2    1    1    2  501    0 -0.78689658911E+02  0.10833678531E+03 -0.39303997344E+03  0.41522203963E+03  0.00000000000E+00 0. -1.
          1    1    1    2  502    0  0.25324919944E+02 -0.73304482700E+02  0.48416084152E+03  0.49033317165E+03  0.00000000000E+00 0. -1.
         22    1    3    3    0    0  0.69885561322E+02 -0.31784199749E+02  0.32554453515E+03  0.33447491894E+03  0.00000000000E+00 0.  1.
         22    1    3    3    0    0 -0.16520822355E+02 -0.32481028629E+01 -0.31706638664E+01  0.17133033965E+02  0.00000000000E+00 0.  1.
</event>
<event>
 7    1  0.5667373E-006  0.6432566E+02  0.7818608E-02  0.1504540E+00
          2   -1    0    0  502    0  0.00000000000E+00  0.00000000000E+00  0.12596840873E+04  0.12596840873E+04  0.00000000000E+00 0. -1.
          1   -1    0    0  501    0 -0.00000000000E+00 -0.00000000000E+00 -0.87970273894E+03  0.87970273894E+03  0.00000000000E+00 0. -1.
         25    2    1    2    0    0 -0.65603132743E+02 -0.50226799908E+02 -0.68764935912E+01  0.14999476254E+03  0.12499856067E+03 0.  0.
          2    1    1    2  501    0  0.40101615503E+02  0.49929879068E+02 -0.79985030975E+03  0.80240990173E+03  0.00000000000E+00 0. -1.
          1    1    1    2  502    0  0.25501517240E+02  0.29692083987E+00  0.11867081517E+04  0.11869821620E+04  0.00000000000E+00 0. -1.
         22    1    3    3    0    0 -0.29964814165E+02  0.25525636227E+02 -0.43457545391E+02  0.58634515809E+02  0.00000000000E+00 0.  1.
         22    1    3    3    0    0 -0.35638318578E+02 -0.75752436135E+02  0.36581051799E+02  0.91360246728E+02  0.00000000000E+00 0.  1.
</event>
<event>
 7    1  0.5667373E-006  0.1380513E+03  0.7818608E-02  0.1354712E+00
          2   -1    0    0  502    0  0.00000000000E+00  0.00000000000E+00  0.73894118802E+03  0.73894118802E+03  0.00000000000E+00 0. -1.
          1   -1    0    0  501    0 -0.00000000000E+00 -0.00000000000E+00 -0.81246561328E+03  0.81246561328E+03  0.00000000000E+00 0. -1.
         25    2    1    2    0    0 -0.10757579607E+03  0.81276288894E+02 -0.24992509658E+03  0.31026764744E+03  0.12500028845E+03 0.  0.
          2    1    1    2  501    0 -0.21047898231E+02 -0.30603249213E+02 -0.52496564195E+03  0.52627796659E+03  0.00000000000E+00 0. -1.
          1    1    1    2  502    0  0.12862369430E+03 -0.50673039681E+02  0.70136631327E+03  0.71486118728E+03  0.00000000000E+00 0. -1.
         22    1    3    3    0    0 -0.17846994732E+02  0.48448416868E+02 -0.19135694082E+03  0.19820000787E+03  0.00000000000E+00 0.  1.
         22    1    3    3    0    0 -0.89728801335E+02  0.32827872025E+02 -0.58568155757E+02  0.11206763957E+03  0.00000000000E+00 0.  1.
</event>
<event>
 7    1  0.5667373E-006  0.6284270E+02  0.7818608E-02  0.1534752E+00
          2   -1    0    0  502    0  0.00000000000E+00  0.00000000000E+00  0.12990543617E+04  0.12990543617E+04  0.00000000000E+00 0. -1.
          1   -1    0    0  501    0 -0.00000000000E+00 -0.00000000000E+00 -0.97660169491E+02  0.97660169491E+02  0.00000000000E+00 0. -1.
         25    2    1    2    0    0  0.55988940024E+02  0.50140963145E+02  0.23574197349E+03  0.27721528616E+03  0.12500063690E+03 0.  0.
          2    1    1    2  501    0 -0.21260784561E+02  0.16873033601E+01 -0.74492359094E+02  0.77485350332E+02  0.00000000000E+00 0. -1.
          1    1    1    2  502    0 -0.34728155463E+02 -0.51828266505E+02  0.10401445778E+04  0.10420138947E+04  0.00000000000E+00 0. -1.
         22    1    3    3    0    0 -0.36656894810E+01 -0.38658601257E+02  0.59694708045E+02  0.71213642647E+02  0.00000000000E+00 0. -1.
         22    1    3    3    0    0  0.59654629505E+02  0.88799564402E+02  0.17604726545E+03  0.20600164352E+03  0.00000000000E+00 0. -1.
</event>
<event>
 7    1  0.5667373E-006  0.7241113E+02  0.7818608E-02  0.1515675E+00
          2   -1    0    0  502    0  0.00000000000E+00  0.00000000000E+00  0.15091408540E+04  0.15091408540E+04  0.00000000000E+00 0. -1.
          1   -1    0    0  501    0 -0.00000000000E+00 -0.00000000000E+00 -0.16856273241E+03  0.16856273241E+03  0.00000000000E+00 0. -1.
         25    2    1    2    0    0 -0.86880390493E+02 -0.29402391895E+02  0.12728251949E+03  0.20059584189E+03  0.12500059646E+03 0.  0.
          2    1    1    2  501    0  0.66023758368E+02  0.26878120930E+02 -0.12218637728E+03  0.14146052752E+03  0.00000000000E+00 0. -1.
          1    1    1    2  502    0  0.20856632125E+02  0.25242709656E+01  0.13354819794E+04  0.13356472170E+04  0.00000000000E+00 0. -1.
         22    1    3    3    0    0 -0.36075874456E+02 -0.43299315451E+02 -0.65822559431E+01  0.56741744154E+02  0.00000000000E+00 0. -1.
         22    1    3    3    0    0 -0.50804516036E+02  0.13896923555E+02  0.13386477543E+03  0.14385409773E+03  0.00000000000E+00 0. -1.
</event>
<event>
 7    1  0.5667373E-006  0.5823387E+02  0.7818608E-02  0.1452646E+00
          2   -1    0    0  502    0  0.00000000000E+00  0.00000000000E+00  0.94906977047E+02  0.94906977047E+02  0.00000000000E+00 0. -1.
          1   -1    0    0  501    0 -0.00000000000E+00 -0.00000000000E+00 -0.18831437769E+04  0.18831437769E+04  0.00000000000E+00 0. -1.
         25    2    1    2    0    0 -0.35637015731E+02 -0.71541628004E+01 -0.41620443013E+03  0.43608715582E+03  0.12499880350E+03 0.  0.
          2    1    1    2  501    0 -0.14688775925E+02  0.37933372156E+02 -0.14464378996E+04  0.14470097782E+04  0.00000000000E+00 0. -1.
          1    1    1    2  502    0  0.50325791657E+02 -0.30779209356E+02  0.74405529889E+02  0.94953819895E+02  0.00000000000E+00 0. -1.
         22    1    3    3    0    0  0.15251671444E+02 -0.50979084735E+02 -0.27003175965E+03  0.27522469327E+03  0.00000000000E+00 0.  1.
         22    1    3    3    0    0 -0.50888687175E+02  0.43824921935E+02 -0.14617267048E+03  0.16086246256E+03  0.00000000000E+00 0.  1.
</event>
<event>
 7    1  0.5667373E-006  0.1254414E+03  0.7818608E-02  0.1344170E+00
          2   -1    0    0  502    0  0.00000000000E+00  0.00000000000E+00  0.70141835701E+03  0.70141835701E+03  0.00000000000E+00 0. -1.
          1   -1    0    0  501    0 -0.00000000000E+00 -0.00000000000E+00 -0.59957882843E+03  0.59957882843E+03  0.00000000000E+00 0. -1.
         25    2    1    2    0    0 -0.20297284915E+02  0.80786896680E+02 -0.49656272818E+02  0.15820490326E+03  0.12499817413E+03 0.  0.
          2    1    1    2  501    0 -0.12098636709E+02  0.43058832561E+02 -0.48828554156E+03  0.49032969537E+03  0.00000000000E+00 0. -1.
          1    1    1    2  502    0  0.32395921623E+02 -0.12384572924E+03  0.63978134296E+03  0.65246258681E+03  0.00000000000E+00 0. -1.
         22    1    3    3    0    0 -0.39098260109E+02  0.10909733437E+03 -0.33919916530E+02  0.12075372892E+03  0.00000000000E+00 0.  1.
         22    1    3    3    0    0  0.18800975194E+02 -0.28310437691E+02 -0.15736356288E+02  0.37451174344E+02  0.00000000000E+00 0.  1.
</event>
<event>
 7    1  0.5667373E-006  0.7517396E+02  0.7818608E-02  0.1445199E+00
          2   -1    0    0  502    0  0.00000000000E+00  0.00000000000E+00  0.25634625832E+04  0.25634625832E+04  0.00000000000E+00 0. -1.
          1   -1    0    0  501    0 -0.00000000000E+00 -0.00000000000E+00 -0.43942316176E+02  0.43942316176E+02  0.00000000000E+00 0. -1.
         25    2    1    2    0    0 -0.13156620957E+02 -0.98124697541E+02  0.12678907104E+04  0.12778835608E+04  0.12505194356E+03 0.  0.
          2    1    1    2  501    0 -0.97390157852E+01  0.73956507530E+02 -0.28024802884E+01  0.74647621062E+02  0.00000000000E+00 0. -1.
          1    1    1    2  502    0  0.22895636742E+02  0.24168190011E+02  0.12544320369E+04  0.12548737175E+04  0.00000000000E+00 0. -1.
         22    1    3    3    0    0  0.59421975933E+01 -0.27274409851E+02  0.46109196820E+02  0.53900474732E+02  0.00000000000E+00 0. -1.
         22    1    3    3    0    0 -0.19098818551E+02 -0.70850287690E+02  0.12217815136E+04  0.12239830861E+04  0.00000000000E+00 0. -1.
</event>
<event>
 7    1  0.5667373E-006  0.8147792E+02  0.7818608E-02  0.1358176E+00
          2   -1    0    0  502    0  0.00000000000E+00  0.00000000000E+00  0.80613184121E+03  0.80613184121E+03  0.00000000000E+00 0. -1.
          1   -1    0    0  501    0 -0.00000000000E+00 -0.00000000000E+00 -0.41028337569E+03  0.41028337569E+03  0.00000000000E+00 0. -1.
         25    2    1    2    0    0  0.61147237970E+02 -0.45872185426E+01 -0.21410969032E+02  0.14086749238E+03  0.12500077412E+03 0.  0.
          2    1    1    2  501    0 -0.54332623499E+02  0.65322899674E+02 -0.32237943879E+03  0.33338808880E+03  0.00000000000E+00 0. -1.
          1    1    1    2  502    0 -0.68146144704E+01 -0.60735681131E+02  0.73963887334E+03  0.74215963572E+03  0.00000000000E+00 0. -1.
         22    1    3    3    0    0 -0.36074872433E+02 -0.17573849148E+02  0.14462989300E+01  0.40153808979E+02  0.00000000000E+00 0. -1.
         22    1    3    3    0    0  0.97222110403E+02  0.12986630605E+02 -0.22857267962E+02  0.10071368340E+03  0.00000000000E+00 0. -1.
</event>
<event>
 7    1  0.5667373E-006  0.7286368E+02  0.7818608E-02  0.1484431E+00
          2   -1    0    0  502    0  0.00000000000E+00  0.00000000000E+00  0.18279604086E+04  0.18279604086E+04  0.00000000000E+00 0. -1.
          1   -1    0    0  501    0 -0.00000000000E+00 -0.00000000000E+00 -0.20865860783E+03  0.20865860783E+03  0.00000000000E+00 0. -1.
         25    2    1    2    0    0 -0.69797890331E+02 -0.36754592043E+02  0.29773963598E+03  0.33241048657E+03  0.12500078086E+03 0.  0.
          2    1    1    2  501    0  0.71993754330E+02  0.10969574178E+02 -0.18427804025E+03  0.19814597735E+03  0.00000000000E+00 0. -1.
          1    1    1    2  502    0 -0.21958639992E+01  0.25785017864E+02  0.15058402050E+04  0.15060625525E+04  0.00000000000E+00 0. -1.
         22    1    3    3    0    0  0.19939380116E+02 -0.10261151771E+02  0.18294510000E+03  0.18431435031E+03  0.00000000000E+00 0. -1.
         22    1    3    3    0    0 -0.89737270446E+02 -0.26493440272E+02  0.11479453598E+03  0.14809613626E+03  0.00000000000E+00 0. -1.
</event>
<event>
 7    1  0.7716777E-006  0.1081684E+03  0.7818608E-02  0.1387499E+00
          2   -1    0    0  502    0  0.00000000000E+00  0.00000000000E+00  0.61057030366E+03  0.61057030366E+03  0.00000000000E+00 0. -1.
          1   -1    0    0  501    0 -0.00000000000E+00 -0.00000000000E+00 -0.25026731101E+04  0.25026731101E+04  0.00000000000E+00 0. -1.
         25    2    1    2    0    0  0.61200764740E+02 -0.40526822052E+02 -0.53013074490E+03  0.54959248195E+03  0.12500133044E+03 0.  0.
          2    1    1    2  501    0  0.34664568754E+02 -0.10259751204E+02 -0.19577461815E+04  0.19580799284E+04  0.00000000000E+00 0. -1.
          1    1    1    2  502    0 -0.95865333495E+02  0.50786573256E+02  0.59577411995E+03  0.60557100343E+03  0.00000000000E+00 0. -1.
         22    1    3    3    0    0  0.71646286669E+02 -0.50812213609E+02 -0.52742074773E+03  0.53468468894E+03  0.00000000000E+00 0.  1.
         22    1    3    3    0    0 -0.10445521929E+02  0.10285391556E+02 -0.27099971714E+01  0.14907793012E+02  0.00000000000E+00 0.  1.
</event>
<event>
 7    1  0.5667373E-006  0.5252231E+02  0.7818608E-02  0.1554314E+00
          2   -1    0    0  502    0  0.00000000000E+00  0.00000000000E+00  0.10203048639E+04  0.10203048639E+04  0.00000000000E+00 0. -1.
          1   -1    0    0  501    0 -0.00000000000E+00 -0.00000000000E+00 -0.14889153168E+04  0.14889153168E+04  0.00000000000E+00 0. -1.
         25    2    1    2    0    0  0.71962531099E+02  0.52633120263E+01 -0.66323937830E+02  0.15883962420E+03  0.12499941260E+03 0.  0.
          2    1    1    2  501    0 -0.50751860683E+02 -0.12724135093E+02 -0.13757063927E+04  0.13767010329E+04  0.00000000000E+00 0. -1.
          1    1    1    2  502    0 -0.21210670416E+02  0.74608230669E+01  0.97341987769E+03  0.97367952361E+03  0.00000000000E+00 0. -1.
         22    1    3    3    0    0  0.52542104719E+02  0.56557759187E+02 -0.69536463280E+02  0.10389789516E+03  0.00000000000E+00 0.  1.
         22    1    3    3    0    0  0.19420426379E+02 -0.51294447161E+02  0.32125254492E+01  0.54941729042E+02  0.00000000000E+00 0.  1.
</event>
<event>
 7    1  0.5667373E-006  0.4491792E+02  0.7818608E-02  0.1514261E+00
          2   -1    0    0  502    0  0.00000000000E+00  0.00000000000E+00  0.26765493648E+03  0.26765493648E+03  0.00000000000E+00 0. -1.
          1   -1    0    0  501    0 -0.00000000000E+00 -0.00000000000E+00 -0.79111827278E+02  0.79111827278E+02  0.00000000000E+00 0. -1.
         25    2    1    2    0    0 -0.51765049250E+02 -0.85888144256E+01  0.35607452683E+01  0.13561294660E+03  0.12499921728E+03 0.  0.
          2    1    1    2  501    0  0.22502134471E+02 -0.25743797483E+02  0.18929164030E+02  0.39081996053E+02  0.00000000000E+00 0. -1.
          1    1    1    2  502    0  0.29262914780E+02  0.34332611909E+02  0.16605319991E+03  0.17207182111E+03  0.00000000000E+00 0. -1.
         22    1    3    3    0    0 -0.45701209233E+02 -0.60966304379E+02 -0.18578764461E+02  0.78426151786E+02  0.00000000000E+00 0. -1.
         22    1    3    3    0    0 -0.60638400169E+01  0.52377489953E+02  0.22139509730E+02  0.57186794810E+02  0.00000000000E+00 0. -1.
</event>
<event>
 7    1  0.8855266E-006  0.4217615E+02  0.7818608E-02  0.1520160E+00
          2   -1    0    0  502    0  0.00000000000E+00  0.00000000000E+00  0.12267971309E+04  0.12267971309E+04  0.00000000000E+00 0. -1.
          1   -1    0    0  501    0 -0.00000000000E+00 -0.00000000000E+00 -0.11818760285E+04  0.11818760285E+04  0.00000000000E+00 0. -1.
         25    2    1    2    0    0 -0.59710276237E+01  0.55624707547E+02 -0.53846308069E+03  0.55560574101E+03  0.12500195563E+03 0.  0.
          2    1    1    2  501    0 -0.22578129959E+02 -0.35375719765E+02 -0.63389622956E+03  0.63528390767E+03  0.00000000000E+00 0. -1.
          1    1    1    2  502    0  0.28549157583E+02 -0.20248987782E+02  0.12172804126E+04  0.12177835107E+04  0.00000000000E+00 0. -1.
         22    1    3    3    0    0 -0.22330432645E+01  0.66431525643E+02 -0.53999325245E+03  0.54406878864E+03  0.00000000000E+00 0.  1.
         22    1    3    3    0    0 -0.37379843592E+01 -0.10806818096E+02  0.15301717531E+01  0.11536952372E+02  0.00000000000E+00 0.  1.
</event>
<event>
 7    1  0.5667373E-006  0.5851230E+02  0.7818608E-02  0.1484332E+00
          2   -1    0    0  502    0  0.00000000000E+00  0.00000000000E+00  0.45724719289E+03  0.45724719289E+03  0.00000000000E+00 0. -1.
          1   -1    0    0  501    0 -0.00000000000E+00 -0.00000000000E+00 -0.10497614017E+03  0.10497614017E+03  0.00000000000E+00 0. -1.
         25    2    1    2    0    0  0.23236555478E+02 -0.18357195505E+02  0.12910048934E+02  0.12910540967E+03  0.12499845321E+03 0.  0.
          2    1    1    2  501    0  0.11790041801E+02 -0.30015451073E+02 -0.38696567389E+02  0.50372181971E+02  0.00000000000E+00 0. -1.
          1    1    1    2  502    0 -0.35026597279E+02  0.48372646579E+02  0.37805757118E+03  0.38274574142E+03  0.00000000000E+00 0. -1.
         22    1    3    3    0    0 -0.16297400665E+02 -0.22918422146E+01  0.61949593395E+02  0.64098439380E+02  0.00000000000E+00 0.  1.
         22    1    3    3    0    0  0.39533956143E+02 -0.16065353291E+02 -0.49039544461E+02  0.65006970285E+02  0.00000000000E+00 0.  1.
</event>
<event>
 7    1  0.5667373E-006  0.1117615E+03  0.7818608E-02  0.1378066E+00
          2   -1    0    0  502    0  0.00000000000E+00  0.00000000000E+00  0.34808447654E+03  0.34808447654E+03  0.00000000000E+00 0. -1.
          1   -1    0    0  501    0 -0.00000000000E+00 -0.00000000000E+00 -0.16177812062E+04  0.16177812062E+04  0.00000000000E+00 0. -1.
         25    2    1    2    0    0 -0.15393749220E+02  0.14203246086E+03 -0.26721564248E+03  0.32777992072E+03  0.12500115754E+03 0.  0.
          2    1    1    2  501    0 -0.37377903113E+01 -0.10946116437E+03 -0.13168794835E+04  0.13214262339E+04  0.00000000000E+00 0. -1.
          1    1    1    2  502    0  0.19131539532E+02 -0.32571296490E+02  0.31439839631E+03  0.31665952814E+03  0.00000000000E+00 0. -1.
         22    1    3    3    0    0 -0.66290587967E+02  0.55761878157E+02 -0.95091014424E+02  0.12863176176E+03  0.00000000000E+00 0.  1.
         22    1    3    3    0    0  0.50896838746E+02  0.86270582701E+02 -0.17212462806E+03  0.19914815896E+03  0.00000000000E+00 0.  1.
</event>
<event>
 7    1  0.5667373E-006  0.9366259E+02  0.7818608E-02  0.1336823E+00
          2   -1    0    0  502    0  0.00000000000E+00  0.00000000000E+00  0.18082420645E+04  0.18082420645E+04  0.00000000000E+00 0. -1.
          1   -1    0    0  501    0 -0.00000000000E+00 -0.00000000000E+00 -0.16965424253E+04  0.16965424253E+04  0.00000000000E+00 0. -1.
         25    2    1    2    0    0  0.10079310550E+03  0.11182900765E+03  0.11662019398E+03  0.22779433979E+03  0.12500005811E+03 0.  0.
          2    1    1    2  501    0 -0.55713822360E+02 -0.31158202549E+02 -0.16390285834E+04  0.16402711852E+04  0.00000000000E+00 0. -1.
          1    1    1    2  502    0 -0.45079283136E+02 -0.80670805101E+02  0.16341080287E+04  0.16367189648E+04  0.00000000000E+00 0. -1.
         22    1    3    3    0    0 -0.21069949437E+02 -0.44358150399E+01 -0.22415898034E+01  0.21648185817E+02  0.00000000000E+00 0.  1.
         22    1    3    3    0    0  0.12186305493E+03  0.11626482269E+03  0.11886178379E+03  0.20614615397E+03  0.00000000000E+00 0.  1.
</event>
<event>
 7    1  0.5667373E-006  0.4340578E+02  0.7818608E-02  0.1498192E+00
          2   -1    0    0  502    0  0.00000000000E+00  0.00000000000E+00  0.14093902714E+03  0.14093902714E+03  0.00000000000E+00 0. -1.
          1   -1    0    0  501    0 -0.00000000000E+00 -0.00000000000E+00 -0.29671790791E+03  0.29671790791E+03  0.00000000000E+00 0. -1.
         25    2    1    2    0    0 -0.33842379353E+02  0.51084130325E+02 -0.11604752471E+03  0.18123755494E+03  0.12500051327E+03 0.  0.
          2    1    1    2  501    0 -0.76399465933E+01 -0.38730457878E+02 -0.14092923700E+03  0.14635391007E+03  0.00000000000E+00 0. -1.
          1    1    1    2  502    0  0.41482325946E+02 -0.12353672447E+02  0.10119788094E+03  0.11006547005E+03  0.00000000000E+00 0. -1.
         22    1    3    3    0    0  0.37476679753E+02  0.30643113998E+02 -0.63746304507E+01  0.48827634329E+02  0.00000000000E+00 0.  1.
         22    1    3    3    0    0 -0.71319059105E+02  0.20441016327E+02 -0.10967289426E+03  0.13240992061E+03  0.00000000000E+00 0.  1.
</event>
<event>
 7    1  0.5667373E-006  0.8442977E+02  0.7818608E-02  0.1456649E+00
          2   -1    0    0  502    0  0.00000000000E+00  0.00000000000E+00  0.33259017619E+03  0.33259017619E+03  0.00000000000E+00 0. -1.
          1   -1    0    0  501    0 -0.00000000000E+00 -0.00000000000E+00 -0.18538887608E+04  0.18538887608E+04  0.00000000000E+00 0. -1.
         25    2    1    2    0    0  0.10492539404E+03 -0.24512869950E+01  0.14631459243E+03  0.21919873786E+03  0.12499911839E+03 0.  0.
          2    1    1    2  501    0 -0.26371662012E+02  0.68501979848E+01 -0.18070087042E+04  0.18072141120E+04  0.00000000000E+00 0. -1.
          1    1    1    2  502    0 -0.78553732026E+02 -0.43989109898E+01  0.13939552716E+03  0.16006608706E+03  0.00000000000E+00 0. -1.
         22    1    3    3    0    0  0.28399236388E+02 -0.12369065487E+02  0.13817495580E+03  0.14160448022E+03  0.00000000000E+00 0.  1.
         22    1    3    3    0    0  0.76526157649E+02  0.99177784918E+01  0.81396366366E+01  0.77594257644E+02  0.00000000000E+00 0.  1.
</event>
<event>
 7    1  0.5667373E-006  0.3205600E+02  0.7818608E-02  0.1632726E+00
          2   -1    0    0  502    0  0.00000000000E+00  0.00000000000E+00  0.26879877665E+04  0.26879877665E+04  0.00000000000E+00 0. -1.
          1   -1    0    0  501    0 -0.00000000000E+00 -0.00000000000E+00 -0.25184771259E+03  0.25184771259E+03  0.00000000000E+00 0. -1.
         25    2    1    2    0    0  0.22814714244E+02 -0.20104192817E+02  0.13114240073E+04  0.13177190108E+04  0.12500309960E+03 0.  0.
          2    1    1    2  501    0 -0.32034852487E+01  0.31903253112E+02 -0.24757093986E+03  0.24963863912E+03  0.00000000000E+00 0. -1.
          1    1    1    2  502    0 -0.19611228996E+02 -0.11799060295E+02  0.13722869865E+04  0.13724778291E+04  0.00000000000E+00 0. -1.
         22    1    3    3    0    0  0.56432327395E+02  0.24817980136E+01  0.11466556083E+04  0.11480461014E+04  0.00000000000E+00 0.  1.
         22    1    3    3    0    0 -0.33617613150E+02 -0.22585990830E+02  0.16476839896E+03  0.16967290942E+03  0.00000000000E+00 0.  1.
</event>
<event>
 7    1  0.5667373E-006  0.1339610E+03  0.7818608E-02  0.1232716E+00
          2   -1    0    0  502    0  0.00000000000E+00  0.00000000000E+00  0.14280994809E+04  0.14280994809E+04  0.00000000000E+00 0. -1.
          1   -1    0    0  501    0 -0.00000000000E+00 -0.00000000000E+00 -0.32969011592E+03  0.32969011592E+03  0.00000000000E+00 0. -1.
         25    2    1    2    0    0  0.45013537615E+02  0.13935767496E+03  0.38194659765E+03  0.42773196618E+03  0.12499860516E+03 0.  0.
          2    1    1    2  501    0 -0.11790489075E+03 -0.19390041291E+02 -0.29010477854E+03  0.31374881593E+03  0.00000000000E+00 0. -1.
          1    1    1    2  502    0  0.72891353135E+02 -0.11996763367E+03  0.10065675459E+04  0.10163088148E+04  0.00000000000E+00 0. -1.
         22    1    3    3    0    0  0.87124696105E+02  0.97337967608E+02  0.29203340870E+03  0.31992015318E+03  0.00000000000E+00 0.  1.
         22    1    3    3    0    0 -0.42111158489E+02  0.42019707353E+02  0.89913188949E+02  0.10781181300E+03  0.00000000000E+00 0.  1.
</event>
<event>
 7    1  0.5667373E-006  0.8617235E+02  0.7818608E-02  0.1336392E+00
          2   -1    0    0  502    0  0.00000000000E+00  0.00000000000E+00  0.50884853577E+03  0.50884853577E+03  0.00000000000E+00 0. -1.
          1   -1    0    0  501    0 -0.00000000000E+00 -0.00000000000E+00 -0.11756487021E+04  0.11756487021E+04  0.00000000000E+00 0. -1.
         25    2    1    2    0    0  0.75951546714E+01 -0.61366444042E+02 -0.18762152205E+02  0.14071484166E+03  0.12500048592E+03 0.  0.
          2    1    1    2  501    0 -0.75233814251E+02  0.44773070170E+02 -0.10914393007E+04  0.10949449766E+04  0.00000000000E+00 0. -1.
          1    1    1    2  502    0  0.67638659579E+02  0.16593373872E+02  0.44340128657E+03  0.44883741963E+03  0.00000000000E+00 0. -1.
         22    1    3    3    0    0  0.26007885227E+02 -0.88580729933E+02 -0.41025267030E+02  0.10102488973E+03  0.00000000000E+00 0.  1.
         22    1    3    3    0    0 -0.18412730556E+02  0.27214285892E+02  0.22263114825E+02  0.39689951938E+02  0.00000000000E+00 0.  1.
</event>
<event>
 7    1  0.5667373E-006  0.6937709E+02  0.7818608E-02  0.1369465E+00
          2   -1    0    0  502    0  0.00000000000E+00  0.00000000000E+00  0.43287503222E+03  0.43287503222E+03  0.00000000000E+00 0. -1.
          1   -1    0    0  501    0 -0.00000000000E+00 -0.00000000000E+00 -0.90203422284E+02  0.90203422284E+02  0.00000000000E+00 0. -1.
         25    2    1    2    0    0 -0.78482257121E+01 -0.54072776518E+02  0.33495506487E+02  0.14047042420E+03  0.12499812524E+03 0.  0.
          2    1    1    2  501    0  0.64700020981E+02  0.89523778437E+01  0.29822783191E+00  0.65317124277E+02  0.00000000000E+00 0. -1.
          1    1    1    2  502    0 -0.56851795269E+02  0.45120398674E+02  0.30887787562E+03  0.31729090603E+03  0.00000000000E+00 0. -1.
         22    1    3    3    0    0 -0.28958691444E+02 -0.80191893094E+02  0.54188537634E+02  0.10102347816E+03  0.00000000000E+00 0.  1.
         22    1    3    3    0    0  0.21110465731E+02  0.26119116575E+02 -0.20693031147E+02  0.39446946043E+02  0.00000000000E+00 0.  1.
</event>
<event>
 7    1  0.5667373E-006  0.5663553E+02  0.7818608E-02  0.1472155E+00
          2   -1    0    0  502    0  0.00000000000E+00  0.00000000000E+00  0.80233618834E+02  0.80233618834E+02  0.00000000000E+00 0. -1.
          1   -1    0    0  501    0 -0.00000000000E+00 -0.00000000000E+00 -0.91917478475E+03  0.91917478475E+03  0.00000000000E+00 0. -1.
         25    2    1    2    0    0  0.43314324170E+02 -0.30302859358E+02 -0.48493322870E+03  0.50356741502E+03  0.12500204483E+03 0.  0.
          2    1    1    2  501    0 -0.26992721659E+02 -0.24296203828E+02 -0.41254836744E+03  0.41414377699E+03  0.00000000000E+00 0. -1.
          1    1    1    2  502    0 -0.16321602511E+02  0.54599063187E+02  0.58540430217E+02  0.81697211577E+02  0.00000000000E+00 0. -1.
         22    1    3    3    0    0 -0.91965858851E+01  0.20422677900E+02 -0.12749078099E+02  0.25772115880E+02  0.00000000000E+00 0.  1.
         22    1    3    3    0    0  0.52510910055E+02 -0.50725537259E+02 -0.47218415060E+03  0.47779529914E+03  0.00000000000E+00 0.  1.
</event>
<event>
 7    1  0.5667373E-006  0.8964483E+02  0.7818608E-02  0.1339834E+00
          2   -1    0    0  502    0  0.00000000000E+00  0.00000000000E+00  0.65689640910E+03  0.65689640910E+03  0.00000000000E+00 0. -1.
          1   -1    0    0  501    0 -0.00000000000E+00 -0.00000000000E+00 -0.31911689497E+03  0.31911689497E+03  0.00000000000E+00 0. -1.
         25    2    1    2    0    0  0.42209913482E+01  0.29780576546E+02  0.47695123828E+02  0.13712825425E+03  0.12499853507E+03 0.  0.
          2    1    1    2  501    0 -0.18550163344E+02 -0.93155041373E+02 -0.26422586439E+03  0.28077976727E+03  0.00000000000E+00 0. -1.
          1    1    1    2  502    0  0.14329171995E+02  0.63374464826E+02  0.55431025469E+03  0.55810528256E+03  0.00000000000E+00 0. -1.
         22    1    3    3    0    0  0.22074872176E+02  0.51144501056E+02  0.78081359321E+02  0.95915372299E+02  0.00000000000E+00 0. -1.
         22    1    3    3    0    0 -0.17853880827E+02 -0.21363924510E+02 -0.30386235493E+02  0.41212881949E+02  0.00000000000E+00 0. -1.
</event>
<event>
 7    1  0.5667373E-006  0.6233754E+02  0.7818608E-02  0.1468718E+00
          2   -1    0    0  502    0  0.00000000000E+00  0.00000000000E+00  0.13353263873E+04  0.13353263873E+04  0.00000000000E+00 0. -1.
          1   -1    0    0  501    0 -0.00000000000E+00 -0.00000000000E+00 -0.64666859051E+03  0.64666859051E+03  0.00000000000E+00 0. -1.
         25    2    1    2    0    0  0.53368347625E+02  0.37149150372E+02  0.16790967819E+03  0.21919502762E+03  0.12499824079E+03 0.  0.
          2    1    1    2  501    0  0.90076696866E+01 -0.32595006569E+02 -0.61970812364E+03  0.62063010809E+03  0.00000000000E+00 0. -1.
          1    1    1    2  502    0 -0.62376017312E+02 -0.45541438033E+01  0.11404562422E+04  0.11421698421E+04  0.00000000000E+00 0. -1.
         22    1    3    3    0    0  0.60157476219E+02  0.60358920175E+02  0.49941659006E+02  0.98773936309E+02  0.00000000000E+00 0. -1.
         22    1    3    3    0    0 -0.67891285933E+01 -0.23209769803E+02  0.11796801919E+03  0.12042109131E+03  0.00000000000E+00 0. -1.
</event>
<event>
 7    1  0.5667373E-006  0.1084473E+03  0.7818608E-02  0.1282471E+00
          2   -1    0    0  502    0  0.00000000000E+00  0.00000000000E+00  0.12849510303E+03  0.12849510303E+03  0.00000000000E+00 0. -1.
          1   -1    0    0  501    0 -0.00000000000E+00 -0.00000000000E+00 -0.81660456003E+03  0.81660456003E+03  0.00000000000E+00 0. -1.
         25    2    1    2    0    0 -0.86164122465E+02 -0.30311455025E+02 -0.25653825903E+03  0.29963273970E+03  0.12499944019E+03 0.  0.
          2    1    1    2  501    0  0.48318438158E+02  0.11232674452E+03 -0.51085210101E+03  0.52528262688E+03  0.00000000000E+00 0. -1.
          1    1    1    2  502    0  0.37845684306E+02 -0.82015289494E+02  0.79280903042E+02  0.12018429647E+03  0.00000000000E+00 0. -1.
         22    1    3    3    0    0 -0.12348868000E+02  0.69738906826E+01 -0.19753631746E+03  0.19804475860E+03  0.00000000000E+00 0. -1.
         22    1    3    3    0    0 -0.73815254464E+02 -0.37285345707E+02 -0.59001941576E+02  0.10158798111E+03  0.00000000000E+00 0. -1.
</event>
<event>
 7    1  0.5667373E-006  0.4031624E+02  0.7818608E-02  0.1559828E+00
          2   -1    0    0  502    0  0.00000000000E+00  0.00000000000E+00  0.12558131833E+04  0.12558131833E+04  0.00000000000E+00 0. -1.
          1   -1    0    0  501    0 -0.00000000000E+00 -0.00000000000E+00 -0.99511049608E+03  0.99511049608E+03  0.00000000000E+00 0. -1.
         25    2    1    2    0    0  0.10220828416E+02  0.98677130261E+01 -0.39638367750E+03  0.41587009405E+03  0.12500431291E+03 0.  0.
          2    1    1    2  501    0 -0.27126228312E+02 -0.32541091026E+02 -0.58806102318E+03  0.58958504208E+03  0.00000000000E+00 0. -1.
          1    1    1    2  502    0  0.16905399895E+02  0.22673378000E+02  0.12451473879E+04  0.12454685432E+04  0.00000000000E+00 0. -1.
         22    1    3    3    0    0 -0.17948887099E+02 -0.51419761115E+02 -0.12729640578E+03  0.13845768056E+03  0.00000000000E+00 0. -1.
         22    1    3    3    0    0  0.28169715515E+02  0.61287474141E+02 -0.26908727172E+03  0.27741241349E+03  0.00000000000E+00 0. -1.
</event>
<event>
 7    1  0.5667373E-006  0.8173110E+02  0.7818608E-02  0.1345602E+00
          2   -1    0    0  502    0  0.00000000000E+00  0.00000000000E+00  0.11718412014E+04  0.11718412014E+04  0.00000000000E+00 0. -1.
          1   -1    0    0  501    0 -0.00000000000E+00 -0.00000000000E+00 -0.72006104709E+03  0.72006104709E+03  0.00000000000E+00 0. -1.
         25    2    1    2    0    0  0.67599857489E+01 -0.13865589053E+03 -0.36677880325E+03  0.41160888866E+03  0.12499613323E+03 0.  0.
          2    1    1    2  501    0 -0.11168078822E+02  0.70992965332E+02 -0.32594949671E+03  0.33377807225E+03  0.00000000000E+00 0. -1.
          1    1    1    2  502    0  0.44080930732E+01  0.67662925200E+02  0.11445084543E+04  0.11465152876E+04  0.00000000000E+00 0. -1.
         22    1    3    3    0    0 -0.34338014400E+01  0.23677607548E+02 -0.40612197548E+02  0.47135662520E+02  0.00000000000E+00 0. -1.
         22    1    3    3    0    0  0.10193787189E+02 -0.16233349808E+03 -0.32616660571E+03  0.36447322614E+03  0.00000000000E+00 0. -1.
</event>
<event>
 7    1  0.5667373E-006  0.5930787E+02  0.7818608E-02  0.1472447E+00
          2   -1    0    0  502    0  0.00000000000E+00  0.00000000000E+00  0.12626335545E+04  0.12626335545E+04  0.00000000000E+00 0. -1.
          1   -1    0    0  501    0 -0.00000000000E+00 -0.00000000000E+00 -0.26433783690E+03  0.26433783690E+03  0.00000000000E+00 0. -1.
         25    2    1    2    0    0  0.39496940519E+02 -0.68845473375E+02  0.74421578997E+02  0.16572407336E+03  0.12500475813E+03 0.  0.
          2    1    1    2  501    0 -0.33097880335E+02  0.10112148828E+02 -0.21654788364E+03  0.21929594421E+03  0.00000000000E+00 0. -1.
          1    1    1    2  502    0 -0.63990601839E+01  0.58733324548E+02  0.11404220222E+04  0.11419513738E+04  0.00000000000E+00 0. -1.
         22    1    3    3    0    0  0.20611071222E-01 -0.66187272645E+02  0.99043047417E+02  0.11912296473E+03  0.00000000000E+00 0. -1.
         22    1    3    3    0    0  0.39476329448E+02 -0.26582007306E+01 -0.24621468420E+02  0.46601108623E+02  0.00000000000E+00 0. -1.
</event>
<event>
 7    1  0.5667373E-006  0.5224753E+02  0.7818608E-02  0.1501684E+00
          2   -1    0    0  502    0  0.00000000000E+00  0.00000000000E+00  0.65957567312E+03  0.65957567312E+03  0.00000000000E+00 0. -1.
          1   -1    0    0  501    0 -0.00000000000E+00 -0.00000000000E+00 -0.87331837370E+03  0.87331837370E+03  0.00000000000E+00 0. -1.
         25    2    1    2    0    0 -0.36252349424E+02  0.21294577729E+02 -0.10183773819E+03  0.16661993345E+03  0.12499434157E+03 0.  0.
          2    1    1    2  501    0  0.19973438537E+02 -0.48866026888E+02 -0.73773709804E+03  0.73962345329E+03  0.00000000000E+00 0. -1.
          1    1    1    2  502    0  0.16278910887E+02  0.27571449159E+02  0.62583213566E+03  0.62665066008E+03  0.00000000000E+00 0. -1.
         22    1    3    3    0    0 -0.40019084303E+02 -0.23729650201E+02  0.85853177510E+01  0.47311003879E+02  0.00000000000E+00 0. -1.
         22    1    3    3    0    0  0.37667348789E+01  0.45024227930E+02 -0.11042305594E+03  0.11930892957E+03  0.00000000000E+00 0. -1.
</event>
<event>
 7    1  0.5667373E-006  0.4621009E+02  0.7818608E-02  0.1525280E+00
          2   -1    0    0  502    0  0.00000000000E+00  0.00000000000E+00  0.14028194786E+04  0.14028194786E+04  0.00000000000E+00 0. -1.
          1   -1    0    0  501    0 -0.00000000000E+00 -0.00000000000E+00 -0.63557691928E+02  0.63557691928E+02  0.00000000000E+00 0. -1.
         25    2    1    2    0    0  0.47440840068E+02 -0.99220278987E+01  0.16130773617E+03  0.20974779467E+03  0.12499948671E+03 0.  0.
          2    1    1    2  501    0 -0.17481762995E+02 -0.25448214862E+02 -0.32767128456E+02  0.45021199277E+02  0.00000000000E+00 0. -1.
          1    1    1    2  502    0 -0.29959077072E+02  0.35370242761E+02  0.12107211789E+04  0.12116081765E+04  0.00000000000E+00 0. -1.
         22    1    3    3    0    0  0.22382743072E+02 -0.50848606101E+02  0.15068099822E+03  0.16059679684E+03  0.00000000000E+00 0.  1.
         22    1    3    3    0    0  0.25058096996E+02  0.40926578203E+02  0.10626737944E+02  0.49150997831E+02  0.00000000000E+00 0.  1.
</event>
<event>
 7    1  0.5667373E-006  0.1436631E+03  0.7818608E-02  0.1349651E+00
          2   -1    0    0  502    0  0.00000000000E+00  0.00000000000E+00  0.11634718425E+03  0.11634718425E+03  0.00000000000E+00 0. -1.
          1   -1    0    0  501    0 -0.00000000000E+00 -0.00000000000E+00 -0.67384619414E+03  0.67384619414E+03  0.00000000000E+00 0. -1.
         25    2    1    2    0    0 -0.48429634054E+02  0.16819587329E+03 -0.28386903318E+03  0.35614859188E+03  0.12499964103E+03 0.  0.
          2    1    1    2  501    0  0.11010717480E+02 -0.35597144832E+02 -0.29260411721E+03  0.29496705245E+03  0.00000000000E+00 0. -1.
          1    1    1    2  502    0  0.37418916574E+02 -0.13259872845E+03  0.18974140500E+02  0.13907773407E+03  0.00000000000E+00 0. -1.
         22    1    3    3    0    0 -0.66505808223E+02  0.17871847057E+03 -0.23259049702E+03  0.30076843843E+03  0.00000000000E+00 0.  1.
         22    1    3    3    0    0  0.18076174168E+02 -0.10522597284E+02 -0.51278536152E+02  0.55380153449E+02  0.00000000000E+00 0.  1.
</event>
<event>
 7    1  0.5667373E-006  0.1002379E+03  0.7818608E-02  0.1343914E+00
          2   -1    0    0  502    0  0.00000000000E+00  0.00000000000E+00  0.83913027005E+03  0.83913027005E+03  0.00000000000E+00 0. -1.
          1   -1    0    0  501    0 -0.00000000000E+00 -0.00000000000E+00 -0.60364693028E+03  0.60364693028E+03  0.00000000000E+00 0. -1.
         25    2    1    2    0    0 -0.56003618565E+02  0.59689145021E+02  0.14635257733E+03  0.20914935012E+03  0.12500069776E+03 0.  0.
          2    1    1    2  501    0 -0.44860787172E+02 -0.33678794628E+02 -0.56675392287E+03  0.56952327479E+03  0.00000000000E+00 0. -1.
          1    1    1    2  502    0  0.10086440574E+03 -0.26010350393E+02  0.65588468531E+03  0.66410457542E+03  0.00000000000E+00 0. -1.
         22    1    3    3    0    0 -0.90197685445E+02  0.60871609225E+02  0.13435177971E+03  0.17289122586E+03  0.00000000000E+00 0.  1.
         22    1    3    3    0    0  0.34194066880E+02 -0.11824642038E+01  0.12000797620E+02  0.36258124260E+02  0.00000000000E+00 0.  1.
</event>
<event>
 7    1  0.5667373E-006  0.8594849E+02  0.7818608E-02  0.1390422E+00
          2   -1    0    0  502    0  0.00000000000E+00  0.00000000000E+00  0.44506779443E+03  0.44506779443E+03  0.00000000000E+00 0. -1.
          1   -1    0    0  501    0 -0.00000000000E+00 -0.00000000000E+00 -0.19729505459E+03  0.19729505459E+03  0.00000000000E+00 0. -1.
         25    2    1    2    0    0 -0.59188552789E+02  0.32489124226E+02  0.37640827644E+02  0.14697427888E+03  0.12500311505E+03 0.  0.
          2    1    1    2  501    0  0.89952190871E+02 -0.41986603493E+00 -0.12683997465E+03  0.15549904211E+03  0.00000000000E+00 0. -1.
          1    1    1    2  502    0 -0.30763638082E+02 -0.32069258191E+02  0.33697188684E+03  0.33988952804E+03  0.00000000000E+00 0. -1.
         22    1    3    3    0    0  0.75208376363E+01  0.17547838373E+02 -0.39517702046E+02  0.43887793352E+02  0.00000000000E+00 0.  1.
         22    1    3    3    0    0 -0.66709390425E+02  0.14941285852E+02  0.77158529690E+02  0.10308648552E+03  0.00000000000E+00 0.  1.
</event>
<event>
 7    1  0.5667373E-006  0.4376848E+02  0.7818608E-02  0.1521348E+00
          2   -1    0    0  502    0  0.00000000000E+00  0.00000000000E+00  0.34627384536E+03  0.34627384536E+03  0.00000000000E+00 0. -1.
          1   -1    0    0  501    0 -0.00000000000E+00 -0.00000000000E+00 -0.13658060162E+04  0.13658060162E+04  0.00000000000E+00 0. -1.
         25    2    1    2    0    0  0.53192986657E+01  0.54089131705E+02 -0.28142508228E+03  0.31269554112E+03  0.12499798157E+03 0.  0.
          2    1    1    2  501    0  0.23438657283E+02 -0.36983090924E+02 -0.10674491757E+04  0.10683467894E+04  0.00000000000E+00 0. -1.
          1    1    1    2  502    0 -0.28757955949E+02 -0.17106040781E+02  0.32934208710E+03  0.33103753110E+03  0.00000000000E+00 0. -1.
         22    1    3    3    0    0 -0.12045246209E+02  0.92363365255E+02 -0.17443702790E+03  0.19774821340E+03  0.00000000000E+00 0. -1.
         22    1    3    3    0    0  0.17364544875E+02 -0.38274233550E+02 -0.10698805437E+03  0.11494732773E+03  0.00000000000E+00 0. -1.
</event>
<event>
 7    1  0.5667373E-006  0.1274585E+03  0.7818608E-02  0.1429002E+00
          2   -1    0    0  502    0  0.00000000000E+00  0.00000000000E+00  0.20415115586E+04  0.20415115586E+04  0.00000000000E+00 0. -1.
          1   -1    0    0  501    0 -0.00000000000E+00 -0.00000000000E+00 -0.33944575404E+03  0.33944575404E+03  0.00000000000E+00 0. -1.
         25    2    1    2    0    0  0.80668889489E+01  0.11123754648E+03  0.20505968186E+03  0.26479068171E+03  0.12500306217E+03 0.  0.
          2    1    1    2  501    0 -0.13777467997E+02  0.17372367910E+02 -0.30688634860E+03  0.30768628301E+03  0.00000000000E+00 0. -1.
          1    1    1    2  502    0  0.57105790482E+01 -0.12860991439E+03  0.18038924714E+04  0.18084803480E+04  0.00000000000E+00 0. -1.
         22    1    3    3    0    0 -0.15338329787E+02  0.47835990516E+02  0.18867655387E+03  0.19524955398E+03  0.00000000000E+00 0. -1.
         22    1    3    3    0    0  0.23405218735E+02  0.63401555966E+02  0.16383127989E+02  0.69541127728E+02  0.00000000000E+00 0. -1.
</event>
<event>
 7    1  0.5667373E-006  0.9349572E+02  0.7818608E-02  0.1352553E+00
          2   -1    0    0  502    0  0.00000000000E+00  0.00000000000E+00  0.14482203236E+04  0.14482203236E+04  0.00000000000E+00 0. -1.
          1   -1    0    0  501    0 -0.00000000000E+00 -0.00000000000E+00 -0.39172978567E+03  0.39172978567E+03  0.00000000000E+00 0. -1.
         25    2    1    2    0    0  0.95522196308E+02  0.75594233154E+02  0.35186739177E+03  0.39277844068E+03  0.12500105600E+03 0.  0.
          2    1    1    2  501    0 -0.40312952744E+02 -0.84075236747E+02 -0.36467978311E+03  0.37641084443E+03  0.00000000000E+00 0. -1.
          1    1    1    2  502    0 -0.55209243564E+02  0.84810035929E+01  0.10693029293E+04  0.10707608242E+04  0.00000000000E+00 0. -1.
         22    1    3    3    0    0  0.55128716988E+02 -0.25428801611E+02  0.17385425255E+03  0.18414966880E+03  0.00000000000E+00 0. -1.
         22    1    3    3    0    0  0.40393479319E+02  0.10102303476E+03  0.17801313922E+03  0.20862877189E+03  0.00000000000E+00 0. -1.
</event>
<event>
 7    1  0.5667373E-006  0.8982257E+02  0.7818608E-02  0.1451584E+00
          2   -1    0    0  502    0  0.00000000000E+00  0.00000000000E+00  0.78303706742E+03  0.78303706742E+03  0.00000000000E+00 0. -1.
          1   -1    0    0  501    0 -0.00000000000E+00 -0.00000000000E+00 -0.22322591598E+03  0.22322591598E+03  0.00000000000E+00 0. -1.
         25    2    1    2    0    0  0.79907994353E+02  0.83630068839E+02  0.34128082233E+03  0.38141629234E+03  0.12500604945E+03 0.  0.
          2    1    1    2  501    0 -0.60732399439E+02 -0.65225357753E+02 -0.19293461260E+03  0.21252420186E+03  0.00000000000E+00 0. -1.
          1    1    1    2  502    0 -0.19175594914E+02 -0.18404711086E+02  0.41146494172E+03  0.41232248919E+03  0.00000000000E+00 0. -1.
         22    1    3    3    0    0  0.78104652632E+02 -0.79930210345E+01  0.16567284270E+03  0.18333498291E+03  0.00000000000E+00 0. -1.
         22    1    3    3    0    0  0.18033417207E+01  0.91623089873E+02  0.17560797963E+03  0.19808130944E+03  0.00000000000E+00 0. -1.
</event>
<event>
 7    1  0.5667373E-006  0.1427939E+03  0.7818608E-02  0.1234730E+00
          2   -1    0    0  502    0  0.00000000000E+00  0.00000000000E+00  0.90656136308E+03  0.90656136308E+03  0.00000000000E+00 0. -1.
          1   -1    0    0  501    0 -0.00000000000E+00 -0.00000000000E+00 -0.68957945877E+03  0.68957945877E+03  0.00000000000E+00 0. -1.
         25    2    1    2    0    0  0.36729124458E+02 -0.19620262347E+03  0.29160877035E+03  0.37484072750E+03  0.12500159203E+03 0.  0.
          2    1    1    2  501    0 -0.85420893074E+02  0.68994199142E+02 -0.63509542414E+03  0.64451774704E+03  0.00000000000E+00 0. -1.
          1    1    1    2  502    0  0.48691768616E+02  0.12720842433E+03  0.56046855810E+03  0.57678234731E+03  0.00000000000E+00 0. -1.
         22    1    3    3    0    0  0.60890388731E+02 -0.11910236218E+03  0.25098531402E+03  0.28440576642E+03  0.00000000000E+00 0.  1.
         22    1    3    3    0    0 -0.24161264273E+02 -0.77100261291E+02  0.40623456324E+02  0.90434961084E+02  0.00000000000E+00 0.  1.
</event>
<event>
 7    1  0.5667373E-006  0.3331976E+02  0.7818608E-02  0.1584993E+00
          2   -1    0    0  502    0  0.00000000000E+00  0.00000000000E+00  0.12721008583E+04  0.12721008583E+04  0.00000000000E+00 0. -1.
          1   -1    0    0  501    0 -0.00000000000E+00 -0.00000000000E+00 -0.29117602376E+02  0.29117602376E+02  0.00000000000E+00 0. -1.
         25    2    1    2    0    0  0.42953737184E+00  0.53963344321E+01  0.32018412214E+03  0.34376182023E+03  0.12500004820E+03 0.  0.
          2    1    1    2  501    0  0.16302061620E+02  0.24286581038E+02 -0.44452504578E+01  0.29586407068E+02  0.00000000000E+00 0. -1.
          1    1    1    2  502    0 -0.16731598992E+02 -0.29682915470E+02  0.92724438429E+03  0.92787023342E+03  0.00000000000E+00 0. -1.
         22    1    3    3    0    0 -0.96652209354E+01  0.59296888673E+02  0.98336953796E+02  0.11523755457E+03  0.00000000000E+00 0. -1.
         22    1    3    3    0    0  0.10094758307E+02 -0.53900554241E+02  0.22184716834E+03  0.22852426566E+03  0.00000000000E+00 0. -1.
</event>
<event>
 7    1  0.5667373E-006  0.5549035E+02  0.7818608E-02  0.1555943E+00
          2   -1    0    0  502    0  0.00000000000E+00  0.00000000000E+00  0.97958282181E+03  0.97958282181E+03  0.00000000000E+00 0. -1.
          1   -1    0    0  501    0 -0.00000000000E+00 -0.00000000000E+00 -0.77673319404E+02  0.77673319404E+02  0.00000000000E+00 0. -1.
         25    2    1    2    0    0  0.53879265489E+02 -0.45535018329E+02  0.48973324795E+03  0.51033349535E+03  0.12500083674E+03 0.  0.
          2    1    1    2  501    0 -0.49204309709E+02  0.24998367975E+02 -0.55793802820E+02  0.78478856570E+02  0.00000000000E+00 0. -1.
          1    1    1    2  502    0 -0.46749557799E+01  0.20536650354E+02  0.46797005728E+03  0.46844378929E+03  0.00000000000E+00 0. -1.
         22    1    3    3    0    0 -0.16935083902E+02 -0.63056556692E+02  0.30083194276E+03  0.30783564478E+03  0.00000000000E+00 0. -1.
         22    1    3    3    0    0  0.70814349391E+02  0.17521538363E+02  0.18890130519E+03  0.20249785058E+03  0.00000000000E+00 0. -1.
</event>
<event>
 7    1  0.5667373E-006  0.3304789E+02  0.7818608E-02  0.1568237E+00
          2   -1    0    0  502    0  0.00000000000E+00  0.00000000000E+00  0.32202627026E+04  0.32202627026E+04  0.00000000000E+00 0. -1.
          1   -1    0    0  501    0 -0.00000000000E+00 -0.00000000000E+00 -0.41655466941E+02  0.41655466941E+02  0.00000000000E+00 0. -1.
         25    2    1    2    0    0  0.12368948713E+02  0.16232032710E+02  0.15325812643E+04  0.15378080562E+04  0.12502726273E+03 0.  0.
          2    1    1    2  501    0  0.18286432354E+02 -0.27672970421E+02 -0.31808776339E+02  0.45956339632E+02  0.00000000000E+00 0. -1.
          1    1    1    2  502    0 -0.30655381067E+02  0.11440937711E+02  0.16778347478E+04  0.16781537737E+04  0.00000000000E+00 0. -1.
         22    1    3    3    0    0  0.22949707777E+02 -0.41140442120E+02  0.28529839316E+03  0.28916154344E+03  0.00000000000E+00 0.  1.
         22    1    3    3    0    0 -0.10580759064E+02  0.57372474829E+02  0.12472828711E+04  0.12486465128E+04  0.00000000000E+00 0.  1.
</event>
<event>
 7    1  0.5667373E-006  0.1392842E+03  0.7818608E-02  0.1293654E+00
          2   -1    0    0  502    0  0.00000000000E+00  0.00000000000E+00  0.17483209970E+04  0.17483209970E+04  0.00000000000E+00 0. -1.
          1   -1    0    0  501    0 -0.00000000000E+00 -0.00000000000E+00 -0.41018334658E+03  0.41018334658E+03  0.00000000000E+00 0. -1.
         25    2    1    2    0    0  0.10331758701E+03  0.14173555035E+03  0.92137190937E+03  0.94621070669E+03  0.12500006422E+03 0.  0.
          2    1    1    2  501    0 -0.58916474546E+02 -0.23186308740E+02 -0.39027869090E+03  0.39538109774E+03  0.00000000000E+00 0. -1.
          1    1    1    2  502    0 -0.44401112461E+02 -0.11854924161E+03  0.80704443193E+03  0.81691253913E+03  0.00000000000E+00 0. -1.
         22    1    3    3    0    0  0.37820040431E+02 -0.77589313667E+01  0.34569605796E+03  0.34784525434E+03  0.00000000000E+00 0. -1.
         22    1    3    3    0    0  0.65497546576E+02  0.14949448172E+03  0.57567585140E+03  0.59836545235E+03  0.00000000000E+00 0. -1.
</event>
<event>
 7    1  0.5667373E-006  0.5524425E+02  0.7818608E-02  0.1473057E+00
          2   -1    0    0  502    0  0.00000000000E+00  0.00000000000E+00  0.31723551352E+03  0.31723551352E+03  0.00000000000E+00 0. -1.
          1   -1    0    0  501    0 -0.00000000000E+00 -0.00000000000E+00 -0.18752400751E+04  0.18752400751E+04  0.00000000000E+00 0. -1.
         25    2    1    2    0    0 -0.65065297408E+01  0.18666780285E+02  0.42731481794E+02  0.13357433992E+03  0.12500136453E+03 0.  0.
          2    1    1    2  501    0  0.32871059611E+02 -0.44615973221E+02 -0.18279025692E+04  0.18287424351E+04  0.00000000000E+00 0. -1.
          1    1    1    2  502    0 -0.26364529870E+02  0.25949192936E+02  0.22716652578E+03  0.23015881361E+03  0.00000000000E+00 0. -1.
         22    1    3    3    0    0 -0.59801992852E+02  0.36332525283E+02  0.18198447924E+02  0.72301550809E+02  0.00000000000E+00 0.  1.
         22    1    3    3    0    0  0.53295463112E+02 -0.17665744998E+02  0.24533033871E+02  0.61272789112E+02  0.00000000000E+00 0.  1.
</event>
<event>
 7    1  0.5667373E-006  0.1293025E+03  0.7818608E-02  0.1365290E+00
          2   -1    0    0  502    0  0.00000000000E+00  0.00000000000E+00  0.11861147631E+04  0.11861147631E+04  0.00000000000E+00 0. -1.
          1   -1    0    0  501    0 -0.00000000000E+00 -0.00000000000E+00 -0.86760897769E+03  0.86760897769E+03  0.00000000000E+00 0. -1.
         25    2    1    2    0    0  0.28191458901E+02 -0.14336373531E+03  0.13523147159E+03  0.23507475899E+03  0.12499868979E+03 0.  0.
          2    1    1    2  501    0 -0.53471111338E+02  0.11733724798E+03 -0.81227120350E+03  0.82244251930E+03  0.00000000000E+00 0. -1.
          1    1    1    2  502    0  0.25279652437E+02  0.26026487323E+02  0.99554551730E+03  0.99620646248E+03  0.00000000000E+00 0. -1.
         22    1    3    3    0    0  0.57254956025E+02 -0.11870485524E+03  0.48665928372E+02  0.14048966236E+03  0.00000000000E+00 0.  1.
         22    1    3    3    0    0 -0.29063497124E+02 -0.24658880068E+02  0.86565543218E+02  0.94585096627E+02  0.00000000000E+00 0.  1.
</event>
<event>
 7    1  0.5667373E-006  0.5990458E+02  0.7818608E-02  0.1434499E+00
          2   -1    0    0  502    0  0.00000000000E+00  0.00000000000E+00  0.84553479068E+03  0.84553479068E+03  0.00000000000E+00 0. -1.
          1   -1    0    0  501    0 -0.00000000000E+00 -0.00000000000E+00 -0.31988557200E+03  0.31988557200E+03  0.00000000000E+00 0. -1.
         25    2    1    2    0    0 -0.17818265540E+01  0.15291461392E+02 -0.15068086780E+02  0.12684580376E+03  0.12500322794E+03 0.  0.
          2    1    1    2  501    0 -0.30356829348E+01  0.45153723535E+02 -0.24569491882E+03  0.24982807539E+03  0.00000000000E+00 0. -1.
          1    1    1    2  502    0  0.48175094888E+01 -0.60445184927E+02  0.78641222428E+03  0.78874648353E+03  0.00000000000E+00 0. -1.
         22    1    3    3    0    0 -0.62088669505E+02  0.20502804705E+02 -0.64466714052E+01  0.65703329093E+02  0.00000000000E+00 0.  1.
         22    1    3    3    0    0  0.60306842951E+02 -0.52113433132E+01 -0.86214153748E+01  0.61142474671E+02  0.00000000000E+00 0.  1.
</event>
<event>
 7    1  0.5667373E-006  0.3937436E+03  0.7818608E-02  0.1123926E+00
          2   -1    0    0  502    0  0.00000000000E+00  0.00000000000E+00  0.39127430304E+03  0.39127430304E+03  0.00000000000E+00 0. -1.
          1   -1    0    0  501    0 -0.00000000000E+00 -0.00000000000E+00 -0.89433590774E+03  0.89433590774E+03  0.00000000000E+00 0. -1.
         25    2    1    2    0    0 -0.17785516473E+03 -0.32583999301E+03 -0.32318849306E+02  0.39303119030E+03  0.12499939143E+03 0.  0.
          2    1    1    2  501    0  0.62246013425E+02  0.40291056127E+03 -0.58475442271E+03  0.71284586094E+03  0.00000000000E+00 0. -1.
          1    1    1    2  502    0  0.11560915131E+03 -0.77070568262E+02  0.11401166732E+03  0.17973315955E+03  0.00000000000E+00 0. -1.
         22    1    3    3    0    0 -0.19094434455E+03 -0.26909670511E+03 -0.46169666264E+02  0.33317325448E+03  0.00000000000E+00 0. -1.
         22    1    3    3    0    0  0.13089179818E+02 -0.56743287898E+02  0.13850816958E+02  0.59857935816E+02  0.00000000000E+00 0. -1.
</event>
<event>
 7    1  0.5667373E-006  0.1356468E+03  0.7818608E-02  0.1246202E+00
          2   -1    0    0  502    0  0.00000000000E+00  0.00000000000E+00  0.18700978322E+04  0.18700978322E+04  0.00000000000E+00 0. -1.
          1   -1    0    0  501    0 -0.00000000000E+00 -0.00000000000E+00 -0.84830116205E+03  0.84830116205E+03  0.00000000000E+00 0. -1.
         25    2    1    2    0    0  0.12724095949E+03 -0.12260274611E+03  0.35440935582E+02  0.21932378635E+03  0.12500067287E+03 0.  0.
          2    1    1    2  501    0 -0.10235353552E+03 -0.10469236963E+02 -0.75021408821E+03  0.75723644214E+03  0.00000000000E+00 0. -1.
          1    1    1    2  502    0 -0.24887423973E+02  0.13307198307E+03  0.17365698227E+04  0.17418387657E+04  0.00000000000E+00 0. -1.
         22    1    3    3    0    0  0.77217831279E+02 -0.80932368454E+02  0.82499154386E+02  0.13899191417E+03  0.00000000000E+00 0.  1.
         22    1    3    3    0    0  0.50023128216E+02 -0.41670377654E+02 -0.47058218804E+02  0.80331872176E+02  0.00000000000E+00 0.  1.
</event>
<event>
 7    1  0.5667373E-006  0.7666098E+02  0.7818608E-02  0.1466717E+00
          2   -1    0    0  502    0  0.00000000000E+00  0.00000000000E+00  0.98268853362E+03  0.98268853362E+03  0.00000000000E+00 0. -1.
          1   -1    0    0  501    0 -0.00000000000E+00 -0.00000000000E+00 -0.29969406310E+03  0.29969406310E+03  0.00000000000E+00 0. -1.
         25    2    1    2    0    0  0.25896299353E+02 -0.66589406449E+02  0.12198257102E+03  0.18870991213E+03  0.12500766349E+03 0.  0.
          2    1    1    2  501    0 -0.21794904708E-01  0.77016589697E+02 -0.26052083399E+03  0.27166645083E+03  0.00000000000E+00 0. -1.
          1    1    1    2  502    0 -0.25874504448E+02 -0.10427183248E+02  0.82153273349E+03  0.82200623375E+03  0.00000000000E+00 0. -1.
         22    1    3    3    0    0 -0.43861846062E+02 -0.37810088221E+02  0.18813479690E+02  0.60888515578E+02  0.00000000000E+00 0. -1.
         22    1    3    3    0    0  0.69758145415E+02 -0.28779318229E+02  0.10316909133E+03  0.12782139655E+03  0.00000000000E+00 0. -1.
</event>
<event>
 7    1  0.5667373E-006  0.1112704E+03  0.7818608E-02  0.1359747E+00
          2   -1    0    0  502    0  0.00000000000E+00  0.00000000000E+00  0.23032742095E+04  0.23032742095E+04  0.00000000000E+00 0. -1.
          1   -1    0    0  501    0 -0.00000000000E+00 -0.00000000000E+00 -0.47354282875E+03  0.47354282875E+03  0.00000000000E+00 0. -1.
         25    2    1    2    0    0 -0.95481704515E+02  0.33233172096E+02 -0.33837854882E+03  0.37462763030E+03  0.12499847782E+03 0.  0.
          2    1    1    2  501    0  0.13462462072E+02  0.42063444477E+02 -0.11146559511E+03  0.11989641420E+03  0.00000000000E+00 0. -1.
          1    1    1    2  502    0  0.82019242443E+02 -0.75296616574E+02  0.22795755247E+04  0.22822929938E+04  0.00000000000E+00 0. -1.
         22    1    3    3    0    0 -0.10470824777E+03  0.65391066958E+01 -0.14376101125E+03  0.17797136125E+03  0.00000000000E+00 0. -1.
         22    1    3    3    0    0  0.92265432556E+01  0.26694065401E+02 -0.19461753757E+03  0.19665626905E+03  0.00000000000E+00 0. -1.
</event>
<event>
 7    1  0.5667373E-006  0.1372466E+03  0.7818608E-02  0.1236865E+00
          2   -1    0    0  502    0  0.00000000000E+00  0.00000000000E+00  0.33552096228E+03  0.33552096228E+03  0.00000000000E+00 0. -1.
          1   -1    0    0  501    0 -0.00000000000E+00 -0.00000000000E+00 -0.83565859316E+03  0.83565859316E+03  0.00000000000E+00 0. -1.
         25    2    1    2    0    0 -0.70548098829E+02  0.52962123949E+02  0.59851962090E+02  0.16428386112E+03  0.12499963534E+03 0.  0.
          2    1    1    2  501    0 -0.10615590559E+03 -0.34993982658E+02 -0.74329635628E+03  0.75165359600E+03  0.00000000000E+00 0. -1.
          1    1    1    2  502    0  0.17670400442E+03 -0.17968141292E+02  0.18330676332E+03  0.25524209833E+03  0.00000000000E+00 0. -1.
         22    1    3    3    0    0 -0.54399722332E+02 -0.27884319343E+02  0.54114656895E+02  0.81641050618E+02  0.00000000000E+00 0.  1.
         22    1    3    3    0    0 -0.16148376497E+02  0.80846443293E+02  0.57373051948E+01  0.82642810501E+02  0.00000000000E+00 0.  1.
</event>
<event>
 7    1  0.5667373E-006  0.4759573E+03  0.7818608E-02  0.1168846E+00
          2   -1    0    0  502    0  0.00000000000E+00  0.00000000000E+00  0.15841304975E+04  0.15841304975E+04  0.00000000000E+00 0. -1.
          1   -1    0    0  501    0 -0.00000000000E+00 -0.00000000000E+00 -0.82464477319E+03  0.82464477319E+03  0.00000000000E+00 0. -1.
         25    2    1    2    0    0  0.11010733766E+03  0.49247578641E+03  0.82105686092E+03  0.97181031200E+03  0.12499955053E+03 0.  0.
          2    1    1    2  501    0 -0.46935391058E+02 -0.48181677930E+02 -0.67420491167E+03  0.67755196696E+03  0.00000000000E+00 0. -1.
          1    1    1    2  502    0 -0.63171946599E+02 -0.44429410848E+03  0.61263377508E+03  0.75941299175E+03  0.00000000000E+00 0. -1.
         22    1    3    3    0    0  0.35987893133E+01  0.23110998454E+03  0.29438305977E+03  0.37428085994E+03  0.00000000000E+00 0. -1.
         22    1    3    3    0    0  0.10650854834E+03  0.26136580188E+03  0.52667380115E+03  0.59752945206E+03  0.00000000000E+00 0. -1.
</event>
<event>
 7    1  0.5667373E-006  0.6602081E+02  0.7818608E-02  0.1442616E+00
          2   -1    0    0  502    0  0.00000000000E+00  0.00000000000E+00  0.37360215376E+03  0.37360215376E+03  0.00000000000E+00 0. -1.
          1   -1    0    0  501    0 -0.00000000000E+00 -0.00000000000E+00 -0.37387669195E+03  0.37387669195E+03  0.00000000000E+00 0. -1.
         25    2    1    2    0    0 -0.20350333253E+01  0.72253868681E+02  0.12063890198E+03  0.18815893600E+03  0.12500111050E+03 0.  0.
          2    1    1    2  501    0 -0.34771450901E+02 -0.16855818328E+02 -0.33393158535E+03  0.33615989663E+03  0.00000000000E+00 0. -1.
          1    1    1    2  502    0  0.36806484226E+02 -0.55398050353E+02  0.21301814517E+03  0.22316001308E+03  0.00000000000E+00 0. -1.
         22    1    3    3    0    0  0.27675118563E+02 -0.28115171573E+02  0.27988603190E+02  0.48370827661E+02  0.00000000000E+00 0. -1.
         22    1    3    3    0    0 -0.29710151888E+02  0.10036904025E+03  0.92650298789E+02  0.13978810834E+03  0.00000000000E+00 0. -1.
</event>
<event>
 7    1  0.5667373E-006  0.1317712E+03  0.7818608E-02  0.1253941E+00
          2   -1    0    0  502    0  0.00000000000E+00  0.00000000000E+00  0.51334343670E+03  0.51334343670E+03  0.00000000000E+00 0. -1.
          1   -1    0    0  501    0 -0.00000000000E+00 -0.00000000000E+00 -0.69730399366E+03  0.69730399366E+03  0.00000000000E+00 0. -1.
         25    2    1    2    0    0 -0.73069700979E+01 -0.66921887502E+02 -0.11044812623E+03  0.17987413959E+03  0.12499594661E+03 0.  0.
          2    1    1    2  501    0  0.87222531706E+02 -0.44756653372E+02 -0.53776907355E+03  0.54663196442E+03  0.00000000000E+00 0. -1.
          1    1    1    2  502    0 -0.79915561608E+02  0.11167854087E+03  0.46425664282E+03  0.48414132635E+03  0.00000000000E+00 0. -1.
         22    1    3    3    0    0 -0.20073327846E+02 -0.10234930215E+03 -0.79991689238E+02  0.13144195863E+03  0.00000000000E+00 0.  1.
         22    1    3    3    0    0  0.12766357748E+02  0.35427414647E+02 -0.30456436989E+02  0.48432180963E+02  0.00000000000E+00 0.  1.
</event>
<event>
 7    1  0.5667373E-006  0.6690831E+02  0.7818608E-02  0.1374409E+00
          2   -1    0    0  502    0  0.00000000000E+00  0.00000000000E+00  0.15433998207E+04  0.15433998207E+04  0.00000000000E+00 0. -1.
          1   -1    0    0  501    0 -0.00000000000E+00 -0.00000000000E+00 -0.61172694342E+02  0.61172694342E+02  0.00000000000E+00 0. -1.
         25    2    1    2    0    0  0.64034188647E+01 -0.15811391071E+01  0.24319327713E+03  0.27351470488E+03  0.12499527979E+03 0.  0.
          2    1    1    2  501    0 -0.39835929514E+02  0.59537927617E+02 -0.16688763838E+02  0.73553932211E+02  0.00000000000E+00 0. -1.
          1    1    1    2  502    0  0.33432510649E+02 -0.57956788510E+02  0.12557226130E+04  0.12575038779E+04  0.00000000000E+00 0. -1.
         22    1    3    3    0    0  0.25274331131E+02  0.54889343423E+02  0.16143282954E+03  0.17237224339E+03  0.00000000000E+00 0.  1.
         22    1    3    3    0    0 -0.18870912266E+02 -0.56470482530E+02  0.81760447591E+02  0.10114246150E+03  0.00000000000E+00 0.  1.
</event>
<event>
 7    1  0.5667373E-006  0.5006504E+02  0.7818608E-02  0.1472844E+00
          2   -1    0    0  502    0  0.00000000000E+00  0.00000000000E+00  0.12935290688E+04  0.12935290688E+04  0.00000000000E+00 0. -1.
          1   -1    0    0  501    0 -0.00000000000E+00 -0.00000000000E+00 -0.91091228279E+02  0.91091228279E+02  0.00000000000E+00 0. -1.
         25    2    1    2    0    0  0.58511579940E+01 -0.24447183867E+02  0.13608545021E+03  0.18648850099E+03  0.12500724136E+03 0.  0.
          2    1    1    2  501    0  0.31074429484E+02  0.41991328814E+02 -0.55104379201E+02  0.75930128871E+02  0.00000000000E+00 0. -1.
          1    1    1    2  502    0 -0.36925587478E+02 -0.17544144946E+02  0.11214567695E+04  0.11222016673E+04  0.00000000000E+00 0. -1.
         22    1    3    3    0    0 -0.50773278067E+02 -0.28937877439E+02  0.28931627200E+02  0.65210164613E+02  0.00000000000E+00 0.  1.
         22    1    3    3    0    0  0.56624436061E+02  0.44906935717E+01  0.10715382301E+03  0.12127833638E+03  0.00000000000E+00 0.  1.
</event>
<event>
 7    1  0.5667373E-006  0.5593107E+02  0.7818608E-02  0.1539910E+00
          2   -1    0    0  502    0  0.00000000000E+00  0.00000000000E+00  0.15781102598E+04  0.15781102598E+04  0.00000000000E+00 0. -1.
          1   -1    0    0  501    0 -0.00000000000E+00 -0.00000000000E+00 -0.12473566335E+02  0.12473566335E+02  0.00000000000E+00 0. -1.
         25    2    1    2    0    0 -0.29772707555E+02  0.68104880123E+02  0.10846878819E+04  0.10943947310E+04  0.12500934875E+03 0.  0.
          2    1    1    2  501    0  0.30506580716E+02 -0.44947355022E+02  0.94153576666E+02  0.10870056205E+03  0.00000000000E+00 0. -1.
          1    1    1    2  502    0 -0.73387316159E+00 -0.23157525102E+02  0.38679523495E+03  0.38748853315E+03  0.00000000000E+00 0. -1.
         22    1    3    3    0    0 -0.76701823380E+02  0.59435522561E+02  0.77507127909E+03  0.78112178226E+03  0.00000000000E+00 0. -1.
         22    1    3    3    0    0  0.46929115825E+02  0.86693575627E+01  0.30961660277E+03  0.31327294869E+03  0.00000000000E+00 0. -1.
</event>
<event>
 7    1  0.5667373E-006  0.6809899E+02  0.7818608E-02  0.1419110E+00
          2   -1    0    0  502    0  0.00000000000E+00  0.00000000000E+00  0.28183988095E+04  0.28183988095E+04  0.00000000000E+00 0. -1.
          1   -1    0    0  501    0 -0.00000000000E+00 -0.00000000000E+00 -0.22306834052E+02  0.22306834052E+02  0.00000000000E+00 0. -1.
         25    2    1    2    0    0 -0.42712650824E+02  0.20565107671E+02  0.16272952911E+04  0.16327756815E+04  0.12497666825E+03 0.  0.
          2    1    1    2  501    0  0.67221078964E+02  0.16888626718E+02  0.43685424241E+02  0.81928721829E+02  0.00000000000E+00 0. -1.
          1    1    1    2  502    0 -0.24508428139E+02 -0.37453734389E+02  0.11251112601E+04  0.11260012402E+04  0.00000000000E+00 0. -1.
         22    1    3    3    0    0 -0.30925188962E+02  0.50301069284E+02  0.34042803529E+03  0.34551094353E+03  0.00000000000E+00 0. -1.
         22    1    3    3    0    0 -0.11787461863E+02 -0.29735961613E+02  0.12868672558E+04  0.12872647380E+04  0.00000000000E+00 0. -1.
</event>
<event>
 7    1  0.5667373E-006  0.6956101E+02  0.7818608E-02  0.1426516E+00
          2   -1    0    0  502    0  0.00000000000E+00  0.00000000000E+00  0.30055580611E+04  0.30055580611E+04  0.00000000000E+00 0. -1.
          1   -1    0    0  501    0 -0.00000000000E+00 -0.00000000000E+00 -0.54867836191E+02  0.54867836191E+02  0.00000000000E+00 0. -1.
         25    2    1    2    0    0  0.94885737910E+02 -0.46658372839E+02  0.26387321886E+03  0.31053764929E+03  0.12499699590E+03 0.  0.
          2    1    1    2  501    0 -0.55144707104E+02  0.35046178788E+02  0.26402892185E+01  0.65392235750E+02  0.00000000000E+00 0. -1.
          1    1    1    2  502    0 -0.39741030806E+02  0.11612194051E+02  0.26841767169E+04  0.26844960123E+04  0.00000000000E+00 0. -1.
         22    1    3    3    0    0  0.31034062986E+02  0.16464742031E+02  0.19294082923E+03  0.19611314178E+03  0.00000000000E+00 0.  1.
         22    1    3    3    0    0  0.63851674924E+02 -0.63123114870E+02  0.70932389633E+02  0.11442450752E+03  0.00000000000E+00 0.  1.
</event>
<event>
 7    1  0.5667373E-006  0.2385318E+03  0.7818608E-02  0.1311310E+00
          2   -1    0    0  502    0  0.00000000000E+00  0.00000000000E+00  0.75024237121E+03  0.75024237121E+03  0.00000000000E+00 0. -1.
          1   -1    0    0  501    0 -0.00000000000E+00 -0.00000000000E+00 -0.50268158051E+03  0.50268158051E+03  0.00000000000E+00 0. -1.
         25    2    1    2    0    0  0.19475882647E+03  0.15463113924E+03  0.19488517759E+03  0.33977296364E+03  0.12499457855E+03 0.  0.
          2    1    1    2  501    0 -0.20244921798E+03 -0.12414857301E+03 -0.39687512778E+03  0.46250234712E+03  0.00000000000E+00 0. -1.
          1    1    1    2  502    0  0.76903915135E+01 -0.30482566229E+02  0.44955074089E+03  0.45064864096E+03  0.00000000000E+00 0. -1.
         22    1    3    3    0    0  0.75504817083E+02 -0.87422208792E+01  0.56082475107E+02  0.94459768381E+02  0.00000000000E+00 0.  1.
         22    1    3    3    0    0  0.11925400938E+03  0.16337336011E+03  0.13880270248E+03  0.24531319525E+03  0.00000000000E+00 0.  1.
</event>
<event>
 7    1  0.5667373E-006  0.7747976E+02  0.7818608E-02  0.1366675E+00
          2   -1    0    0  502    0  0.00000000000E+00  0.00000000000E+00  0.12272460320E+04  0.12272460320E+04  0.00000000000E+00 0. -1.
          1   -1    0    0  501    0 -0.00000000000E+00 -0.00000000000E+00 -0.16223136040E+03  0.16223136040E+03  0.00000000000E+00 0. -1.
         25    2    1    2    0    0  0.27147900071E+02 -0.11080092742E+03  0.28339195489E+03  0.33008722376E+03  0.12503088099E+03 0.  0.
          2    1    1    2  501    0 -0.52004711548E+02  0.56349936760E+02 -0.12723968125E+03  0.14855888355E+03  0.00000000000E+00 0. -1.
          1    1    1    2  502    0  0.24856811478E+02  0.54450990658E+02  0.90886239793E+03  0.91083128505E+03  0.00000000000E+00 0. -1.
         22    1    3    3    0    0 -0.10461916793E+01 -0.13320053699E+03  0.22013510251E+03  0.25729932166E+03  0.00000000000E+00 0.  1.
         22    1    3    3    0    0  0.28194091750E+02  0.22399609577E+02  0.63256852381E+02  0.72787902099E+02  0.00000000000E+00 0.  1.
</event>
<event>
 7    1  0.5667373E-006  0.1466155E+03  0.7818608E-02  0.1385174E+00
          2   -1    0    0  502    0  0.00000000000E+00  0.00000000000E+00  0.20203964301E+04  0.20203964301E+04  0.00000000000E+00 0. -1.
          1   -1    0    0  501    0 -0.00000000000E+00 -0.00000000000E+00 -0.50658874987E+03  0.50658874987E+03  0.00000000000E+00 0. -1.
         25    2    1    2    0    0 -0.45616799114E+02 -0.11580516033E+03  0.63239911152E+03  0.65654050991E+03  0.12500030948E+03 0.  0.
          2    1    1    2  501    0  0.38207321315E+02  0.14195226017E+03 -0.48345489061E+03  0.50531067159E+03  0.00000000000E+00 0. -1.
          1    1    1    2  502    0  0.74094777988E+01 -0.26147099840E+02  0.13648634593E+04  0.13651339984E+04  0.00000000000E+00 0. -1.
         22    1    3    3    0    0 -0.82154117682E+02 -0.47193650061E+02  0.27750339373E+03  0.29323143282E+03  0.00000000000E+00 0. -1.
         22    1    3    3    0    0  0.36537318568E+02 -0.68611510266E+02  0.35489571779E+03  0.36330907709E+03  0.00000000000E+00 0. -1.
</event>
<event>
 7    1  0.5667373E-006  0.2419946E+03  0.7818608E-02  0.1298916E+00
          2   -1    0    0  502    0  0.00000000000E+00  0.00000000000E+00  0.32345059124E+03  0.32345059124E+03  0.00000000000E+00 0. -1.
          1   -1    0    0  501    0 -0.00000000000E+00 -0.00000000000E+00 -0.60026489219E+03  0.60026489219E+03  0.00000000000E+00 0. -1.
         25    2    1    2    0    0  0.15812761304E+03 -0.17800925084E+03 -0.50810458095E+00  0.26891871064E+03  0.12500151750E+03 0.  0.
          2    1    1    2  501    0  0.28808438562E+02  0.19355481456E+02 -0.38502643903E+03  0.38658753155E+03  0.00000000000E+00 0. -1.
          1    1    1    2  502    0 -0.18693605160E+03  0.15865376938E+03  0.10872024266E+03  0.26820924125E+03  0.00000000000E+00 0. -1.
         22    1    3    3    0    0  0.10898579668E+03 -0.71157543312E+02 -0.52475392477E+02  0.14033875681E+03  0.00000000000E+00 0. -1.
         22    1    3    3    0    0  0.49141816354E+02 -0.10685170752E+03  0.51967287896E+02  0.12857995383E+03  0.00000000000E+00 0. -1.
</event>
<event>
 7    1  0.5667373E-006  0.6372129E+02  0.7818608E-02  0.1390327E+00
          2   -1    0    0  502    0  0.00000000000E+00  0.00000000000E+00  0.39548631386E+04  0.39548631386E+04  0.00000000000E+00 0. -1.
          1   -1    0    0  501    0 -0.00000000000E+00 -0.00000000000E+00 -0.12205265962E+04  0.12205265962E+04  0.00000000000E+00 0. -1.
         25    2    1    2    0    0  0.60280093682E+02  0.85709758844E+02  0.31823208216E+03  0.35759840332E+03  0.12500042995E+03 0.  0.
          2    1    1    2  501    0 -0.24123353638E+01 -0.59937462816E+02 -0.11998167147E+04  0.12013153074E+04  0.00000000000E+00 0. -1.
          1    1    1    2  502    0 -0.57867758318E+02 -0.25772296029E+02  0.36159211750E+04  0.36164760241E+04  0.00000000000E+00 0. -1.
         22    1    3    3    0    0  0.36983587966E+02  0.84135921871E+02  0.32117332234E+03  0.33406427841E+03  0.00000000000E+00 0.  1.
         22    1    3    3    0    0  0.23296505716E+02  0.15738369727E+01 -0.29412401829E+01  0.23534124909E+02  0.00000000000E+00 0.  1.
</event>
<event>
 7    1  0.5667373E-006  0.1944228E+03  0.7818608E-02  0.1253359E+00
          2   -1    0    0  502    0  0.00000000000E+00  0.00000000000E+00  0.23083106896E+04  0.23083106896E+04  0.00000000000E+00 0. -1.
          1   -1    0    0  501    0 -0.00000000000E+00 -0.00000000000E+00 -0.32071429454E+03  0.32071429454E+03  0.00000000000E+00 0. -1.
         25    2    1    2    0    0  0.86660118579E+02 -0.12636696518E+03  0.85692865324E+01  0.19793025313E+03  0.12499746554E+03 0.  0.
          2    1    1    2  501    0 -0.97006663619E+02  0.19239071225E+03 -0.17405047850E+03  0.27698023036E+03  0.00000000000E+00 0. -1.
          1    1    1    2  502    0  0.10346545039E+02 -0.66023747073E+02  0.21530775871E+04  0.21541145007E+04  0.00000000000E+00 0. -1.
         22    1    3    3    0    0  0.36015143436E+01 -0.10891129875E+03 -0.14617749706E+02  0.10994689858E+03  0.00000000000E+00 0. -1.
         22    1    3    3    0    0  0.83058604236E+02 -0.17455666426E+02  0.23187036239E+02  0.87983354548E+02  0.00000000000E+00 0. -1.
</event>
<event>
 7    1  0.5667373E-006  0.5847818E+02  0.7818608E-02  0.1408998E+00
          2   -1    0    0  502    0  0.00000000000E+00  0.00000000000E+00  0.40608293022E+03  0.40608293022E+03  0.00000000000E+00 0. -1.
          1   -1    0    0  501    0 -0.00000000000E+00 -0.00000000000E+00 -0.47384397025E+02  0.47384397025E+02  0.00000000000E+00 0. -1.
         25    2    1    2    0    0  0.74829329559E+01 -0.41111577625E+02  0.10242259262E+03  0.16691796478E+03  0.12500025356E+03 0.  0.
          2    1    1    2  501    0  0.54889390216E+02  0.12866275737E+02  0.14873744144E+03  0.15906354924E+03  0.00000000000E+00 0. -1.
          1    1    1    2  502    0 -0.62372323172E+02  0.28245301888E+02  0.10753849913E+03  0.12748581322E+03  0.00000000000E+00 0. -1.
         22    1    3    3    0    0 -0.15463849176E+02  0.25320194058E+02  0.90997685660E+02  0.95712181324E+02  0.00000000000E+00 0. -1.
         22    1    3    3    0    0  0.22946782132E+02 -0.66431771683E+02  0.11424906958E+02  0.71205783460E+02  0.00000000000E+00 0. -1.
</event>
<event>
 7    1  0.5667373E-006  0.9330842E+02  0.7818608E-02  0.1396594E+00
          2   -1    0    0  502    0  0.00000000000E+00  0.00000000000E+00  0.27799642569E+03  0.27799642569E+03  0.00000000000E+00 0. -1.
          1   -1    0    0  501    0 -0.00000000000E+00 -0.00000000000E+00 -0.18863033224E+03  0.18863033224E+03  0.00000000000E+00 0. -1.
         25    2    1    2    0    0  0.37975011289E+02  0.12076150660E+03 -0.34994898471E+02  0.18131405150E+03  0.12499879757E+03 0.  0.
          2    1    1    2  501    0  0.17427768084E+00 -0.38962868267E+02 -0.64862505350E+02  0.75665580527E+02  0.00000000000E+00 0. -1.
          1    1    1    2  502    0 -0.38149288969E+02 -0.81798638333E+02  0.18922349726E+03  0.20964712590E+03  0.00000000000E+00 0. -1.
         22    1    3    3    0    0  0.29482979814E+01 -0.17111915548E+02 -0.34989226393E+02  0.39060927770E+02  0.00000000000E+00 0.  1.
         22    1    3    3    0    0  0.35026713307E+02  0.13787342215E+03 -0.56720785787E-02  0.14225312373E+03  0.00000000000E+00 0.  1.
</event>
<event>
 7    1  0.5667373E-006  0.1887257E+03  0.7818608E-02  0.1274116E+00
          2   -1    0    0  502    0  0.00000000000E+00  0.00000000000E+00  0.39445340948E+03  0.39445340948E+03  0.00000000000E+00 0. -1.
          1   -1    0    0  501    0 -0.00000000000E+00 -0.00000000000E+00 -0.29631799655E+03  0.29631799655E+03  0.00000000000E+00 0. -1.
         25    2    1    2    0    0  0.29646061007E+02  0.18445524407E+03  0.18986685281E+03  0.29423075878E+03  0.12497876466E+03 0.  0.
          2    1    1    2  501    0 -0.55416977384E+02  0.94164107035E+01 -0.17512585331E+03  0.18392600325E+03  0.00000000000E+00 0. -1.
          1    1    1    2  502    0  0.25770916377E+02 -0.19387165477E+03  0.83394413422E+02  0.21261464400E+03  0.00000000000E+00 0. -1.
         22    1    3    3    0    0  0.15796745249E+02 -0.86999668824E+01  0.55952393101E+02  0.58786876750E+02  0.00000000000E+00 0.  1.
         22    1    3    3    0    0  0.13849315758E+02  0.19315521095E+03  0.13391445971E+03  0.23544388203E+03  0.00000000000E+00 0.  1.
</event>
<event>
 7    1  0.5667373E-006  0.1002635E+03  0.7818608E-02  0.1429823E+00
          2   -1    0    0  502    0  0.00000000000E+00  0.00000000000E+00  0.56073581736E+02  0.56073581736E+02  0.00000000000E+00 0. -1.
          1   -1    0    0  501    0 -0.00000000000E+00 -0.00000000000E+00 -0.11526572913E+04  0.11526572913E+04  0.00000000000E+00 0. -1.
         25    2    1    2    0    0 -0.96903862669E+01 -0.91239091220E+02 -0.23718852837E+03  0.28337679228E+03  0.12500213221E+03 0.  0.
          2    1    1    2  501    0 -0.27446152202E+02 -0.55991318804E+01 -0.80998808369E+03  0.81047229272E+03  0.00000000000E+00 0. -1.
          1    1    1    2  502    0  0.37136538469E+02  0.96838223100E+02 -0.49407097527E+02  0.11488178806E+03  0.00000000000E+00 0. -1.
         22    1    3    3    0    0  0.90169528844E+01 -0.36350133073E+02  0.17592238493E+01  0.37493099129E+02  0.00000000000E+00 0.  1.
         22    1    3    3    0    0 -0.18707339151E+02 -0.54888958147E+02 -0.23894775222E+03  0.24588369315E+03  0.00000000000E+00 0.  1.
</event>
<event>
 7    1  0.5667373E-006  0.6998891E+02  0.7818608E-02  0.1360899E+00
          2   -1    0    0  502    0  0.00000000000E+00  0.00000000000E+00  0.21184180569E+04  0.21184180569E+04  0.00000000000E+00 0. -1.
          1   -1    0    0  501    0 -0.00000000000E+00 -0.00000000000E+00 -0.81001623225E+02  0.81001623225E+02  0.00000000000E+00 0. -1.
         25    2    1    2    0    0  0.26396593501E+02 -0.90078761609E+02  0.93855755681E+03  0.95148607787E+03  0.12499802197E+03 0.  0.
          2    1    1    2  501    0 -0.62758860823E+02  0.29949527550E+02 -0.57015966114E+02  0.89924797493E+02  0.00000000000E+00 0. -1.
          1    1    1    2  502    0  0.36362267322E+02  0.60129234058E+02  0.11558748430E+04  0.11580088048E+04  0.00000000000E+00 0. -1.
         22    1    3    3    0    0 -0.13273183767E+02 -0.11076319245E+03  0.66225384145E+03  0.67158380916E+03  0.00000000000E+00 0.  1.
         22    1    3    3    0    0  0.39669777268E+02  0.20684430846E+02  0.27630371536E+03  0.27990226871E+03  0.00000000000E+00 0.  1.
</event>
<event>
 7    1  0.5667373E-006  0.9767728E+02  0.7818608E-02  0.1405026E+00
          2   -1    0    0  502    0  0.00000000000E+00  0.00000000000E+00  0.12952798810E+04  0.12952798810E+04  0.00000000000E+00 0. -1.
          1   -1    0    0  501    0 -0.00000000000E+00 -0.00000000000E+00 -0.23258104628E+02  0.23258104628E+02  0.00000000000E+00 0. -1.
         25    2    1    2    0    0  0.66103791397E+02 -0.42942279125E+02  0.39512997236E+03  0.42186275803E+03  0.12500696376E+03 0.  0.
          2    1    1    2  501    0 -0.95553681201E+02  0.61518857288E+02  0.33668677692E+03  0.35534921070E+03  0.00000000000E+00 0. -1.
          1    1    1    2  502    0  0.29449889804E+02 -0.18576578162E+02  0.54020502713E+03  0.54132601693E+03  0.00000000000E+00 0. -1.
         22    1    3    3    0    0  0.55290498049E+02  0.76446874035E+01  0.56923548319E+02  0.79723088081E+02  0.00000000000E+00 0. -1.
         22    1    3    3    0    0  0.10813293348E+02 -0.50586966529E+02  0.33820642404E+03  0.34213966995E+03  0.00000000000E+00 0. -1.
</event>
<event>
 7    1  0.6187066E-006  0.5025612E+02  0.7818608E-02  0.1507666E+00
          2   -1    0    0  502    0  0.00000000000E+00  0.00000000000E+00  0.15464262841E+04  0.15464262841E+04  0.00000000000E+00 0. -1.
          1   -1    0    0  501    0 -0.00000000000E+00 -0.00000000000E+00 -0.70299128861E+03  0.70299128861E+03  0.00000000000E+00 0. -1.
         25    2    1    2    0    0  0.78872550422E+02 -0.13415128316E+02 -0.21966090151E+03  0.26510651553E+03  0.12501883076E+03 0.  0.
          2    1    1    2  501    0 -0.48462313873E+02  0.35991565914E+01 -0.45915767245E+03  0.46172212202E+03  0.00000000000E+00 0. -1.
          1    1    1    2  502    0 -0.30410236549E+02  0.98159717251E+01  0.15222535695E+04  0.15225889352E+04  0.00000000000E+00 0. -1.
         22    1    3    3    0    0  0.29949451728E+02 -0.67146914403E+02 -0.13337552832E+03  0.15229809364E+03  0.00000000000E+00 0. -1.
         22    1    3    3    0    0  0.48923098694E+02  0.53731786086E+02 -0.86285373194E+02  0.11280842189E+03  0.00000000000E+00 0. -1.
</event>
<event>
 7    1  0.5667373E-006  0.1455587E+03  0.7818608E-02  0.1319121E+00
          2   -1    0    0  502    0  0.00000000000E+00  0.00000000000E+00  0.12284302156E+04  0.12284302156E+04  0.00000000000E+00 0. -1.
          1   -1    0    0  501    0 -0.00000000000E+00 -0.00000000000E+00 -0.20631839058E+04  0.20631839058E+04  0.00000000000E+00 0. -1.
         25    2    1    2    0    0 -0.62842138196E+02 -0.14760315580E+03  0.20928536292E+03  0.29182655890E+03  0.12500620549E+03 0.  0.
          2    1    1    2  501    0  0.47858576894E+02  0.39411299450E+01 -0.20162920344E+04  0.20168637891E+04  0.00000000000E+00 0. -1.
          1    1    1    2  502    0  0.14983561303E+02  0.14366202586E+03  0.97225298128E+03  0.98292377344E+03  0.00000000000E+00 0. -1.
         22    1    3    3    0    0  0.31622514775E+02 -0.79774391666E+02  0.72960645675E+02  0.11263743971E+03  0.00000000000E+00 0. -1.
         22    1    3    3    0    0 -0.94464652972E+02 -0.67828764134E+02  0.13632471725E+03  0.17918911919E+03  0.00000000000E+00 0. -1.
</event>
<event>
 7    1  0.5667373E-006  0.8904313E+02  0.7818608E-02  0.1365195E+00
          2   -1    0    0  502    0  0.00000000000E+00  0.00000000000E+00  0.39412396124E+03  0.39412396124E+03  0.00000000000E+00 0. -1.
          1   -1    0    0  501    0 -0.00000000000E+00 -0.00000000000E+00 -0.12781552213E+04  0.12781552213E+04  0.00000000000E+00 0. -1.
         25    2    1    2    0    0  0.42443903152E+02 -0.11185420860E+02 -0.17348960521E+03  0.21829148199E+03  0.12500371770E+03 0.  0.
          2    1    1    2  501    0  0.29279080774E+02 -0.43853049766E+02 -0.10761125943E+04  0.10774036709E+04  0.00000000000E+00 0. -1.
          1    1    1    2  502    0 -0.71722983927E+02  0.55038470626E+02  0.36557093939E+03  0.37658402966E+03  0.00000000000E+00 0. -1.
         22    1    3    3    0    0  0.43251278950E+02  0.11947908028E+02 -0.16517529165E+01  0.44901602697E+02  0.00000000000E+00 0. -1.
         22    1    3    3    0    0 -0.80737579768E+00 -0.23133328887E+02 -0.17183785229E+03  0.17338987930E+03  0.00000000000E+00 0. -1.
</event>
<event>
 7    1  0.5667373E-006  0.2239058E+03  0.7818608E-02  0.1224807E+00
          2   -1    0    0  502    0  0.00000000000E+00  0.00000000000E+00  0.88129359174E+03  0.88129359174E+03  0.00000000000E+00 0. -1.
          1   -1    0    0  501    0 -0.00000000000E+00 -0.00000000000E+00 -0.22488170195E+03  0.22488170195E+03  0.00000000000E+00 0. -1.
         25    2    1    2    0    0 -0.65063293938E+02 -0.19578055204E+03  0.16607743610E+03  0.29286495264E+03  0.12499963571E+03 0.  0.
          2    1    1    2  501    0  0.14197868674E+03  0.18561253258E+03 -0.72871189683E+02  0.24478596778E+03  0.00000000000E+00 0. -1.
          1    1    1    2  502    0 -0.76915392799E+02  0.10168019458E+02  0.56320564338E+03  0.56852437327E+03  0.00000000000E+00 0. -1.
         22    1    3    3    0    0 -0.18797532746E+02 -0.13504379121E+03  0.34343947145E+02  0.14060469227E+03  0.00000000000E+00 0.  1.
         22    1    3    3    0    0 -0.46265761193E+02 -0.60736760821E+02  0.13173348896E+03  0.15226026037E+03  0.00000000000E+00 0.  1.
</event>
<event>
 7    1  0.5667373E-006  0.1140938E+03  0.7818608E-02  0.1318850E+00
          2   -1    0    0  502    0  0.00000000000E+00  0.00000000000E+00  0.22858578051E+04  0.22858578051E+04  0.00000000000E+00 0. -1.
          1   -1    0    0  501    0 -0.00000000000E+00 -0.00000000000E+00 -0.10353590464E+04  0.10353590464E+04  0.00000000000E+00 0. -1.
         25    2    1    2    0    0  0.68781735604E+02 -0.75782846017E+02  0.88952399055E+02  0.18442045100E+03  0.12499762617E+03 0.  0.
          2    1    1    2  501    0 -0.11055607375E+03  0.30767558137E+02 -0.98385056761E+03  0.99052068502E+03  0.00000000000E+00 0. -1.
          1    1    1    2  502    0  0.41774338147E+02  0.45015287881E+02  0.21453969272E+04  0.21462757154E+04  0.00000000000E+00 0. -1.
         22    1    3    3    0    0  0.32791596717E+02  0.14263148438E+02 -0.18014665960E+02  0.40040659438E+02  0.00000000000E+00 0.  1.
         22    1    3    3    0    0  0.35990138887E+02 -0.90045994455E+02  0.10696706502E+03  0.14437979157E+03  0.00000000000E+00 0.  1.
</event>
<event>
 7    1  0.5667373E-006  0.1430426E+03  0.7818608E-02  0.1365168E+00
          2   -1    0    0  502    0  0.00000000000E+00  0.00000000000E+00  0.36953317401E+02  0.36953317401E+02  0.00000000000E+00 0. -1.
          1   -1    0    0  501    0 -0.00000000000E+00 -0.00000000000E+00 -0.22803298993E+04  0.22803298993E+04  0.00000000000E+00 0. -1.
         25    2    1    2    0    0  0.22302220773E+02  0.11864589054E+03 -0.39664529801E+03  0.43304551741E+03  0.12500676511E+03 0.  0.
          2    1    1    2  501    0 -0.48362197103E+02 -0.13861436921E+03 -0.18455559389E+04  0.18513858509E+04  0.00000000000E+00 0. -1.
          1    1    1    2  502    0  0.26059976330E+02  0.19968478672E+02 -0.11753450300E+01  0.32851848391E+02  0.00000000000E+00 0. -1.
         22    1    3    3    0    0  0.11058356912E+02  0.11005073426E+03 -0.40272859586E+03  0.41764072275E+03  0.00000000000E+00 0. -1.
         22    1    3    3    0    0  0.11243863862E+02  0.85951562710E+01  0.60832978528E+01  0.15404794664E+02  0.00000000000E+00 0. -1.
</event>
<event>
 7    1  0.5667373E-006  0.2136806E+03  0.7818608E-02  0.1330505E+00
          2   -1    0    0  502    0  0.00000000000E+00  0.00000000000E+00  0.17520817518E+04  0.17520817518E+04  0.00000000000E+00 0. -1.
          1   -1    0    0  501    0 -0.00000000000E+00 -0.00000000000E+00 -0.11380278723E+04  0.11380278723E+04  0.00000000000E+00 0. -1.
         25    2    1    2    0    0  0.13877138192E+03  0.12581609909E+03 -0.18659130408E+03  0.29245121298E+03  0.12499683990E+03 0.  0.
          2    1    1    2  501    0  0.11346473563E+02  0.27307101395E+02 -0.89149504630E+03  0.89198533499E+03  0.00000000000E+00 0. -1.
          1    1    1    2  502    0 -0.15011785549E+03 -0.15312320048E+03  0.16921402299E+04  0.17056730761E+04  0.00000000000E+00 0. -1.
         22    1    3    3    0    0  0.54926422962E+02  0.12793881534E+03 -0.13527983670E+03  0.19412853120E+03  0.00000000000E+00 0.  1.
         22    1    3    3    0    0  0.83844958962E+02 -0.21227162477E+01 -0.51311467380E+02  0.98322681779E+02  0.00000000000E+00 0.  1.
</event>
<event>
 7    1  0.5667373E-006  0.4951220E+02  0.7818608E-02  0.1558534E+00
          2   -1    0    0  502    0  0.00000000000E+00  0.00000000000E+00  0.12669160099E+04  0.12669160099E+04  0.00000000000E+00 0. -1.
          1   -1    0    0  501    0 -0.00000000000E+00 -0.00000000000E+00 -0.55169987909E+03  0.55169987909E+03  0.00000000000E+00 0. -1.
         25    2    1    2    0    0  0.40780258825E+02  0.52490886356E+02  0.10274668615E+04  0.10371767163E+04  0.12501626540E+03 0.  0.
          2    1    1    2  501    0 -0.39901057108E+02 -0.29288427659E+02 -0.54514645879E+03  0.54738886350E+03  0.00000000000E+00 0. -1.
          1    1    1    2  502    0 -0.87920171687E+00 -0.23202458698E+02  0.23289572812E+03  0.23405030925E+03  0.00000000000E+00 0. -1.
         22    1    3    3    0    0 -0.28798597660E+02  0.57068795882E+02  0.66488471176E+03  0.66795051211E+03  0.00000000000E+00 0.  1.
         22    1    3    3    0    0  0.69578856485E+02 -0.45779095255E+01  0.36258214975E+03  0.36922620417E+03  0.00000000000E+00 0.  1.
</event>
<event>
 7    1  0.5667373E-006  0.1255400E+03  0.7818608E-02  0.1359514E+00
          2   -1    0    0  502    0  0.00000000000E+00  0.00000000000E+00  0.13283509326E+03  0.13283509326E+03  0.00000000000E+00 0. -1.
          1   -1    0    0  501    0 -0.00000000000E+00 -0.00000000000E+00 -0.22009472819E+04  0.22009472819E+04  0.00000000000E+00 0. -1.
         25    2    1    2    0    0 -0.11154983889E+03 -0.31727887278E+02 -0.12224835855E+03  0.20980913132E+03  0.12500074011E+03 0.  0.
          2    1    1    2  501    0  0.12612608593E+03 -0.46849531465E+01 -0.20285413927E+04  0.20324640022E+04  0.00000000000E+00 0. -1.
          1    1    1    2  502    0 -0.14576247034E+02  0.36412840424E+02  0.82677562670E+02  0.91509241579E+02  0.00000000000E+00 0. -1.
         22    1    3    3    0    0 -0.93697757373E+02 -0.77364982713E+02 -0.86928047004E+02  0.14940246197E+03  0.00000000000E+00 0. -1.
         22    1    3    3    0    0 -0.17852081522E+02  0.45637095435E+02 -0.35320311550E+02  0.60406669354E+02  0.00000000000E+00 0. -1.
</event>
<event>
 7    1  0.5667373E-006  0.2162373E+03  0.7818608E-02  0.1220668E+00
          2   -1    0    0  502    0  0.00000000000E+00  0.00000000000E+00  0.82660887280E+03  0.82660887280E+03  0.00000000000E+00 0. -1.
          1   -1    0    0  501    0 -0.00000000000E+00 -0.00000000000E+00 -0.78054507159E+03  0.78054507159E+03  0.00000000000E+00 0. -1.
         25    2    1    2    0    0 -0.80537029742E+02 -0.23578880062E+03 -0.10769800860E+03  0.29884981547E+03  0.12501911651E+03 0.  0.
          2    1    1    2  501    0 -0.51282924914E+02  0.66385824248E+02 -0.55831347657E+03  0.56458033455E+03  0.00000000000E+00 0. -1.
          1    1    1    2  502    0  0.13181995466E+03  0.16940297637E+03  0.71207528638E+03  0.74372379437E+03  0.00000000000E+00 0. -1.
         22    1    3    3    0    0  0.98458089384E+01  0.52944889987E+01  0.10689253362E+02  0.15467116889E+02  0.00000000000E+00 0. -1.
         22    1    3    3    0    0 -0.90382838681E+02 -0.24108328962E+03 -0.11838726196E+03  0.28338269858E+03  0.00000000000E+00 0. -1.
</event>
<event>
 7    1  0.5667373E-006  0.1853128E+03  0.7818608E-02  0.1270457E+00
          2   -1    0    0  502    0  0.00000000000E+00  0.00000000000E+00  0.39599437432E+03  0.39599437432E+03  0.00000000000E+00 0. -1.
          1   -1    0    0  501    0 -0.00000000000E+00 -0.00000000000E+00 -0.16866894824E+03  0.16866894824E+03  0.00000000000E+00 0. -1.
         25    2    1    2    0    0 -0.92036455998E+02 -0.14629917658E+03  0.31831047418E+02  0.21566837016E+03  0.12500188802E+03 0.  0.
          2    1    1    2  501    0  0.15120460218E+03  0.15025348047E+03  0.19616811551E+03  0.28969098995E+03  0.00000000000E+00 0. -1.
          1    1    1    2  502    0 -0.59168146182E+02 -0.39543038975E+01 -0.67373684528E+00  0.59303962459E+02  0.00000000000E+00 0. -1.
         22    1    3    3    0    0  0.18473573345E+02 -0.25080934836E+02  0.40870527971E+02  0.51387997246E+02  0.00000000000E+00 0. -1.
         22    1    3    3    0    0 -0.11051002934E+03 -0.12121824174E+03 -0.90394805531E+01  0.16428037291E+03  0.00000000000E+00 0. -1.
</event>
<event>
 7    1  0.5667373E-006  0.8327818E+02  0.7818608E-02  0.1389790E+00
          2   -1    0    0  502    0  0.00000000000E+00  0.00000000000E+00  0.23971233667E+03  0.23971233667E+03  0.00000000000E+00 0. -1.
          1   -1    0    0  501    0 -0.00000000000E+00 -0.00000000000E+00 -0.49599528581E+03  0.49599528581E+03  0.00000000000E+00 0. -1.
         25    2    1    2    0    0  0.37969000786E+02 -0.81704297013E+02 -0.62781372158E+02  0.16638407280E+03  0.12499968729E+03 0.  0.
          2    1    1    2  501    0  0.30901921296E+02  0.34205847171E+02 -0.37060130280E+03  0.37345721891E+03  0.00000000000E+00 0. -1.
          1    1    1    2  502    0 -0.68870922082E+02  0.47498449842E+02  0.17709972582E+03  0.19586633077E+03  0.00000000000E+00 0. -1.
         22    1    3    3    0    0  0.62216786883E+02 -0.97214608392E+02 -0.23668112464E+02  0.11782100069E+03  0.00000000000E+00 0.  1.
         22    1    3    3    0    0 -0.24247786097E+02  0.15510311380E+02 -0.39113259693E+02  0.48563072118E+02  0.00000000000E+00 0.  1.
</event>
<event>
 7    1  0.5667373E-006  0.7046187E+02  0.7818608E-02  0.1386205E+00
          2   -1    0    0  502    0  0.00000000000E+00  0.00000000000E+00  0.10752441367E+04  0.10752441367E+04  0.00000000000E+00 0. -1.
          1   -1    0    0  501    0 -0.00000000000E+00 -0.00000000000E+00 -0.45839980986E+02  0.45839980986E+02  0.00000000000E+00 0. -1.
         25    2    1    2    0    0  0.34709908107E+02  0.29240302592E+02  0.42145521696E+03  0.44193659787E+03  0.12499473436E+03 0.  0.
          2    1    1    2  501    0 -0.11474567180E+01 -0.74167375034E+02  0.58107052125E+01  0.74403497709E+02  0.00000000000E+00 0. -1.
          1    1    1    2  502    0 -0.33562451389E+02  0.44927072441E+02  0.60213823355E+03  0.60474402211E+03  0.00000000000E+00 0. -1.
         22    1    3    3    0    0 -0.46230880793E+02  0.22577913012E+02  0.14885527661E+03  0.15749587254E+03  0.00000000000E+00 0. -1.
         22    1    3    3    0    0  0.80940788899E+02  0.66623895798E+01  0.27259994036E+03  0.28444072533E+03  0.00000000000E+00 0. -1.
</event>
<event>
 7    1  0.5667373E-006  0.1260864E+03  0.7818608E-02  0.1284900E+00
          2   -1    0    0  502    0  0.00000000000E+00  0.00000000000E+00  0.13377903552E+04  0.13377903552E+04  0.00000000000E+00 0. -1.
          1   -1    0    0  501    0 -0.00000000000E+00 -0.00000000000E+00 -0.28791353498E+03  0.28791353498E+03  0.00000000000E+00 0. -1.
         25    2    1    2    0    0 -0.15170639877E+03  0.61194308224E+02  0.46120367044E+01  0.20592671901E+03  0.12499987173E+03 0.  0.
          2    1    1    2  501    0  0.26679592538E+02 -0.71083280699E+02 -0.17621482645E+03  0.19187573717E+03  0.00000000000E+00 0. -1.
          1    1    1    2  502    0  0.12502680624E+03  0.98889724754E+01  0.12214796099E+04  0.12279014340E+04  0.00000000000E+00 0. -1.
         22    1    3    3    0    0 -0.12023689664E+03  0.18158805275E+02  0.54185048093E+02  0.13312652989E+03  0.00000000000E+00 0.  1.
         22    1    3    3    0    0 -0.31469502131E+02  0.43035502948E+02 -0.49573011388E+02  0.72800189124E+02  0.00000000000E+00 0.  1.
</event>
<event>
 7    1  0.5667373E-006  0.1311407E+03  0.7818608E-02  0.1288230E+00
          2   -1    0    0  502    0  0.00000000000E+00  0.00000000000E+00  0.27826355210E+03  0.27826355210E+03  0.00000000000E+00 0. -1.
          1   -1    0    0  501    0 -0.00000000000E+00 -0.00000000000E+00 -0.15334618517E+04  0.15334618517E+04  0.00000000000E+00 0. -1.
         25    2    1    2    0    0 -0.69498187792E+02  0.17283260285E+03 -0.11506446183E+03  0.25212801529E+03  0.12501039559E+03 0.  0.
          2    1    1    2  501    0 -0.40630191106E+01 -0.70628810481E+02 -0.13299389833E+04  0.13318192957E+04  0.00000000000E+00 0. -1.
          1    1    1    2  502    0  0.73561206902E+02 -0.10220379237E+03  0.18980514550E+03  0.22777809287E+03  0.00000000000E+00 0. -1.
         22    1    3    3    0    0 -0.62696423303E+02  0.14459575376E+03 -0.27644393426E+02  0.16000933094E+03  0.00000000000E+00 0. -1.
         22    1    3    3    0    0 -0.68017644887E+01  0.28236849088E+02 -0.87420068404E+02  0.92118684349E+02  0.00000000000E+00 0. -1.
</event>
<event>
 7    1  0.5667373E-006  0.1422905E+03  0.7818608E-02  0.1372995E+00
          2   -1    0    0  502    0  0.00000000000E+00  0.00000000000E+00  0.75830167665E+03  0.75830167665E+03  0.00000000000E+00 0. -1.
          1   -1    0    0  501    0 -0.00000000000E+00 -0.00000000000E+00 -0.63440344594E+03  0.63440344594E+03  0.00000000000E+00 0. -1.
         25    2    1    2    0    0  0.72088904305E+02 -0.88876674741E+02  0.60818265611E+02  0.18005353739E+03  0.12499816582E+03 0.  0.
          2    1    1    2  501    0 -0.97487777581E+02  0.10652988098E+03 -0.56532974004E+03  0.58348110277E+03  0.00000000000E+00 0. -1.
          1    1    1    2  502    0  0.25398873275E+02 -0.17653206236E+02  0.62840970513E+03  0.62917048243E+03  0.00000000000E+00 0. -1.
         22    1    3    3    0    0  0.33459799717E+02  0.29691638670E+02  0.14461507832E+02  0.47013687504E+02  0.00000000000E+00 0.  1.
         22    1    3    3    0    0  0.38629104589E+02 -0.11856831341E+03  0.46356757780E+02  0.13303984989E+03  0.00000000000E+00 0.  1.
</event>
<event>
 7    1  0.5667373E-006  0.2695825E+03  0.7818608E-02  0.1305861E+00
          2   -1    0    0  502    0  0.00000000000E+00  0.00000000000E+00  0.11390270329E+04  0.11390270329E+04  0.00000000000E+00 0. -1.
          1   -1    0    0  501    0 -0.00000000000E+00 -0.00000000000E+00 -0.11962442624E+04  0.11962442624E+04  0.00000000000E+00 0. -1.
         25    2    1    2    0    0  0.83712817928E+02 -0.22998647535E+03  0.44735023730E+02  0.27843909875E+03  0.12500197854E+03 0.  0.
          2    1    1    2  501    0  0.55963994937E+01 -0.28689327790E+02 -0.10600323599E+04  0.10604352886E+04  0.00000000000E+00 0. -1.
          1    1    1    2  502    0 -0.89309217422E+02  0.25867580314E+03  0.95808010665E+03  0.99639690797E+03  0.00000000000E+00 0. -1.
         22    1    3    3    0    0  0.86294426744E+02 -0.19013359860E+03 -0.11900500139E+02  0.20913903344E+03  0.00000000000E+00 0.  1.
         22    1    3    3    0    0 -0.25816088154E+01 -0.39852876747E+02  0.56635523869E+02  0.69300065318E+02  0.00000000000E+00 0.  1.
</event>
<event>
 7    1  0.5667373E-006  0.1168021E+03  0.7818608E-02  0.1401682E+00
          2   -1    0    0  502    0  0.00000000000E+00  0.00000000000E+00  0.76110045779E+03  0.76110045779E+03  0.00000000000E+00 0. -1.
          1   -1    0    0  501    0 -0.00000000000E+00 -0.00000000000E+00 -0.14201504039E+03  0.14201504039E+03  0.00000000000E+00 0. -1.
         25    2    1    2    0    0  0.81015422029E+02 -0.42500128239E+02  0.13245729966E+03  0.20381168890E+03  0.12499803515E+03 0.  0.
          2    1    1    2  501    0  0.27942002746E+02 -0.10629753922E+02 -0.97887389899E+02  0.10235080990E+03  0.00000000000E+00 0. -1.
          1    1    1    2  502    0 -0.10895742477E+03  0.53129882161E+02  0.58451550764E+03  0.59695299938E+03  0.00000000000E+00 0. -1.
         22    1    3    3    0    0 -0.18136842853E+01  0.28939367488E+02  0.74673197110E+02  0.80105323218E+02  0.00000000000E+00 0.  1.
         22    1    3    3    0    0  0.82829106314E+02 -0.71439495726E+02  0.57784102547E+02  0.12370636568E+03  0.00000000000E+00 0.  1.
</event>
<event>
 7    1  0.5667373E-006  0.1550679E+03  0.7818608E-02  0.1272798E+00
          2   -1    0    0  502    0  0.00000000000E+00  0.00000000000E+00  0.26260900311E+03  0.26260900311E+03  0.00000000000E+00 0. -1.
          1   -1    0    0  501    0 -0.00000000000E+00 -0.00000000000E+00 -0.17364155414E+04  0.17364155414E+04  0.00000000000E+00 0. -1.
         25    2    1    2    0    0 -0.89608136269E+02 -0.23678427607E+02 -0.45185025693E+03  0.47789604714E+03  0.12500276463E+03 0.  0.
          2    1    1    2  501    0 -0.54081628587E+02 -0.43307220624E+02 -0.12453064354E+04  0.12472323183E+04  0.00000000000E+00 0. -1.
          1    1    1    2  502    0  0.14368976486E+03  0.66985648231E+02  0.22335015402E+03  0.27389617904E+03  0.00000000000E+00 0. -1.
         22    1    3    3    0    0 -0.53708905101E+02 -0.11825440091E+02 -0.43144382539E+03  0.43493477901E+03  0.00000000000E+00 0. -1.
         22    1    3    3    0    0 -0.35899231168E+02 -0.11852987516E+02 -0.20406431540E+02  0.42961268134E+02  0.00000000000E+00 0. -1.
</event>
<event>
 7    1  0.5667373E-006  0.7190030E+02  0.7818608E-02  0.1418389E+00
          2   -1    0    0  502    0  0.00000000000E+00  0.00000000000E+00  0.79813702604E+02  0.79813702604E+02  0.00000000000E+00 0. -1.
          1   -1    0    0  501    0 -0.00000000000E+00 -0.00000000000E+00 -0.83117457627E+03  0.83117457627E+03  0.00000000000E+00 0. -1.
         25    2    1    2    0    0 -0.37045943435E+02 -0.36606930820E+02 -0.15838591100E+03  0.20838307674E+03  0.12499976224E+03 0.  0.
          2    1    1    2  501    0  0.20420513342E+02 -0.37420493640E+02 -0.62044965949E+03  0.62191243007E+03  0.00000000000E+00 0. -1.
          1    1    1    2  502    0  0.16625430093E+02  0.74027424461E+02  0.27474696825E+02  0.80692772066E+02  0.00000000000E+00 0. -1.
         22    1    3    3    0    0 -0.63653547456E+02 -0.34762026241E+02 -0.16557221045E+03  0.18076042002E+03  0.00000000000E+00 0. -1.
         22    1    3    3    0    0  0.26607604021E+02 -0.18449045794E+01  0.71862994484E+01  0.27622656723E+02  0.00000000000E+00 0. -1.
</event>
<event>
 7    1  0.5667373E-006  0.1486670E+03  0.7818608E-02  0.1291408E+00
          2   -1    0    0  502    0  0.00000000000E+00  0.00000000000E+00  0.20758833564E+04  0.20758833564E+04  0.00000000000E+00 0. -1.
          1   -1    0    0  501    0 -0.00000000000E+00 -0.00000000000E+00 -0.10765758455E+04  0.10765758455E+04  0.00000000000E+00 0. -1.
         25    2    1    2    0    0  0.36960190737E+01  0.20381764166E+03  0.19564222200E+03  0.30895877964E+03  0.12499742749E+03 0.  0.
          2    1    1    2  501    0  0.16284191286E+02 -0.14663274152E+03 -0.10140750946E+04  0.10247510103E+04  0.00000000000E+00 0. -1.
          1    1    1    2  502    0 -0.19980210359E+02 -0.57184900139E+02  0.18177403835E+04  0.18187494119E+04  0.00000000000E+00 0. -1.
         22    1    3    3    0    0  0.19192719487E+02 -0.73548556837E+00 -0.71579647476E+01  0.20497265175E+02  0.00000000000E+00 0.  1.
         22    1    3    3    0    0 -0.15496700413E+02  0.20455312723E+03  0.20280018674E+03  0.28846151446E+03  0.00000000000E+00 0.  1.
</event>
<event>
 7    1  0.5667373E-006  0.2755477E+02  0.7818608E-02  0.1628443E+00
          2   -1    0    0  502    0  0.00000000000E+00  0.00000000000E+00  0.53526875910E+03  0.53526875910E+03  0.00000000000E+00 0. -1.
          1   -1    0    0  501    0 -0.00000000000E+00 -0.00000000000E+00 -0.72980638833E+03  0.72980638833E+03  0.00000000000E+00 0. -1.
         25    2    1    2    0    0 -0.83850493005E+01  0.17627945793E+02 -0.47871057606E+03  0.49514641787E+03  0.12500042390E+03 0.  0.
          2    1    1    2  501    0 -0.18732701033E+02 -0.22515995908E+02 -0.24163278379E+03  0.24340149211E+03  0.00000000000E+00 0. -1.
          1    1    1    2  502    0  0.27117750334E+02  0.48880501145E+01  0.52580573062E+03  0.52652723745E+03  0.00000000000E+00 0. -1.
         22    1    3    3    0    0  0.13819596018E+02  0.68232642358E+02 -0.30558706796E+03  0.31341686429E+03  0.00000000000E+00 0. -1.
         22    1    3    3    0    0 -0.22204645319E+02 -0.50604696565E+02 -0.17312350809E+03  0.18172955358E+03  0.00000000000E+00 0. -1.
</event>
<event>
 7    1  0.5667373E-006  0.1077851E+03  0.7818608E-02  0.1383167E+00
          2   -1    0    0  502    0  0.00000000000E+00  0.00000000000E+00  0.12210871884E+03  0.12210871884E+03  0.00000000000E+00 0. -1.
          1   -1    0    0  501    0 -0.00000000000E+00 -0.00000000000E+00 -0.14294935695E+04  0.14294935695E+04  0.00000000000E+00 0. -1.
         25    2    1    2    0    0 -0.80346349838E+02  0.53765476393E+02 -0.77260185152E+02  0.17590025522E+03  0.12500200475E+03 0.  0.
          2    1    1    2  501    0  0.11419344923E+02  0.35796196983E+02 -0.12585958841E+04  0.12591566101E+04  0.00000000000E+00 0. -1.
          1    1    1    2  502    0  0.68927004915E+02 -0.89561673376E+02  0.28471218611E+02  0.11654542305E+03  0.00000000000E+00 0. -1.
         22    1    3    3    0    0  0.11421460054E+02 -0.30922668289E+02 -0.19663136077E+02  0.38383591342E+02  0.00000000000E+00 0.  1.
         22    1    3    3    0    0 -0.91767809893E+02  0.84688144682E+02 -0.57597049074E+02  0.13751666388E+03  0.00000000000E+00 0.  1.
</event>
<event>
 7    1  0.5667373E-006  0.4432763E+02  0.7818608E-02  0.1508244E+00
          2   -1    0    0  502    0  0.00000000000E+00  0.00000000000E+00  0.62274639112E+02  0.62274639112E+02  0.00000000000E+00 0. -1.
          1   -1    0    0  501    0 -0.00000000000E+00 -0.00000000000E+00 -0.49991824463E+03  0.49991824463E+03  0.00000000000E+00 0. -1.
         25    2    1    2    0    0  0.27310125901E+02  0.14662199834E+02 -0.26402923575E+03  0.29376616997E+03  0.12500520871E+03 0.  0.
          2    1    1    2  501    0 -0.11552750120E+02 -0.47127221803E+02 -0.21097533865E+03  0.21648333559E+03  0.00000000000E+00 0. -1.
          1    1    1    2  502    0 -0.15757375782E+02  0.32465021969E+02  0.37360968874E+02  0.51943378194E+02  0.00000000000E+00 0. -1.
         22    1    3    3    0    0 -0.15366126239E+02 -0.47780351384E+02 -0.75804160745E+02  0.90913973625E+02  0.00000000000E+00 0. -1.
         22    1    3    3    0    0  0.42676252140E+02  0.62442551218E+02 -0.18822507501E+03  0.20285219634E+03  0.00000000000E+00 0. -1.
</event>
<event>
 7    1  0.5667373E-006  0.9875659E+02  0.7818608E-02  0.1346040E+00
          2   -1    0    0  502    0  0.00000000000E+00  0.00000000000E+00  0.28789623043E+04  0.28789623043E+04  0.00000000000E+00 0. -1.
          1   -1    0    0  501    0 -0.00000000000E+00 -0.00000000000E+00 -0.21967624398E+04  0.21967624398E+04  0.00000000000E+00 0. -1.
         25    2    1    2    0    0 -0.26293054707E+02 -0.35130718297E+02  0.29038798280E+03  0.31917021683E+03  0.12497581631E+03 0.  0.
          2    1    1    2  501    0  0.47188823229E+02  0.86984814794E+02 -0.21809456467E+04  0.21831896521E+04  0.00000000000E+00 0. -1.
          1    1    1    2  502    0 -0.20895768523E+02 -0.51854096497E+02  0.25727575284E+04  0.25733648751E+04  0.00000000000E+00 0. -1.
         22    1    3    3    0    0  0.20746701297E+02 -0.48374399661E+02  0.25084258684E+03  0.25630550429E+03  0.00000000000E+00 0. -1.
         22    1    3    3    0    0 -0.47039756003E+02  0.13243681364E+02  0.39545395960E+02  0.62864712539E+02  0.00000000000E+00 0. -1.
</event>
<event>
 7    1  0.5667373E-006  0.9188922E+02  0.7818608E-02  0.1444998E+00
          2   -1    0    0  502    0  0.00000000000E+00  0.00000000000E+00  0.25856535618E+03  0.25856535618E+03  0.00000000000E+00 0. -1.
          1   -1    0    0  501    0 -0.00000000000E+00 -0.00000000000E+00 -0.10851241773E+04  0.10851241773E+04  0.00000000000E+00 0. -1.
         25    2    1    2    0    0  0.35725224260E+02  0.63703101222E+02  0.80633994618E+02  0.16571470480E+03  0.12500058218E+03 0.  0.
          2    1    1    2  501    0  0.99085021685E+01  0.25412758133E+02 -0.10238678406E+04  0.10242310978E+04  0.00000000000E+00 0. -1.
          1    1    1    2  502    0 -0.45633726428E+02 -0.89115859356E+02  0.11667502483E+03  0.15374373091E+03  0.00000000000E+00 0. -1.
         22    1    3    3    0    0  0.48093399358E+02  0.88396751555E+02  0.25135931147E+02  0.10372451871E+03  0.00000000000E+00 0.  1.
         22    1    3    3    0    0 -0.12368175099E+02 -0.24693650333E+02  0.55498063471E+02  0.61990186087E+02  0.00000000000E+00 0.  1.
</event>
<event>
 7    1  0.5667373E-006  0.1435722E+03  0.7818608E-02  0.1330427E+00
          2   -1    0    0  502    0  0.00000000000E+00  0.00000000000E+00  0.14167319071E+04  0.14167319071E+04  0.00000000000E+00 0. -1.
          1   -1    0    0  501    0 -0.00000000000E+00 -0.00000000000E+00 -0.15296760866E+03  0.15296760866E+03  0.00000000000E+00 0. -1.
         25    2    1    2    0    0 -0.14795349864E+03  0.81731654696E+02  0.19303946213E+03  0.28541195555E+03  0.12500179716E+03 0.  0.
          2    1    1    2  501    0  0.42248152156E+02  0.12435916260E+02 -0.97778995317E+02  0.10723940647E+03  0.00000000000E+00 0. -1.
          1    1    1    2  502    0  0.10570534648E+03 -0.94167570956E+02  0.11685038316E+04  0.11770481537E+04  0.00000000000E+00 0. -1.
         22    1    3    3    0    0 -0.81867550672E+02 -0.19494287919E+02  0.11107858020E+03  0.13935843747E+03  0.00000000000E+00 0. -1.
         22    1    3    3    0    0 -0.66085947965E+02  0.10122594262E+03  0.81960881924E+02  0.14605351808E+03  0.00000000000E+00 0. -1.
</event>
<event>
 7    1  0.5667373E-006  0.1704728E+03  0.7818608E-02  0.1178187E+00
          2   -1    0    0  502    0  0.00000000000E+00  0.00000000000E+00  0.94302582620E+03  0.94302582620E+03  0.00000000000E+00 0. -1.
          1   -1    0    0  501    0 -0.00000000000E+00 -0.00000000000E+00 -0.50974610296E+03  0.50974610296E+03  0.00000000000E+00 0. -1.
         25    2    1    2    0    0  0.77058413557E+02 -0.34969829936E+02  0.17475224101E+03  0.23092432136E+03  0.12500723320E+03 0.  0.
          2    1    1    2  501    0 -0.13346402683E+03 -0.12421359254E+03 -0.45417764957E+03  0.48940678418E+03  0.00000000000E+00 0. -1.
          1    1    1    2  502    0  0.56405613272E+02  0.15918342248E+03  0.71270513180E+03  0.73244082361E+03  0.00000000000E+00 0. -1.
         22    1    3    3    0    0  0.12551636997E+02 -0.60017223837E+02  0.25492490246E+02  0.66403899037E+02  0.00000000000E+00 0.  1.
         22    1    3    3    0    0  0.64506776559E+02  0.25047393901E+02  0.14925975076E+03  0.16452042232E+03  0.00000000000E+00 0.  1.
</event>
<event>
 7    1  0.5667373E-006  0.6046317E+02  0.7818608E-02  0.1400995E+00
          2   -1    0    0  502    0  0.00000000000E+00  0.00000000000E+00  0.72591912921E+02  0.72591912921E+02  0.00000000000E+00 0. -1.
          1   -1    0    0  501    0 -0.00000000000E+00 -0.00000000000E+00 -0.40206602875E+03  0.40206602875E+03  0.00000000000E+00 0. -1.
         25    2    1    2    0    0  0.39623533535E+02 -0.38135933257E+02 -0.12415993264E+03  0.18456420447E+03  0.12499553145E+03 0.  0.
          2    1    1    2  501    0 -0.51838296373E+02 -0.26163080263E+02 -0.21609705612E+03  0.22376249329E+03  0.00000000000E+00 0. -1.
          1    1    1    2  502    0  0.12214762838E+02  0.64299013520E+02  0.10782872926E+02  0.66331243915E+02  0.00000000000E+00 0. -1.
         22    1    3    3    0    0  0.19651026654E+02 -0.80596453710E+02 -0.10515443009E+03  0.13393806542E+03  0.00000000000E+00 0.  1.
         22    1    3    3    0    0  0.19972506881E+02  0.42460520453E+02 -0.19005502544E+02  0.50626139051E+02  0.00000000000E+00 0.  1.
</event>
<event>
 7    1  0.5667373E-006  0.5221454E+02  0.7818608E-02  0.1446174E+00
          2   -1    0    0  502    0  0.00000000000E+00  0.00000000000E+00  0.61113092835E+03  0.61113092835E+03  0.00000000000E+00 0. -1.
          1   -1    0    0  501    0 -0.00000000000E+00 -0.00000000000E+00 -0.31821827973E+03  0.31821827973E+03  0.00000000000E+00 0. -1.
         25    2    1    2    0    0 -0.40930188689E+02  0.83061120275E+02 -0.12486634654E+03  0.19947002994E+03  0.12498903271E+03 0.  0.
          2    1    1    2  501    0  0.30547651998E+01 -0.47486858090E+02 -0.15121090304E+03  0.15852151425E+03  0.00000000000E+00 0. -1.
          1    1    1    2  502    0  0.37875423489E+02 -0.35574262185E+02  0.56898989820E+03  0.57135766390E+03  0.00000000000E+00 0. -1.
         22    1    3    3    0    0  0.36673028179E+02 -0.14661086116E-01 -0.54768201489E+02  0.65912571677E+02  0.00000000000E+00 0. -1.
         22    1    3    3    0    0 -0.77603216868E+02  0.83075781361E+02 -0.70098145052E+02  0.13355745826E+03  0.00000000000E+00 0. -1.
</event>
<event>
 7    1  0.5667373E-006  0.7867684E+02  0.7818608E-02  0.1430257E+00
          2   -1    0    0  502    0  0.00000000000E+00  0.00000000000E+00  0.62670602409E+03  0.62670602409E+03  0.00000000000E+00 0. -1.
          1   -1    0    0  501    0 -0.00000000000E+00 -0.00000000000E+00 -0.42415593911E+03  0.42415593911E+03  0.00000000000E+00 0. -1.
         25    2    1    2    0    0  0.36265947791E+01 -0.10977664145E+03  0.20875335643E+02  0.16770767195E+03  0.12500408151E+03 0.  0.
          2    1    1    2  501    0  0.95592241075E+01  0.76730413193E+02 -0.34587158898E+03  0.35440949640E+03  0.00000000000E+00 0. -1.
          1    1    1    2  502    0 -0.13185818887E+02  0.33046228256E+02  0.52754633832E+03  0.52874479486E+03  0.00000000000E+00 0. -1.
         22    1    3    3    0    0  0.15365282086E+02  0.16713502350E+02  0.33044953940E+02  0.40092418676E+02  0.00000000000E+00 0. -1.
         22    1    3    3    0    0 -0.11738687307E+02 -0.12649014380E+03 -0.12169618296E+02  0.12761525327E+03  0.00000000000E+00 0. -1.
</event>
<event>
 7    1  0.5667373E-006  0.9767394E+02  0.7818608E-02  0.1363902E+00
          2   -1    0    0  502    0  0.00000000000E+00  0.00000000000E+00  0.67048964026E+03  0.67048964026E+03  0.00000000000E+00 0. -1.
          1   -1    0    0  501    0 -0.00000000000E+00 -0.00000000000E+00 -0.80299575245E+03  0.80299575245E+03  0.00000000000E+00 0. -1.
         25    2    1    2    0    0 -0.76892905140E+02 -0.74390099993E+02  0.21826946694E+03  0.27333687655E+03  0.12500032818E+03 0.  0.
          2    1    1    2  501    0  0.93394887413E+02  0.28686789089E+02 -0.77097903469E+03  0.77714490849E+03  0.00000000000E+00 0. -1.
          1    1    1    2  502    0 -0.16501982273E+02  0.45703310904E+02  0.42020345556E+03  0.42300360768E+03  0.00000000000E+00 0. -1.
         22    1    3    3    0    0 -0.76301305900E+02 -0.34338003381E+01  0.17315183067E+03  0.18924913932E+03  0.00000000000E+00 0.  1.
         22    1    3    3    0    0 -0.59159923978E+00 -0.70956299655E+02  0.45117636267E+02  0.84087737231E+02  0.00000000000E+00 0.  1.
</event>
<event>
 7    1  0.5667373E-006  0.9298298E+02  0.7818608E-02  0.1366142E+00
          2   -1    0    0  502    0  0.00000000000E+00  0.00000000000E+00  0.93625757188E+03  0.93625757188E+03  0.00000000000E+00 0. -1.
          1   -1    0    0  501    0 -0.00000000000E+00 -0.00000000000E+00 -0.18906840546E+03  0.18906840546E+03  0.00000000000E+00 0. -1.
         25    2    1    2    0    0 -0.11861889304E+03  0.41418439786E+02  0.78195306228E+02  0.19371651607E+03  0.12500261494E+03 0.  0.
          2    1    1    2  501    0  0.89937408111E+02 -0.34311250332E+00 -0.11501339578E+03  0.14600320652E+03  0.00000000000E+00 0. -1.
          1    1    1    2  502    0  0.28681484933E+02 -0.41075327283E+02  0.78400725597E+03  0.78560625475E+03  0.00000000000E+00 0. -1.
         22    1    3    3    0    0 -0.40660265884E+02 -0.12387751915E+02 -0.28395962704E+02  0.51117945158E+02  0.00000000000E+00 0.  1.
         22    1    3    3    0    0 -0.77958627160E+02  0.53806191701E+02  0.10659126893E+03  0.14259857091E+03  0.00000000000E+00 0.  1.
</event>
<event>
 7    1  0.5667373E-006  0.1782423E+03  0.7818608E-02  0.1218813E+00
          2   -1    0    0  502    0  0.00000000000E+00  0.00000000000E+00  0.21340464565E+04  0.21340464565E+04  0.00000000000E+00 0. -1.
          1   -1    0    0  501    0 -0.00000000000E+00 -0.00000000000E+00 -0.57045362202E+03  0.57045362202E+03  0.00000000000E+00 0. -1.
         25    2    1    2    0    0 -0.23425070562E+03 -0.78772044067E+02 -0.21352446409E+02  0.27777461038E+03  0.12499751674E+03 0.  0.
          2    1    1    2  501    0  0.57556125514E+02  0.86346238315E+02 -0.41052289937E+03  0.42343527411E+03  0.00000000000E+00 0. -1.
          1    1    1    2  502    0  0.17669458011E+03 -0.75741942482E+01  0.19954681802E+04  0.20032901940E+04  0.00000000000E+00 0. -1.
         22    1    3    3    0    0 -0.85681828283E+02 -0.25465355081E+02  0.52333809927E+02  0.10357937859E+03  0.00000000000E+00 0. -1.
         22    1    3    3    0    0 -0.14856887734E+03 -0.53306688985E+02 -0.73686256336E+02  0.17419523179E+03  0.00000000000E+00 0. -1.
</event>
<event>
 7    1  0.5667373E-006  0.4465278E+02  0.7818608E-02  0.1541518E+00
          2   -1    0    0  502    0  0.00000000000E+00  0.00000000000E+00  0.45944338321E+02  0.45944338321E+02  0.00000000000E+00 0. -1.
          1   -1    0    0  501    0 -0.00000000000E+00 -0.00000000000E+00 -0.10673193276E+04  0.10673193276E+04  0.00000000000E+00 0. -1.
         25    2    1    2    0    0 -0.87339077534E+01  0.13804828152E+02 -0.65672121076E+02  0.14214787596E+03  0.12500534680E+03 0.  0.
          2    1    1    2  501    0  0.24019647063E+02 -0.38118231320E+02 -0.93408160322E+03  0.93516757027E+03  0.00000000000E+00 0. -1.
          1    1    1    2  502    0 -0.15285739310E+02  0.24313403168E+02 -0.21621264982E+02  0.35948219696E+02  0.00000000000E+00 0. -1.
         22    1    3    3    0    0  0.99340021052E+01  0.57771322885E+02 -0.73215035423E+02  0.93790466241E+02  0.00000000000E+00 0.  1.
         22    1    3    3    0    0 -0.18667909859E+02 -0.43966494733E+02  0.75429143474E+01  0.48357409716E+02  0.00000000000E+00 0.  1.
</event>
<event>
 7    1  0.5667373E-006  0.3320631E+03  0.7818608E-02  0.1180449E+00
          2   -1    0    0  502    0  0.00000000000E+00  0.00000000000E+00  0.60047887674E+03  0.60047887674E+03  0.00000000000E+00 0. -1.
          1   -1    0    0  501    0 -0.00000000000E+00 -0.00000000000E+00 -0.30719987274E+03  0.30719987274E+03  0.00000000000E+00 0. -1.
         25    2    1    2    0    0 -0.18238651524E+03 -0.21694232158E+03  0.25323806202E+03  0.40010436939E+03  0.12500071407E+03 0.  0.
          2    1    1    2  501    0  0.18618936156E+03  0.30137745605E+03 -0.77664888015E+02  0.36266607809E+03  0.00000000000E+00 0. -1.
          1    1    1    2  502    0 -0.38028463177E+01 -0.84435134469E+02  0.11770582999E+03  0.14490830200E+03  0.00000000000E+00 0. -1.
         22    1    3    3    0    0 -0.29342296563E+02 -0.10874991857E+02 -0.95894732112E+01  0.32729097329E+02  0.00000000000E+00 0. -1.
         22    1    3    3    0    0 -0.15304421868E+03 -0.20606732972E+03  0.26282753523E+03  0.36737527206E+03  0.00000000000E+00 0. -1.
</event>
<event>
 7    1  0.5667373E-006  0.1213976E+03  0.7818608E-02  0.1243852E+00
          2   -1    0    0  502    0  0.00000000000E+00  0.00000000000E+00  0.16311870503E+04  0.16311870503E+04  0.00000000000E+00 0. -1.
          1   -1    0    0  501    0 -0.00000000000E+00 -0.00000000000E+00 -0.50160061949E+03  0.50160061949E+03  0.00000000000E+00 0. -1.
         25    2    1    2    0    0  0.13212316747E+03 -0.33706296212E+02  0.48620248551E+03  0.52020163278E+03  0.12499694413E+03 0.  0.
          2    1    1    2  501    0 -0.38576278191E+02  0.11510538362E+03 -0.47351266362E+03  0.48882678035E+03  0.00000000000E+00 0. -1.
          1    1    1    2  502    0 -0.93546889279E+02 -0.81399087405E+02  0.11168966089E+04  0.11237592567E+04  0.00000000000E+00 0. -1.
         22    1    3    3    0    0  0.59578085852E+02 -0.52345662486E+02  0.10432027408E+03  0.13104326110E+03  0.00000000000E+00 0. -1.
         22    1    3    3    0    0  0.72545081618E+02  0.18639366274E+02  0.38188221143E+03  0.38915837168E+03  0.00000000000E+00 0. -1.
</event>
<event>
 7    1  0.5667373E-006  0.1055170E+03  0.7818608E-02  0.1338705E+00
          2   -1    0    0  502    0  0.00000000000E+00  0.00000000000E+00  0.39499991954E+03  0.39499991954E+03  0.00000000000E+00 0. -1.
          1   -1    0    0  501    0 -0.00000000000E+00 -0.00000000000E+00 -0.91524987657E+03  0.91524987657E+03  0.00000000000E+00 0. -1.
         25    2    1    2    0    0 -0.13964435547E+03 -0.69351397228E+02 -0.98098037166E+02  0.22261754377E+03  0.12500073434E+03 0.  0.
          2    1    1    2  501    0  0.85185065704E+02  0.57452582486E+02 -0.74902525802E+03  0.75603976866E+03  0.00000000000E+00 0. -1.
          1    1    1    2  502    0  0.54459289764E+02  0.11898814742E+02  0.32687333815E+03  0.33159248367E+03  0.00000000000E+00 0. -1.
         22    1    3    3    0    0 -0.46197358107E+02 -0.53484848295E+01 -0.98968092919E+02  0.10935028853E+03  0.00000000000E+00 0.  1.
         22    1    3    3    0    0 -0.93446997361E+02 -0.64002912399E+02  0.87005575273E+00  0.11326725523E+03  0.00000000000E+00 0.  1.
</event>
<event>
 7    1  0.5667373E-006  0.1639529E+03  0.7818608E-02  0.1312709E+00
          2   -1    0    0  502    0  0.00000000000E+00  0.00000000000E+00  0.20030963923E+04  0.20030963923E+04  0.00000000000E+00 0. -1.
          1   -1    0    0  501    0 -0.00000000000E+00 -0.00000000000E+00 -0.75677942703E+03  0.75677942703E+03  0.00000000000E+00 0. -1.
         25    2    1    2    0    0  0.18202981119E+03  0.46638903289E+02 -0.10879524144E+03  0.25054061864E+03  0.12499663022E+03 0.  0.
          2    1    1    2  501    0 -0.14409926148E+03 -0.71153691879E+02 -0.56565266606E+03  0.58803944056E+03  0.00000000000E+00 0. -1.
          1    1    1    2  502    0 -0.37930549706E+02  0.24514788590E+02  0.19207648728E+04  0.19212957601E+04  0.00000000000E+00 0. -1.
         22    1    3    3    0    0  0.14223514767E+03  0.34655683110E+02 -0.14035115013E+02  0.14706746091E+03  0.00000000000E+00 0.  1.
         22    1    3    3    0    0  0.39794663519E+02  0.11983220179E+02 -0.94760126425E+02  0.10347315773E+03  0.00000000000E+00 0.  1.
</event>
<event>
 7    1  0.5667373E-006  0.2023281E+03  0.7818608E-02  0.1317709E+00
          2   -1    0    0  502    0  0.00000000000E+00  0.00000000000E+00  0.50699645943E+03  0.50699645943E+03  0.00000000000E+00 0. -1.
          1   -1    0    0  501    0 -0.00000000000E+00 -0.00000000000E+00 -0.21016480990E+04  0.21016480990E+04  0.00000000000E+00 0. -1.
         25    2    1    2    0    0 -0.20585419465E+00  0.22918327930E+03 -0.43164265955E+03  0.50444568060E+03  0.12500016498E+03 0.  0.
          2    1    1    2  501    0  0.14890393532E+02 -0.19742761836E+03 -0.16269439255E+04  0.16389465901E+04  0.00000000000E+00 0. -1.
          1    1    1    2  502    0 -0.14684539337E+02 -0.31755660936E+02  0.46393494546E+03  0.46525228781E+03  0.00000000000E+00 0. -1.
         22    1    3    3    0    0  0.55598767226E+02  0.79168170513E+02 -0.12032345307E+03  0.15439091779E+03  0.00000000000E+00 0.  1.
         22    1    3    3    0    0 -0.55804621421E+02  0.15001510879E+03 -0.31131920649E+03  0.35005476281E+03  0.00000000000E+00 0.  1.
</event>
<event>
 7    1  0.5667373E-006  0.7798150E+02  0.7818608E-02  0.1341097E+00
          2   -1    0    0  502    0  0.00000000000E+00  0.00000000000E+00  0.57078021440E+03  0.57078021440E+03  0.00000000000E+00 0. -1.
          1   -1    0    0  501    0 -0.00000000000E+00 -0.00000000000E+00 -0.39780610274E+03  0.39780610274E+03  0.00000000000E+00 0. -1.
         25    2    1    2    0    0 -0.10770504256E+03 -0.35163640999E+02 -0.15985855604E+03  0.23241171827E+03  0.12499436391E+03 0.  0.
          2    1    1    2  501    0  0.39636813146E+02  0.63885740071E+02 -0.19198555489E+03  0.20618175969E+03  0.00000000000E+00 0. -1.
          1    1    1    2  502    0  0.68068229416E+02 -0.28722099072E+02  0.52481822258E+03  0.52999283919E+03  0.00000000000E+00 0. -1.
         22    1    3    3    0    0  0.60546361784E+01 -0.32693973063E+02  0.33882414262E+01  0.33422068666E+02  0.00000000000E+00 0.  1.
         22    1    3    3    0    0 -0.11375967874E+03 -0.24696679355E+01 -0.16324679747E+03  0.19898964960E+03  0.00000000000E+00 0.  1.
</event>
<event>
 7    1  0.5667373E-006  0.5730561E+02  0.7818608E-02  0.1527400E+00
          2   -1    0    0  502    0  0.00000000000E+00  0.00000000000E+00  0.60067825935E+03  0.60067825935E+03  0.00000000000E+00 0. -1.
          1   -1    0    0  501    0 -0.00000000000E+00 -0.00000000000E+00 -0.23322555857E+03  0.23322555857E+03  0.00000000000E+00 0. -1.
         25    2    1    2    0    0 -0.23841246820E+02  0.48831441605E+02  0.24850071018E+03  0.28342727448E+03  0.12500200886E+03 0.  0.
          2    1    1    2  501    0  0.44754902121E+02 -0.35975666003E+02 -0.21147839843E+03  0.21913548962E+03  0.00000000000E+00 0. -1.
          1    1    1    2  502    0 -0.20913655302E+02 -0.12855775603E+02  0.33043038903E+03  0.33134105381E+03  0.00000000000E+00 0. -1.
         22    1    3    3    0    0 -0.47341003923E+02 -0.25437885792E+02  0.66819871416E+02  0.85750521294E+02  0.00000000000E+00 0. -1.
         22    1    3    3    0    0  0.23499757103E+02  0.74269327398E+02  0.18168083877E+03  0.19767675319E+03  0.00000000000E+00 0. -1.
</event>
<event>
 7    1  0.5667373E-006  0.6143057E+02  0.7818608E-02  0.1508044E+00
          2   -1    0    0  502    0  0.00000000000E+00  0.00000000000E+00  0.26791435143E+03  0.26791435143E+03  0.00000000000E+00 0. -1.
          1   -1    0    0  501    0 -0.00000000000E+00 -0.00000000000E+00 -0.43383153638E+03  0.43383153638E+03  0.00000000000E+00 0. -1.
         25    2    1    2    0    0 -0.50866040112E+02 -0.63279545708E+02 -0.16561754350E+02  0.14996719544E+03  0.12499685219E+03 0.  0.
          2    1    1    2  501    0  0.33869734997E+01  0.25854465229E+02 -0.34552358086E+03  0.34650608926E+03  0.00000000000E+00 0. -1.
          1    1    1    2  502    0  0.47479066612E+02  0.37425080480E+02  0.19616815026E+03  0.20527260312E+03  0.00000000000E+00 0. -1.
         22    1    3    3    0    0  0.19777116333E+02 -0.55376015714E+02 -0.44342950317E+02  0.73647367160E+02  0.00000000000E+00 0.  1.
         22    1    3    3    0    0 -0.70643156445E+02 -0.79035299944E+01  0.27781195968E+02  0.76319828277E+02  0.00000000000E+00 0.  1.
</event>
<event>
 7    1  0.5667373E-006  0.3288137E+03  0.7818608E-02  0.1213319E+00
          2   -1    0    0  502    0  0.00000000000E+00  0.00000000000E+00  0.16676088255E+03  0.16676088255E+03  0.00000000000E+00 0. -1.
          1   -1    0    0  501    0 -0.00000000000E+00 -0.00000000000E+00 -0.18099645136E+04  0.18099645136E+04  0.00000000000E+00 0. -1.
         25    2    1    2    0    0 -0.37150625294E+03 -0.82075083693E+02 -0.12725723277E+04  0.13340983819E+04  0.12499979170E+03 0.  0.
          2    1    1    2  501    0  0.59143792150E+02  0.74753918512E+01 -0.31015889878E+03  0.31583605261E+03  0.00000000000E+00 0. -1.
          1    1    1    2  502    0  0.31236246079E+03  0.74599691842E+02 -0.60472404594E+02  0.32679096171E+03  0.00000000000E+00 0. -1.
         22    1    3    3    0    0 -0.24846304655E+03 -0.40278069246E+02 -0.10131546303E+04  0.10439533099E+04  0.00000000000E+00 0.  1.
         22    1    3    3    0    0 -0.12304320639E+03 -0.41797014448E+02 -0.25941769736E+03  0.29014507192E+03  0.00000000000E+00 0.  1.
</event>
<event>
 7    1  0.5667373E-006  0.1093349E+03  0.7818608E-02  0.1315985E+00
          2   -1    0    0  502    0  0.00000000000E+00  0.00000000000E+00  0.12050122784E+04  0.12050122784E+04  0.00000000000E+00 0. -1.
          1   -1    0    0  501    0 -0.00000000000E+00 -0.00000000000E+00 -0.13456040100E+04  0.13456040100E+04  0.00000000000E+00 0. -1.
         25    2    1    2    0    0 -0.13164854476E+03  0.70984182230E+02  0.62887677171E+02  0.20481601836E+03  0.12499859189E+03 0.  0.
          2    1    1    2  501    0  0.10843154118E+03 -0.94653727067E+01 -0.12713031119E+04  0.12759539940E+04  0.00000000000E+00 0. -1.
          1    1    1    2  502    0  0.23217003581E+02 -0.61518809524E+02  0.10678237031E+04  0.10698462760E+04  0.00000000000E+00 0. -1.
         22    1    3    3    0    0 -0.71943731337E+01  0.67971132311E+02  0.36775998411E+02  0.77616415091E+02  0.00000000000E+00 0.  1.
         22    1    3    3    0    0 -0.12445417163E+03  0.30130499189E+01  0.26111678760E+02  0.12719960327E+03  0.00000000000E+00 0.  1.
</event>
<event>
 7    1  0.5667373E-006  0.1002590E+03  0.7818608E-02  0.1315881E+00
          2   -1    0    0  502    0  0.00000000000E+00  0.00000000000E+00  0.23903294626E+04  0.23903294626E+04  0.00000000000E+00 0. -1.
          1   -1    0    0  501    0 -0.00000000000E+00 -0.00000000000E+00 -0.39329099612E+03  0.39329099612E+03  0.00000000000E+00 0. -1.
         25    2    1    2    0    0 -0.10873807422E+03  0.85885289370E+02  0.14268788506E+03  0.23491229335E+03  0.12499480512E+03 0.  0.
          2    1    1    2  501    0  0.98349598027E+02 -0.14867619679E+02 -0.33945549518E+03  0.35372831772E+03  0.00000000000E+00 0. -1.
          1    1    1    2  502    0  0.10388476196E+02 -0.71017669691E+02  0.21938060766E+04  0.21949798476E+04  0.00000000000E+00 0. -1.
         22    1    3    3    0    0 -0.76132506129E+02  0.31825025504E+02  0.40954534111E+01  0.82618178850E+02  0.00000000000E+00 0. -1.
         22    1    3    3    0    0 -0.32605568094E+02  0.54060263865E+02  0.13859243165E+03  0.15229411450E+03  0.00000000000E+00 0. -1.
</event>
<event>
 7    1  0.5667373E-006  0.5556201E+02  0.7818608E-02  0.1450574E+00
          2   -1    0    0  502    0  0.00000000000E+00  0.00000000000E+00  0.86557697514E+02  0.86557697514E+02  0.00000000000E+00 0. -1.
          1   -1    0    0  501    0 -0.00000000000E+00 -0.00000000000E+00 -0.12856950150E+04  0.12856950150E+04  0.00000000000E+00 0. -1.
         25    2    1    2    0    0  0.61209941304E+02  0.42236584981E+02 -0.28621900313E+01  0.14547462879E+03  0.12499635780E+03 0.  0.
          2    1    1    2  501    0 -0.55509531577E+02  0.67482179356E+00 -0.11787824839E+04  0.11800889406E+04  0.00000000000E+00 0. -1.
          1    1    1    2  502    0 -0.57004097262E+01 -0.42911406774E+02 -0.17492643539E+02  0.46689143068E+02  0.00000000000E+00 0. -1.
         22    1    3    3    0    0  0.81910277773E+02 -0.40403784658E+01  0.27360665770E+02  0.86453596191E+02  0.00000000000E+00 0.  1.
         22    1    3    3    0    0 -0.20700336470E+02  0.46276963447E+02 -0.30222855802E+02  0.59021032595E+02  0.00000000000E+00 0.  1.
</event>
<event>
 7    1  0.5667373E-006  0.9149353E+02  0.7818608E-02  0.1354527E+00
          2   -1    0    0  502    0  0.00000000000E+00  0.00000000000E+00  0.57236979799E+03  0.57236979799E+03  0.00000000000E+00 0. -1.
          1   -1    0    0  501    0 -0.00000000000E+00 -0.00000000000E+00 -0.27988817086E+04  0.27988817086E+04  0.00000000000E+00 0. -1.
         25    2    1    2    0    0 -0.45212418724E+02 -0.25005279380E+02 -0.95665516675E+02  0.16567351053E+03  0.12500557671E+03 0.  0.
          2    1    1    2  501    0 -0.14837208108E+00 -0.56130722798E+02 -0.26638944196E+04  0.26644857212E+04  0.00000000000E+00 0. -1.
          1    1    1    2  502    0  0.45360790805E+02  0.81136002178E+02  0.53304802565E+03  0.54109227480E+03  0.00000000000E+00 0. -1.
         22    1    3    3    0    0 -0.66745412664E+02  0.36402784659E+01 -0.36708638057E+01  0.66945328291E+02  0.00000000000E+00 0.  1.
         22    1    3    3    0    0  0.21532993940E+02 -0.28645557846E+02 -0.91994652870E+02  0.98728182243E+02  0.00000000000E+00 0.  1.
</event>
<event>
 7    1  0.5667373E-006  0.1359897E+03  0.7818608E-02  0.1295717E+00
          2   -1    0    0  502    0  0.00000000000E+00  0.00000000000E+00  0.86605337591E+03  0.86605337591E+03  0.00000000000E+00 0. -1.
          1   -1    0    0  501    0 -0.00000000000E+00 -0.00000000000E+00 -0.12114205113E+04  0.12114205113E+04  0.00000000000E+00 0. -1.
         25    2    1    2    0    0 -0.39790543951E+02 -0.93300497149E+02  0.34231422193E+03  0.37827603528E+03  0.12500184867E+03 0.  0.
          2    1    1    2  501    0  0.15850044184E+01 -0.63597008679E+02 -0.11796708734E+04  0.11813849759E+04  0.00000000000E+00 0. -1.
          1    1    1    2  502    0  0.38205539532E+02  0.15689750583E+03  0.49198951610E+03  0.51781287599E+03  0.00000000000E+00 0. -1.
         22    1    3    3    0    0  0.85150513329E+01 -0.97199455274E+02  0.14273709295E+03  0.17289915532E+03  0.00000000000E+00 0.  1.
         22    1    3    3    0    0 -0.48305595284E+02  0.38989581248E+01  0.19957712898E+03  0.20537687996E+03  0.00000000000E+00 0.  1.
</event>
<event>
 7    1  0.5667373E-006  0.4137736E+02  0.7818608E-02  0.1576658E+00
          2   -1    0    0  502    0  0.00000000000E+00  0.00000000000E+00  0.13078073052E+04  0.13078073052E+04  0.00000000000E+00 0. -1.
          1   -1    0    0  501    0 -0.00000000000E+00 -0.00000000000E+00 -0.56972605597E+02  0.56972605597E+02  0.00000000000E+00 0. -1.
         25    2    1    2    0    0  0.43074316211E+02  0.26797155609E+02  0.10175355873E+03  0.16897491829E+03  0.12500100812E+03 0.  0.
          2    1    1    2  501    0 -0.19922051213E+02 -0.35677779940E+02 -0.52576085749E+01  0.41199933906E+02  0.00000000000E+00 0. -1.
          1    1    1    2  502    0 -0.23152264998E+02  0.88806243306E+01  0.11543387495E+04  0.11546050586E+04  0.00000000000E+00 0. -1.
         22    1    3    3    0    0 -0.23463665210E+02 -0.11649546052E+02 -0.14253874749E+02  0.29823287104E+02  0.00000000000E+00 0.  1.
         22    1    3    3    0    0  0.66537981421E+02  0.38446701661E+02  0.11600743348E+03  0.13915163119E+03  0.00000000000E+00 0.  1.
</event>
<event>
 7    1  0.5667373E-006  0.1591760E+03  0.7818608E-02  0.1339781E+00
          2   -1    0    0  502    0  0.00000000000E+00  0.00000000000E+00  0.11527916794E+03  0.11527916794E+03  0.00000000000E+00 0. -1.
          1   -1    0    0  501    0 -0.00000000000E+00 -0.00000000000E+00 -0.44197962638E+03  0.44197962638E+03  0.00000000000E+00 0. -1.
         25    2    1    2    0    0 -0.18784938435E+02 -0.13400555958E+03 -0.11295346226E+03  0.21608691462E+03  0.12499882449E+03 0.  0.
          2    1    1    2  501    0  0.23914283128E+02  0.17025354553E+03 -0.24064030216E+03  0.29574637399E+03  0.00000000000E+00 0. -1.
          1    1    1    2  502    0 -0.51293446934E+01 -0.36247985954E+02  0.26893305977E+02  0.45425505711E+02  0.00000000000E+00 0. -1.
         22    1    3    3    0    0 -0.34256412680E+02 -0.74214958177E+02  0.61006600337E+01  0.81966943824E+02  0.00000000000E+00 0.  1.
         22    1    3    3    0    0  0.15471474245E+02 -0.59790601401E+02 -0.11905412229E+03  0.13411997079E+03  0.00000000000E+00 0.  1.
</event>
<event>
 7    1  0.5667373E-006  0.6869034E+02  0.7818608E-02  0.1420746E+00
          2   -1    0    0  502    0  0.00000000000E+00  0.00000000000E+00  0.40441144792E+03  0.40441144792E+03  0.00000000000E+00 0. -1.
          1   -1    0    0  501    0 -0.00000000000E+00 -0.00000000000E+00 -0.11361903458E+04  0.11361903458E+04  0.00000000000E+00 0. -1.
         25    2    1    2    0    0  0.46715745396E+02 -0.82348161720E+02 -0.26370572852E+03  0.30680445818E+03  0.12499873477E+03 0.  0.
          2    1    1    2  501    0 -0.41509524363E+02  0.14039863618E+02 -0.84730003696E+03  0.84843238447E+03  0.00000000000E+00 0. -1.
          1    1    1    2  502    0 -0.52062210338E+01  0.68308298102E+02  0.37922686766E+03  0.38536495103E+03  0.00000000000E+00 0. -1.
         22    1    3    3    0    0  0.17256000549E+02  0.17294890377E+02 -0.15313945884E+03  0.15507603503E+03  0.00000000000E+00 0.  1.
         22    1    3    3    0    0  0.29459744848E+02 -0.99643052097E+02 -0.11056626968E+03  0.15172842314E+03  0.00000000000E+00 0.  1.
</event>
<event>
 7    1  0.5667373E-006  0.1396653E+03  0.7818608E-02  0.1251665E+00
          2   -1    0    0  502    0  0.00000000000E+00  0.00000000000E+00  0.20587110596E+04  0.20587110596E+04  0.00000000000E+00 0. -1.
          1   -1    0    0  501    0 -0.00000000000E+00 -0.00000000000E+00 -0.23605866665E+03  0.23605866665E+03  0.00000000000E+00 0. -1.
         25    2    1    2    0    0 -0.12691245555E+03  0.12923070318E+03  0.11411304455E+03  0.24789976107E+03  0.12500063434E+03 0.  0.
          2    1    1    2  501    0  0.13209125015E+03 -0.34761011076E+02 -0.14018575071E+03  0.19572549900E+03  0.00000000000E+00 0. -1.
          1    1    1    2  502    0 -0.51787946062E+01 -0.94469692102E+02  0.18487250991E+04  0.18511444662E+04  0.00000000000E+00 0. -1.
         22    1    3    3    0    0  0.19729891493E+02  0.49183193072E+02  0.28648253593E+02  0.60240995452E+02  0.00000000000E+00 0. -1.
         22    1    3    3    0    0 -0.14664234704E+03  0.80047510105E+02  0.85464790961E+02  0.18765876562E+03  0.00000000000E+00 0. -1.
</event>
<event>
 7    1  0.5667373E-006  0.4783705E+02  0.7818608E-02  0.1481870E+00
          2   -1    0    0  502    0  0.00000000000E+00  0.00000000000E+00  0.55974732388E+03  0.55974732388E+03  0.00000000000E+00 0. -1.
          1   -1    0    0  501    0 -0.00000000000E+00 -0.00000000000E+00 -0.16139582248E+04  0.16139582248E+04  0.00000000000E+00 0. -1.
         25    2    1    2    0    0 -0.71073545537E+02  0.10122518774E+01  0.30667535375E+02  0.14702805134E+03  0.12499710647E+03 0.  0.
          2    1    1    2  501    0  0.39903420194E+02 -0.26292714896E+02 -0.15545550372E+04  0.15552893472E+04  0.00000000000E+00 0. -1.
          1    1    1    2  502    0  0.31170125343E+02  0.25280463019E+02  0.46967660098E+03  0.47138815008E+03  0.00000000000E+00 0. -1.
         22    1    3    3    0    0  0.28183268237E+02  0.29229481829E+02  0.88628509200E+01  0.41559708168E+02  0.00000000000E+00 0.  1.
         22    1    3    3    0    0 -0.99256813774E+02 -0.28217229952E+02  0.21804684455E+02  0.10546834317E+03  0.00000000000E+00 0.  1.
</event>
<event>
 7    1  0.5667373E-006  0.1141953E+03  0.7818608E-02  0.1341448E+00
          2   -1    0    0  502    0  0.00000000000E+00  0.00000000000E+00  0.11329068344E+04  0.11329068344E+04  0.00000000000E+00 0. -1.
          1   -1    0    0  501    0 -0.00000000000E+00 -0.00000000000E+00 -0.24169613938E+04  0.24169613938E+04  0.00000000000E+00 0. -1.
         25    2    1    2    0    0 -0.10824941059E+03  0.11272959679E+00 -0.93038169574E+02  0.18973436037E+03  0.12500031562E+03 0.  0.
          2    1    1    2  501    0  0.52530544815E+01  0.50023201158E+02 -0.22722713396E+04  0.22728279645E+04  0.00000000000E+00 0. -1.
          1    1    1    2  502    0  0.10299635611E+03 -0.50135930755E+02  0.10812549498E+04  0.10873059033E+04  0.00000000000E+00 0. -1.
         22    1    3    3    0    0 -0.49513020714E+02  0.41831793595E+02  0.83518761874E+01  0.65354357249E+02  0.00000000000E+00 0. -1.
         22    1    3    3    0    0 -0.58736389878E+02 -0.41719063998E+02 -0.10139004576E+03  0.12438000312E+03  0.00000000000E+00 0. -1.
</event>
<event>
 7    1  0.5667373E-006  0.1327382E+03  0.7818608E-02  0.1271958E+00
          2   -1    0    0  502    0  0.00000000000E+00  0.00000000000E+00  0.13762993913E+04  0.13762993913E+04  0.00000000000E+00 0. -1.
          1   -1    0    0  501    0 -0.00000000000E+00 -0.00000000000E+00 -0.58027841031E+03  0.58027841031E+03  0.00000000000E+00 0. -1.
         25    2    1    2    0    0  0.59183609042E+01 -0.18802820313E+03  0.76774372539E+03  0.80027788598E+03  0.12499853897E+03 0.  0.
          2    1    1    2  501    0  0.45141403753E+02  0.12438036385E+03 -0.55336351391E+03  0.56896344326E+03  0.00000000000E+00 0. -1.
          1    1    1    2  502    0 -0.51059764658E+02  0.63647839279E+02  0.58164076947E+03  0.58733647233E+03  0.00000000000E+00 0. -1.
         22    1    3    3    0    0 -0.58994818092E+02 -0.90155227672E+02  0.39839503655E+03  0.41270686787E+03  0.00000000000E+00 0. -1.
         22    1    3    3    0    0  0.64913178996E+02 -0.97872975456E+02  0.36934868884E+03  0.38757101811E+03  0.00000000000E+00 0. -1.
</event>
<event>
 7    1  0.5667373E-006  0.1119626E+03  0.7818608E-02  0.1380544E+00
          2   -1    0    0  502    0  0.00000000000E+00  0.00000000000E+00  0.20038913242E+04  0.20038913242E+04  0.00000000000E+00 0. -1.
          1   -1    0    0  501    0 -0.00000000000E+00 -0.00000000000E+00 -0.72895709925E+03  0.72895709925E+03  0.00000000000E+00 0. -1.
         25    2    1    2    0    0  0.51419223954E+02 -0.93154298852E+02  0.20014472514E+03  0.25885172588E+03  0.12499858000E+03 0.  0.
          2    1    1    2  501    0 -0.18841167427E+02  0.11059237981E+03 -0.69491206489E+03  0.70390939900E+03  0.00000000000E+00 0. -1.
          1    1    1    2  502    0 -0.32578056527E+02 -0.17438080961E+02  0.17697015647E+04  0.17700872986E+04  0.00000000000E+00 0. -1.
         22    1    3    3    0    0  0.26944708587E+02 -0.82166574239E+02  0.21242213850E+03  0.22934805028E+03  0.00000000000E+00 0. -1.
         22    1    3    3    0    0  0.24474515367E+02 -0.10987724613E+02 -0.12277413365E+02  0.29503675593E+02  0.00000000000E+00 0. -1.
</event>
<event>
 7    1  0.5667373E-006  0.1301868E+03  0.7818608E-02  0.1291924E+00
          2   -1    0    0  502    0  0.00000000000E+00  0.00000000000E+00  0.78055742965E+03  0.78055742965E+03  0.00000000000E+00 0. -1.
          1   -1    0    0  501    0 -0.00000000000E+00 -0.00000000000E+00 -0.25282943529E+03  0.25282943529E+03  0.00000000000E+00 0. -1.
         25    2    1    2    0    0  0.17404017377E+02  0.63604731765E+02  0.26162327214E+03  0.29735469533E+03  0.12499846634E+03 0.  0.
          2    1    1    2  501    0 -0.40881193257E+02 -0.12831846039E+03 -0.21300175292E+03  0.25200524992E+03  0.00000000000E+00 0. -1.
          1    1    1    2  502    0  0.23477175880E+02  0.64713728629E+02  0.47910647514E+03  0.48402691969E+03  0.00000000000E+00 0. -1.
         22    1    3    3    0    0  0.36291639380E+02  0.89339245166E+02  0.12966859852E+03  0.16159371664E+03  0.00000000000E+00 0.  1.
         22    1    3    3    0    0 -0.18887622003E+02 -0.25734513401E+02  0.13195467362E+03  0.13576097869E+03  0.00000000000E+00 0.  1.
</event>
<event>
 7    1  0.5667373E-006  0.1891874E+03  0.7818608E-02  0.1243995E+00
          2   -1    0    0  502    0  0.00000000000E+00  0.00000000000E+00  0.72859486571E+03  0.72859486571E+03  0.00000000000E+00 0. -1.
          1   -1    0    0  501    0 -0.00000000000E+00 -0.00000000000E+00 -0.57304057027E+03  0.57304057027E+03  0.00000000000E+00 0. -1.
         25    2    1    2    0    0  0.14113949848E+02  0.24374022959E+03  0.41926733571E+03  0.50101766683E+03  0.12500040232E+03 0.  0.
          2    1    1    2  501    0  0.32649448967E+02 -0.18455783337E+03 -0.50983684791E+03  0.54319535332E+03  0.00000000000E+00 0. -1.
          1    1    1    2  502    0 -0.46763398814E+02 -0.59182396222E+02  0.24612380764E+03  0.25742241584E+03  0.00000000000E+00 0. -1.
         22    1    3    3    0    0 -0.18222010069E+02  0.10737989089E+03  0.83697198636E+02  0.13735976004E+03  0.00000000000E+00 0. -1.
         22    1    3    3    0    0  0.32335959917E+02  0.13636033870E+03  0.33557013708E+03  0.36365790679E+03  0.00000000000E+00 0. -1.
</event>
<event>
 7    1  0.5667373E-006  0.4145238E+02  0.7818608E-02  0.1566749E+00
          2   -1    0    0  502    0  0.00000000000E+00  0.00000000000E+00  0.12553582646E+04  0.12553582646E+04  0.00000000000E+00 0. -1.
          1   -1    0    0  501    0 -0.00000000000E+00 -0.00000000000E+00 -0.12264180231E+02  0.12264180231E+02  0.00000000000E+00 0. -1.
         25    2    1    2    0    0  0.28383984545E+02  0.41940613702E+02  0.45001332804E+03  0.46978906056E+03  0.12500040140E+03 0.  0.
          2    1    1    2  501    0 -0.35967334460E+02 -0.16724962963E+02  0.18602941869E+03  0.19021124612E+03  0.00000000000E+00 0. -1.
          1    1    1    2  502    0  0.75833499155E+01 -0.25215650739E+02  0.60705133762E+03  0.60762213813E+03  0.00000000000E+00 0. -1.
         22    1    3    3    0    0  0.55416045962E+02 -0.22129059607E+02  0.14208395063E+03  0.15410542643E+03  0.00000000000E+00 0. -1.
         22    1    3    3    0    0 -0.27032061417E+02  0.64069673309E+02  0.30792937741E+03  0.31568363413E+03  0.00000000000E+00 0. -1.
</event>
<event>
 7    1  0.5667373E-006  0.2516591E+03  0.7818608E-02  0.1251808E+00
          2   -1    0    0  502    0  0.00000000000E+00  0.00000000000E+00  0.35066745150E+03  0.35066745150E+03  0.00000000000E+00 0. -1.
          1   -1    0    0  501    0 -0.00000000000E+00 -0.00000000000E+00 -0.19572783497E+04  0.19572783497E+04  0.00000000000E+00 0. -1.
         25    2    1    2    0    0 -0.18682850098E+03 -0.12781393837E+03 -0.12119929598E+02  0.25886924010E+03  0.12500039663E+03 0.  0.
          2    1    1    2  501    0 -0.11479312382E+02 -0.51160399633E+02 -0.17427664494E+04  0.17435550058E+04  0.00000000000E+00 0. -1.
          1    1    1    2  502    0  0.19830781336E+03  0.17897433800E+03  0.14827548084E+03  0.30552155525E+03  0.00000000000E+00 0. -1.
         22    1    3    3    0    0 -0.87427684708E+02 -0.13135076164E+02 -0.51188871960E+02  0.10215885126E+03  0.00000000000E+00 0. -1.
         22    1    3    3    0    0 -0.99400816274E+02 -0.11467886220E+03  0.39068942362E+02  0.15671038884E+03  0.00000000000E+00 0. -1.
</event>
<event>
 7    1  0.5667373E-006  0.1808261E+03  0.7818608E-02  0.1190025E+00
          2   -1    0    0  502    0  0.00000000000E+00  0.00000000000E+00  0.13851168212E+04  0.13851168212E+04  0.00000000000E+00 0. -1.
          1   -1    0    0  501    0 -0.00000000000E+00 -0.00000000000E+00 -0.62977479299E+03  0.62977479299E+03  0.00000000000E+00 0. -1.
         25    2    1    2    0    0 -0.23687459599E+03  0.18989357833E+03  0.79541338862E+02  0.33781939975E+03  0.12500390770E+03 0.  0.
          2    1    1    2  501    0  0.10934822590E+03 -0.13332976077E+03 -0.48147321118E+03  0.51141989862E+03  0.00000000000E+00 0. -1.
          1    1    1    2  502    0  0.12752637009E+03 -0.56563817557E+02  0.11572739006E+04  0.11656523159E+04  0.00000000000E+00 0. -1.
         22    1    3    3    0    0  0.96681342400E+01  0.35959253843E+02  0.36033456519E+01  0.37410223957E+02  0.00000000000E+00 0.  1.
         22    1    3    3    0    0 -0.24654273023E+03  0.15393432449E+03  0.75937993210E+02  0.30040917579E+03  0.00000000000E+00 0.  1.
</event>
<event>
 7    1  0.5667373E-006  0.1450186E+03  0.7818608E-02  0.1321577E+00
          2   -1    0    0  502    0  0.00000000000E+00  0.00000000000E+00  0.84978844881E+03  0.84978844881E+03  0.00000000000E+00 0. -1.
          1   -1    0    0  501    0 -0.00000000000E+00 -0.00000000000E+00 -0.15737749306E+03  0.15737749306E+03  0.00000000000E+00 0. -1.
         25    2    1    2    0    0 -0.14891125203E+03  0.16477550719E+02  0.14963829799E+03  0.24588501566E+03  0.12498699950E+03 0.  0.
          2    1    1    2  501    0  0.14216067538E+03  0.30190903649E+02 -0.59591325453E+02  0.15707410467E+03  0.00000000000E+00 0. -1.
          1    1    1    2  502    0  0.67505766433E+01 -0.46668454368E+02  0.60236398322E+03  0.60420682154E+03  0.00000000000E+00 0. -1.
         22    1    3    3    0    0  0.89485622624E+01 -0.27968666004E+02  0.11772972867E+02  0.31637413528E+02  0.00000000000E+00 0. -1.
         22    1    3    3    0    0 -0.15785981429E+03  0.44446216723E+02  0.13786532512E+03  0.21424760213E+03  0.00000000000E+00 0. -1.
</event>
<event>
 7    1  0.5667373E-006  0.9601290E+02  0.7818608E-02  0.1360144E+00
          2   -1    0    0  502    0  0.00000000000E+00  0.00000000000E+00  0.12292099009E+03  0.12292099009E+03  0.00000000000E+00 0. -1.
          1   -1    0    0  501    0 -0.00000000000E+00 -0.00000000000E+00 -0.12102566063E+04  0.12102566063E+04  0.00000000000E+00 0. -1.
         25    2    1    2    0    0 -0.30869185557E+02  0.74022856328E+02 -0.42310291104E+03  0.44841159203E+03  0.12499837064E+03 0.  0.
          2    1    1    2  501    0 -0.48082229007E+02 -0.17041164489E+02 -0.75197151375E+03  0.75369984710E+03  0.00000000000E+00 0. -1.
          1    1    1    2  502    0  0.78951414564E+02 -0.56981691839E+02  0.87738808536E+02  0.13106615730E+03  0.00000000000E+00 0. -1.
         22    1    3    3    0    0  0.75142837316E+01  0.21209388295E+02 -0.23501465543E+01  0.22623567373E+02  0.00000000000E+00 0. -1.
         22    1    3    3    0    0 -0.38383469289E+02  0.52813468034E+02 -0.42075276448E+03  0.42578802466E+03  0.00000000000E+00 0. -1.
</event>
<event>
 7    1  0.5667373E-006  0.2023651E+03  0.7818608E-02  0.1319081E+00
          2   -1    0    0  502    0  0.00000000000E+00  0.00000000000E+00  0.10771806935E+04  0.10771806935E+04  0.00000000000E+00 0. -1.
          1   -1    0    0  501    0 -0.00000000000E+00 -0.00000000000E+00 -0.22959649669E+03  0.22959649669E+03  0.00000000000E+00 0. -1.
         25    2    1    2    0    0 -0.12159723672E+03 -0.12679355558E+03  0.24474650219E+03  0.32615345565E+03  0.12495092071E+03 0.  0.
          2    1    1    2  501    0  0.15351447318E+03  0.14003029012E+03 -0.13122106029E+03  0.24575219693E+03  0.00000000000E+00 0. -1.
          1    1    1    2  502    0 -0.31917236463E+02 -0.13236734549E+02  0.73405875494E+03  0.73487153764E+03  0.00000000000E+00 0. -1.
         22    1    3    3    0    0 -0.10611592558E+03 -0.11062449124E+03  0.10782857542E+03  0.18741763365E+03  0.00000000000E+00 0.  1.
         22    1    3    3    0    0 -0.15481311135E+02 -0.16169064335E+02  0.13691792677E+03  0.13873582201E+03  0.00000000000E+00 0.  1.
</event>
<event>
 7    1  0.5667373E-006  0.2116880E+03  0.7818608E-02  0.1199903E+00
          2   -1    0    0  502    0  0.00000000000E+00  0.00000000000E+00  0.96126669827E+03  0.96126669827E+03  0.00000000000E+00 0. -1.
          1   -1    0    0  501    0 -0.00000000000E+00 -0.00000000000E+00 -0.29156778396E+04  0.29156778396E+04  0.00000000000E+00 0. -1.
         25    2    1    2    0    0 -0.28206533728E+03  0.86768934169E+02 -0.24577810180E+04  0.24785888708E+04  0.12500222175E+03 0.  0.
          2    1    1    2  501    0  0.70831535303E+02 -0.80130232162E+02 -0.42910485310E+03  0.44223176667E+03  0.00000000000E+00 0. -1.
          1    1    1    2  502    0  0.21123380197E+03 -0.66387020063E+01  0.93247472973E+03  0.95612390047E+03  0.00000000000E+00 0. -1.
         22    1    3    3    0    0 -0.16426028630E+03  0.11042380755E+03 -0.16719889848E+04  0.16836632752E+04  0.00000000000E+00 0. -1.
         22    1    3    3    0    0 -0.11780505097E+03 -0.23654873384E+02 -0.78579203315E+03  0.79492559553E+03  0.00000000000E+00 0. -1.
</event>
<event>
 7    1  0.5667373E-006  0.8742041E+02  0.7818608E-02  0.1450320E+00
          2   -1    0    0  502    0  0.00000000000E+00  0.00000000000E+00  0.42692587172E+03  0.42692587172E+03  0.00000000000E+00 0. -1.
          1   -1    0    0  501    0 -0.00000000000E+00 -0.00000000000E+00 -0.85844897190E+03  0.85844897190E+03  0.00000000000E+00 0. -1.
         25    2    1    2    0    0 -0.69853308853E+02  0.83933475743E+02 -0.23612068084E+03  0.28862237811E+03  0.12500235245E+03 0.  0.
          2    1    1    2  501    0  0.62806876697E+02 -0.57284866668E+02 -0.59256656471E+03  0.59863293705E+03  0.00000000000E+00 0. -1.
          1    1    1    2  502    0  0.70464321563E+01 -0.26648609075E+02  0.39716414537E+03  0.39811952846E+03  0.00000000000E+00 0. -1.
         22    1    3    3    0    0 -0.44753509777E+02  0.10565270971E+03 -0.22675798360E+03  0.25413491463E+03  0.00000000000E+00 0.  1.
         22    1    3    3    0    0 -0.25099799076E+02 -0.21719233966E+02 -0.93626972394E+01  0.34487463481E+02  0.00000000000E+00 0.  1.
</event>
<event>
 7    1  0.5667373E-006  0.1716477E+03  0.7818608E-02  0.1278223E+00
          2   -1    0    0  502    0  0.00000000000E+00  0.00000000000E+00  0.29426108066E+03  0.29426108066E+03  0.00000000000E+00 0. -1.
          1   -1    0    0  501    0 -0.00000000000E+00 -0.00000000000E+00 -0.11153536639E+04  0.11153536639E+04  0.00000000000E+00 0. -1.
         25    2    1    2    0    0  0.18129076563E+02  0.18614044392E+03 -0.37315026912E+03  0.43571085595E+03  0.12500359340E+03 0.  0.
          2    1    1    2  501    0  0.51455097105E+02 -0.29718407770E+02 -0.68162986991E+03  0.68421494454E+03  0.00000000000E+00 0. -1.
          1    1    1    2  502    0 -0.69584173667E+02 -0.15642203615E+03  0.23368755576E+03  0.28968894410E+03  0.00000000000E+00 0. -1.
         22    1    3    3    0    0 -0.32087362444E+02  0.39453715850E+02 -0.29714448036E+02  0.58899430770E+02  0.00000000000E+00 0.  1.
         22    1    3    3    0    0  0.50216439006E+02  0.14668672807E+03 -0.34343582109E+03  0.37681142518E+03  0.00000000000E+00 0.  1.
</event>
<event>
 7    1  0.5667373E-006  0.6092779E+02  0.7818608E-02  0.1488200E+00
          2   -1    0    0  502    0  0.00000000000E+00  0.00000000000E+00  0.16097432120E+03  0.16097432120E+03  0.00000000000E+00 0. -1.
          1   -1    0    0  501    0 -0.00000000000E+00 -0.00000000000E+00 -0.10383167465E+03  0.10383167465E+03  0.00000000000E+00 0. -1.
         25    2    1    2    0    0 -0.64934135785E+02  0.53962136773E+02  0.17377631448E+02  0.15186022708E+03  0.12502476675E+03 0.  0.
          2    1    1    2  501    0  0.43977712195E+02 -0.32297169484E+02 -0.93114034525E+01  0.55352042066E+02  0.00000000000E+00 0. -1.
          1    1    1    2  502    0  0.20956423589E+02 -0.21664967289E+02  0.49076418551E+02  0.57593726699E+02  0.00000000000E+00 0. -1.
         22    1    3    3    0    0 -0.54758288839E+02 -0.14660641003E+02 -0.33485913661E+02  0.65838522196E+02  0.00000000000E+00 0.  1.
         22    1    3    3    0    0 -0.10175846946E+02  0.68622777776E+02  0.50863545109E+02  0.86021704888E+02  0.00000000000E+00 0.  1.
</event>
<event>
 7    1  0.5667373E-006  0.3767078E+03  0.7818608E-02  0.1257802E+00
          2   -1    0    0  502    0  0.00000000000E+00  0.00000000000E+00  0.20841501776E+04  0.20841501776E+04  0.00000000000E+00 0. -1.
          1   -1    0    0  501    0 -0.00000000000E+00 -0.00000000000E+00 -0.67399220405E+03  0.67399220405E+03  0.00000000000E+00 0. -1.
         25    2    1    2    0    0  0.19308006383E+03  0.33007333514E+03  0.16236585567E+04  0.16727583128E+04  0.12499978708E+03 0.  0.
          2    1    1    2  501    0 -0.32006428485E+02 -0.80658531853E+01 -0.57454671009E+03  0.57549404127E+03  0.00000000000E+00 0. -1.
          1    1    1    2  502    0 -0.16107363534E+03 -0.32200748195E+03  0.36104612696E+03  0.50989002759E+03  0.00000000000E+00 0. -1.
         22    1    3    3    0    0  0.64639504381E+02  0.69585860301E+02  0.22431707478E+03  0.24359517138E+03  0.00000000000E+00 0. -1.
         22    1    3    3    0    0  0.12844055944E+03  0.26048747484E+03  0.13993414819E+04  0.14291631414E+04  0.00000000000E+00 0. -1.
</event>
<event>
 7    1  0.5667373E-006  0.5739132E+02  0.7818608E-02  0.1477748E+00
          2   -1    0    0  502    0  0.00000000000E+00  0.00000000000E+00  0.12757189920E+03  0.12757189920E+03  0.00000000000E+00 0. -1.
          1   -1    0    0  501    0 -0.00000000000E+00 -0.00000000000E+00 -0.28304699921E+03  0.28304699921E+03  0.00000000000E+00 0. -1.
         25    2    1    2    0    0  0.25765394590E+02 -0.19365161866E+02 -0.10503895607E+03  0.16642362171E+03  0.12499909807E+03 0.  0.
          2    1    1    2  501    0 -0.60198313257E+02  0.20090428394E+02 -0.13702543920E+03  0.15100805681E+03  0.00000000000E+00 0. -1.
          1    1    1    2  502    0  0.34432918667E+02 -0.72526652791E+00  0.86589295255E+02  0.93187219897E+02  0.00000000000E+00 0. -1.
         22    1    3    3    0    0  0.42153417166E+02 -0.22208368665E+02 -0.12885086515E+03  0.13737782815E+03  0.00000000000E+00 0.  1.
         22    1    3    3    0    0 -0.16388022575E+02  0.28432067988E+01  0.23811909087E+02  0.29045793554E+02  0.00000000000E+00 0.  1.
</event>
<event>
 7    1  0.5667373E-006  0.1026807E+03  0.7818608E-02  0.1350131E+00
          2   -1    0    0  502    0  0.00000000000E+00  0.00000000000E+00  0.29669049962E+02  0.29669049962E+02  0.00000000000E+00 0. -1.
          1   -1    0    0  501    0 -0.00000000000E+00 -0.00000000000E+00 -0.13288269198E+04  0.13288269198E+04  0.00000000000E+00 0. -1.
         25    2    1    2    0    0  0.71345900861E+02  0.88240392541E+02 -0.60570370059E+03  0.62879067957E+03  0.12499656539E+03 0.  0.
          2    1    1    2  501    0 -0.50495647089E+02  0.12076922461E+02 -0.55520031602E+03  0.55762268008E+03  0.00000000000E+00 0. -1.
          1    1    1    2  502    0 -0.20850253771E+02 -0.10031731500E+03 -0.13825385323E+03  0.17208261012E+03  0.00000000000E+00 0. -1.
         22    1    3    3    0    0  0.43207664486E+02 -0.94641366782E+01 -0.36250202627E+03  0.36519062310E+03  0.00000000000E+00 0. -1.
         22    1    3    3    0    0  0.28138236374E+02  0.97704529220E+02 -0.24320167433E+03  0.26360005647E+03  0.00000000000E+00 0. -1.
</event>
<event>
 7    1  0.5667373E-006  0.1112693E+03  0.7818608E-02  0.1297439E+00
          2   -1    0    0  502    0  0.00000000000E+00  0.00000000000E+00  0.33298443899E+04  0.33298443899E+04  0.00000000000E+00 0. -1.
          1   -1    0    0  501    0 -0.00000000000E+00 -0.00000000000E+00 -0.14812897154E+04  0.14812897154E+04  0.00000000000E+00 0. -1.
         25    2    1    2    0    0 -0.65816344306E+02  0.89117677805E+02 -0.13488131779E+03  0.21468919077E+03  0.12499890828E+03 0.  0.
          2    1    1    2  501    0 -0.42623123266E+02 -0.63549200064E+02 -0.13044396857E+04  0.13066821056E+04  0.00000000000E+00 0. -1.
          1    1    1    2  502    0  0.10843946757E+03 -0.25568477741E+02  0.32878756780E+04  0.32897628090E+04  0.00000000000E+00 0. -1.
         22    1    3    3    0    0 -0.82010811263E+02  0.16928928369E+02 -0.10642984082E+03  0.13542404807E+03  0.00000000000E+00 0.  1.
         22    1    3    3    0    0  0.16194466957E+02  0.72188749436E+02 -0.28451476971E+02  0.79265142698E+02  0.00000000000E+00 0.  1.
</event>
<event>
 7    1  0.5667373E-006  0.3561166E+02  0.7818608E-02  0.1557201E+00
          2   -1    0    0  502    0  0.00000000000E+00  0.00000000000E+00  0.32198491390E+03  0.32198491390E+03  0.00000000000E+00 0. -1.
          1   -1    0    0  501    0 -0.00000000000E+00 -0.00000000000E+00 -0.13076070666E+04  0.13076070666E+04  0.00000000000E+00 0. -1.
         25    2    1    2    0    0  0.16715304393E+02 -0.50452722806E+01 -0.67848212785E+02  0.14329466004E+03  0.12500049377E+03 0.  0.
          2    1    1    2  501    0 -0.11443337795E+02 -0.30479831821E+02 -0.12006797219E+04  0.12011210449E+04  0.00000000000E+00 0. -1.
          1    1    1    2  502    0 -0.52719665982E+01  0.35525104102E+02  0.28290578195E+03  0.28517627551E+03  0.00000000000E+00 0. -1.
         22    1    3    3    0    0 -0.44122307061E+02 -0.34873024213E+02 -0.17565792881E+02  0.58919121495E+02  0.00000000000E+00 0.  1.
         22    1    3    3    0    0  0.60837611455E+02  0.29827751933E+02 -0.50282419904E+02  0.84375538542E+02  0.00000000000E+00 0.  1.
</event>
<event>
 7    1  0.5667373E-006  0.8173422E+02  0.7818608E-02  0.1425921E+00
          2   -1    0    0  502    0  0.00000000000E+00  0.00000000000E+00  0.43975784123E+04  0.43975784123E+04  0.00000000000E+00 0. -1.
          1   -1    0    0  501    0 -0.00000000000E+00 -0.00000000000E+00 -0.53717209144E+02  0.53717209144E+02  0.00000000000E+00 0. -1.
         25    2    1    2    0    0 -0.58801429364E+02 -0.22360628189E+02  0.66345582644E+03  0.67805320861E+03  0.12499965712E+03 0.  0.
          2    1    1    2  501    0 -0.11625966949E+01 -0.35377336900E+02 -0.39136567309E+02  0.52769105526E+02  0.00000000000E+00 0. -1.
          1    1    1    2  502    0  0.59964026059E+02  0.57737965089E+02  0.37195419441E+04  0.37204733074E+04  0.00000000000E+00 0. -1.
         22    1    3    3    0    0  0.10179650679E+02 -0.59371079414E+02  0.24165319212E+03  0.24904781794E+03  0.00000000000E+00 0.  1.
         22    1    3    3    0    0 -0.68981080043E+02  0.37010451225E+02  0.42180263432E+03  0.42900539067E+03  0.00000000000E+00 0.  1.
</event>
<event>
 7    1  0.5667373E-006  0.4931864E+02  0.7818608E-02  0.1525795E+00
          2   -1    0    0  502    0  0.00000000000E+00  0.00000000000E+00  0.74179515112E+03  0.74179515112E+03  0.00000000000E+00 0. -1.
          1   -1    0    0  501    0 -0.00000000000E+00 -0.00000000000E+00 -0.13339163007E+03  0.13339163007E+03  0.00000000000E+00 0. -1.
         25    2    1    2    0    0  0.32142698619E+02  0.44791511641E+02  0.50560261372E+03  0.52373506450E+03  0.12499992881E+03 0.  0.
          2    1    1    2  501    0 -0.28477630246E+02  0.44904339595E+01 -0.11990842281E+03  0.12332546080E+03  0.00000000000E+00 0. -1.
          1    1    1    2  502    0 -0.36650683731E+01 -0.49281945601E+02  0.22270933014E+03  0.22812625588E+03  0.00000000000E+00 0. -1.
         22    1    3    3    0    0 -0.22019398389E+02 -0.55004801369E+01  0.35744531233E+03  0.35816513020E+03  0.00000000000E+00 0. -1.
         22    1    3    3    0    0  0.54162097008E+02  0.50291991778E+02  0.14815730139E+03  0.16556993430E+03  0.00000000000E+00 0. -1.
</event>
<event>
 7    1  0.5667373E-006  0.1972091E+03  0.7818608E-02  0.1330437E+00
          2   -1    0    0  502    0  0.00000000000E+00  0.00000000000E+00  0.40532398051E+03  0.40532398051E+03  0.00000000000E+00 0. -1.
          1   -1    0    0  501    0 -0.00000000000E+00 -0.00000000000E+00 -0.41702988189E+03  0.41702988189E+03  0.00000000000E+00 0. -1.
         25    2    1    2    0    0 -0.30375529172E+02 -0.21989038096E+03  0.31694232381E+02  0.25671748649E+03  0.12499956436E+03 0.  0.
          2    1    1    2  501    0  0.36818709812E+02  0.18848493734E+03 -0.27301431757E+03  0.33379485705E+03  0.00000000000E+00 0. -1.
          1    1    1    2  502    0 -0.64431806405E+01  0.31405443627E+02  0.22961418380E+03  0.23184151886E+03  0.00000000000E+00 0. -1.
         22    1    3    3    0    0 -0.51158051447E+02 -0.22468484007E+03  0.39901692883E+02  0.23386442371E+03  0.00000000000E+00 0.  1.
         22    1    3    3    0    0  0.20782522276E+02  0.47944591043E+01 -0.82074605019E+01  0.22853062773E+02  0.00000000000E+00 0.  1.
</event>
<event>
 7    1  0.5667373E-006  0.1284411E+03  0.7818608E-02  0.1334675E+00
          2   -1    0    0  502    0  0.00000000000E+00  0.00000000000E+00  0.20361676918E+04  0.20361676918E+04  0.00000000000E+00 0. -1.
          1   -1    0    0  501    0 -0.00000000000E+00 -0.00000000000E+00 -0.33807510892E+02  0.33807510892E+02  0.00000000000E+00 0. -1.
         25    2    1    2    0    0 -0.16541449492E+01  0.22344056435E+02  0.12319549904E+04  0.12384848386E+04  0.12501841386E+03 0.  0.
          2    1    1    2  501    0  0.12806740589E+03  0.97900412345E+01  0.14979271872E+03  0.19731944643E+03  0.00000000000E+00 0. -1.
          1    1    1    2  502    0 -0.12641326094E+03 -0.32134097669E+02  0.62061247178E+03  0.63417091774E+03  0.00000000000E+00 0. -1.
         22    1    3    3    0    0 -0.55931573462E+02  0.87659126009E+01  0.90565207446E+03  0.90741989294E+03  0.00000000000E+00 0. -1.
         22    1    3    3    0    0  0.54277428513E+02  0.13578143834E+02  0.32630291598E+03  0.33106494562E+03  0.00000000000E+00 0. -1.
</event>
<event>
 7    1  0.5667373E-006  0.6127873E+02  0.7818608E-02  0.1519991E+00
          2   -1    0    0  502    0  0.00000000000E+00  0.00000000000E+00  0.37619984996E+03  0.37619984996E+03  0.00000000000E+00 0. -1.
          1   -1    0    0  501    0 -0.00000000000E+00 -0.00000000000E+00 -0.27346086817E+04  0.27346086817E+04  0.00000000000E+00 0. -1.
         25    2    1    2    0    0 -0.20787562383E+02 -0.74322703317E+02 -0.37554745546E+03  0.40325820147E+03  0.12500119506E+03 0.  0.
          2    1    1    2  501    0  0.75607512997E+00  0.60892050950E+02 -0.23444087234E+04  0.23451994959E+04  0.00000000000E+00 0. -1.
          1    1    1    2  502    0  0.20031487253E+02  0.13430652366E+02  0.36154734709E+03  0.36235083426E+03  0.00000000000E+00 0. -1.
         22    1    3    3    0    0  0.52522934267E+02 -0.30644564391E+02 -0.17679139537E+03  0.18695706840E+03  0.00000000000E+00 0. -1.
         22    1    3    3    0    0 -0.73310496650E+02 -0.43678138925E+02 -0.19875606010E+03  0.21630113306E+03  0.00000000000E+00 0. -1.
</event>
<event>
 7    1  0.5667373E-006  0.7602433E+02  0.7818608E-02  0.1464293E+00
          2   -1    0    0  502    0  0.00000000000E+00  0.00000000000E+00  0.25420242783E+04  0.25420242783E+04  0.00000000000E+00 0. -1.
          1   -1    0    0  501    0 -0.00000000000E+00 -0.00000000000E+00 -0.29532723226E+02  0.29532723226E+02  0.00000000000E+00 0. -1.
         25    2    1    2    0    0  0.57536536561E+02 -0.80808842406E+02  0.48101019662E+03  0.50679132429E+03  0.12500446023E+03 0.  0.
          2    1    1    2  501    0 -0.25404608190E+02  0.13192877773E+02 -0.31127969356E+01  0.28794715592E+02  0.00000000000E+00 0. -1.
          1    1    1    2  502    0 -0.32131928371E+02  0.67615964632E+02  0.20345941554E+04  0.20359709617E+04  0.00000000000E+00 0. -1.
         22    1    3    3    0    0 -0.29994328933E+02  0.14508186302E+01  0.18361445824E+03  0.18605384683E+03  0.00000000000E+00 0. -1.
         22    1    3    3    0    0  0.87530865493E+02 -0.82259661036E+02  0.29739573837E+03  0.32073747746E+03  0.00000000000E+00 0. -1.
</event>
<event>
 7    1  0.5667373E-006  0.7039677E+02  0.7818608E-02  0.1405965E+00
          2   -1    0    0  502    0  0.00000000000E+00  0.00000000000E+00  0.96106632370E+03  0.96106632370E+03  0.00000000000E+00 0. -1.
          1   -1    0    0  501    0 -0.00000000000E+00 -0.00000000000E+00 -0.92662751822E+02  0.92662751822E+02  0.00000000000E+00 0. -1.
         25    2    1    2    0    0  0.56909252474E+02 -0.10735819567E+02  0.41108957373E+03  0.43355838513E+03  0.12499725935E+03 0.  0.
          2    1    1    2  501    0 -0.77047259186E+01 -0.47334804304E+02 -0.71397279644E+02  0.86008825364E+02  0.00000000000E+00 0. -1.
          1    1    1    2  502    0 -0.49204526555E+02  0.58070623871E+02  0.52871127779E+03  0.53416186503E+03  0.00000000000E+00 0. -1.
         22    1    3    3    0    0 -0.30932893614E+02  0.27534289153E+02  0.14217888003E+03  0.14808718686E+03  0.00000000000E+00 0. -1.
         22    1    3    3    0    0  0.87842146088E+02 -0.38270108721E+02  0.26891069371E+03  0.28547119827E+03  0.00000000000E+00 0. -1.
</event>
<event>
 7    1  0.5667373E-006  0.5734328E+02  0.7818608E-02  0.1467559E+00
          2   -1    0    0  502    0  0.00000000000E+00  0.00000000000E+00  0.62220241608E+03  0.62220241608E+03  0.00000000000E+00 0. -1.
          1   -1    0    0  501    0 -0.00000000000E+00 -0.00000000000E+00 -0.14003977029E+03  0.14003977029E+03  0.00000000000E+00 0. -1.
         25    2    1    2    0    0 -0.29449117406E+02 -0.62496277234E+02  0.17702073495E+03  0.22745245304E+03  0.12500097043E+03 0.  0.
          2    1    1    2  501    0  0.36620913813E+02  0.57469299845E+01 -0.10981815622E+03  0.11590576331E+03  0.00000000000E+00 0. -1.
          1    1    1    2  502    0 -0.71717964073E+01  0.56749347249E+02  0.41496006707E+03  0.41888397002E+03  0.00000000000E+00 0. -1.
         22    1    3    3    0    0 -0.73002165445E+01 -0.57346205528E+02  0.19180623725E+03  0.20032851295E+03  0.00000000000E+00 0.  1.
         22    1    3    3    0    0 -0.22148900861E+02 -0.51500717058E+01 -0.14785502301E+02  0.27123940094E+02  0.00000000000E+00 0.  1.
</event>
<event>
 7    1  0.5667373E-006  0.4518147E+02  0.7818608E-02  0.1514497E+00
          2   -1    0    0  502    0  0.00000000000E+00  0.00000000000E+00  0.27168623041E+03  0.27168623041E+03  0.00000000000E+00 0. -1.
          1   -1    0    0  501    0 -0.00000000000E+00 -0.00000000000E+00 -0.52720303694E+03  0.52720303694E+03  0.00000000000E+00 0. -1.
         25    2    1    2    0    0 -0.42851665760E+02  0.20323074774E+02  0.56195246558E+02  0.14502998778E+03  0.12500599583E+03 0.  0.
          2    1    1    2  501    0 -0.92781936100E+00 -0.33925722657E+02 -0.47910327432E+03  0.48030382361E+03  0.00000000000E+00 0. -1.
          1    1    1    2  502    0  0.43779485121E+02  0.13602647882E+02  0.16739122123E+03  0.17355545596E+03  0.00000000000E+00 0. -1.
         22    1    3    3    0    0 -0.26899794682E+02 -0.42486925250E+02  0.62158047501E+02  0.79952239745E+02  0.00000000000E+00 0. -1.
         22    1    3    3    0    0 -0.15951871077E+02  0.62810000025E+02 -0.59628009426E+01  0.65077748033E+02  0.00000000000E+00 0. -1.
</event>
<event>
 7    1  0.5667373E-006  0.1803787E+03  0.7818608E-02  0.1249097E+00
          2   -1    0    0  502    0  0.00000000000E+00  0.00000000000E+00  0.82297264971E+03  0.82297264971E+03  0.00000000000E+00 0. -1.
          1   -1    0    0  501    0 -0.00000000000E+00 -0.00000000000E+00 -0.10839582676E+04  0.10839582676E+04  0.00000000000E+00 0. -1.
         25    2    1    2    0    0  0.16070820409E+03  0.17326698027E+02 -0.11138101037E+03  0.23272253724E+03  0.12500683398E+03 0.  0.
          2    1    1    2  501    0  0.12670599457E+02 -0.74083487016E+02 -0.89940173437E+03  0.90253664021E+03  0.00000000000E+00 0. -1.
          1    1    1    2  502    0 -0.17337880355E+03  0.56756788990E+02  0.74979712686E+03  0.77167173984E+03  0.00000000000E+00 0. -1.
         22    1    3    3    0    0  0.13164560506E+03  0.59701654788E+02 -0.50643019158E+02  0.15316516675E+03  0.00000000000E+00 0.  1.
         22    1    3    3    0    0  0.29062599029E+02 -0.42374956761E+02 -0.60737991209E+02  0.79557370488E+02  0.00000000000E+00 0.  1.
</event>
<event>
 7    1  0.5667373E-006  0.4854062E+02  0.7818608E-02  0.1525397E+00
          2   -1    0    0  502    0  0.00000000000E+00  0.00000000000E+00  0.13629266793E+03  0.13629266793E+03  0.00000000000E+00 0. -1.
          1   -1    0    0  501    0 -0.00000000000E+00 -0.00000000000E+00 -0.71138639579E+03  0.71138639579E+03  0.00000000000E+00 0. -1.
         25    2    1    2    0    0 -0.43047754995E+02  0.57621705234E+02 -0.13426209588E+03  0.19703892898E+03  0.12499863607E+03 0.  0.
          2    1    1    2  501    0  0.38338753341E+02 -0.28632603213E+02 -0.54260659100E+03  0.54471239987E+03  0.00000000000E+00 0. -1.
          1    1    1    2  502    0  0.47090016543E+01 -0.28989102021E+02  0.10177495902E+03  0.10592773487E+03  0.00000000000E+00 0. -1.
         22    1    3    3    0    0 -0.43699327266E+02  0.74565928537E+02 -0.15050656661E+03  0.17355672126E+03  0.00000000000E+00 0. -1.
         22    1    3    3    0    0  0.65157227073E+00 -0.16944223303E+02  0.16244470736E+02  0.23482207717E+02  0.00000000000E+00 0. -1.
</event>
<event>
 7    1  0.5667373E-006  0.4292247E+02  0.7818608E-02  0.1577610E+00
          2   -1    0    0  502    0  0.00000000000E+00  0.00000000000E+00  0.68844753332E+03  0.68844753332E+03  0.00000000000E+00 0. -1.
          1   -1    0    0  501    0 -0.00000000000E+00 -0.00000000000E+00 -0.41904563889E+03  0.41904563889E+03  0.00000000000E+00 0. -1.
         25    2    1    2    0    0 -0.15503996752E+02  0.44242154435E+02  0.40056116938E+03  0.42222276256E+03  0.12500027464E+03 0.  0.
          2    1    1    2  501    0 -0.17345839870E+02 -0.16243025344E+02 -0.40618432928E+03  0.40687888049E+03  0.00000000000E+00 0. -1.
          1    1    1    2  502    0  0.32849836622E+02 -0.27999129091E+02  0.27502505433E+03  0.27839152916E+03  0.00000000000E+00 0. -1.
         22    1    3    3    0    0 -0.98173520904E+01  0.40695465598E+02  0.40917379452E+03  0.41130973177E+03  0.00000000000E+00 0. -1.
         22    1    3    3    0    0 -0.56866446612E+01  0.35466888370E+01 -0.86126251404E+01  0.10913030790E+02  0.00000000000E+00 0. -1.
</event>
<event>
 7    1  0.5667373E-006  0.1265241E+03  0.7818608E-02  0.1398291E+00
          2   -1    0    0  502    0  0.00000000000E+00  0.00000000000E+00  0.43049962970E+03  0.43049962970E+03  0.00000000000E+00 0. -1.
          1   -1    0    0  501    0 -0.00000000000E+00 -0.00000000000E+00 -0.34664421877E+03  0.34664421877E+03  0.00000000000E+00 0. -1.
         25    2    1    2    0    0 -0.11668083587E+03  0.28008739808E+02 -0.56419759845E+02  0.18222852149E+03  0.12500055111E+03 0.  0.
          2    1    1    2  501    0 -0.10687451833E+02 -0.26257713790E+02 -0.21532796348E+03  0.21718614371E+03  0.00000000000E+00 0. -1.
          1    1    1    2  502    0  0.12736828770E+03 -0.17510260179E+01  0.35560313426E+03  0.37772918327E+03  0.00000000000E+00 0. -1.
         22    1    3    3    0    0  0.23822312534E+02  0.46565286385E+01  0.84759118200E+01  0.25710443687E+02  0.00000000000E+00 0. -1.
         22    1    3    3    0    0 -0.14050314840E+03  0.23352211170E+02 -0.64895671665E+02  0.15651807780E+03  0.00000000000E+00 0. -1.
</event>
<event>
 7    1  0.5667373E-006  0.1537444E+03  0.7818608E-02  0.1336647E+00
          2   -1    0    0  502    0  0.00000000000E+00  0.00000000000E+00  0.60517963562E+03  0.60517963562E+03  0.00000000000E+00 0. -1.
          1   -1    0    0  501    0 -0.00000000000E+00 -0.00000000000E+00 -0.14520447386E+03  0.14520447386E+03  0.00000000000E+00 0. -1.
         25    2    1    2    0    0  0.32021696237E+02 -0.13673488589E+03  0.41875258697E+02  0.19261159124E+03  0.12499547888E+03 0.  0.
          2    1    1    2  501    0 -0.33515959897E+02 -0.19841110356E+02 -0.50458992694E+02  0.63742444035E+02  0.00000000000E+00 0. -1.
          1    1    1    2  502    0  0.14942636596E+01  0.15657599625E+03  0.46855889575E+03  0.49403007420E+03  0.00000000000E+00 0. -1.
         22    1    3    3    0    0  0.64586620590E+02 -0.84150003603E+02  0.67422030878E+02  0.12569162627E+03  0.00000000000E+00 0.  1.
         22    1    3    3    0    0 -0.32564924353E+02 -0.52584882289E+02 -0.25546772181E+02  0.66919964975E+02  0.00000000000E+00 0.  1.
</event>
<event>
 7    1  0.5667373E-006  0.1139944E+03  0.7818608E-02  0.1371084E+00
          2   -1    0    0  502    0  0.00000000000E+00  0.00000000000E+00  0.29969583751E+04  0.29969583751E+04  0.00000000000E+00 0. -1.
          1   -1    0    0  501    0 -0.00000000000E+00 -0.00000000000E+00 -0.13727092761E+02  0.13727092761E+02  0.00000000000E+00 0. -1.
         25    2    1    2    0    0 -0.12032942441E+03  0.18089766830E+02  0.18063477235E+04  0.18147516953E+04  0.12500082972E+03 0.  0.
          2    1    1    2  501    0  0.11173281202E+03  0.20179318164E+02  0.34657692520E+03  0.36470123560E+03  0.00000000000E+00 0. -1.
          1    1    1    2  502    0  0.85966123903E+01 -0.38269084994E+02  0.83030663365E+03  0.83123253696E+03  0.00000000000E+00 0. -1.
         22    1    3    3    0    0 -0.43017891586E+02  0.16064701660E+02  0.15663706488E+03  0.16322923675E+03  0.00000000000E+00 0. -1.
         22    1    3    3    0    0 -0.77311532826E+02  0.20250651706E+01  0.16497106586E+04  0.16515224586E+04  0.00000000000E+00 0. -1.
</event>
<event>
 7    1  0.5667373E-006  0.7424114E+02  0.7818608E-02  0.1353545E+00
          2   -1    0    0  502    0  0.00000000000E+00  0.00000000000E+00  0.85529980037E+03  0.85529980037E+03  0.00000000000E+00 0. -1.
          1   -1    0    0  501    0 -0.00000000000E+00 -0.00000000000E+00 -0.98198173309E+03  0.98198173309E+03  0.00000000000E+00 0. -1.
         25    2    1    2    0    0  0.17157877179E+02 -0.13646660898E+02  0.22324462928E+03  0.25679496880E+03  0.12499946959E+03 0.  0.
          2    1    1    2  501    0 -0.41302501951E+02 -0.61691573408E+02 -0.96122617019E+03  0.96408894670E+03  0.00000000000E+00 0. -1.
          1    1    1    2  502    0  0.24144624772E+02  0.75338234307E+02  0.61129960819E+03  0.61639761796E+03  0.00000000000E+00 0. -1.
         22    1    3    3    0    0  0.23466671761E+02 -0.22781060274E+02 -0.56463718547E+00  0.32710551905E+02  0.00000000000E+00 0.  1.
         22    1    3    3    0    0 -0.63087945823E+01  0.91343993756E+01  0.22380926646E+03  0.22408441689E+03  0.00000000000E+00 0.  1.
</event>
<event>
 7    1  0.5667373E-006  0.7464010E+02  0.7818608E-02  0.1463912E+00
          2   -1    0    0  502    0  0.00000000000E+00  0.00000000000E+00  0.20876741671E+03  0.20876741671E+03  0.00000000000E+00 0. -1.
          1   -1    0    0  501    0 -0.00000000000E+00 -0.00000000000E+00 -0.99743356219E+02  0.99743356219E+02  0.00000000000E+00 0. -1.
         25    2    1    2    0    0 -0.16100046620E+01  0.63831987458E+02  0.11140642926E+03  0.17920409652E+03  0.12500240395E+03 0.  0.
          2    1    1    2  501    0 -0.35724850992E+01  0.29018165406E+02  0.17687274572E+02  0.34170985574E+02  0.00000000000E+00 0. -1.
          1    1    1    2  502    0  0.51824897612E+01 -0.92850152864E+02 -0.20069643336E+02  0.95135690835E+02  0.00000000000E+00 0. -1.
         22    1    3    3    0    0 -0.28391379510E+02  0.94142711881E+02  0.90659330216E+02  0.13374615802E+03  0.00000000000E+00 0. -1.
         22    1    3    3    0    0  0.26781374848E+02 -0.30310724423E+02  0.20747099040E+02  0.45457938496E+02  0.00000000000E+00 0. -1.
</event>
<event>
 7    1  0.5667373E-006  0.2065599E+03  0.7818608E-02  0.1209413E+00
          2   -1    0    0  502    0  0.00000000000E+00  0.00000000000E+00  0.17881294753E+04  0.17881294753E+04  0.00000000000E+00 0. -1.
          1   -1    0    0  501    0 -0.00000000000E+00 -0.00000000000E+00 -0.11865951927E+03  0.11865951927E+03  0.00000000000E+00 0. -1.
         25    2    1    2    0    0  0.17371236942E+03  0.10269586173E+03  0.17533349389E+03  0.29510728373E+03  0.12499619004E+03 0.  0.
          2    1    1    2  501    0  0.35712553849E+02 -0.92259040272E+02 -0.39336078805E+01  0.99008031418E+02  0.00000000000E+00 0. -1.
          1    1    1    2  502    0 -0.20942492327E+03 -0.10436821458E+02  0.14980700700E+04  0.15126736794E+04  0.00000000000E+00 0. -1.
         22    1    3    3    0    0  0.96980014123E+02  0.11674460870E+03  0.14923115434E+03  0.21284821875E+03  0.00000000000E+00 0. -1.
         22    1    3    3    0    0  0.76732355301E+02 -0.14048746973E+02  0.26102339553E+02  0.82259064981E+02  0.00000000000E+00 0. -1.
</event>
<event>
 7    1  0.5667373E-006  0.3474892E+02  0.7818608E-02  0.1593293E+00
          2   -1    0    0  502    0  0.00000000000E+00  0.00000000000E+00  0.26994948571E+04  0.26994948571E+04  0.00000000000E+00 0. -1.
          1   -1    0    0  501    0 -0.00000000000E+00 -0.00000000000E+00 -0.28662075055E+02  0.28662075055E+02  0.00000000000E+00 0. -1.
         25    2    1    2    0    0 -0.50224408194E+02 -0.33526221492E+02  0.41535415076E+03  0.43793917366E+03  0.12500060228E+03 0.  0.
          2    1    1    2  501    0  0.19232001341E+02  0.18466778774E+02 -0.69286406223E+01  0.27548100746E+02  0.00000000000E+00 0. -1.
          1    1    1    2  502    0  0.30992406853E+02  0.15059442719E+02  0.22624072719E+04  0.22626696578E+04  0.00000000000E+00 0. -1.
         22    1    3    3    0    0 -0.71302621544E+02 -0.62085419821E+02  0.35979360883E+03  0.37200820441E+03  0.00000000000E+00 0.  1.
         22    1    3    3    0    0  0.21078213350E+02  0.28559198329E+02  0.55560541932E+02  0.65930969256E+02  0.00000000000E+00 0.  1.
</event>
<event>
 7    1  0.5667373E-006  0.2163874E+03  0.7818608E-02  0.1311909E+00
          2   -1    0    0  502    0  0.00000000000E+00  0.00000000000E+00  0.10843588981E+04  0.10843588981E+04  0.00000000000E+00 0. -1.
          1   -1    0    0  501    0 -0.00000000000E+00 -0.00000000000E+00 -0.85866989500E+03  0.85866989500E+03  0.00000000000E+00 0. -1.
         25    2    1    2    0    0  0.23339880607E+03 -0.81102658238E+02  0.19523431479E+03  0.33881025505E+03  0.12499322944E+03 0.  0.
          2    1    1    2  501    0 -0.20617767966E+03  0.59959674756E+02 -0.77185720608E+03  0.80116661486E+03  0.00000000000E+00 0. -1.
          1    1    1    2  502    0 -0.27221126417E+02  0.21142983481E+02  0.80231189442E+03  0.80305192323E+03  0.00000000000E+00 0. -1.
         22    1    3    3    0    0  0.23490254319E+03 -0.72396097881E+02  0.20886930684E+03  0.32256284213E+03  0.00000000000E+00 0. -1.
         22    1    3    3    0    0 -0.15037371174E+01 -0.87065603562E+01 -0.13634992043E+02  0.16247412920E+02  0.00000000000E+00 0. -1.
</event>
<event>
 7    1  0.5667373E-006  0.2542749E+02  0.7818608E-02  0.1669174E+00
          2   -1    0    0  502    0  0.00000000000E+00  0.00000000000E+00  0.15464705817E+04  0.15464705817E+04  0.00000000000E+00 0. -1.
          1   -1    0    0  501    0 -0.00000000000E+00 -0.00000000000E+00 -0.73200165988E+03  0.73200165988E+03  0.00000000000E+00 0. -1.
         25    2    1    2    0    0  0.18217985788E+02  0.82284153982E+01 -0.20481166237E+03  0.24077776460E+03  0.12500605208E+03 0.  0.
          2    1    1    2  501    0 -0.16088741544E+02  0.17117248414E+02 -0.50883012322E+03  0.50937210573E+03  0.00000000000E+00 0. -1.
          1    1    1    2  502    0 -0.21292442437E+01 -0.25345663812E+02  0.15281107074E+04  0.15283223712E+04  0.00000000000E+00 0. -1.
         22    1    3    3    0    0  0.18483654165E+02  0.45202997717E+02 -0.19703025453E+03  0.20299230940E+03  0.00000000000E+00 0. -1.
         22    1    3    3    0    0 -0.26566837719E+00 -0.36974582318E+02 -0.77814078433E+01  0.37785455209E+02  0.00000000000E+00 0. -1.
</event>
<event>
 7    1  0.5667373E-006  0.1546095E+03  0.7818608E-02  0.1317384E+00
          2   -1    0    0  502    0  0.00000000000E+00  0.00000000000E+00  0.49828796322E+03  0.49828796322E+03  0.00000000000E+00 0. -1.
          1   -1    0    0  501    0 -0.00000000000E+00 -0.00000000000E+00 -0.46789698180E+03  0.46789698180E+03  0.00000000000E+00 0. -1.
         25    2    1    2    0    0 -0.16249451728E+03  0.41816690996E+02  0.14988577105E+03  0.25737890230E+03  0.12500020476E+03 0.  0.
          2    1    1    2  501    0  0.13331266951E+03 -0.77270022684E+02 -0.39787184775E+03  0.42666723742E+03  0.00000000000E+00 0. -1.
          1    1    1    2  502    0  0.29181847777E+02  0.35453331688E+02  0.27837705813E+03  0.28213880530E+03  0.00000000000E+00 0. -1.
         22    1    3    3    0    0 -0.62171544878E+02  0.76905532788E+02  0.97551830705E+02  0.13891048067E+03  0.00000000000E+00 0.  1.
         22    1    3    3    0    0 -0.10032297241E+03 -0.35088841793E+02  0.52333940342E+02  0.11846842163E+03  0.00000000000E+00 0.  1.
</event>
<event>
 7    1  0.5667373E-006  0.9225308E+02  0.7818608E-02  0.1371680E+00
          2   -1    0    0  502    0  0.00000000000E+00  0.00000000000E+00  0.78477663268E+03  0.78477663268E+03  0.00000000000E+00 0. -1.
          1   -1    0    0  501    0 -0.00000000000E+00 -0.00000000000E+00 -0.22399189802E+03  0.22399189802E+03  0.00000000000E+00 0. -1.
         25    2    1    2    0    0  0.43806274212E+02  0.53976339332E+02  0.22861156889E+03  0.26966775449E+03  0.12500005406E+03 0.  0.
          2    1    1    2  501    0  0.46294698314E+02 -0.13518327594E+02 -0.19596209126E+03  0.20180952773E+03  0.00000000000E+00 0. -1.
          1    1    1    2  502    0 -0.90100972526E+02 -0.40458011738E+02  0.52813525703E+03  0.53729124847E+03  0.00000000000E+00 0. -1.
         22    1    3    3    0    0  0.27952994547E+02  0.30410685485E+02  0.23658827104E+03  0.24016700374E+03  0.00000000000E+00 0. -1.
         22    1    3    3    0    0  0.15853279666E+02  0.23565653847E+02 -0.79767021482E+01  0.29500750746E+02  0.00000000000E+00 0. -1.
</event>
<event>
 7    1  0.5667373E-006  0.3076864E+03  0.7818608E-02  0.1255554E+00
          2   -1    0    0  502    0  0.00000000000E+00  0.00000000000E+00  0.13317080009E+04  0.13317080009E+04  0.00000000000E+00 0. -1.
          1   -1    0    0  501    0 -0.00000000000E+00 -0.00000000000E+00 -0.14582712666E+04  0.14582712666E+04  0.00000000000E+00 0. -1.
         25    2    1    2    0    0  0.14146402495E+03  0.22793243519E+03  0.54808829329E+03  0.62288737616E+03  0.12499056274E+03 0.  0.
          2    1    1    2  501    0 -0.16999457311E+03 -0.25782044929E+03 -0.14034995601E+04  0.14370736077E+04  0.00000000000E+00 0. -1.
          1    1    1    2  502    0  0.28530548161E+02  0.29888014095E+02  0.72884800114E+03  0.73001828356E+03  0.00000000000E+00 0. -1.
         22    1    3    3    0    0  0.11592065413E+03  0.15150522756E+03  0.25219739074E+03  0.31621979054E+03  0.00000000000E+00 0. -1.
         22    1    3    3    0    0  0.25543370811E+02  0.76427207635E+02  0.29589090256E+03  0.30666758563E+03  0.00000000000E+00 0. -1.
</event>
<event>
 7    1  0.5667373E-006  0.9804718E+02  0.7818608E-02  0.1431544E+00
          2   -1    0    0  502    0  0.00000000000E+00  0.00000000000E+00  0.23072796909E+04  0.23072796909E+04  0.00000000000E+00 0. -1.
          1   -1    0    0  501    0 -0.00000000000E+00 -0.00000000000E+00 -0.50891021810E+03  0.50891021810E+03  0.00000000000E+00 0. -1.
         25    2    1    2    0    0 -0.43671737676E+02  0.10715793554E+03  0.93028072426E+02  0.19408558071E+03  0.12499978623E+03 0.  0.
          2    1    1    2  501    0  0.26024274022E+02 -0.11051609116E+02 -0.45684102309E+03  0.45771510930E+03  0.00000000000E+00 0. -1.
          1    1    1    2  502    0  0.17647463654E+02 -0.96106326428E+02  0.21621824235E+04  0.21643892190E+04  0.00000000000E+00 0. -1.
         22    1    3    3    0    0  0.54969596383E+01  0.63571932287E+02 -0.16907260484E+02  0.66011079351E+02  0.00000000000E+00 0.  1.
         22    1    3    3    0    0 -0.49168697314E+02  0.43586003256E+02  0.10993533291E+03  0.12807450136E+03  0.00000000000E+00 0.  1.
</event>
<event>
 7    1  0.5667373E-006  0.2232797E+03  0.7818608E-02  0.1227809E+00
          2   -1    0    0  502    0  0.00000000000E+00  0.00000000000E+00  0.15941813503E+04  0.15941813503E+04  0.00000000000E+00 0. -1.
          1   -1    0    0  501    0 -0.00000000000E+00 -0.00000000000E+00 -0.44733664714E+03  0.44733664714E+03  0.00000000000E+00 0. -1.
         25    2    1    2    0    0  0.62762148861E+02  0.28408530053E+03 -0.10096490971E+03  0.33235718714E+03  0.12499536607E+03 0.  0.
          2    1    1    2  501    0  0.80261185599E+01 -0.74984491702E+02 -0.21600637593E+03  0.22879214807E+03  0.00000000000E+00 0. -1.
          1    1    1    2  502    0 -0.70788267421E+02 -0.20910080883E+03  0.14638159888E+04  0.14803686623E+04  0.00000000000E+00 0. -1.
         22    1    3    3    0    0 -0.30466486182E+02  0.13355041014E+03 -0.65236929651E+02  0.15172269382E+03  0.00000000000E+00 0.  1.
         22    1    3    3    0    0  0.93228635043E+02  0.15053489039E+03 -0.35727980063E+02  0.18063449332E+03  0.00000000000E+00 0.  1.
</event>
<event>
 7    1  0.5667373E-006  0.7021258E+02  0.7818608E-02  0.1481859E+00
          2   -1    0    0  502    0  0.00000000000E+00  0.00000000000E+00  0.33085335370E+04  0.33085335370E+04  0.00000000000E+00 0. -1.
          1   -1    0    0  501    0 -0.00000000000E+00 -0.00000000000E+00 -0.41323912308E+02  0.41323912308E+02  0.00000000000E+00 0. -1.
         25    2    1    2    0    0  0.43288592630E+02  0.65338813363E+02  0.96564427155E+03  0.97685061396E+03  0.12500080012E+03 0.  0.
          2    1    1    2  501    0 -0.27217320465E+02  0.26471724476E+01 -0.29886158278E+02  0.40508918918E+02  0.00000000000E+00 0. -1.
          1    1    1    2  502    0 -0.16071272165E+02 -0.67985985811E+02  0.23314515114E+04  0.23324979164E+04  0.00000000000E+00 0. -1.
         22    1    3    3    0    0  0.25811875770E+02 -0.17774085448E+02  0.62475876906E+03  0.62554431542E+03  0.00000000000E+00 0.  1.
         22    1    3    3    0    0  0.17476716860E+02  0.83112898811E+02  0.34088550250E+03  0.35130629854E+03  0.00000000000E+00 0.  1.
</event>
<event>
 7    1  0.5667373E-006  0.1130629E+03  0.7818608E-02  0.1258982E+00
          2   -1    0    0  502    0  0.00000000000E+00  0.00000000000E+00  0.13350150322E+04  0.13350150322E+04  0.00000000000E+00 0. -1.
          1   -1    0    0  501    0 -0.00000000000E+00 -0.00000000000E+00 -0.12753160196E+03  0.12753160196E+03  0.00000000000E+00 0. -1.
         25    2    1    2    0    0  0.47367125536E+02  0.19296097689E+02  0.12720849026E+03  0.18553396163E+03  0.12499946782E+03 0.  0.
          2    1    1    2  501    0 -0.10723332397E+03  0.76616617739E+02 -0.50103053913E+02  0.14099435412E+03  0.00000000000E+00 0. -1.
          1    1    1    2  502    0  0.59866198429E+02 -0.95912715428E+02  0.11303779938E+04  0.11360183184E+04  0.00000000000E+00 0. -1.
         22    1    3    3    0    0 -0.11124014799E+02  0.13558360330E+02  0.12551849065E+03  0.12673777785E+03  0.00000000000E+00 0.  1.
         22    1    3    3    0    0  0.58491140335E+02  0.57377373591E+01  0.16899996120E+01  0.58796183774E+02  0.00000000000E+00 0.  1.
</event>
<event>
 7    1  0.5667373E-006  0.4867700E+02  0.7818608E-02  0.1515521E+00
          2   -1    0    0  502    0  0.00000000000E+00  0.00000000000E+00  0.24512750267E+03  0.24512750267E+03  0.00000000000E+00 0. -1.
          1   -1    0    0  501    0 -0.00000000000E+00 -0.00000000000E+00 -0.20723887773E+04  0.20723887773E+04  0.00000000000E+00 0. -1.
         25    2    1    2    0    0 -0.51771224518E+02  0.10030565979E+02 -0.36872004083E+03  0.39288789978E+03  0.12500224534E+03 0.  0.
          2    1    1    2  501    0  0.75054285149E+01 -0.30371192137E+02 -0.16888924790E+04  0.16891822123E+04  0.00000000000E+00 0. -1.
          1    1    1    2  502    0  0.44265796003E+02  0.20340626158E+02  0.23035124524E+03  0.23544616784E+03  0.00000000000E+00 0. -1.
         22    1    3    3    0    0  0.19659426839E+02  0.47089009613E+02 -0.98397987541E+02  0.11084237386E+03  0.00000000000E+00 0. -1.
         22    1    3    3    0    0 -0.71430651357E+02 -0.37058443635E+02 -0.27032205329E+03  0.28204552593E+03  0.00000000000E+00 0. -1.
</event>
<event>
 7    1  0.5667373E-006  0.9236728E+02  0.7818608E-02  0.1357705E+00
          2   -1    0    0  502    0  0.00000000000E+00  0.00000000000E+00  0.41524526278E+03  0.41524526278E+03  0.00000000000E+00 0. -1.
          1   -1    0    0  501    0 -0.00000000000E+00 -0.00000000000E+00 -0.19071559470E+04  0.19071559470E+04  0.00000000000E+00 0. -1.
         25    2    1    2    0    0 -0.22426605572E+02  0.14253845338E+03 -0.59252191512E+03  0.62251756103E+03  0.12500292220E+03 0.  0.
          2    1    1    2  501    0 -0.25305889751E+01 -0.54066936318E+02 -0.12937848565E+04  0.12949165580E+04  0.00000000000E+00 0. -1.
          1    1    1    2  502    0  0.24957194547E+02 -0.88471517059E+02  0.39439608732E+03  0.40496709075E+03  0.00000000000E+00 0. -1.
         22    1    3    3    0    0  0.50260436989E+02  0.40074503491E+02 -0.17143958061E+03  0.18309453065E+03  0.00000000000E+00 0.  1.
         22    1    3    3    0    0 -0.72687042561E+02  0.10246394989E+03 -0.42108233452E+03  0.43942303037E+03  0.00000000000E+00 0.  1.
</event>
<event>
 7    1  0.5667373E-006  0.5445107E+02  0.7818608E-02  0.1524723E+00
          2   -1    0    0  502    0  0.00000000000E+00  0.00000000000E+00  0.33999905985E+04  0.33999905985E+04  0.00000000000E+00 0. -1.
          1   -1    0    0  501    0 -0.00000000000E+00 -0.00000000000E+00 -0.28379672318E+03  0.28379672318E+03  0.00000000000E+00 0. -1.
         25    2    1    2    0    0 -0.63676857255E+01 -0.32143640021E+02  0.44239395797E+03  0.46088060041E+03  0.12499901107E+03 0.  0.
          2    1    1    2  501    0 -0.21192749556E+02 -0.15571921399E+02 -0.27366552815E+03  0.27492624223E+03  0.00000000000E+00 0. -1.
          1    1    1    2  502    0  0.27560435282E+02  0.47715561420E+02  0.29474654455E+04  0.29479804791E+04  0.00000000000E+00 0. -1.
         22    1    3    3    0    0 -0.49913145543E+02  0.56515343491E+01  0.33719494347E+03  0.34091596008E+03  0.00000000000E+00 0.  1.
         22    1    3    3    0    0  0.43545459818E+02 -0.37795174370E+02  0.10519901450E+03  0.11996464033E+03  0.00000000000E+00 0.  1.
</event>
<event>
 7    1  0.5667373E-006  0.6005612E+02  0.7818608E-02  0.1417230E+00
          2   -1    0    0  502    0  0.00000000000E+00  0.00000000000E+00  0.50883283709E+03  0.50883283709E+03  0.00000000000E+00 0. -1.
          1   -1    0    0  501    0 -0.00000000000E+00 -0.00000000000E+00 -0.19467447490E+03  0.19467447490E+03  0.00000000000E+00 0. -1.
         25    2    1    2    0    0  0.42393737731E+02 -0.35065314842E+02 -0.50113732602E+02  0.14547165482E+03  0.12499524334E+03 0.  0.
          2    1    1    2  501    0  0.16645946136E+02  0.48730869107E+02 -0.87871590310E+02  0.10184891512E+03  0.00000000000E+00 0. -1.
          1    1    1    2  502    0 -0.59039683867E+02 -0.13665554265E+02  0.45214368510E+03  0.45618674205E+03  0.00000000000E+00 0. -1.
         22    1    3    3    0    0  0.49986405185E+02 -0.69757987817E+02 -0.64294272086E+02  0.10723138995E+03  0.00000000000E+00 0. -1.
         22    1    3    3    0    0 -0.75926674533E+01  0.34692672975E+02  0.14180539484E+02  0.38240264869E+02  0.00000000000E+00 0. -1.
</event>
<event>
 7    1  0.5667373E-006  0.2901959E+03  0.7818608E-02  0.1248916E+00
          2   -1    0    0  502    0  0.00000000000E+00  0.00000000000E+00  0.51819777407E+03  0.51819777407E+03  0.00000000000E+00 0. -1.
          1   -1    0    0  501    0 -0.00000000000E+00 -0.00000000000E+00 -0.15023523693E+04  0.15023523693E+04  0.00000000000E+00 0. -1.
         25    2    1    2    0    0 -0.18218688515E+03 -0.20258454690E+03 -0.81532313518E+03  0.86868237722E+03  0.12499879181E+03 0.  0.
          2    1    1    2  501    0 -0.43172966511E+02  0.18068993748E+02 -0.61623575170E+03  0.61801043296E+03  0.00000000000E+00 0. -1.
          1    1    1    2  502    0  0.22535985167E+03  0.18451555315E+03  0.44740429162E+03  0.53385733324E+03  0.00000000000E+00 0. -1.
         22    1    3    3    0    0 -0.18552815480E+02 -0.11014474365E+03 -0.29182861547E+03  0.31247401863E+03  0.00000000000E+00 0. -1.
         22    1    3    3    0    0 -0.16363406968E+03 -0.92439803250E+02 -0.52349451972E+03  0.55620835858E+03  0.00000000000E+00 0. -1.
</event>
<event>
 7    1  0.5667373E-006  0.5767108E+02  0.7818608E-02  0.1473222E+00
          2   -1    0    0  502    0  0.00000000000E+00  0.00000000000E+00  0.74775275704E+03  0.74775275704E+03  0.00000000000E+00 0. -1.
          1   -1    0    0  501    0 -0.00000000000E+00 -0.00000000000E+00 -0.10262440151E+03  0.10262440151E+03  0.00000000000E+00 0. -1.
         25    2    1    2    0    0  0.83745434016E+02 -0.29920145375E+02  0.88786939046E+02  0.17724782431E+03  0.12500063143E+03 0.  0.
          2    1    1    2  501    0 -0.35393793267E+02  0.13172911254E+00 -0.51582834465E+02  0.62558187041E+02  0.00000000000E+00 0. -1.
          1    1    1    2  502    0 -0.48351640749E+02  0.29788416263E+02  0.60792425095E+03  0.61057114720E+03  0.00000000000E+00 0. -1.
         22    1    3    3    0    0  0.72776064360E+02  0.35837171816E+02  0.24761584531E+02  0.84816239577E+02  0.00000000000E+00 0.  1.
         22    1    3    3    0    0  0.10969369656E+02 -0.65757317191E+02  0.64025354514E+02  0.92431584729E+02  0.00000000000E+00 0.  1.
</event>
<event>
 7    1  0.5667373E-006  0.3847016E+02  0.7818608E-02  0.1553683E+00
          2   -1    0    0  502    0  0.00000000000E+00  0.00000000000E+00  0.11195304111E+04  0.11195304111E+04  0.00000000000E+00 0. -1.
          1   -1    0    0  501    0 -0.00000000000E+00 -0.00000000000E+00 -0.14596411698E+04  0.14596411698E+04  0.00000000000E+00 0. -1.
         25    2    1    2    0    0  0.51284326364E+02 -0.26654250586E+02  0.49621820625E+03  0.51497383605E+03  0.12500004960E+03 0.  0.
          2    1    1    2  501    0 -0.38440002741E+02 -0.13635693182E+01 -0.14496212484E+04  0.14501314619E+04  0.00000000000E+00 0. -1.
          1    1    1    2  502    0 -0.12844323624E+02  0.28017819904E+02  0.61329228344E+03  0.61406628291E+03  0.00000000000E+00 0. -1.
         22    1    3    3    0    0  0.79498003327E+02 -0.33660903259E+02  0.46234718454E+03  0.47033807840E+03  0.00000000000E+00 0.  1.
         22    1    3    3    0    0 -0.28213676963E+02  0.70066526735E+01  0.33871021710E+02  0.44635757651E+02  0.00000000000E+00 0.  1.
</event>
<event>
 7    1  0.5667373E-006  0.3564172E+02  0.7818608E-02  0.1637156E+00
          2   -1    0    0  502    0  0.00000000000E+00  0.00000000000E+00  0.99066048442E+03  0.99066048442E+03  0.00000000000E+00 0. -1.
          1   -1    0    0  501    0 -0.00000000000E+00 -0.00000000000E+00 -0.47554102135E+03  0.47554102135E+03  0.00000000000E+00 0. -1.
         25    2    1    2    0    0 -0.43465009803E+02 -0.33635782848E+02  0.35124121871E+03  0.37684958103E+03  0.12499856013E+03 0.  0.
          2    1    1    2  501    0  0.15484745497E+02  0.12762550984E+02 -0.46203272115E+03  0.46246826428E+03  0.00000000000E+00 0. -1.
          1    1    1    2  502    0  0.27980264306E+02  0.20873231864E+02  0.62591096551E+03  0.62688366046E+03  0.00000000000E+00 0. -1.
         22    1    3    3    0    0 -0.83360183412E+02 -0.44448289962E+02  0.26167267330E+03  0.27820344823E+03  0.00000000000E+00 0. -1.
         22    1    3    3    0    0  0.39895173610E+02  0.10812507114E+02  0.89568545416E+02  0.98646132795E+02  0.00000000000E+00 0. -1.
</event>
<event>
 7    1  0.5667373E-006  0.7045489E+02  0.7818608E-02  0.1422628E+00
          2   -1    0    0  502    0  0.00000000000E+00  0.00000000000E+00  0.13316688076E+04  0.13316688076E+04  0.00000000000E+00 0. -1.
          1   -1    0    0  501    0 -0.00000000000E+00 -0.00000000000E+00 -0.27025906620E+03  0.27025906620E+03  0.00000000000E+00 0. -1.
         25    2    1    2    0    0 -0.44085694050E+02 -0.69857907301E+02  0.42657113919E+01  0.14988937995E+03  0.12499981718E+03 0.  0.
          2    1    1    2  501    0  0.42106296794E+02 -0.55851457256E+00 -0.19420005973E+03  0.19871314845E+03  0.00000000000E+00 0. -1.
          1    1    1    2  502    0  0.19793972551E+01  0.70416421873E+02  0.12513440898E+04  0.12533253454E+04  0.00000000000E+00 0. -1.
         22    1    3    3    0    0 -0.13449381760E+02 -0.99988047167E+02  0.22241497454E+02  0.10331108196E+03  0.00000000000E+00 0. -1.
         22    1    3    3    0    0 -0.30636312290E+02  0.30130139866E+02 -0.17975786062E+02  0.46578297990E+02  0.00000000000E+00 0. -1.
</event>
<event>
 7    1  0.5667373E-006  0.2989732E+02  0.7818608E-02  0.1642252E+00
          2   -1    0    0  502    0  0.00000000000E+00  0.00000000000E+00  0.70626538598E+03  0.70626538598E+03  0.00000000000E+00 0. -1.
          1   -1    0    0  501    0 -0.00000000000E+00 -0.00000000000E+00 -0.56052100087E+02  0.56052100087E+02  0.00000000000E+00 0. -1.
         25    2    1    2    0    0  0.18214076970E+02 -0.25010006097E+02  0.10800402498E+03  0.16806679173E+03  0.12499729623E+03 0.  0.
          2    1    1    2  501    0 -0.29965610852E+02  0.49662672355E+01 -0.16832322146E+02  0.34726484314E+02  0.00000000000E+00 0. -1.
          1    1    1    2  502    0  0.11751533882E+02  0.20043738862E+02  0.55904158306E+03  0.55952421003E+03  0.00000000000E+00 0. -1.
         22    1    3    3    0    0  0.50350196554E+02 -0.61027361820E+02  0.78723517426E+02  0.11161036412E+03  0.00000000000E+00 0. -1.
         22    1    3    3    0    0 -0.32136119584E+02  0.36017355723E+02  0.29280507553E+02  0.56456427604E+02  0.00000000000E+00 0. -1.
</event>
<event>
 7    1  0.5667373E-006  0.3460667E+02  0.7818608E-02  0.1562927E+00
          2   -1    0    0  502    0  0.00000000000E+00  0.00000000000E+00  0.14032499980E+04  0.14032499980E+04  0.00000000000E+00 0. -1.
          1   -1    0    0  501    0 -0.00000000000E+00 -0.00000000000E+00 -0.12282919902E+04  0.12282919902E+04  0.00000000000E+00 0. -1.
         25    2    1    2    0    0 -0.36419850966E+02  0.18597121079E+02  0.16902502716E+02  0.13259862113E+03  0.12499776506E+03 0.  0.
          2    1    1    2  501    0  0.28544652224E+02  0.15134304454E+02 -0.11699951048E+04  0.11704411089E+04  0.00000000000E+00 0. -1.
          1    1    1    2  502    0  0.78751987427E+01 -0.33731425533E+02  0.13280506098E+04  0.13285022582E+04  0.00000000000E+00 0. -1.
         22    1    3    3    0    0  0.46187244202E+02  0.12030673697E+02 -0.13382034955E+01  0.47747140492E+02  0.00000000000E+00 0. -1.
         22    1    3    3    0    0 -0.82607095168E+02  0.65664473812E+01  0.18240706211E+02  0.84851480638E+02  0.00000000000E+00 0. -1.
</event>
<event>
 7    1  0.5667373E-006  0.8553475E+02  0.7818608E-02  0.1357769E+00
          2   -1    0    0  502    0  0.00000000000E+00  0.00000000000E+00  0.14465948013E+03  0.14465948013E+03  0.00000000000E+00 0. -1.
          1   -1    0    0  501    0 -0.00000000000E+00 -0.00000000000E+00 -0.26313394972E+04  0.26313394972E+04  0.00000000000E+00 0. -1.
         25    2    1    2    0    0  0.13873160658E+03  0.17157747966E+02 -0.90544523856E+03  0.92466046778E+03  0.12500021469E+03 0.  0.
          2    1    1    2  501    0 -0.54097362678E+02 -0.22049446030E+02 -0.17024321697E+04  0.17034341769E+04  0.00000000000E+00 0. -1.
          1    1    1    2  502    0 -0.84634243897E+02  0.48916980638E+01  0.12119739123E+03  0.14790433257E+03  0.00000000000E+00 0. -1.
         22    1    3    3    0    0  0.18332985120E+02  0.44774949033E+02 -0.45566090021E+03  0.45822238093E+03  0.00000000000E+00 0.  1.
         22    1    3    3    0    0  0.12039862146E+03 -0.27617201067E+02 -0.44978433835E+03  0.46643808685E+03  0.00000000000E+00 0.  1.
</event>
<event>
 7    1  0.5667373E-006  0.8112256E+02  0.7818608E-02  0.1400531E+00
          2   -1    0    0  502    0  0.00000000000E+00  0.00000000000E+00  0.14285914132E+04  0.14285914132E+04  0.00000000000E+00 0. -1.
          1   -1    0    0  501    0 -0.00000000000E+00 -0.00000000000E+00 -0.12079564593E+03  0.12079564593E+03  0.00000000000E+00 0. -1.
         25    2    1    2    0    0  0.50024165652E+02  0.69838273306E+02  0.83155638075E+02  0.17297025879E+03  0.12499619480E+03 0.  0.
          2    1    1    2  501    0 -0.74593632606E+02 -0.34016914734E+02 -0.53268850463E+02  0.97769785430E+02  0.00000000000E+00 0. -1.
          1    1    1    2  502    0  0.24569466954E+02 -0.35821358572E+02  0.12779089797E+04  0.12786470149E+04  0.00000000000E+00 0. -1.
         22    1    3    3    0    0  0.40560111253E+02  0.10138016337E+03  0.87270973183E+02  0.13978298506E+03  0.00000000000E+00 0.  1.
         22    1    3    3    0    0  0.94640543981E+01 -0.31541890069E+02 -0.41153351077E+01  0.33187273732E+02  0.00000000000E+00 0.  1.
</event>
<event>
 7    1  0.5667373E-006  0.4605706E+02  0.7818608E-02  0.1578423E+00
          2   -1    0    0  502    0  0.00000000000E+00  0.00000000000E+00  0.24286088598E+03  0.24286088598E+03  0.00000000000E+00 0. -1.
          1   -1    0    0  501    0 -0.00000000000E+00 -0.00000000000E+00 -0.86449937994E+02  0.86449937994E+02  0.00000000000E+00 0. -1.
         25    2    1    2    0    0 -0.53403251296E+02 -0.78883011922E+01  0.17183979598E+03  0.21924990224E+03  0.12500988604E+03 0.  0.
          2    1    1    2  501    0  0.16114554357E+02 -0.15029099783E+02 -0.49769121389E+02  0.54429019340E+02  0.00000000000E+00 0. -1.
          1    1    1    2  502    0  0.37288696939E+02  0.22917400975E+02  0.34340273406E+02  0.55631902398E+02  0.00000000000E+00 0. -1.
         22    1    3    3    0    0 -0.91456625968E+02 -0.21428499496E+01  0.14796426751E+03  0.17396071597E+03  0.00000000000E+00 0.  1.
         22    1    3    3    0    0  0.38053374672E+02 -0.57454512427E+01  0.23875528461E+02  0.45289186272E+02  0.00000000000E+00 0.  1.
</event>
<event>
 7    1  0.5667373E-006  0.1000452E+03  0.7818608E-02  0.1347207E+00
          2   -1    0    0  502    0  0.00000000000E+00  0.00000000000E+00  0.13303243003E+04  0.13303243003E+04  0.00000000000E+00 0. -1.
          1   -1    0    0  501    0 -0.00000000000E+00 -0.00000000000E+00 -0.78683498701E+03  0.78683498701E+03  0.00000000000E+00 0. -1.
         25    2    1    2    0    0 -0.30246156469E+02 -0.14944786622E+03  0.80180054144E+02  0.21285249166E+03  0.12501138919E+03 0.  0.
          2    1    1    2  501    0  0.27747738678E+02  0.94868604074E+02 -0.71647355994E+03  0.72325953235E+03  0.00000000000E+00 0. -1.
          1    1    1    2  502    0  0.24984177904E+01  0.54579262142E+02  0.11797828191E+04  0.11810472633E+04  0.00000000000E+00 0. -1.
         22    1    3    3    0    0 -0.10377186995E+02 -0.16886493268E+03  0.72221205057E+02  0.18395367340E+03  0.00000000000E+00 0.  1.
         22    1    3    3    0    0 -0.19868969473E+02  0.19417066464E+02  0.79588490874E+01  0.28898818260E+02  0.00000000000E+00 0.  1.
</event>
<event>
 7    1  0.5667373E-006  0.1674923E+03  0.7818608E-02  0.1238070E+00
          2   -1    0    0  502    0  0.00000000000E+00  0.00000000000E+00  0.49551555491E+04  0.49551555491E+04  0.00000000000E+00 0. -1.
          1   -1    0    0  501    0 -0.00000000000E+00 -0.00000000000E+00 -0.27850420536E+03  0.27850420536E+03  0.00000000000E+00 0. -1.
         25    2    1    2    0    0  0.63122241809E+02 -0.63846085834E+02  0.21310363084E+04  0.21365862957E+04  0.12499804469E+03 0.  0.
          2    1    1    2  501    0 -0.67963557626E+02  0.15418920344E+03 -0.24918480851E+03  0.30080961490E+03  0.00000000000E+00 0. -1.
          1    1    1    2  502    0  0.48413158167E+01 -0.90343117606E+02  0.27947998438E+04  0.27962638438E+04  0.00000000000E+00 0. -1.
         22    1    3    3    0    0  0.97776629076E+02 -0.23295763223E+02  0.13672356050E+04  0.13709252939E+04  0.00000000000E+00 0.  1.
         22    1    3    3    0    0 -0.34654387266E+02 -0.40550322611E+02  0.76380070343E+03  0.76566100187E+03  0.00000000000E+00 0.  1.
</event>
<event>
 7    1  0.5667373E-006  0.3970339E+02  0.7818608E-02  0.1552008E+00
          2   -1    0    0  502    0  0.00000000000E+00  0.00000000000E+00  0.11635999117E+04  0.11635999117E+04  0.00000000000E+00 0. -1.
          1   -1    0    0  501    0 -0.00000000000E+00 -0.00000000000E+00 -0.15854923588E+03  0.15854923588E+03  0.00000000000E+00 0. -1.
         25    2    1    2    0    0  0.63341726192E+01  0.32186014927E+02 -0.96957837735E+02  0.16155855014E+03  0.12499712607E+03 0.  0.
          2    1    1    2  501    0  0.22452426427E+02 -0.41271028562E+02 -0.10113279324E+02  0.48059210040E+02  0.00000000000E+00 0. -1.
          1    1    1    2  502    0 -0.28786599046E+02  0.90850136346E+01  0.11121217929E+04  0.11125313874E+04  0.00000000000E+00 0. -1.
         22    1    3    3    0    0  0.55603655717E+02  0.10766369616E+02 -0.73935282332E+01  0.57116945853E+02  0.00000000000E+00 0.  1.
         22    1    3    3    0    0 -0.49269483098E+02  0.21419645312E+02 -0.89564309501E+02  0.10444160429E+03  0.00000000000E+00 0.  1.
</event>
<event>
 7    1  0.5667373E-006  0.1387354E+03  0.7818608E-02  0.1276113E+00
          2   -1    0    0  502    0  0.00000000000E+00  0.00000000000E+00  0.85133983385E+03  0.85133983385E+03  0.00000000000E+00 0. -1.
          1   -1    0    0  501    0 -0.00000000000E+00 -0.00000000000E+00 -0.65461214286E+03  0.65461214286E+03  0.00000000000E+00 0. -1.
         25    2    1    2    0    0 -0.97795556436E+02 -0.17581624795E+03  0.98168504354E+02  0.25639202391E+03  0.12499796309E+03 0.  0.
          2    1    1    2  501    0  0.57416489637E+02  0.48276125555E+02 -0.56636506333E+03  0.57131131841E+03  0.00000000000E+00 0. -1.
          1    1    1    2  502    0  0.40379066799E+02  0.12754012239E+03  0.66492424996E+03  0.67824863439E+03  0.00000000000E+00 0. -1.
         22    1    3    3    0    0 -0.10630974690E+03 -0.12411272621E+03  0.11670205711E+03  0.20081110833E+03  0.00000000000E+00 0.  1.
         22    1    3    3    0    0  0.85141904650E+01 -0.51703521737E+02 -0.18533552757E+02  0.55580915584E+02  0.00000000000E+00 0.  1.
</event>
<event>
 7    1  0.5667373E-006  0.5984545E+02  0.7818608E-02  0.1402598E+00
          2   -1    0    0  502    0  0.00000000000E+00  0.00000000000E+00  0.23514724627E+03  0.23514724627E+03  0.00000000000E+00 0. -1.
          1   -1    0    0  501    0 -0.00000000000E+00 -0.00000000000E+00 -0.35909730640E+03  0.35909730640E+03  0.00000000000E+00 0. -1.
         25    2    1    2    0    0  0.10240960012E+02  0.68355037597E+01 -0.68245657206E+02  0.14294786944E+03  0.12500008910E+03 0.  0.
          2    1    1    2  501    0 -0.11764393488E+02 -0.64743209834E+02 -0.24481941409E+03  0.25350863829E+03  0.00000000000E+00 0. -1.
          1    1    1    2  502    0  0.15234334758E+01  0.57907706074E+02  0.18911501117E+03  0.19778804494E+03  0.00000000000E+00 0. -1.
         22    1    3    3    0    0  0.29606910173E+02  0.56522469459E+02 -0.11065469091E+02  0.64759580680E+02  0.00000000000E+00 0.  1.
         22    1    3    3    0    0 -0.19365950161E+02 -0.49686965699E+02 -0.57180188115E+02  0.78188288758E+02  0.00000000000E+00 0.  1.
</event>
<event>
 7    1  0.5667373E-006  0.8051773E+02  0.7818608E-02  0.1348194E+00
          2   -1    0    0  502    0  0.00000000000E+00  0.00000000000E+00  0.34583849052E+04  0.34583849052E+04  0.00000000000E+00 0. -1.
          1   -1    0    0  501    0 -0.00000000000E+00 -0.00000000000E+00 -0.17737572648E+02  0.17737572648E+02  0.00000000000E+00 0. -1.
         25    2    1    2    0    0 -0.56608537478E+02 -0.12957569848E+03  0.14243152764E+04  0.14367649890E+04  0.12500095576E+03 0.  0.
          2    1    1    2  501    0  0.37598040074E+02  0.65000041870E+02  0.11821961753E+03  0.14005176196E+03  0.00000000000E+00 0. -1.
          1    1    1    2  502    0  0.19010497405E+02  0.64575656610E+02  0.18981124386E+04  0.18993057268E+04  0.00000000000E+00 0. -1.
         22    1    3    3    0    0 -0.35245384960E+02 -0.14751715607E+02  0.95986300797E+02  0.10331127826E+03  0.00000000000E+00 0. -1.
         22    1    3    3    0    0 -0.21363152519E+02 -0.11482398287E+03  0.13283289756E+04  0.13334537108E+04  0.00000000000E+00 0. -1.
</event>
<event>
 7    1  0.5667373E-006  0.6836471E+02  0.7818608E-02  0.1444244E+00
          2   -1    0    0  502    0  0.00000000000E+00  0.00000000000E+00  0.91203607743E+02  0.91203607743E+02  0.00000000000E+00 0. -1.
          1   -1    0    0  501    0 -0.00000000000E+00 -0.00000000000E+00 -0.84530181862E+03  0.84530181862E+03  0.00000000000E+00 0. -1.
         25    2    1    2    0    0  0.77621530322E+02 -0.27446730604E+02 -0.43407499107E+02  0.15584216823E+03  0.12499658167E+03 0.  0.
          2    1    1    2  501    0 -0.67724689615E+02 -0.80677337175E+01 -0.73392358090E+03  0.73708584609E+03  0.00000000000E+00 0. -1.
          1    1    1    2  502    0 -0.98968407079E+01  0.35514464322E+02  0.23232869128E+02  0.43577412039E+02  0.00000000000E+00 0. -1.
         22    1    3    3    0    0  0.43779807216E+02 -0.19404119247E+02 -0.87460266045E+02  0.99712032876E+02  0.00000000000E+00 0. -1.
         22    1    3    3    0    0  0.33841723107E+02 -0.80426113569E+01  0.44052766938E+02  0.56130135357E+02  0.00000000000E+00 0. -1.
</event>
<event>
 7    1  0.5667373E-006  0.7188541E+02  0.7818608E-02  0.1374520E+00
          2   -1    0    0  502    0  0.00000000000E+00  0.00000000000E+00  0.21851677230E+03  0.21851677230E+03  0.00000000000E+00 0. -1.
          1   -1    0    0  501    0 -0.00000000000E+00 -0.00000000000E+00 -0.30188880693E+03  0.30188880693E+03  0.00000000000E+00 0. -1.
         25    2    1    2    0    0 -0.85819351011E+01  0.62781455994E+02 -0.13138507078E+03  0.19210077317E+03  0.12500203759E+03 0.  0.
          2    1    1    2  501    0  0.66965114310E+02 -0.47065292953E+02 -0.12253441702E+03  0.14735722476E+03  0.00000000000E+00 0. -1.
          1    1    1    2  502    0 -0.58383179209E+02 -0.15716163041E+02  0.17054745317E+03  0.18094758130E+03  0.00000000000E+00 0. -1.
         22    1    3    3    0    0 -0.37238528421E+02 -0.21477951781E+02 -0.75882403359E+02  0.87213241834E+02  0.00000000000E+00 0. -1.
         22    1    3    3    0    0  0.28656593320E+02  0.84259407775E+02 -0.55502667424E+02  0.10488753134E+03  0.00000000000E+00 0. -1.
</event>
<event>
 7    1  0.5667373E-006  0.1107885E+03  0.7818608E-02  0.1296971E+00
          2   -1    0    0  502    0  0.00000000000E+00  0.00000000000E+00  0.92268742139E+03  0.92268742139E+03  0.00000000000E+00 0. -1.
          1   -1    0    0  501    0 -0.00000000000E+00 -0.00000000000E+00 -0.62963717820E+03  0.62963717820E+03  0.00000000000E+00 0. -1.
         25    2    1    2    0    0 -0.17261093481E+03  0.52329904115E+02 -0.10754923036E+03  0.24437845023E+03  0.12498414421E+03 0.  0.
          2    1    1    2  501    0  0.96218451126E+02 -0.41295257216E+02 -0.44585253389E+03  0.45798228195E+03  0.00000000000E+00 0. -1.
          1    1    1    2  502    0  0.76392483687E+02 -0.11034646899E+02  0.84645200744E+03  0.84996386741E+03  0.00000000000E+00 0. -1.
         22    1    3    3    0    0 -0.11907358906E+03  0.60281511402E+02 -0.11281939890E+02  0.13393902491E+03  0.00000000000E+00 0.  1.
         22    1    3    3    0    0 -0.53537345757E+02 -0.79516072877E+01 -0.96267290467E+02  0.11043942531E+03  0.00000000000E+00 0.  1.
</event>
<event>
 7    1  0.5667373E-006  0.1974566E+03  0.7818608E-02  0.1266164E+00
          2   -1    0    0  502    0  0.00000000000E+00  0.00000000000E+00  0.84128118767E+03  0.84128118767E+03  0.00000000000E+00 0. -1.
          1   -1    0    0  501    0 -0.00000000000E+00 -0.00000000000E+00 -0.98624714330E+03  0.98624714330E+03  0.00000000000E+00 0. -1.
         25    2    1    2    0    0  0.80222628253E+01 -0.25040931167E+03 -0.19636966178E+01  0.27999527241E+03  0.12499726555E+03 0.  0.
          2    1    1    2  501    0 -0.14231140006E+02  0.19272394845E+03 -0.83298889977E+03  0.85511142712E+03  0.00000000000E+00 0. -1.
          1    1    1    2  502    0  0.62088771807E+01  0.57685363217E+02  0.68998664075E+03  0.69242163144E+03  0.00000000000E+00 0. -1.
         22    1    3    3    0    0  0.34611189678E+01 -0.59876879165E+02 -0.55832094452E+02  0.81941703509E+02  0.00000000000E+00 0. -1.
         22    1    3    3    0    0  0.45611438575E+01 -0.19053243250E+03  0.53868397834E+02  0.19805356890E+03  0.00000000000E+00 0. -1.
</event>
<event>
 7    1  0.5667373E-006  0.1862913E+03  0.7818608E-02  0.1287993E+00
          2   -1    0    0  502    0  0.00000000000E+00  0.00000000000E+00  0.43789271801E+02  0.43789271801E+02  0.00000000000E+00 0. -1.
          1   -1    0    0  501    0 -0.00000000000E+00 -0.00000000000E+00 -0.13018808282E+04  0.13018808282E+04  0.00000000000E+00 0. -1.
         25    2    1    2    0    0  0.14731907769E+03  0.47652192566E+02 -0.35971673295E+03  0.41109122084E+03  0.12500488703E+03 0.  0.
          2    1    1    2  501    0 -0.18602114121E+03 -0.79170174851E+02 -0.78663028050E+03  0.81219392990E+03  0.00000000000E+00 0. -1.
          1    1    1    2  502    0  0.38702063511E+02  0.31517982285E+02 -0.11174454300E+03  0.12238494931E+03  0.00000000000E+00 0. -1.
         22    1    3    3    0    0  0.27557161800E+02  0.71552150510E+02 -0.14775615559E+03  0.16646617952E+03  0.00000000000E+00 0. -1.
         22    1    3    3    0    0  0.11976191589E+03 -0.23899957945E+02 -0.21196057735E+03  0.24462504132E+03  0.00000000000E+00 0. -1.
</event>
<event>
 7    1  0.5667373E-006  0.3441663E+02  0.7818608E-02  0.1555221E+00
          2   -1    0    0  502    0  0.00000000000E+00  0.00000000000E+00  0.28696261897E+03  0.28696261897E+03  0.00000000000E+00 0. -1.
          1   -1    0    0  501    0 -0.00000000000E+00 -0.00000000000E+00 -0.11370509776E+03  0.11370509776E+03  0.00000000000E+00 0. -1.
         25    2    1    2    0    0 -0.18632596831E+01  0.38029511021E+01 -0.14811476261E+02  0.12594516661E+03  0.12499948396E+03 0.  0.
          2    1    1    2  501    0  0.30612438361E+02  0.15728415453E+02 -0.34926753271E+02  0.49034503456E+02  0.00000000000E+00 0. -1.
          1    1    1    2  502    0 -0.28749178678E+02 -0.19531366555E+02  0.22299575075E+03  0.22568804666E+03  0.00000000000E+00 0. -1.
         22    1    3    3    0    0 -0.31449372416E+02  0.28625386771E+02  0.40340446240E+02  0.58615931247E+02  0.00000000000E+00 0.  1.
         22    1    3    3    0    0  0.29586112733E+02 -0.24822435669E+02 -0.55151922502E+02  0.67329235364E+02  0.00000000000E+00 0.  1.
</event>
<event>
 7    1  0.5667373E-006  0.4590659E+02  0.7818608E-02  0.1481695E+00
          2   -1    0    0  502    0  0.00000000000E+00  0.00000000000E+00  0.67864254049E+02  0.67864254049E+02  0.00000000000E+00 0. -1.
          1   -1    0    0  501    0 -0.00000000000E+00 -0.00000000000E+00 -0.24216919337E+04  0.24216919337E+04  0.00000000000E+00 0. -1.
         25    2    1    2    0    0  0.57614399370E+02 -0.65410488325E+02 -0.93726303703E+03  0.94957163701E+03  0.12500536888E+03 0.  0.
          2    1    1    2  501    0 -0.30047347322E+02  0.29162862399E+02 -0.14695340491E+04  0.14701304830E+04  0.00000000000E+00 0. -1.
          1    1    1    2  502    0 -0.27567052048E+02  0.36247625927E+02  0.52969406519E+02  0.69854067677E+02  0.00000000000E+00 0. -1.
         22    1    3    3    0    0 -0.19845027001E+02 -0.71853679338E+02 -0.43967067604E+03  0.44594515324E+03  0.00000000000E+00 0.  1.
         22    1    3    3    0    0  0.77459426371E+02  0.64431910127E+01 -0.49759236099E+03  0.50362648377E+03  0.00000000000E+00 0.  1.
</event>
<event>
 7    1  0.5667373E-006  0.1610072E+03  0.7818608E-02  0.1347312E+00
          2   -1    0    0  502    0  0.00000000000E+00  0.00000000000E+00  0.13473794442E+04  0.13473794442E+04  0.00000000000E+00 0. -1.
          1   -1    0    0  501    0 -0.00000000000E+00 -0.00000000000E+00 -0.24713055673E+03  0.24713055673E+03  0.00000000000E+00 0. -1.
         25    2    1    2    0    0  0.48067485907E+02  0.14833555590E+03  0.25366150347E+03  0.32292934368E+03  0.12500112928E+03 0.  0.
          2    1    1    2  501    0  0.33057226943E+02 -0.75963742679E+01 -0.20486481804E+03  0.20765374744E+03  0.00000000000E+00 0. -1.
          1    1    1    2  502    0 -0.81124712850E+02 -0.14073918163E+03  0.10514522021E+04  0.10639269099E+04  0.00000000000E+00 0. -1.
         22    1    3    3    0    0  0.18447337120E+02 -0.33166186475E+01 -0.69199974397E+01  0.19979754019E+02  0.00000000000E+00 0. -1.
         22    1    3    3    0    0  0.29620148786E+02  0.15165217455E+03  0.26058150091E+03  0.30294958966E+03  0.00000000000E+00 0. -1.
</event>
<event>
 7    1  0.5667373E-006  0.5228489E+02  0.7818608E-02  0.1490126E+00
          2   -1    0    0  502    0  0.00000000000E+00  0.00000000000E+00  0.78727888063E+02  0.78727888063E+02  0.00000000000E+00 0. -1.
          1   -1    0    0  501    0 -0.00000000000E+00 -0.00000000000E+00 -0.17027841977E+04  0.17027841977E+04  0.00000000000E+00 0. -1.
         25    2    1    2    0    0  0.16017471160E+02 -0.10640246575E+02 -0.27629282455E+03  0.30386237224E+03  0.12499936853E+03 0.  0.
          2    1    1    2  501    0  0.32493063871E+02 -0.12050959604E+02 -0.14014147812E+04  0.14018432202E+04  0.00000000000E+00 0. -1.
          1    1    1    2  502    0 -0.48510535030E+02  0.22691206179E+02  0.53651296196E+02  0.75806493325E+02  0.00000000000E+00 0. -1.
         22    1    3    3    0    0  0.63845816042E+02 -0.34859678121E+02 -0.15258602325E+03  0.16903839764E+03  0.00000000000E+00 0. -1.
         22    1    3    3    0    0 -0.47828344883E+02  0.24219431546E+02 -0.12370680130E+03  0.13482397460E+03  0.00000000000E+00 0. -1.
</event>
<event>
 7    1  0.5667373E-006  0.1299507E+03  0.7818608E-02  0.1288246E+00
          2   -1    0    0  502    0  0.00000000000E+00  0.00000000000E+00  0.36789204355E+03  0.36789204355E+03  0.00000000000E+00 0. -1.
          1   -1    0    0  501    0 -0.00000000000E+00 -0.00000000000E+00 -0.76704265121E+03  0.76704265121E+03  0.00000000000E+00 0. -1.
         25    2    1    2    0    0 -0.42455180874E+02 -0.56131279384E+02 -0.32097079827E+03  0.35156735108E+03  0.12499674435E+03 0.  0.
          2    1    1    2  501    0 -0.70096074414E+02 -0.13488952427E+02 -0.41520116140E+03  0.42129255383E+03  0.00000000000E+00 0. -1.
          1    1    1    2  502    0  0.11255125529E+03  0.69620231811E+02  0.33702135200E+03  0.36207478986E+03  0.00000000000E+00 0. -1.
         22    1    3    3    0    0 -0.58849896008E+02 -0.63390903658E+02 -0.32218720140E+03  0.33359602766E+03  0.00000000000E+00 0. -1.
         22    1    3    3    0    0  0.16394715134E+02  0.72596242743E+01  0.12164031290E+01  0.17971323421E+02  0.00000000000E+00 0. -1.
</event>
<event>
 7    1  0.5667373E-006  0.1321591E+03  0.7818608E-02  0.1321088E+00
          2   -1    0    0  502    0  0.00000000000E+00  0.00000000000E+00  0.71435100954E+03  0.71435100954E+03  0.00000000000E+00 0. -1.
          1   -1    0    0  501    0 -0.00000000000E+00 -0.00000000000E+00 -0.10267687995E+03  0.10267687995E+03  0.00000000000E+00 0. -1.
         25    2    1    2    0    0 -0.11335552837E+03 -0.27053829858E+02  0.10510781381E+03  0.20063294712E+03  0.12499816568E+03 0.  0.
          2    1    1    2  501    0  0.23271690153E+01 -0.51916126599E+02 -0.31887041809E+02  0.60971168203E+02  0.00000000000E+00 0. -1.
          1    1    1    2  502    0  0.11102835935E+03  0.78969956457E+02  0.53845335759E+03  0.55542377417E+03  0.00000000000E+00 0. -1.
         22    1    3    3    0    0 -0.85258929138E+02  0.31541874151E+02  0.10045744428E+03  0.13548310941E+03  0.00000000000E+00 0.  1.
         22    1    3    3    0    0 -0.28096599232E+02 -0.58595704009E+02  0.46503695221E+01  0.65149837709E+02  0.00000000000E+00 0.  1.
</event>
<event>
 7    1  0.5667373E-006  0.7362477E+02  0.7818608E-02  0.1461168E+00
          2   -1    0    0  502    0  0.00000000000E+00  0.00000000000E+00  0.68967954005E+03  0.68967954005E+03  0.00000000000E+00 0. -1.
          1   -1    0    0  501    0 -0.00000000000E+00 -0.00000000000E+00 -0.11564937355E+03  0.11564937355E+03  0.00000000000E+00 0. -1.
         25    2    1    2    0    0 -0.34311724939E+02 -0.74773716556E+02  0.22491109771E+03  0.27014427424E+03  0.12499809550E+03 0.  0.
          2    1    1    2  501    0  0.30183703746E+02  0.17621574920E+01 -0.87452050527E+02  0.92531196427E+02  0.00000000000E+00 0. -1.
          1    1    1    2  502    0  0.41280211935E+01  0.73011559064E+02  0.43657111932E+03  0.44265344294E+03  0.00000000000E+00 0. -1.
         22    1    3    3    0    0 -0.47969288231E+02  0.51582819829E+01  0.24841086678E+02  0.54265459307E+02  0.00000000000E+00 0. -1.
         22    1    3    3    0    0  0.13657563292E+02 -0.79931998539E+02  0.20007001103E+03  0.21587881494E+03  0.00000000000E+00 0. -1.
</event>
<event>
 7    1  0.5667373E-006  0.4258085E+02  0.7818608E-02  0.1511041E+00
          2   -1    0    0  502    0  0.00000000000E+00  0.00000000000E+00  0.59506865607E+03  0.59506865607E+03  0.00000000000E+00 0. -1.
          1   -1    0    0  501    0 -0.00000000000E+00 -0.00000000000E+00 -0.12819724342E+03  0.12819724342E+03  0.00000000000E+00 0. -1.
         25    2    1    2    0    0  0.57251693713E+02 -0.12560163172E+02  0.46302491864E+03  0.48316892250E+03  0.12499847301E+03 0.  0.
          2    1    1    2  501    0 -0.38106922820E+02 -0.18939628799E+02 -0.11131940957E+03  0.11917574439E+03  0.00000000000E+00 0. -1.
          1    1    1    2  502    0 -0.19144770893E+02  0.31499791971E+02  0.11516590358E+03  0.12092123260E+03  0.00000000000E+00 0. -1.
         22    1    3    3    0    0 -0.19610102186E+02 -0.60357458656E-01  0.31761979059E+03  0.31822459227E+03  0.00000000000E+00 0. -1.
         22    1    3    3    0    0  0.76861795899E+02 -0.12499805713E+02  0.14540512805E+03  0.16494433023E+03  0.00000000000E+00 0. -1.
</event>
<event>
 7    1  0.5667373E-006  0.1116860E+03  0.7818608E-02  0.1428367E+00
          2   -1    0    0  502    0  0.00000000000E+00  0.00000000000E+00  0.20667397990E+03  0.20667397990E+03  0.00000000000E+00 0. -1.
          1   -1    0    0  501    0 -0.00000000000E+00 -0.00000000000E+00 -0.77498908793E+03  0.77498908793E+03  0.00000000000E+00 0. -1.
         25    2    1    2    0    0 -0.50967156712E+02 -0.76328292707E+02 -0.24611790804E+02  0.15702310498E+03  0.12500742346E+03 0.  0.
          2    1    1    2  501    0 -0.11338500660E+02 -0.22757925829E+02 -0.65950121498E+03  0.65999116460E+03  0.00000000000E+00 0. -1.
          1    1    1    2  502    0  0.62305657372E+02  0.99086218536E+02  0.11579789775E+03  0.16464879826E+03  0.00000000000E+00 0. -1.
         22    1    3    3    0    0 -0.89874983772E+02 -0.69880314774E+02 -0.28601809020E+02  0.11738328067E+03  0.00000000000E+00 0. -1.
         22    1    3    3    0    0  0.38907827061E+02 -0.64479779338E+01  0.39900182158E+01  0.39639824311E+02  0.00000000000E+00 0. -1.
</event>
<event>
 7    1  0.5667373E-006  0.1417512E+03  0.7818608E-02  0.1245642E+00
          2   -1    0    0  502    0  0.00000000000E+00  0.00000000000E+00  0.20499701572E+04  0.20499701572E+04  0.00000000000E+00 0. -1.
          1   -1    0    0  501    0 -0.00000000000E+00 -0.00000000000E+00 -0.32070575062E+03  0.32070575062E+03  0.00000000000E+00 0. -1.
         25    2    1    2    0    0  0.12429310811E+03 -0.41131485627E+02 -0.71832848950E+02  0.19474564186E+03  0.12500132400E+03 0.  0.
          2    1    1    2  501    0 -0.86936525462E+02  0.13282670415E+03 -0.15232007198E+03  0.22000522067E+03  0.00000000000E+00 0. -1.
          1    1    1    2  502    0 -0.37356582645E+02 -0.91695218525E+02  0.19534173275E+04  0.19559250453E+04  0.00000000000E+00 0. -1.
         22    1    3    3    0    0  0.62306515882E+02 -0.37130221404E+02  0.27517456248E+02  0.77575548088E+02  0.00000000000E+00 0. -1.
         22    1    3    3    0    0  0.61986592225E+02 -0.40012642236E+01 -0.99350305198E+02  0.11717009377E+03  0.00000000000E+00 0. -1.
</event>
<event>
 7    1  0.5667373E-006  0.1406752E+03  0.7818608E-02  0.1382828E+00
          2   -1    0    0  502    0  0.00000000000E+00  0.00000000000E+00  0.13494682446E+04  0.13494682446E+04  0.00000000000E+00 0. -1.
          1   -1    0    0  501    0 -0.00000000000E+00 -0.00000000000E+00 -0.26421393879E+03  0.26421393879E+03  0.00000000000E+00 0. -1.
         25    2    1    2    0    0 -0.13094628988E+02  0.11808851891E+03 -0.31299102417E+02  0.17527504162E+03  0.12500135517E+03 0.  0.
          2    1    1    2  501    0  0.16895218328E+02  0.23407657676E+02 -0.15567486409E+03  0.15832886708E+03  0.00000000000E+00 0. -1.
          1    1    1    2  502    0 -0.38005893404E+01 -0.14149617659E+03  0.12722282723E+04  0.12800782747E+04  0.00000000000E+00 0. -1.
         22    1    3    3    0    0  0.44155834690E+02  0.31653341016E+02  0.22103930016E+02  0.58653690905E+02  0.00000000000E+00 0. -1.
         22    1    3    3    0    0 -0.57250463677E+02  0.86435177893E+02 -0.53403032433E+02  0.11662135071E+03  0.00000000000E+00 0. -1.
</event>
<event>
 7    1  0.5667373E-006  0.7022333E+02  0.7818608E-02  0.1410889E+00
          2   -1    0    0  502    0  0.00000000000E+00  0.00000000000E+00  0.98922918557E+03  0.98922918557E+03  0.00000000000E+00 0. -1.
          1   -1    0    0  501    0 -0.00000000000E+00 -0.00000000000E+00 -0.47837275913E+03  0.47837275913E+03  0.00000000000E+00 0. -1.
         25    2    1    2    0    0  0.59479217293E+02 -0.97429062220E+02  0.35846198523E+03  0.39642565170E+03  0.12501241145E+03 0.  0.
          2    1    1    2  501    0 -0.45046828297E+02  0.53478099416E+02 -0.45584686480E+03  0.46117836897E+03  0.00000000000E+00 0. -1.
          1    1    1    2  502    0 -0.14432388996E+02  0.43950962804E+02  0.60824130601E+03  0.60999792403E+03  0.00000000000E+00 0. -1.
         22    1    3    3    0    0 -0.10440643945E+02 -0.87620302953E+02  0.26491753280E+03  0.27922683202E+03  0.00000000000E+00 0.  1.
         22    1    3    3    0    0  0.69919861238E+02 -0.98087592674E+01  0.93544452434E+02  0.11719881968E+03  0.00000000000E+00 0.  1.
</event>
<event>
 7    1  0.5667373E-006  0.9819274E+02  0.7818608E-02  0.1433174E+00
          2   -1    0    0  502    0  0.00000000000E+00  0.00000000000E+00  0.19719411361E+04  0.19719411361E+04  0.00000000000E+00 0. -1.
          1   -1    0    0  501    0 -0.00000000000E+00 -0.00000000000E+00 -0.76217591791E+02  0.76217591791E+02  0.00000000000E+00 0. -1.
         25    2    1    2    0    0  0.10574721162E+03 -0.39996584921E+02  0.45256931466E+03  0.48293026379E+03  0.12498182087E+03 0.  0.
          2    1    1    2  501    0 -0.98435418671E+01  0.26091189931E+02 -0.56204028361E+02  0.62741838613E+02  0.00000000000E+00 0. -1.
          1    1    1    2  502    0 -0.95903669757E+02  0.13905394990E+02  0.14993582580E+04  0.15024866255E+04  0.00000000000E+00 0. -1.
         22    1    3    3    0    0  0.13857707580E+02  0.14826923704E+02  0.26556096997E+01  0.20467681568E+02  0.00000000000E+00 0.  1.
         22    1    3    3    0    0  0.91889504045E+02 -0.54823508625E+02  0.44991370496E+03  0.46246258223E+03  0.00000000000E+00 0.  1.
</event>
<event>
 7    1  0.5667373E-006  0.2347146E+03  0.7818608E-02  0.1198325E+00
          2   -1    0    0  502    0  0.00000000000E+00  0.00000000000E+00  0.58082295347E+03  0.58082295347E+03  0.00000000000E+00 0. -1.
          1   -1    0    0  501    0 -0.00000000000E+00 -0.00000000000E+00 -0.81808061366E+03  0.81808061366E+03  0.00000000000E+00 0. -1.
         25    2    1    2    0    0 -0.58294815494E+02 -0.15117831281E+03  0.14456838058E+03  0.25055549964E+03  0.12499949582E+03 0.  0.
          2    1    1    2  501    0  0.20186806311E+02  0.24160158702E+03 -0.73909786124E+03  0.77784605321E+03  0.00000000000E+00 0. -1.
          1    1    1    2  502    0  0.38108009183E+02 -0.90423274213E+02  0.35727182048E+03  0.37050201429E+03  0.00000000000E+00 0. -1.
         22    1    3    3    0    0 -0.86188041921E+02 -0.10961507369E+03  0.14406760619E+03  0.20049767605E+03  0.00000000000E+00 0.  1.
         22    1    3    3    0    0  0.27893226427E+02 -0.41563239124E+02  0.50077439405E+00  0.50057823584E+02  0.00000000000E+00 0.  1.
</event>
<event>
 7    1  0.5667373E-006  0.4970795E+02  0.7818608E-02  0.1450012E+00
          2   -1    0    0  502    0  0.00000000000E+00  0.00000000000E+00  0.23148403079E+04  0.23148403079E+04  0.00000000000E+00 0. -1.
          1   -1    0    0  501    0 -0.00000000000E+00 -0.00000000000E+00 -0.24261228054E+04  0.24261228054E+04  0.00000000000E+00 0. -1.
         25    2    1    2    0    0  0.27604387646E+02  0.33233538682E+02  0.53444455972E+03  0.55056540677E+03  0.12499923758E+03 0.  0.
          2    1    1    2  501    0  0.19326377738E+02 -0.45812315666E+02 -0.24174736974E+04  0.24179849782E+04  0.00000000000E+00 0. -1.
          1    1    1    2  502    0 -0.46930765384E+02  0.12578776984E+02  0.17717466402E+04  0.17724127283E+04  0.00000000000E+00 0. -1.
         22    1    3    3    0    0 -0.34015378504E+00  0.66880379691E+02  0.45488916281E+03  0.45977956820E+03  0.00000000000E+00 0.  1.
         22    1    3    3    0    0  0.27944541431E+02 -0.33646841010E+02  0.79555396917E+02  0.90785838567E+02  0.00000000000E+00 0.  1.
</event>
<event>
 7    1  0.5667373E-006  0.4497687E+02  0.7818608E-02  0.1532362E+00
          2   -1    0    0  502    0  0.00000000000E+00  0.00000000000E+00  0.41425104666E+03  0.41425104666E+03  0.00000000000E+00 0. -1.
          1   -1    0    0  501    0 -0.00000000000E+00 -0.00000000000E+00 -0.53324291254E+02  0.53324291254E+02  0.00000000000E+00 0. -1.
         25    2    1    2    0    0  0.28959354634E+02  0.64517284876E+02  0.22204311687E+03  0.26444103217E+03  0.12499915790E+03 0.  0.
          2    1    1    2  501    0 -0.57569548483E+01 -0.29718161385E+02 -0.21666510477E+02  0.37225654077E+02  0.00000000000E+00 0. -1.
          1    1    1    2  502    0 -0.23202399785E+02 -0.34799123492E+02  0.16055014901E+03  0.16590865167E+03  0.00000000000E+00 0. -1.
         22    1    3    3    0    0  0.69324994844E+02  0.32192178673E+02  0.69272504728E+02  0.10315508320E+03  0.00000000000E+00 0. -1.
         22    1    3    3    0    0 -0.40365640210E+02  0.32325106203E+02  0.15277061214E+03  0.16128594897E+03  0.00000000000E+00 0. -1.
</event>
<event>
 7    1  0.5667373E-006  0.2892612E+02  0.7818608E-02  0.1631290E+00
          2   -1    0    0  502    0  0.00000000000E+00  0.00000000000E+00  0.27787817222E+03  0.27787817222E+03  0.00000000000E+00 0. -1.
          1   -1    0    0  501    0 -0.00000000000E+00 -0.00000000000E+00 -0.15783793676E+04  0.15783793676E+04  0.00000000000E+00 0. -1.
         25    2    1    2    0    0 -0.45486182562E+02 -0.45920545727E+01 -0.33711675923E+03  0.36244018997E+03  0.12500040873E+03 0.  0.
          2    1    1    2  501    0  0.26115926956E+02 -0.12107020120E+02 -0.12278152654E+04  0.12281526564E+04  0.00000000000E+00 0. -1.
          1    1    1    2  502    0  0.19370255606E+02  0.16699074692E+02  0.26443082922E+03  0.26566469344E+03  0.00000000000E+00 0. -1.
         22    1    3    3    0    0 -0.52793811605E+02 -0.76815821341E+01 -0.34625357122E+03  0.35033944801E+03  0.00000000000E+00 0. -1.
         22    1    3    3    0    0  0.73076290427E+01  0.30895275614E+01  0.91368119885E+01  0.12100741965E+02  0.00000000000E+00 0. -1.
</event>
<event>
 7    1  0.5667373E-006  0.5503983E+02  0.7818608E-02  0.1430098E+00
          2   -1    0    0  502    0  0.00000000000E+00  0.00000000000E+00  0.13393601124E+04  0.13393601124E+04  0.00000000000E+00 0. -1.
          1   -1    0    0  501    0 -0.00000000000E+00 -0.00000000000E+00 -0.15460820216E+04  0.15460820216E+04  0.00000000000E+00 0. -1.
         25    2    1    2    0    0 -0.21334516703E+01 -0.96120296809E+01  0.51574602475E+01  0.12549471867E+03  0.12500152914E+03 0.  0.
          2    1    1    2  501    0  0.41350004045E+02 -0.29717227259E+02 -0.14848714469E+04  0.14857443085E+04  0.00000000000E+00 0. -1.
          1    1    1    2  502    0 -0.39216552375E+02  0.39329256939E+02  0.12729920774E+04  0.12742031068E+04  0.00000000000E+00 0. -1.
         22    1    3    3    0    0  0.59657027667E+02 -0.17596982594E+02  0.10023638270E+02  0.63000698970E+02  0.00000000000E+00 0. -1.
         22    1    3    3    0    0 -0.61790479337E+02  0.79849529136E+01 -0.48661780227E+01  0.62494019700E+02  0.00000000000E+00 0. -1.
</event>
<event>
 7    1  0.5667373E-006  0.1538824E+03  0.7818608E-02  0.1240215E+00
          2   -1    0    0  502    0  0.00000000000E+00  0.00000000000E+00  0.80185747104E+03  0.80185747104E+03  0.00000000000E+00 0. -1.
          1   -1    0    0  501    0 -0.00000000000E+00 -0.00000000000E+00 -0.20483670743E+03  0.20483670743E+03  0.00000000000E+00 0. -1.
         25    2    1    2    0    0  0.13024933637E+03  0.99710912063E+01  0.11722051780E+03  0.21547823309E+03  0.12500362737E+03 0.  0.
          2    1    1    2  501    0 -0.14185565416E+03  0.85676842214E+02 -0.10653913376E+03  0.19701303239E+03  0.00000000000E+00 0. -1.
          1    1    1    2  502    0  0.11606317788E+02 -0.95647933420E+02  0.58633937957E+03  0.59420291299E+03  0.00000000000E+00 0. -1.
         22    1    3    3    0    0  0.68259836256E+02  0.65690787711E+02  0.43668895463E+02  0.10431518234E+03  0.00000000000E+00 0. -1.
         22    1    3    3    0    0  0.61989500117E+02 -0.55719696505E+02  0.73551622341E+02  0.11116305075E+03  0.00000000000E+00 0. -1.
</event>
<event>
 7    1  0.5667373E-006  0.5791535E+02  0.7818608E-02  0.1501417E+00
          2   -1    0    0  502    0  0.00000000000E+00  0.00000000000E+00  0.10230397829E+04  0.10230397829E+04  0.00000000000E+00 0. -1.
          1   -1    0    0  501    0 -0.00000000000E+00 -0.00000000000E+00 -0.16455192459E+04  0.16455192459E+04  0.00000000000E+00 0. -1.
         25    2    1    2    0    0 -0.20699616412E+02 -0.29202744018E+02  0.28533691214E+03  0.31356642128E+03  0.12500189098E+03 0.  0.
          2    1    1    2  501    0  0.44385754326E+01 -0.28595496163E+02 -0.16300302976E+04  0.16302871447E+04  0.00000000000E+00 0. -1.
          1    1    1    2  502    0  0.16261040979E+02  0.57798240181E+02  0.72221392245E+03  0.72470546280E+03  0.00000000000E+00 0. -1.
         22    1    3    3    0    0  0.43982192795E+02  0.10766647378E+01  0.18654680170E+03  0.19166455519E+03  0.00000000000E+00 0.  1.
         22    1    3    3    0    0 -0.64681809207E+02 -0.30279408755E+02  0.98790110433E+02  0.12190186609E+03  0.00000000000E+00 0.  1.
</event>
<event>
 7    1  0.5667373E-006  0.1313647E+03  0.7818608E-02  0.1286086E+00
          2   -1    0    0  502    0  0.00000000000E+00  0.00000000000E+00  0.74764842007E+03  0.74764842007E+03  0.00000000000E+00 0. -1.
          1   -1    0    0  501    0 -0.00000000000E+00 -0.00000000000E+00 -0.39158589256E+03  0.39158589256E+03  0.00000000000E+00 0. -1.
         25    2    1    2    0    0  0.99219825669E+02 -0.32002058646E+02  0.12358097439E+03  0.20438795475E+03  0.12503388841E+03 0.  0.
          2    1    1    2  501    0 -0.86818957886E+02  0.10299077008E+03 -0.33590630044E+03  0.36190837631E+03  0.00000000000E+00 0. -1.
          1    1    1    2  502    0 -0.12400867783E+02 -0.70988711430E+02  0.56838785355E+03  0.57293798158E+03  0.00000000000E+00 0. -1.
         22    1    3    3    0    0  0.87728862926E+02 -0.39989750198E+02  0.18242586087E+02  0.98124030993E+02  0.00000000000E+00 0.  1.
         22    1    3    3    0    0  0.11490962744E+02  0.79876915519E+01  0.10533838830E+03  0.10626392375E+03  0.00000000000E+00 0.  1.
</event>
<event>
 7    1  0.5667373E-006  0.2980907E+03  0.7818608E-02  0.1185696E+00
          2   -1    0    0  502    0  0.00000000000E+00  0.00000000000E+00  0.11677981604E+04  0.11677981604E+04  0.00000000000E+00 0. -1.
          1   -1    0    0  501    0 -0.00000000000E+00 -0.00000000000E+00 -0.75325073539E+03  0.75325073539E+03  0.00000000000E+00 0. -1.
         25    2    1    2    0    0 -0.28164858000E+03  0.22761594179E+03  0.34369152757E+02  0.38463002000E+03  0.12499629615E+03 0.  0.
          2    1    1    2  501    0  0.29182623525E+02 -0.83855600922E+02 -0.55247420352E+03  0.55956334126E+03  0.00000000000E+00 0. -1.
          1    1    1    2  502    0  0.25246595648E+03 -0.14376034087E+03  0.93265247572E+03  0.97685553449E+03  0.00000000000E+00 0. -1.
         22    1    3    3    0    0 -0.17474401860E+03  0.62659207897E+02  0.36429913681E+01  0.18567423019E+03  0.00000000000E+00 0.  1.
         22    1    3    3    0    0 -0.10690456141E+03  0.16495673390E+03  0.30726161389E+02  0.19895578982E+03  0.00000000000E+00 0.  1.
</event>
<event>
 7    1  0.5667373E-006  0.1804311E+03  0.7818608E-02  0.1352817E+00
          2   -1    0    0  502    0  0.00000000000E+00  0.00000000000E+00  0.32493064541E+03  0.32493064541E+03  0.00000000000E+00 0. -1.
          1   -1    0    0  501    0 -0.00000000000E+00 -0.00000000000E+00 -0.15032272674E+04  0.15032272674E+04  0.00000000000E+00 0. -1.
         25    2    1    2    0    0  0.99754745449E+01  0.15980992249E+03 -0.92104100752E+02  0.22304107433E+03  0.12500173617E+03 0.  0.
          2    1    1    2  501    0  0.17588681927E+02  0.22904942131E+02 -0.13125763896E+04  0.13128940462E+04  0.00000000000E+00 0. -1.
          1    1    1    2  502    0 -0.27564156471E+02 -0.18271486462E+03  0.22638386833E+03  0.29222279226E+03  0.00000000000E+00 0. -1.
         22    1    3    3    0    0  0.49597053728E+02  0.68156009151E+02  0.40911388464E+01  0.84391034707E+02  0.00000000000E+00 0.  1.
         22    1    3    3    0    0 -0.39621579183E+02  0.91653913338E+02 -0.96195239598E+02  0.13865003963E+03  0.00000000000E+00 0.  1.
</event>
<event>
 7    1  0.5667373E-006  0.1585115E+03  0.7818608E-02  0.1314033E+00
          2   -1    0    0  502    0  0.00000000000E+00  0.00000000000E+00  0.33935017694E+03  0.33935017694E+03  0.00000000000E+00 0. -1.
          1   -1    0    0  501    0 -0.00000000000E+00 -0.00000000000E+00 -0.18608984532E+04  0.18608984532E+04  0.00000000000E+00 0. -1.
         25    2    1    2    0    0 -0.39302170837E+02 -0.12833749347E+03 -0.83351356453E+03  0.85345525094E+03  0.12500332091E+03 0.  0.
          2    1    1    2  501    0  0.68573641596E+02  0.16402782809E+03 -0.10079784970E+04  0.10235370649E+04  0.00000000000E+00 0. -1.
          1    1    1    2  502    0 -0.29271470759E+02 -0.35690334621E+02  0.31994378531E+03  0.32325631431E+03  0.00000000000E+00 0. -1.
         22    1    3    3    0    0  0.40648297767E+02 -0.37119771423E+02 -0.16260021704E+03  0.17166534922E+03  0.00000000000E+00 0. -1.
         22    1    3    3    0    0 -0.79950468604E+02 -0.91217722045E+02 -0.67091334749E+03  0.68178990172E+03  0.00000000000E+00 0. -1.
</event>
<event>
 7    1  0.5667373E-006  0.1002355E+03  0.7818608E-02  0.1414986E+00
          2   -1    0    0  502    0  0.00000000000E+00  0.00000000000E+00  0.27409136423E+04  0.27409136423E+04  0.00000000000E+00 0. -1.
          1   -1    0    0  501    0 -0.00000000000E+00 -0.00000000000E+00 -0.38484912631E+02  0.38484912631E+02  0.00000000000E+00 0. -1.
         25    2    1    2    0    0  0.35549115281E+02 -0.62975934973E+02  0.49411981876E+03  0.51479192759E+03  0.12500650159E+03 0.  0.
          2    1    1    2  501    0  0.11408113112E+02 -0.29247415964E+02 -0.17803159170E+02  0.36090287638E+02  0.00000000000E+00 0. -1.
          1    1    1    2  502    0 -0.46957228392E+02  0.92223350938E+02  0.22261120701E+04  0.22285163397E+04  0.00000000000E+00 0. -1.
         22    1    3    3    0    0  0.10168510589E+01  0.10581495255E+02 -0.30230313225E+01  0.11051730465E+02  0.00000000000E+00 0.  1.
         22    1    3    3    0    0  0.34532264222E+02 -0.73557430228E+02  0.49714285008E+03  0.50374019713E+03  0.00000000000E+00 0.  1.
</event>
<event>
 7    1  0.9674722E-006  0.9656230E+02  0.7818608E-02  0.1312258E+00
          2   -1    0    0  502    0  0.00000000000E+00  0.00000000000E+00  0.23845962453E+04  0.23845962453E+04  0.00000000000E+00 0. -1.
          1   -1    0    0  501    0 -0.00000000000E+00 -0.00000000000E+00 -0.19920768601E+04  0.19920768601E+04  0.00000000000E+00 0. -1.
         25    2    1    2    0    0  0.10152125181E+03  0.59155995736E+01 -0.90291554874E+03  0.91718157612E+03  0.12499598607E+03 0.  0.
          2    1    1    2  501    0 -0.38080886143E+02  0.66919057770E+02 -0.10796757231E+04  0.10824176557E+04  0.00000000000E+00 0. -1.
          1    1    1    2  502    0 -0.63440365663E+02 -0.72834657343E+02  0.23751106570E+04  0.23770738736E+04  0.00000000000E+00 0. -1.
         22    1    3    3    0    0  0.97006351428E+02  0.50353210530E+02 -0.50050226615E+03  0.51229698072E+03  0.00000000000E+00 0. -1.
         22    1    3    3    0    0  0.45149003778E+01 -0.44437610956E+02 -0.40241328259E+03  0.40488459540E+03  0.00000000000E+00 0. -1.
</event>
<event>
 7    1  0.5667373E-006  0.9334958E+02  0.7818608E-02  0.1361095E+00
          2   -1    0    0  502    0  0.00000000000E+00  0.00000000000E+00  0.10524424663E+04  0.10524424663E+04  0.00000000000E+00 0. -1.
          1   -1    0    0  501    0 -0.00000000000E+00 -0.00000000000E+00 -0.62076244840E+02  0.62076244840E+02  0.00000000000E+00 0. -1.
         25    2    1    2    0    0 -0.82809281215E+02 -0.11326740484E+03  0.30997201137E+03  0.36248357463E+03  0.12499924795E+03 0.  0.
          2    1    1    2  501    0  0.28850227117E+02  0.43324088094E+02 -0.12501209251E+02  0.53531228705E+02  0.00000000000E+00 0. -1.
          1    1    1    2  502    0  0.53959054098E+02  0.69943316743E+02  0.69289541937E+03  0.69850390783E+03  0.00000000000E+00 0. -1.
         22    1    3    3    0    0  0.19245867509E+01  0.18367578842E+02  0.93673915930E+02  0.95477088940E+02  0.00000000000E+00 0.  1.
         22    1    3    3    0    0 -0.84733867966E+02 -0.13163498368E+03  0.21629809544E+03  0.26700648569E+03  0.00000000000E+00 0.  1.
</event>
<event>
 7    1  0.5667373E-006  0.6182570E+02  0.7818608E-02  0.1410630E+00
          2   -1    0    0  502    0  0.00000000000E+00  0.00000000000E+00  0.25630449226E+04  0.25630449226E+04  0.00000000000E+00 0. -1.
          1   -1    0    0  501    0 -0.00000000000E+00 -0.00000000000E+00 -0.69935877986E+02  0.69935877986E+02  0.00000000000E+00 0. -1.
         25    2    1    2    0    0  0.10690011709E+03  0.36991916421E+02  0.15503671179E+04  0.15595057565E+04  0.12499586922E+03 0.  0.
          2    1    1    2  501    0 -0.55285955917E+02 -0.26600806611E+02 -0.50117518313E+02  0.79220612695E+02  0.00000000000E+00 0. -1.
          1    1    1    2  502    0 -0.51614161171E+02 -0.10391109810E+02  0.99285944505E+03  0.99425443143E+03  0.00000000000E+00 0. -1.
         22    1    3    3    0    0  0.78943197342E+02  0.46630188483E+02  0.47702627807E+03  0.48575762769E+03  0.00000000000E+00 0. -1.
         22    1    3    3    0    0  0.27956919746E+02 -0.96382720619E+01  0.10733408398E+04  0.10737481288E+04  0.00000000000E+00 0. -1.
</event>
<event>
 7    1  0.5667373E-006  0.1555607E+03  0.7818608E-02  0.1246809E+00
          2   -1    0    0  502    0  0.00000000000E+00  0.00000000000E+00  0.35769560550E+03  0.35769560550E+03  0.00000000000E+00 0. -1.
          1   -1    0    0  501    0 -0.00000000000E+00 -0.00000000000E+00 -0.10552339595E+04  0.10552339595E+04  0.00000000000E+00 0. -1.
         25    2    1    2    0    0 -0.11346619138E+03  0.19461559353E+03 -0.15464867104E+03  0.30048499011E+03  0.12500084797E+03 0.  0.
          2    1    1    2  501    0  0.73918620721E+02 -0.49875822406E+02 -0.80526953894E+03  0.81019169985E+03  0.00000000000E+00 0. -1.
          1    1    1    2  502    0  0.39547570659E+02 -0.14473977113E+03  0.26237985594E+03  0.30225287508E+03  0.00000000000E+00 0. -1.
         22    1    3    3    0    0 -0.12231225095E+03  0.17541111181E+03 -0.89194144478E+02  0.23170010851E+03  0.00000000000E+00 0. -1.
         22    1    3    3    0    0  0.88460595649E+01  0.19204481728E+02 -0.65454526567E+02  0.68784881597E+02  0.00000000000E+00 0. -1.
</event>
<event>
 7    1  0.5667373E-006  0.1115368E+03  0.7818608E-02  0.1310510E+00
          2   -1    0    0  502    0  0.00000000000E+00  0.00000000000E+00  0.11378920492E+04  0.11378920492E+04  0.00000000000E+00 0. -1.
          1   -1    0    0  501    0 -0.00000000000E+00 -0.00000000000E+00 -0.45535446401E+03  0.45535446401E+03  0.00000000000E+00 0. -1.
         25    2    1    2    0    0  0.52399386601E+02 -0.15331883856E+03  0.13645375045E+03  0.24596585573E+03  0.12500885648E+03 0.  0.
          2    1    1    2  501    0 -0.66872402436E+02  0.87161586408E+02 -0.39182261106E+03  0.40693245003E+03  0.00000000000E+00 0. -1.
          1    1    1    2  502    0  0.14473015835E+02  0.66157252150E+02  0.93790644576E+03  0.94034820742E+03  0.00000000000E+00 0. -1.
         22    1    3    3    0    0 -0.39300139916E+02 -0.33593518363E+02  0.51036146027E+02  0.72647874537E+02  0.00000000000E+00 0.  1.
         22    1    3    3    0    0  0.91699526516E+02 -0.11972532019E+03  0.85417604421E+02  0.17331798119E+03  0.00000000000E+00 0.  1.
</event>
<event>
 7    1  0.5667373E-006  0.1017162E+03  0.7818608E-02  0.1378381E+00
          2   -1    0    0  502    0  0.00000000000E+00  0.00000000000E+00  0.12741189517E+04  0.12741189517E+04  0.00000000000E+00 0. -1.
          1   -1    0    0  501    0 -0.00000000000E+00 -0.00000000000E+00 -0.54550294371E+03  0.54550294371E+03  0.00000000000E+00 0. -1.
         25    2    1    2    0    0 -0.13431412607E+03 -0.39172514739E+02  0.91492527299E+02  0.20873235036E+03  0.12499416452E+03 0.  0.
          2    1    1    2  501    0  0.41370642485E+02  0.15120557948E+01 -0.48376039281E+03  0.48552851001E+03  0.00000000000E+00 0. -1.
          1    1    1    2  502    0  0.92943483583E+02  0.37660458944E+02  0.11208838735E+04  0.11253610351E+04  0.00000000000E+00 0. -1.
         22    1    3    3    0    0 -0.10531597549E+03 -0.39887105561E+02  0.12241335837E+03  0.16633540270E+03  0.00000000000E+00 0. -1.
         22    1    3    3    0    0 -0.28998150575E+02  0.71459082177E+00 -0.30920831074E+02  0.42396947662E+02  0.00000000000E+00 0. -1.
</event>
<event>
 7    1  0.5667373E-006  0.1962226E+03  0.7818608E-02  0.1258110E+00
          2   -1    0    0  502    0  0.00000000000E+00  0.00000000000E+00  0.12491761630E+04  0.12491761630E+04  0.00000000000E+00 0. -1.
          1   -1    0    0  501    0 -0.00000000000E+00 -0.00000000000E+00 -0.16083505733E+04  0.16083505733E+04  0.00000000000E+00 0. -1.
         25    2    1    2    0    0  0.22016838970E+03 -0.11868166096E+03  0.41693786138E+02  0.28270418515E+03  0.12499531202E+03 0.  0.
          2    1    1    2  501    0 -0.18168616190E+03  0.68579773118E+02 -0.14805812657E+04  0.14932628473E+04  0.00000000000E+00 0. -1.
          1    1    1    2  502    0 -0.38482227797E+02  0.50101887844E+02  0.10797130692E+04  0.10815597038E+04  0.00000000000E+00 0. -1.
         22    1    3    3    0    0  0.14497180591E+03 -0.72512103612E+01  0.23724721930E+02  0.14707911814E+03  0.00000000000E+00 0. -1.
         22    1    3    3    0    0  0.75196583791E+02 -0.11143045060E+03  0.17969064208E+02  0.13562506702E+03  0.00000000000E+00 0. -1.
</event>
<event>
 7    1  0.5667373E-006  0.1894549E+03  0.7818608E-02  0.1248992E+00
          2   -1    0    0  502    0  0.00000000000E+00  0.00000000000E+00  0.12740896083E+04  0.12740896083E+04  0.00000000000E+00 0. -1.
          1   -1    0    0  501    0 -0.00000000000E+00 -0.00000000000E+00 -0.11739340704E+04  0.11739340704E+04  0.00000000000E+00 0. -1.
         25    2    1    2    0    0  0.24627018822E+03  0.39392323034E+02  0.57636546769E+03  0.64032582202E+03  0.12497697899E+03 0.  0.
          2    1    1    2  501    0 -0.17827890177E+03 -0.61943854801E+02 -0.11321926132E+04  0.11478155433E+04  0.00000000000E+00 0. -1.
          1    1    1    2  502    0 -0.67991286445E+02  0.22551531767E+02  0.65598268338E+03  0.65988231338E+03  0.00000000000E+00 0. -1.
         22    1    3    3    0    0  0.94982497415E+02  0.74070598047E+02  0.30142463835E+03  0.32459966253E+03  0.00000000000E+00 0. -1.
         22    1    3    3    0    0  0.15128769080E+03 -0.34678275013E+02  0.27494082934E+03  0.31572615949E+03  0.00000000000E+00 0. -1.
</event>
<event>
 7    1  0.5667373E-006  0.1113470E+03  0.7818608E-02  0.1336836E+00
          2   -1    0    0  502    0  0.00000000000E+00  0.00000000000E+00  0.13361639361E+03  0.13361639361E+03  0.00000000000E+00 0. -1.
          1   -1    0    0  501    0 -0.00000000000E+00 -0.00000000000E+00 -0.46313874026E+03  0.46313874026E+03  0.00000000000E+00 0. -1.
         25    2    1    2    0    0  0.81068415478E+02  0.22851322642E+02 -0.28481391912E+03  0.32223960479E+03  0.12500049375E+03 0.  0.
          2    1    1    2  501    0  0.31951408004E+02 -0.43147948721E+02 -0.12389686847E+03  0.13502989287E+03  0.00000000000E+00 0. -1.
          1    1    1    2  502    0 -0.11301982348E+03  0.20296626079E+02  0.79188440940E+02  0.13948563621E+03  0.00000000000E+00 0. -1.
         22    1    3    3    0    0 -0.57278511298E+01  0.45298709764E+02 -0.37198466794E+02  0.58894034644E+02  0.00000000000E+00 0.  1.
         22    1    3    3    0    0  0.86796266607E+02 -0.22447387121E+02 -0.24761545232E+03  0.26334557014E+03  0.00000000000E+00 0.  1.
</event>
<event>
 7    1  0.5667373E-006  0.1332982E+03  0.7818608E-02  0.1286809E+00
          2   -1    0    0  502    0  0.00000000000E+00  0.00000000000E+00  0.19968889341E+04  0.19968889341E+04  0.00000000000E+00 0. -1.
          1   -1    0    0  501    0 -0.00000000000E+00 -0.00000000000E+00 -0.74444633736E+03  0.74444633736E+03  0.00000000000E+00 0. -1.
         25    2    1    2    0    0  0.13585372585E+03 -0.10073386185E+03  0.54901911842E+03  0.58792085036E+03  0.12500155261E+03 0.  0.
          2    1    1    2  501    0 -0.12952093329E+03  0.30482239349E+02 -0.71800841373E+03  0.73023347038E+03  0.00000000000E+00 0. -1.
          1    1    1    2  502    0 -0.63327925551E+01  0.70251622504E+02  0.14214318920E+04  0.14231809507E+04  0.00000000000E+00 0. -1.
         22    1    3    3    0    0  0.11734764422E+03 -0.13278859239E+02  0.26395807914E+03  0.28917237982E+03  0.00000000000E+00 0.  1.
         22    1    3    3    0    0  0.18506081629E+02 -0.87455002614E+02  0.28506103928E+03  0.29874847055E+03  0.00000000000E+00 0.  1.
</event>
<event>
 7    1  0.5667373E-006  0.9146186E+02  0.7818608E-02  0.1366326E+00
          2   -1    0    0  502    0  0.00000000000E+00  0.00000000000E+00  0.19879205728E+04  0.19879205728E+04  0.00000000000E+00 0. -1.
          1   -1    0    0  501    0 -0.00000000000E+00 -0.00000000000E+00 -0.11076331216E+03  0.11076331216E+03  0.00000000000E+00 0. -1.
         25    2    1    2    0    0  0.49259443963E+02 -0.66267207757E+02  0.35174243867E+03  0.38231245699E+03  0.12498894339E+03 0.  0.
          2    1    1    2  501    0 -0.57646877336E+01  0.92616293126E+02 -0.72430823480E+02  0.11771675143E+03  0.00000000000E+00 0. -1.
          1    1    1    2  502    0 -0.43494756230E+02 -0.26349085369E+02  0.15978456454E+04  0.15986546765E+04  0.00000000000E+00 0. -1.
         22    1    3    3    0    0 -0.35320647910E+02  0.34247204362E-01  0.14577675495E+03  0.14999470532E+03  0.00000000000E+00 0.  1.
         22    1    3    3    0    0  0.84580091873E+02 -0.66301454961E+02  0.20596568372E+03  0.23231775167E+03  0.00000000000E+00 0.  1.
</event>
<event>
 7    1  0.5667373E-006  0.4788482E+02  0.7818608E-02  0.1483740E+00
          2   -1    0    0  502    0  0.00000000000E+00  0.00000000000E+00  0.29878472733E+03  0.29878472733E+03  0.00000000000E+00 0. -1.
          1   -1    0    0  501    0 -0.00000000000E+00 -0.00000000000E+00 -0.10677768435E+03  0.10677768435E+03  0.00000000000E+00 0. -1.
         25    2    1    2    0    0 -0.31988024998E+02  0.76914608261E+02 -0.28884366665E+02  0.15296345966E+03  0.12499769057E+03 0.  0.
          2    1    1    2  501    0  0.25229927089E+02 -0.30482535797E+02  0.16467455670E+02  0.42859203279E+02  0.00000000000E+00 0. -1.
          1    1    1    2  502    0  0.67580979094E+01 -0.46432072464E+02  0.20442395398E+03  0.20973974874E+03  0.00000000000E+00 0. -1.
         22    1    3    3    0    0  0.38163327490E+02  0.22756226012E+02  0.23243139168E+02  0.50145078581E+02  0.00000000000E+00 0. -1.
         22    1    3    3    0    0 -0.70151352489E+02  0.54158382249E+02 -0.52127505833E+02  0.10281838108E+03  0.00000000000E+00 0. -1.
</event>
<event>
 7    1  0.5667373E-006  0.7990201E+02  0.7818608E-02  0.1410344E+00
          2   -1    0    0  502    0  0.00000000000E+00  0.00000000000E+00  0.10512312432E+04  0.10512312432E+04  0.00000000000E+00 0. -1.
          1   -1    0    0  501    0 -0.00000000000E+00 -0.00000000000E+00 -0.76264802838E+03  0.76264802838E+03  0.00000000000E+00 0. -1.
         25    2    1    2    0    0 -0.15907068825E+02  0.10180226615E+03 -0.20066334605E+03  0.25788994554E+03  0.12499883732E+03 0.  0.
          2    1    1    2  501    0 -0.16135013777E+02 -0.76496635243E+02 -0.53009566008E+03  0.53582971429E+03  0.00000000000E+00 0. -1.
          1    1    1    2  502    0  0.32042082602E+02 -0.25305630905E+02  0.10193422210E+04  0.10201596118E+04  0.00000000000E+00 0. -1.
         22    1    3    3    0    0 -0.51158650855E+02  0.10882215736E+03 -0.17987805538E+03  0.21636909275E+03  0.00000000000E+00 0. -1.
         22    1    3    3    0    0  0.35251582030E+02 -0.70198912158E+01 -0.20785290676E+02  0.41520852794E+02  0.00000000000E+00 0. -1.
</event>
<event>
 7    1  0.5667373E-006  0.1028384E+03  0.7818608E-02  0.1304357E+00
          2   -1    0    0  502    0  0.00000000000E+00  0.00000000000E+00  0.11066258531E+04  0.11066258531E+04  0.00000000000E+00 0. -1.
          1   -1    0    0  501    0 -0.00000000000E+00 -0.00000000000E+00 -0.60418230056E+03  0.60418230056E+03  0.00000000000E+00 0. -1.
         25    2    1    2    0    0 -0.14570633094E+03 -0.99384728471E+02  0.33807289479E+03  0.40128679967E+03  0.12502061537E+03 0.  0.
          2    1    1    2  501    0  0.73540872293E+02  0.70625247956E+02 -0.56595971431E+03  0.57507093803E+03  0.00000000000E+00 0. -1.
          1    1    1    2  502    0  0.72165458645E+02  0.28759480514E+02  0.73033037208E+03  0.73445041597E+03  0.00000000000E+00 0. -1.
         22    1    3    3    0    0 -0.75927576213E+02 -0.89302256991E+02  0.10358159858E+03  0.15642582107E+03  0.00000000000E+00 0. -1.
         22    1    3    3    0    0 -0.69778754725E+02 -0.10082471479E+02  0.23449129621E+03  0.24486097859E+03  0.00000000000E+00 0. -1.
</event>
<event>
 7    1  0.5667373E-006  0.1364872E+03  0.7818608E-02  0.1316136E+00
          2   -1    0    0  502    0  0.00000000000E+00  0.00000000000E+00  0.16858865990E+04  0.16858865990E+04  0.00000000000E+00 0. -1.
          1   -1    0    0  501    0 -0.00000000000E+00 -0.00000000000E+00 -0.16872820607E+03  0.16872820607E+03  0.00000000000E+00 0. -1.
         25    2    1    2    0    0  0.66782958866E+02 -0.92627329961E+02  0.14783580142E+03  0.22476803191E+03  0.12500183254E+03 0.  0.
          2    1    1    2  501    0  0.49788599982E+02  0.16971714236E+02 -0.12158525761E+03  0.13247610592E+03  0.00000000000E+00 0. -1.
          1    1    1    2  502    0 -0.11657155885E+03  0.75655615725E+02  0.14909078491E+04  0.14973706672E+04  0.00000000000E+00 0. -1.
         22    1    3    3    0    0 -0.27144796600E+02  0.49449122233E+01  0.51960300916E+02  0.58831666733E+02  0.00000000000E+00 0. -1.
         22    1    3    3    0    0  0.93927755466E+02 -0.97572242184E+02  0.95875500501E+02  0.16593636518E+03  0.00000000000E+00 0. -1.
</event>
<event>
 7    1  0.5667373E-006  0.1065968E+03  0.7818608E-02  0.1321242E+00
          2   -1    0    0  502    0  0.00000000000E+00  0.00000000000E+00  0.37306835196E+03  0.37306835196E+03  0.00000000000E+00 0. -1.
          1   -1    0    0  501    0 -0.00000000000E+00 -0.00000000000E+00 -0.40677266525E+03  0.40677266525E+03  0.00000000000E+00 0. -1.
         25    2    1    2    0    0  0.33354708789E+02 -0.40048133049E+02  0.16513575080E+02  0.13643156221E+03  0.12499793376E+03 0.  0.
          2    1    1    2  501    0 -0.92116334955E+02  0.66258210552E+02 -0.33383143638E+03  0.35258899238E+03  0.00000000000E+00 0. -1.
          1    1    1    2  502    0  0.58761626166E+02 -0.26210077502E+02  0.28361354801E+03  0.29082046263E+03  0.00000000000E+00 0. -1.
         22    1    3    3    0    0  0.33243684652E+02  0.33933975636E+02 -0.22755710750E+02  0.52673329527E+02  0.00000000000E+00 0. -1.
         22    1    3    3    0    0  0.11102413713E+00 -0.73982108685E+02  0.39269285830E+02  0.83758232679E+02  0.00000000000E+00 0. -1.
</event>
<event>
 7    1  0.5667373E-006  0.3142749E+02  0.7818608E-02  0.1591632E+00
          2   -1    0    0  502    0  0.00000000000E+00  0.00000000000E+00  0.50974313009E+03  0.50974313009E+03  0.00000000000E+00 0. -1.
          1   -1    0    0  501    0 -0.00000000000E+00 -0.00000000000E+00 -0.80368772113E+03  0.80368772113E+03  0.00000000000E+00 0. -1.
         25    2    1    2    0    0  0.44759591796E+02  0.18027283847E+02  0.18103829290E+03  0.22524368831E+03  0.12502580376E+03 0.  0.
          2    1    1    2  501    0 -0.28523510598E+02  0.85568164064E+01 -0.78050915277E+03  0.78107704314E+03  0.00000000000E+00 0. -1.
          1    1    1    2  502    0 -0.16236081198E+02 -0.26584100253E+02  0.30552626883E+03  0.30711011976E+03  0.00000000000E+00 0. -1.
         22    1    3    3    0    0  0.79559397664E+02  0.38715424275E+02  0.93120588468E+02  0.12845242633E+03  0.00000000000E+00 0.  1.
         22    1    3    3    0    0 -0.34799805868E+02 -0.20688140429E+02  0.87917704432E+02  0.96791261979E+02  0.00000000000E+00 0.  1.
</event>
<event>
 7    1  0.5667373E-006  0.5942694E+02  0.7818608E-02  0.1487306E+00
          2   -1    0    0  502    0  0.00000000000E+00  0.00000000000E+00  0.21673670615E+02  0.21673670615E+02  0.00000000000E+00 0. -1.
          1   -1    0    0  501    0 -0.00000000000E+00 -0.00000000000E+00 -0.17591244426E+04  0.17591244426E+04  0.00000000000E+00 0. -1.
         25    2    1    2    0    0 -0.10034353620E+02  0.83404932815E+02 -0.58635289704E+03  0.60538891468E+03  0.12501578734E+03 0.  0.
          2    1    1    2  501    0 -0.68631339511E+01 -0.57299486200E+02 -0.11413674637E+04  0.11428254552E+04  0.00000000000E+00 0. -1.
          1    1    1    2  502    0  0.16897487571E+02 -0.26105446615E+02 -0.97304112204E+01  0.32583743366E+02  0.00000000000E+00 0. -1.
         22    1    3    3    0    0 -0.19006000211E+02  0.47773090797E+02 -0.65630847398E+02  0.83372083928E+02  0.00000000000E+00 0.  1.
         22    1    3    3    0    0  0.89716465908E+01  0.35631842018E+02 -0.52072204964E+03  0.52201683075E+03  0.00000000000E+00 0.  1.
</event>
<event>
 7    1  0.5667373E-006  0.1756909E+03  0.7818608E-02  0.1270637E+00
          2   -1    0    0  502    0  0.00000000000E+00  0.00000000000E+00  0.18146526199E+03  0.18146526199E+03  0.00000000000E+00 0. -1.
          1   -1    0    0  501    0 -0.00000000000E+00 -0.00000000000E+00 -0.33927883011E+04  0.33927883011E+04  0.00000000000E+00 0. -1.
         25    2    1    2    0    0  0.16291212668E+03  0.88028135391E+02 -0.26750756007E+03  0.34852771469E+03  0.12498783771E+03 0.  0.
          2    1    1    2  501    0 -0.11739584342E+03 -0.13077064749E+03 -0.30752221034E+04  0.30802392328E+04  0.00000000000E+00 0. -1.
          1    1    1    2  502    0 -0.45516283265E+02  0.42742512099E+02  0.13140662435E+03  0.14548661556E+03  0.00000000000E+00 0. -1.
         22    1    3    3    0    0  0.88821765985E+02  0.14448021111E+02 -0.40553789848E+02  0.98704920332E+02  0.00000000000E+00 0.  1.
         22    1    3    3    0    0  0.74090360695E+02  0.73580114280E+02 -0.22695377022E+03  0.24982279436E+03  0.00000000000E+00 0.  1.
</event>
<event>
 7    1  0.5667373E-006  0.2326806E+03  0.7818608E-02  0.1131306E+00
          2   -1    0    0  502    0  0.00000000000E+00  0.00000000000E+00  0.75027093206E+03  0.75027093206E+03  0.00000000000E+00 0. -1.
          1   -1    0    0  501    0 -0.00000000000E+00 -0.00000000000E+00 -0.54367517145E+03  0.54367517145E+03  0.00000000000E+00 0. -1.
         25    2    1    2    0    0  0.42878385865E+01 -0.21387852745E+03  0.41963426913E+02  0.25129140520E+03  0.12499612420E+03 0.  0.
          2    1    1    2  501    0  0.20503386281E+03  0.63581581977E+02 -0.38208046505E+03  0.43825447429E+03  0.00000000000E+00 0. -1.
          1    1    1    2  502    0 -0.20932170140E+03  0.15029694547E+03  0.54671279874E+03  0.60440022403E+03  0.00000000000E+00 0. -1.
         22    1    3    3    0    0 -0.13064012573E+02 -0.15049480712E+03  0.84424151244E+02  0.17305141637E+03  0.00000000000E+00 0.  1.
         22    1    3    3    0    0  0.17351851159E+02 -0.63383720330E+02 -0.42460724331E+02  0.78239988831E+02  0.00000000000E+00 0.  1.
</event>
<event>
 7    1  0.5667373E-006  0.7524456E+02  0.7818608E-02  0.1373129E+00
          2   -1    0    0  502    0  0.00000000000E+00  0.00000000000E+00  0.37885941255E+03  0.37885941255E+03  0.00000000000E+00 0. -1.
          1   -1    0    0  501    0 -0.00000000000E+00 -0.00000000000E+00 -0.10655525404E+04  0.10655525404E+04  0.00000000000E+00 0. -1.
         25    2    1    2    0    0  0.25961946978E+01 -0.34986602627E+02  0.86670119554E+02  0.15610014801E+03  0.12499897597E+03 0.  0.
          2    1    1    2  501    0 -0.59866097802E+02  0.46559500849E+02 -0.10261052941E+04  0.10289041799E+04  0.00000000000E+00 0. -1.
          1    1    1    2  502    0  0.57269903105E+02 -0.11572898222E+02  0.25274204670E+03  0.25940762507E+03  0.00000000000E+00 0. -1.
         22    1    3    3    0    0  0.57706369369E+02  0.12589808308E+00  0.16074135168E+02  0.59903411735E+02  0.00000000000E+00 0.  1.
         22    1    3    3    0    0 -0.55110174671E+02 -0.35112500710E+02  0.70595984387E+02  0.96196736275E+02  0.00000000000E+00 0.  1.
</event>
<event>
 7    1  0.5667373E-006  0.1329005E+03  0.7818608E-02  0.1350594E+00
          2   -1    0    0  502    0  0.00000000000E+00  0.00000000000E+00  0.31140450372E+04  0.31140450372E+04  0.00000000000E+00 0. -1.
          1   -1    0    0  501    0 -0.00000000000E+00 -0.00000000000E+00 -0.18379989162E+02  0.18379989162E+02  0.00000000000E+00 0. -1.
         25    2    1    2    0    0 -0.64582426651E+02 -0.11364587837E+03  0.94860118770E+03  0.96568996090E+03  0.12500644696E+03 0.  0.
          2    1    1    2  501    0  0.29479741467E+02  0.13273198173E+03  0.47196249969E+03  0.49115724086E+03  0.00000000000E+00 0. -1.
          1    1    1    2  502    0  0.35102685185E+02 -0.19086103367E+02  0.16751013607E+04  0.16755778246E+04  0.00000000000E+00 0. -1.
         22    1    3    3    0    0 -0.56769274798E+02 -0.11798744773E+03  0.94770458248E+03  0.95670672834E+03  0.00000000000E+00 0.  1.
         22    1    3    3    0    0 -0.78131518531E+01  0.43415693602E+01  0.89660521216E+00  0.89832325638E+01  0.00000000000E+00 0.  1.
</event>
<event>
 7    1  0.5667373E-006  0.1010903E+03  0.7818608E-02  0.1302333E+00
          2   -1    0    0  502    0  0.00000000000E+00  0.00000000000E+00  0.22665192287E+04  0.22665192287E+04  0.00000000000E+00 0. -1.
          1   -1    0    0  501    0 -0.00000000000E+00 -0.00000000000E+00 -0.11250570534E+03  0.11250570534E+03  0.00000000000E+00 0. -1.
         25    2    1    2    0    0 -0.74324754892E+02  0.15682803645E+03  0.68658141485E+03  0.71912293041E+03  0.12499819049E+03 0.  0.
          2    1    1    2  501    0  0.23124359698E+02 -0.77116392197E+02 -0.77688197126E+02  0.11187998002E+03  0.00000000000E+00 0. -1.
          1    1    1    2  502    0  0.51200395194E+02 -0.79711644251E+02  0.15451203056E+04  0.15480220236E+04  0.00000000000E+00 0. -1.
         22    1    3    3    0    0 -0.32344007884E+02  0.15887030588E+03  0.61596492375E+03  0.63694481411E+03  0.00000000000E+00 0.  1.
         22    1    3    3    0    0 -0.41980747008E+02 -0.20422694304E+01  0.70616491102E+02  0.82178116304E+02  0.00000000000E+00 0.  1.
</event>
<event>
 7    1  0.5667373E-006  0.1091009E+03  0.7818608E-02  0.1280964E+00
          2   -1    0    0  502    0  0.00000000000E+00  0.00000000000E+00  0.78562962245E+03  0.78562962245E+03  0.00000000000E+00 0. -1.
          1   -1    0    0  501    0 -0.00000000000E+00 -0.00000000000E+00 -0.16876686686E+04  0.16876686686E+04  0.00000000000E+00 0. -1.
         25    2    1    2    0    0 -0.22341092815E+02  0.80386524203E+02 -0.92667851295E+02  0.17655901480E+03  0.12499854937E+03 0.  0.
          2    1    1    2  501    0  0.90818465647E+02  0.68697486334E+01 -0.15475731388E+04  0.15502508852E+04  0.00000000000E+00 0. -1.
          1    1    1    2  502    0 -0.68477372832E+02 -0.87256272836E+02  0.73820194401E+03  0.74648839098E+03  0.00000000000E+00 0. -1.
         22    1    3    3    0    0  0.43116215627E+02  0.23869296218E+02 -0.72656371189E+02  0.87793505604E+02  0.00000000000E+00 0.  1.
         22    1    3    3    0    0 -0.65457308442E+02  0.56517227985E+02 -0.20011480106E+02  0.88765509200E+02  0.00000000000E+00 0.  1.
</event>
<event>
 7    1  0.5667373E-006  0.7859018E+02  0.7818608E-02  0.1358315E+00
          2   -1    0    0  502    0  0.00000000000E+00  0.00000000000E+00  0.11972969359E+04  0.11972969359E+04  0.00000000000E+00 0. -1.
          1   -1    0    0  501    0 -0.00000000000E+00 -0.00000000000E+00 -0.22576610202E+04  0.22576610202E+04  0.00000000000E+00 0. -1.
         25    2    1    2    0    0  0.28705549345E+02 -0.57515925016E+02 -0.12139656784E+03  0.18568682122E+03  0.12494150110E+03 0.  0.
          2    1    1    2  501    0 -0.61677038479E+02 -0.14189554667E+02 -0.21023060996E+04  0.21032585046E+04  0.00000000000E+00 0. -1.
          1    1    1    2  502    0  0.32971489133E+02  0.71705479683E+02  0.11633385831E+04  0.11660126303E+04  0.00000000000E+00 0. -1.
         22    1    3    3    0    0 -0.25103570701E+02 -0.32109727693E+01 -0.10433038929E+03  0.10735608850E+03  0.00000000000E+00 0. -1.
         22    1    3    3    0    0  0.53809120046E+02 -0.54304952247E+02 -0.17066178553E+02  0.78330732724E+02  0.00000000000E+00 0. -1.
</event>
<event>
 7    1  0.5667373E-006  0.1673770E+03  0.7818608E-02  0.1244531E+00
          2   -1    0    0  502    0  0.00000000000E+00  0.00000000000E+00  0.10329138827E+04  0.10329138827E+04  0.00000000000E+00 0. -1.
          1   -1    0    0  501    0 -0.00000000000E+00 -0.00000000000E+00 -0.16133097490E+03  0.16133097490E+03  0.00000000000E+00 0. -1.
         25    2    1    2    0    0  0.38713187960E+02 -0.12289035943E+03  0.21827256356E+03  0.28261046146E+03  0.12500003825E+03 0.  0.
          2    1    1    2  501    0  0.25611220739E+02  0.17814418531E+03 -0.62726779367E+02  0.19059363640E+03  0.00000000000E+00 0. -1.
          1    1    1    2  502    0 -0.64324408699E+02 -0.55253825881E+02  0.71603712365E+03  0.72104075978E+03  0.00000000000E+00 0. -1.
         22    1    3    3    0    0  0.73664008401E+02 -0.29305364757E+02  0.88018993787E+02  0.11845899630E+03  0.00000000000E+00 0.  1.
         22    1    3    3    0    0 -0.34950820440E+02 -0.93584994668E+02  0.13025356977E+03  0.16415146516E+03  0.00000000000E+00 0.  1.
</event>
<event>
 7    1  0.5667373E-006  0.6363664E+02  0.7818608E-02  0.1514516E+00
          2   -1    0    0  502    0  0.00000000000E+00  0.00000000000E+00  0.31872859782E+04  0.31872859782E+04  0.00000000000E+00 0. -1.
          1   -1    0    0  501    0 -0.00000000000E+00 -0.00000000000E+00 -0.36136125279E+03  0.36136125279E+03  0.00000000000E+00 0. -1.
         25    2    1    2    0    0 -0.31714654701E+02 -0.79677886272E+02  0.11892170345E+02  0.15206691706E+03  0.12501415386E+03 0.  0.
          2    1    1    2  501    0  0.15836889291E+02  0.18156580412E+02 -0.29045004912E+03  0.29144759307E+03  0.00000000000E+00 0. -1.
          1    1    1    2  502    0  0.15877765410E+02  0.61521305861E+02  0.31044826042E+04  0.31051327209E+04  0.00000000000E+00 0. -1.
         22    1    3    3    0    0 -0.79164854738E+02 -0.63322337410E+02  0.63765764953E+01  0.10157486583E+03  0.00000000000E+00 0.  1.
         22    1    3    3    0    0  0.47450200038E+02 -0.16355548863E+02  0.55155938501E+01  0.50492051233E+02  0.00000000000E+00 0.  1.
</event>
<event>
 7    1  0.5667373E-006  0.1045362E+03  0.7818608E-02  0.1305710E+00
          2   -1    0    0  502    0  0.00000000000E+00  0.00000000000E+00  0.93772652601E+02  0.93772652601E+02  0.00000000000E+00 0. -1.
          1   -1    0    0  501    0 -0.00000000000E+00 -0.00000000000E+00 -0.16216109074E+04  0.16216109074E+04  0.00000000000E+00 0. -1.
         25    2    1    2    0    0  0.98974319717E+01  0.36425678347E+02 -0.10585480884E+04  0.10665713627E+04  0.12500250866E+03 0.  0.
          2    1    1    2  501    0  0.63089816233E+02  0.41442191355E+02 -0.52363398028E+03  0.52904661935E+03  0.00000000000E+00 0. -1.
          1    1    1    2  502    0 -0.72987248204E+02 -0.77867869701E+02  0.54343813918E+02  0.11976557787E+03  0.00000000000E+00 0. -1.
         22    1    3    3    0    0  0.32924033656E+02  0.70351697162E+02 -0.87784846149E+03  0.88127820501E+03  0.00000000000E+00 0.  1.
         22    1    3    3    0    0 -0.23026601685E+02 -0.33926018816E+02 -0.18069962689E+03  0.18529315772E+03  0.00000000000E+00 0.  1.
</event>
<event>
 7    1  0.5667373E-006  0.7128381E+02  0.7818608E-02  0.1512213E+00
          2   -1    0    0  502    0  0.00000000000E+00  0.00000000000E+00  0.38957711110E+03  0.38957711110E+03  0.00000000000E+00 0. -1.
          1   -1    0    0  501    0 -0.00000000000E+00 -0.00000000000E+00 -0.38872914267E+04  0.38872914267E+04  0.00000000000E+00 0. -1.
         25    2    1    2    0    0  0.59483873189E+02  0.71361344239E+02  0.25367677291E+03  0.29766994848E+03  0.12499888198E+03 0.  0.
          2    1    1    2  501    0 -0.43605944837E+02 -0.56358159093E+02 -0.38639159181E+04  0.38645729315E+04  0.00000000000E+00 0. -1.
          1    1    1    2  502    0 -0.15877928351E+02 -0.15003185145E+02  0.11252482957E+03  0.11462565787E+03  0.00000000000E+00 0. -1.
         22    1    3    3    0    0  0.56181218922E+02  0.15725405225E+02  0.22970767412E+03  0.23700049215E+03  0.00000000000E+00 0. -1.
         22    1    3    3    0    0  0.33026542663E+01  0.55635939014E+02  0.23969098782E+02  0.60669456332E+02  0.00000000000E+00 0. -1.
</event>
<event>
 7    1  0.5667373E-006  0.1659455E+03  0.7818608E-02  0.1203951E+00
          2   -1    0    0  502    0  0.00000000000E+00  0.00000000000E+00  0.77313462351E+03  0.77313462351E+03  0.00000000000E+00 0. -1.
          1   -1    0    0  501    0 -0.00000000000E+00 -0.00000000000E+00 -0.34670607718E+04  0.34670607718E+04  0.00000000000E+00 0. -1.
         25    2    1    2    0    0  0.71971631944E+02  0.31714903162E+02  0.20714562967E+03  0.25440130512E+03  0.12499984507E+03 0.  0.
          2    1    1    2  501    0 -0.47654823314E+02 -0.16000988380E+03 -0.34335154917E+04  0.34375722213E+04  0.00000000000E+00 0. -1.
          1    1    1    2  502    0 -0.24316808631E+02  0.12829498064E+03  0.53244371372E+03  0.54822186888E+03  0.00000000000E+00 0. -1.
         22    1    3    3    0    0  0.10290979587E+03  0.76427009468E+00  0.13116524717E+03  0.16671932180E+03  0.00000000000E+00 0. -1.
         22    1    3    3    0    0 -0.30938163930E+02  0.30950633067E+02  0.75980382504E+02  0.87681983327E+02  0.00000000000E+00 0. -1.
</event>
<event>
 7    1  0.5667373E-006  0.4095722E+02  0.7818608E-02  0.1562633E+00
          2   -1    0    0  502    0  0.00000000000E+00  0.00000000000E+00  0.77582645442E+03  0.77582645442E+03  0.00000000000E+00 0. -1.
          1   -1    0    0  501    0 -0.00000000000E+00 -0.00000000000E+00 -0.68760975203E+03  0.68760975203E+03  0.00000000000E+00 0. -1.
         25    2    1    2    0    0 -0.63572643404E+02 -0.53465722347E+01 -0.34364460679E+03  0.37119591165E+03  0.12499888891E+03 0.  0.
          2    1    1    2  501    0  0.37148703129E+02  0.12402109652E+02 -0.32878152879E+03  0.33110592285E+03  0.00000000000E+00 0. -1.
          1    1    1    2  502    0  0.26423940275E+02 -0.70555374169E+01  0.76064283796E+03  0.76113437196E+03  0.00000000000E+00 0. -1.
         22    1    3    3    0    0 -0.95019010657E+02  0.18532096432E+02 -0.19961054641E+03  0.22184774333E+03  0.00000000000E+00 0.  1.
         22    1    3    3    0    0  0.31446367254E+02 -0.23878668666E+02 -0.14403406038E+03  0.14934816832E+03  0.00000000000E+00 0.  1.
</event>
<event>
 7    1  0.5667373E-006  0.2878528E+02  0.7818608E-02  0.1646003E+00
          2   -1    0    0  502    0  0.00000000000E+00  0.00000000000E+00  0.56801218231E+02  0.56801218231E+02  0.00000000000E+00 0. -1.
          1   -1    0    0  501    0 -0.00000000000E+00 -0.00000000000E+00 -0.95972339115E+03  0.95972339115E+03  0.00000000000E+00 0. -1.
         25    2    1    2    0    0 -0.27425952678E+02  0.34887299190E+02 -0.17226309954E+03  0.21741390890E+03  0.12499970318E+03 0.  0.
          2    1    1    2  501    0  0.47500010554E+01 -0.28266285232E+02 -0.76050637138E+03  0.76104631022E+03  0.00000000000E+00 0. -1.
          1    1    1    2  502    0  0.22675951623E+02 -0.66210139583E+01  0.29847298001E+02  0.38064390259E+02  0.00000000000E+00 0. -1.
         22    1    3    3    0    0 -0.37001600567E+02 -0.23522177235E+02 -0.14639324482E+03  0.15281817103E+03  0.00000000000E+00 0.  1.
         22    1    3    3    0    0  0.95756478888E+01  0.58409476425E+02 -0.25869854721E+02  0.64595737878E+02  0.00000000000E+00 0.  1.
</event>
<event>
 7    1  0.5667373E-006  0.4327474E+02  0.7818608E-02  0.1525177E+00
          2   -1    0    0  502    0  0.00000000000E+00  0.00000000000E+00  0.11580329790E+04  0.11580329790E+04  0.00000000000E+00 0. -1.
          1   -1    0    0  501    0 -0.00000000000E+00 -0.00000000000E+00 -0.58182588528E+02  0.58182588528E+02  0.00000000000E+00 0. -1.
         25    2    1    2    0    0  0.30663107984E+02 -0.68634127369E+02  0.30431973028E+03  0.33747098114E+03  0.12500118096E+03 0.  0.
          2    1    1    2  501    0 -0.16388926204E+02  0.38890836942E+02 -0.30490407831E+02  0.52064950493E+02  0.00000000000E+00 0. -1.
          1    1    1    2  502    0 -0.14274181780E+02  0.29743290427E+02  0.82602106801E+03  0.82667963588E+03  0.00000000000E+00 0. -1.
         22    1    3    3    0    0  0.15795413555E+02 -0.10351397866E+03  0.25170999469E+03  0.27262164311E+03  0.00000000000E+00 0. -1.
         22    1    3    3    0    0  0.14867694429E+02  0.34879851286E+02  0.52609735594E+02  0.64849338028E+02  0.00000000000E+00 0. -1.
</event>
<event>
 7    1  0.5667373E-006  0.3272271E+02  0.7818608E-02  0.1644984E+00
          2   -1    0    0  502    0  0.00000000000E+00  0.00000000000E+00  0.37942921695E+03  0.37942921695E+03  0.00000000000E+00 0. -1.
          1   -1    0    0  501    0 -0.00000000000E+00 -0.00000000000E+00 -0.54361030726E+03  0.54361030726E+03  0.00000000000E+00 0. -1.
         25    2    1    2    0    0 -0.43441585860E+01 -0.25153529327E+02  0.74744980379E+01  0.12781203107E+03  0.12501390088E+03 0.  0.
          2    1    1    2  501    0 -0.16286293896E+02  0.28505470011E+02 -0.48253286624E+03  0.48364839728E+03  0.00000000000E+00 0. -1.
          1    1    1    2  502    0  0.20630452482E+02 -0.33519406834E+01  0.31087727789E+03  0.31157909587E+03  0.00000000000E+00 0. -1.
         22    1    3    3    0    0 -0.43730432890E+01  0.44456855412E+02 -0.24788767171E+02  0.51088339947E+02  0.00000000000E+00 0. -1.
         22    1    3    3    0    0  0.28884703020E-01 -0.69610384739E+02  0.32263265209E+02  0.76723691125E+02  0.00000000000E+00 0. -1.
</event>
<event>
 7    1  0.5667373E-006  0.2666361E+03  0.7818608E-02  0.1303605E+00
          2   -1    0    0  502    0  0.00000000000E+00  0.00000000000E+00  0.17018456907E+03  0.17018456907E+03  0.00000000000E+00 0. -1.
          1   -1    0    0  501    0 -0.00000000000E+00 -0.00000000000E+00 -0.11188496452E+04  0.11188496452E+04  0.00000000000E+00 0. -1.
         25    2    1    2    0    0 -0.21063945731E+03  0.19394507696E+03 -0.29887854020E+03  0.43236077590E+03  0.12499513949E+03 0.  0.
          2    1    1    2  501    0  0.27651589009E+02 -0.12065669363E+02 -0.59137307675E+03  0.59214213383E+03  0.00000000000E+00 0. -1.
          1    1    1    2  502    0  0.18298786830E+03 -0.18187940759E+03 -0.58413459144E+02  0.26453130450E+03  0.00000000000E+00 0. -1.
         22    1    3    3    0    0  0.54754030111E+01 -0.12395538417E+02 -0.11162871863E+02  0.17556739988E+02  0.00000000000E+00 0. -1.
         22    1    3    3    0    0 -0.21611486032E+03  0.20634061537E+03 -0.28771566834E+03  0.41480403591E+03  0.00000000000E+00 0. -1.
</event>
<event>
 7    1  0.5667373E-006  0.1267723E+03  0.7818608E-02  0.1402989E+00
          2   -1    0    0  502    0  0.00000000000E+00  0.00000000000E+00  0.32172359123E+03  0.32172359123E+03  0.00000000000E+00 0. -1.
          1   -1    0    0  501    0 -0.00000000000E+00 -0.00000000000E+00 -0.47283247644E+03  0.47283247644E+03  0.00000000000E+00 0. -1.
         25    2    1    2    0    0  0.47819972493E+02 -0.10933557771E+03  0.10016158131E+03  0.19974347392E+03  0.12499637867E+03 0.  0.
          2    1    1    2  501    0 -0.25404767045E+02  0.12485200403E+03 -0.41227635257E+03  0.43151502406E+03  0.00000000000E+00 0. -1.
          1    1    1    2  502    0 -0.22415205448E+02 -0.15516426320E+02  0.16100588606E+03  0.16329756969E+03  0.00000000000E+00 0. -1.
         22    1    3    3    0    0  0.73741463236E+02 -0.17581997665E+02  0.30745088041E+02  0.81805809578E+02  0.00000000000E+00 0. -1.
         22    1    3    3    0    0 -0.25921490742E+02 -0.91753580041E+02  0.69416493268E+02  0.11793766434E+03  0.00000000000E+00 0. -1.
</event>
<event>
 7    1  0.5667373E-006  0.1544140E+03  0.7818608E-02  0.1372607E+00
          2   -1    0    0  502    0  0.00000000000E+00  0.00000000000E+00  0.51121490011E+03  0.51121490011E+03  0.00000000000E+00 0. -1.
          1   -1    0    0  501    0 -0.00000000000E+00 -0.00000000000E+00 -0.20712251960E+03  0.20712251960E+03  0.00000000000E+00 0. -1.
         25    2    1    2    0    0 -0.23860689600E+02  0.12901937857E+03  0.33930323991E+03  0.38466462201E+03  0.12499940103E+03 0.  0.
          2    1    1    2  501    0  0.42442414881E+02 -0.15075270984E+03 -0.14910706488E+03  0.21624212102E+03  0.00000000000E+00 0. -1.
          1    1    1    2  502    0 -0.18581725281E+02  0.21733331269E+02  0.11389620548E+03  0.11743067668E+03  0.00000000000E+00 0. -1.
         22    1    3    3    0    0  0.78260457196E+01 -0.19022907342E+02  0.95414954714E+02  0.97607026276E+02  0.00000000000E+00 0. -1.
         22    1    3    3    0    0 -0.31686735319E+02  0.14804228591E+03  0.24388828520E+03  0.28705759574E+03  0.00000000000E+00 0. -1.
</event>
<event>
 7    1  0.5667373E-006  0.1841691E+03  0.7818608E-02  0.1315936E+00
          2   -1    0    0  502    0  0.00000000000E+00  0.00000000000E+00  0.95238682152E+02  0.95238682152E+02  0.00000000000E+00 0. -1.
          1   -1    0    0  501    0 -0.00000000000E+00 -0.00000000000E+00 -0.17135692663E+04  0.17135692663E+04  0.00000000000E+00 0. -1.
         25    2    1    2    0    0  0.11155762527E+03 -0.14817254422E+03 -0.37292648113E+03  0.43485904628E+03  0.12501209215E+03 0.  0.
          2    1    1    2  501    0 -0.77623876884E+02  0.16750200437E+03 -0.12965334866E+04  0.13096111903E+04  0.00000000000E+00 0. -1.
          1    1    1    2  502    0 -0.33933748381E+02 -0.19329460150E+02  0.51129383595E+02  0.64337711924E+02  0.00000000000E+00 0. -1.
         22    1    3    3    0    0  0.11862202793E+03 -0.13995843176E+03 -0.24299568671E+03  0.30447734216E+03  0.00000000000E+00 0. -1.
         22    1    3    3    0    0 -0.70644026636E+01 -0.82141124578E+01 -0.12993079442E+03  0.13038170411E+03  0.00000000000E+00 0. -1.
</event>
<event>
 7    1  0.5667373E-006  0.7897778E+02  0.7818608E-02  0.1362533E+00
          2   -1    0    0  502    0  0.00000000000E+00  0.00000000000E+00  0.30731868886E+03  0.30731868886E+03  0.00000000000E+00 0. -1.
          1   -1    0    0  501    0 -0.00000000000E+00 -0.00000000000E+00 -0.29909270422E+03  0.29909270422E+03  0.00000000000E+00 0. -1.
         25    2    1    2    0    0  0.24617460873E+02  0.23710359804E+02 -0.10358353858E+03  0.16590068074E+03  0.12500114345E+03 0.  0.
          2    1    1    2  501    0  0.56776282947E+02 -0.21711823716E+02 -0.15238168808E+03  0.16405830810E+03  0.00000000000E+00 0. -1.
          1    1    1    2  502    0 -0.81393743820E+02 -0.19985360884E+01  0.26419121130E+03  0.27645240424E+03  0.00000000000E+00 0. -1.
         22    1    3    3    0    0  0.16400952027E+02 -0.49523972707E+02 -0.23960859893E+02  0.57408517721E+02  0.00000000000E+00 0.  1.
         22    1    3    3    0    0  0.82165088466E+01  0.73234332512E+02 -0.79622678688E+02  0.10849216302E+03  0.00000000000E+00 0.  1.
</event>
<event>
 7    1  0.5667373E-006  0.7791418E+02  0.7818608E-02  0.1440527E+00
          2   -1    0    0  502    0  0.00000000000E+00  0.00000000000E+00  0.10772282971E+03  0.10772282971E+03  0.00000000000E+00 0. -1.
          1   -1    0    0  501    0 -0.00000000000E+00 -0.00000000000E+00 -0.33782479982E+03  0.33782479982E+03  0.00000000000E+00 0. -1.
         25    2    1    2    0    0  0.70921037471E+02  0.21901737379E+02 -0.14494051963E+03  0.20530639596E+03  0.12503392474E+03 0.  0.
          2    1    1    2  501    0 -0.80273817005E+02  0.10013104989E+02 -0.14827182037E+03  0.16890435366E+03  0.00000000000E+00 0. -1.
          1    1    1    2  502    0  0.93527795343E+01 -0.31914842368E+02  0.63110369887E+02  0.71336879913E+02  0.00000000000E+00 0. -1.
         22    1    3    3    0    0  0.67695925827E+02 -0.13434888951E+02 -0.15025639775E+02  0.70632885155E+02  0.00000000000E+00 0.  1.
         22    1    3    3    0    0  0.32251116435E+01  0.35336626330E+02 -0.12991487985E+03  0.13467351080E+03  0.00000000000E+00 0.  1.
</event>
<event>
 7    1  0.5667373E-006  0.1484800E+03  0.7818608E-02  0.1214698E+00
          2   -1    0    0  502    0  0.00000000000E+00  0.00000000000E+00  0.25630041642E+04  0.25630041642E+04  0.00000000000E+00 0. -1.
          1   -1    0    0  501    0 -0.00000000000E+00 -0.00000000000E+00 -0.24904468937E+03  0.24904468937E+03  0.00000000000E+00 0. -1.
         25    2    1    2    0    0  0.33541369132E+02  0.61783156951E+02  0.14443921853E+03  0.20354139220E+03  0.12499691420E+03 0.  0.
          2    1    1    2  501    0 -0.10222562493E+03  0.80475256797E+02 -0.19734773893E+03  0.23637359287E+03  0.00000000000E+00 0. -1.
          1    1    1    2  502    0  0.68684255794E+02 -0.14225841375E+03  0.23668679952E+04  0.23721338685E+04  0.00000000000E+00 0. -1.
         22    1    3    3    0    0  0.71983926205E+02  0.13053516010E+02  0.11127270374E+03  0.13316791847E+03  0.00000000000E+00 0.  1.
         22    1    3    3    0    0 -0.38442557073E+02  0.48729640941E+02  0.33166514792E+02  0.70373473724E+02  0.00000000000E+00 0.  1.
</event>
<event>
 7    1  0.5667373E-006  0.7165281E+02  0.7818608E-02  0.1372304E+00
          2   -1    0    0  502    0  0.00000000000E+00  0.00000000000E+00  0.20651559318E+04  0.20651559318E+04  0.00000000000E+00 0. -1.
          1   -1    0    0  501    0 -0.00000000000E+00 -0.00000000000E+00 -0.47607759032E+03  0.47607759032E+03  0.00000000000E+00 0. -1.
         25    2    1    2    0    0  0.10240952911E+03  0.23207927283E+02 -0.42072662895E+02  0.16858695959E+03  0.12500053775E+03 0.  0.
          2    1    1    2  501    0 -0.36102050251E+02 -0.50127841179E+02 -0.36752965395E+03  0.37268512853E+03  0.00000000000E+00 0. -1.
          1    1    1    2  502    0 -0.66307478854E+02  0.26919913896E+02  0.19986806584E+04  0.19999614340E+04  0.00000000000E+00 0. -1.
         22    1    3    3    0    0  0.44587420387E+02  0.53228933720E+02 -0.69184733267E+02  0.98019818195E+02  0.00000000000E+00 0.  1.
         22    1    3    3    0    0  0.57822108718E+02 -0.30021006437E+02  0.27112070372E+02  0.70567141390E+02  0.00000000000E+00 0.  1.
</event>
<event>
 7    1  0.5667373E-006  0.1155669E+03  0.7818608E-02  0.1438479E+00
          2   -1    0    0  502    0  0.00000000000E+00  0.00000000000E+00  0.63196566491E+03  0.63196566491E+03  0.00000000000E+00 0. -1.
          1   -1    0    0  501    0 -0.00000000000E+00 -0.00000000000E+00 -0.65763887266E+03  0.65763887266E+03  0.00000000000E+00 0. -1.
         25    2    1    2    0    0  0.11477164346E+03  0.49508171415E+02  0.35874543081E+03  0.39993375276E+03  0.12500053316E+03 0.  0.
          2    1    1    2  501    0 -0.11229038367E+03 -0.26876099413E+02 -0.63128481199E+03  0.64175693906E+03  0.00000000000E+00 0. -1.
          1    1    1    2  502    0 -0.24812597858E+01 -0.22632072002E+02  0.24686617343E+03  0.24791384576E+03  0.00000000000E+00 0. -1.
         22    1    3    3    0    0 -0.27384358227E+02  0.60703482309E+01  0.61444076749E+02  0.67543517607E+02  0.00000000000E+00 0.  1.
         22    1    3    3    0    0  0.14215600169E+03  0.43437823184E+02  0.29730135406E+03  0.33239023515E+03  0.00000000000E+00 0.  1.
</event>
<event>
 7    1  0.5667373E-006  0.1748962E+03  0.7818608E-02  0.1231294E+00
          2   -1    0    0  502    0  0.00000000000E+00  0.00000000000E+00  0.17720396163E+04  0.17720396163E+04  0.00000000000E+00 0. -1.
          1   -1    0    0  501    0 -0.00000000000E+00 -0.00000000000E+00 -0.46869342212E+03  0.46869342212E+03  0.00000000000E+00 0. -1.
         25    2    1    2    0    0  0.17423011737E+03  0.60158388662E+02  0.18121614782E+03  0.28711342547E+03  0.12497864348E+03 0.  0.
          2    1    1    2  501    0 -0.11758727294E+01 -0.92862948220E+02 -0.40543495011E+03  0.41593558227E+03  0.00000000000E+00 0. -1.
          1    1    1    2  502    0 -0.17305424465E+03  0.32704559559E+02  0.15275649964E+04  0.15376840306E+04  0.00000000000E+00 0. -1.
         22    1    3    3    0    0  0.19578301941E+02 -0.30408862612E+02  0.63527691215E+01  0.36720110400E+02  0.00000000000E+00 0.  1.
         22    1    3    3    0    0  0.15465181543E+03  0.90567251274E+02  0.17486337870E+03  0.25039331507E+03  0.00000000000E+00 0.  1.
</event>
<event>
 7    1  0.5667373E-006  0.1034238E+03  0.7818608E-02  0.1394317E+00
          2   -1    0    0  502    0  0.00000000000E+00  0.00000000000E+00  0.10492844595E+04  0.10492844595E+04  0.00000000000E+00 0. -1.
          1   -1    0    0  501    0 -0.00000000000E+00 -0.00000000000E+00 -0.49462132343E+03  0.49462132343E+03  0.00000000000E+00 0. -1.
         25    2    1    2    0    0 -0.12389134182E+03 -0.32313889555E+01  0.34844542406E+03  0.39038105961E+03  0.12499460670E+03 0.  0.
          2    1    1    2  501    0  0.99020586543E+02  0.28976511081E+02 -0.46755434641E+03  0.47880244527E+03  0.00000000000E+00 0. -1.
          1    1    1    2  502    0  0.24870755276E+02 -0.25745122126E+02  0.67377205843E+03  0.67472227806E+03  0.00000000000E+00 0. -1.
         22    1    3    3    0    0 -0.13401658805E+02  0.42965243697E+02  0.42789316000E+02  0.62101064310E+02  0.00000000000E+00 0. -1.
         22    1    3    3    0    0 -0.11048968301E+03 -0.46196632653E+02  0.30565610806E+03  0.32827999530E+03  0.00000000000E+00 0. -1.
</event>
<event>
 7    1  0.5667373E-006  0.1949010E+03  0.7818608E-02  0.1262712E+00
          2   -1    0    0  502    0  0.00000000000E+00  0.00000000000E+00  0.83707162244E+03  0.83707162244E+03  0.00000000000E+00 0. -1.
          1   -1    0    0  501    0 -0.00000000000E+00 -0.00000000000E+00 -0.17944450745E+03  0.17944450745E+03  0.00000000000E+00 0. -1.
         25    2    1    2    0    0  0.12350545174E+03  0.77372312743E+02  0.55200817330E+03  0.58444426581E+03  0.12498801967E+03 0.  0.
          2    1    1    2  501    0 -0.15163682459E+03 -0.13126487836E+03 -0.95377119305E+02  0.22208329463E+03  0.00000000000E+00 0. -1.
          1    1    1    2  502    0  0.28131372859E+02  0.53892565622E+02  0.20099606099E+03  0.20998856946E+03  0.00000000000E+00 0. -1.
         22    1    3    3    0    0  0.80198086562E+02  0.10678072822E+03  0.45525057666E+03  0.47443328778E+03  0.00000000000E+00 0. -1.
         22    1    3    3    0    0  0.43307365173E+02 -0.29408415476E+02  0.96757596639E+02  0.11001097803E+03  0.00000000000E+00 0. -1.
</event>
<event>
 7    1  0.5667373E-006  0.1314506E+03  0.7818608E-02  0.1257354E+00
          2   -1    0    0  502    0  0.00000000000E+00  0.00000000000E+00  0.23056394424E+03  0.23056394424E+03  0.00000000000E+00 0. -1.
          1   -1    0    0  501    0 -0.00000000000E+00 -0.00000000000E+00 -0.44891720275E+03  0.44891720275E+03  0.00000000000E+00 0. -1.
         25    2    1    2    0    0  0.38622716438E+02  0.11806655485E+01 -0.10970483383E+03  0.17072908470E+03  0.12498064491E+03 0.  0.
          2    1    1    2  501    0 -0.51034834333E+02  0.12968263898E+03 -0.26806620797E+03  0.30212850416E+03  0.00000000000E+00 0. -1.
          1    1    1    2  502    0  0.12412117895E+02 -0.13086330453E+03  0.15941778329E+03  0.20662355813E+03  0.00000000000E+00 0. -1.
         22    1    3    3    0    0  0.75504999759E+02  0.71331429682E+01 -0.10970665531E+03  0.13336955026E+03  0.00000000000E+00 0.  1.
         22    1    3    3    0    0 -0.36882283320E+02 -0.59524774197E+01  0.18214807072E-02  0.37359534441E+02  0.00000000000E+00 0.  1.
</event>
<event>
 7    1  0.5667373E-006  0.8555148E+02  0.7818608E-02  0.1411133E+00
          2   -1    0    0  502    0  0.00000000000E+00  0.00000000000E+00  0.31511417613E+03  0.31511417613E+03  0.00000000000E+00 0. -1.
          1   -1    0    0  501    0 -0.00000000000E+00 -0.00000000000E+00 -0.71229979348E+03  0.71229979348E+03  0.00000000000E+00 0. -1.
         25    2    1    2    0    0 -0.98678358326E+02 -0.21120096494E+02  0.12299053443E+03  0.20232526314E+03  0.12500145467E+03 0.  0.
          2    1    1    2  501    0  0.84265481971E+02 -0.13931991822E+02 -0.66751325204E+03  0.67295520913E+03  0.00000000000E+00 0. -1.
          1    1    1    2  502    0  0.14412876356E+02  0.35052088316E+02  0.14733710026E+03  0.15213349734E+03  0.00000000000E+00 0. -1.
         22    1    3    3    0    0 -0.48758752067E+01 -0.42762666378E-01 -0.25206843819E+02  0.25674130228E+02  0.00000000000E+00 0.  1.
         22    1    3    3    0    0 -0.93802483120E+02 -0.21077333828E+02  0.14819737825E+03  0.17665113292E+03  0.00000000000E+00 0.  1.
</event>
<event>
 7    1  0.5667373E-006  0.4192417E+02  0.7818608E-02  0.1517398E+00
          2   -1    0    0  502    0  0.00000000000E+00  0.00000000000E+00  0.81606893661E+03  0.81606893661E+03  0.00000000000E+00 0. -1.
          1   -1    0    0  501    0 -0.00000000000E+00 -0.00000000000E+00 -0.19472320728E+03  0.19472320728E+03  0.00000000000E+00 0. -1.
         25    2    1    2    0    0  0.53194126321E+02 -0.52091286531E+02  0.20535925263E+03  0.25167918282E+03  0.12500748466E+03 0.  0.
          2    1    1    2  501    0 -0.18071884179E+02  0.30983626599E+02 -0.16896384094E+03  0.17272914537E+03  0.00000000000E+00 0. -1.
          1    1    1    2  502    0 -0.35122242142E+02  0.21107659932E+02  0.58495031764E+03  0.58638381570E+03  0.00000000000E+00 0. -1.
         22    1    3    3    0    0 -0.20582766139E+02 -0.41318477200E+02  0.15494590477E+03  0.16167591108E+03  0.00000000000E+00 0. -1.
         22    1    3    3    0    0  0.73776892459E+02 -0.10772809331E+02  0.50413347860E+02  0.90003271742E+02  0.00000000000E+00 0. -1.
</event>
<event>
 7    1  0.5667373E-006  0.5717801E+02  0.7818608E-02  0.1520826E+00
          2   -1    0    0  502    0  0.00000000000E+00  0.00000000000E+00  0.67195220971E+02  0.67195220971E+02  0.00000000000E+00 0. -1.
          1   -1    0    0  501    0 -0.00000000000E+00 -0.00000000000E+00 -0.63237240793E+03  0.63237240793E+03  0.00000000000E+00 0. -1.
         25    2    1    2    0    0 -0.76005859189E+02  0.12482809984E+02 -0.66953749549E+02  0.16136679362E+03  0.12499490521E+03 0.  0.
          2    1    1    2  501    0  0.25187953168E+02 -0.51200056018E+01 -0.48432238681E+03  0.48500393999E+03  0.00000000000E+00 0. -1.
          1    1    1    2  502    0  0.50817906021E+02 -0.73628043820E+01 -0.13901050599E+02  0.53196895290E+02  0.00000000000E+00 0. -1.
         22    1    3    3    0    0  0.17850855220E+02  0.41831160842E+02 -0.36815337744E+02  0.58513828645E+02  0.00000000000E+00 0. -1.
         22    1    3    3    0    0 -0.93856714409E+02 -0.29348350858E+02 -0.30138411805E+02  0.10285296497E+03  0.00000000000E+00 0. -1.
</event>
<event>
 7    1  0.5667373E-006  0.1290378E+03  0.7818608E-02  0.1357016E+00
          2   -1    0    0  502    0  0.00000000000E+00  0.00000000000E+00  0.13720918930E+04  0.13720918930E+04  0.00000000000E+00 0. -1.
          1   -1    0    0  501    0 -0.00000000000E+00 -0.00000000000E+00 -0.49187997859E+02  0.49187997859E+02  0.00000000000E+00 0. -1.
         25    2    1    2    0    0 -0.29313905114E+01  0.14964007730E+03  0.58583701582E+03  0.61743877173E+03  0.12499952782E+03 0.  0.
          2    1    1    2  501    0  0.26421038440E+02 -0.28646451312E+02 -0.14988106195E+02  0.41753248644E+02  0.00000000000E+00 0. -1.
          1    1    1    2  502    0 -0.23489647929E+02 -0.12099362599E+03  0.75205498554E+03  0.76208787050E+03  0.00000000000E+00 0. -1.
         22    1    3    3    0    0 -0.45393161050E+02  0.14113064892E+03  0.49646496346E+03  0.51812726147E+03  0.00000000000E+00 0.  1.
         22    1    3    3    0    0  0.42461770538E+02  0.85094283756E+01  0.89372052352E+02  0.99311510260E+02  0.00000000000E+00 0.  1.
</event>
<event>
 7    1  0.5667373E-006  0.1514673E+03  0.7818608E-02  0.1313771E+00
          2   -1    0    0  502    0  0.00000000000E+00  0.00000000000E+00  0.51262701171E+03  0.51262701171E+03  0.00000000000E+00 0. -1.
          1   -1    0    0  501    0 -0.00000000000E+00 -0.00000000000E+00 -0.89394915555E+03  0.89394915555E+03  0.00000000000E+00 0. -1.
         25    2    1    2    0    0 -0.12013865004E+03 -0.44311362229E+02  0.63950089818E+02  0.19003002401E+03  0.12500001593E+03 0.  0.
          2    1    1    2  501    0 -0.89919991009E+01 -0.47577201492E+02 -0.81387563675E+03  0.81531466210E+03  0.00000000000E+00 0. -1.
          1    1    1    2  502    0  0.12913064914E+03  0.91888563722E+02  0.36860340309E+03  0.40123148114E+03  0.00000000000E+00 0. -1.
         22    1    3    3    0    0 -0.12962263241E+03 -0.37612254612E+02  0.10548739012E+02  0.13538088649E+03  0.00000000000E+00 0. -1.
         22    1    3    3    0    0  0.94839823725E+01 -0.66991076169E+01  0.53401350806E+02  0.54649137527E+02  0.00000000000E+00 0. -1.
</event>
<event>
 7    1  0.5667373E-006  0.1589539E+03  0.7818608E-02  0.1275586E+00
          2   -1    0    0  502    0  0.00000000000E+00  0.00000000000E+00  0.12814544868E+04  0.12814544868E+04  0.00000000000E+00 0. -1.
          1   -1    0    0  501    0 -0.00000000000E+00 -0.00000000000E+00 -0.93770627956E+03  0.93770627956E+03  0.00000000000E+00 0. -1.
         25    2    1    2    0    0  0.27632475441E+02 -0.92165351543E+02  0.15926450080E+03  0.22415762462E+03  0.12499381479E+03 0.  0.
          2    1    1    2  501    0 -0.58090715002E+02  0.15049664537E+03 -0.89706493370E+03  0.91145447869E+03  0.00000000000E+00 0. -1.
          1    1    1    2  502    0  0.30458239561E+02 -0.58331293828E+02  0.10815486401E+04  0.10835486630E+04  0.00000000000E+00 0. -1.
         22    1    3    3    0    0  0.19626836744E+02 -0.12317655252E+03  0.11604706684E+03  0.17036606919E+03  0.00000000000E+00 0. -1.
         22    1    3    3    0    0  0.80056386964E+01  0.31011200975E+02  0.43217433962E+02  0.53791555426E+02  0.00000000000E+00 0. -1.
</event>
<event>
 7    1  0.5667373E-006  0.1574465E+03  0.7818608E-02  0.1349047E+00
          2   -1    0    0  502    0  0.00000000000E+00  0.00000000000E+00  0.12328825557E+03  0.12328825557E+03  0.00000000000E+00 0. -1.
          1   -1    0    0  501    0 -0.00000000000E+00 -0.00000000000E+00 -0.25262918409E+04  0.25262918409E+04  0.00000000000E+00 0. -1.
         25    2    1    2    0    0 -0.70015519835E+02 -0.10339847494E+03 -0.86867114517E+02  0.19688819184E+03  0.12500258743E+03 0.  0.
          2    1    1    2  501    0  0.90471157601E+02  0.13077545168E+03 -0.23773084196E+04  0.23826209457E+04  0.00000000000E+00 0. -1.
          1    1    1    2  502    0 -0.20455637766E+02 -0.27376976739E+02  0.61171948754E+02  0.70070958936E+02  0.00000000000E+00 0. -1.
         22    1    3    3    0    0 -0.10586820192E+02  0.29258216902E+02 -0.19081888428E+02  0.36499897042E+02  0.00000000000E+00 0.  1.
         22    1    3    3    0    0 -0.59428699642E+02 -0.13265669184E+03 -0.67785226089E+02  0.16038829480E+03  0.00000000000E+00 0.  1.
</event>
<event>
 7    1  0.5667373E-006  0.4884556E+02  0.7818608E-02  0.1458856E+00
          2   -1    0    0  502    0  0.00000000000E+00  0.00000000000E+00  0.33107504405E+03  0.33107504405E+03  0.00000000000E+00 0. -1.
          1   -1    0    0  501    0 -0.00000000000E+00 -0.00000000000E+00 -0.29074828764E+03  0.29074828764E+03  0.00000000000E+00 0. -1.
         25    2    1    2    0    0 -0.14068667558E+02 -0.64156255946E+02 -0.11038752187E+03  0.17923251283E+03  0.12499974435E+03 0.  0.
          2    1    1    2  501    0  0.40286152459E+02  0.22910571515E+02 -0.14016816036E+03  0.14763123500E+03  0.00000000000E+00 0. -1.
          1    1    1    2  502    0 -0.26217484901E+02  0.41245684431E+02  0.29088243865E+03  0.29495958386E+03  0.00000000000E+00 0. -1.
         22    1    3    3    0    0 -0.61643109629E+01 -0.75035054499E+02 -0.13305371466E+03  0.15287756251E+03  0.00000000000E+00 0.  1.
         22    1    3    3    0    0 -0.79043565951E+01  0.10878798553E+02  0.22666192787E+02  0.26354950325E+02  0.00000000000E+00 0.  1.
</event>
<event>
 7    1  0.5667373E-006  0.1031540E+03  0.7818608E-02  0.1384131E+00
          2   -1    0    0  502    0  0.00000000000E+00  0.00000000000E+00  0.18630201646E+03  0.18630201646E+03  0.00000000000E+00 0. -1.
          1   -1    0    0  501    0 -0.00000000000E+00 -0.00000000000E+00 -0.13309112423E+04  0.13309112423E+04  0.00000000000E+00 0. -1.
         25    2    1    2    0    0  0.56056260354E+02  0.38167423669E+02 -0.14966607817E+03  0.20645656701E+03  0.12500129020E+03 0.  0.
          2    1    1    2  501    0  0.31114720513E+02  0.23437774988E+02 -0.11344382455E+04  0.11351068620E+04  0.00000000000E+00 0. -1.
          1    1    1    2  502    0 -0.87170980867E+02 -0.61605198658E+02  0.13949509782E+03  0.17564982984E+03  0.00000000000E+00 0. -1.
         22    1    3    3    0    0 -0.31297225284E+02  0.27889498173E+02 -0.12921215900E+02  0.43866823901E+02  0.00000000000E+00 0. -1.
         22    1    3    3    0    0  0.87353485639E+02  0.10277925496E+02 -0.13674486227E+03  0.16258974311E+03  0.00000000000E+00 0. -1.
</event>
<event>
 7    1  0.5667373E-006  0.7060331E+02  0.7818608E-02  0.1439444E+00
          2   -1    0    0  502    0  0.00000000000E+00  0.00000000000E+00  0.30195911776E+04  0.30195911776E+04  0.00000000000E+00 0. -1.
          1   -1    0    0  501    0 -0.00000000000E+00 -0.00000000000E+00 -0.82763142960E+02  0.82763142960E+02  0.00000000000E+00 0. -1.
         25    2    1    2    0    0  0.43560122313E+02 -0.43761118428E+02  0.33183999076E+03  0.35993576055E+03  0.12499380989E+03 0.  0.
          2    1    1    2  501    0 -0.69418173876E+02  0.17298256375E+02 -0.49930637001E+02  0.87242083017E+02  0.00000000000E+00 0. -1.
          1    1    1    2  502    0  0.25858051563E+02  0.26462862053E+02  0.26549186809E+04  0.26551764770E+04  0.00000000000E+00 0. -1.
         22    1    3    3    0    0  0.23163810108E+02 -0.70094797944E+02  0.92779426739E+02  0.11856586703E+03  0.00000000000E+00 0. -1.
         22    1    3    3    0    0  0.20396312206E+02  0.26333679516E+02  0.23906056402E+03  0.24136989353E+03  0.00000000000E+00 0. -1.
</event>
<event>
 7    1  0.5667373E-006  0.7577256E+02  0.7818608E-02  0.1442101E+00
          2   -1    0    0  502    0  0.00000000000E+00  0.00000000000E+00  0.10549166527E+03  0.10549166527E+03  0.00000000000E+00 0. -1.
          1   -1    0    0  501    0 -0.00000000000E+00 -0.00000000000E+00 -0.65080554479E+03  0.65080554479E+03  0.00000000000E+00 0. -1.
         25    2    1    2    0    0 -0.76319841981E+02 -0.74038386123E+02 -0.49640246546E+03  0.52282687791E+03  0.12500454253E+03 0.  0.
          2    1    1    2  501    0  0.15901571724E+02  0.29823427504E+02 -0.12334829006E+03  0.12789486883E+03  0.00000000000E+00 0. -1.
          1    1    1    2  502    0  0.60418270257E+02  0.44214958619E+02  0.74436875999E+02  0.10557546332E+03  0.00000000000E+00 0. -1.
         22    1    3    3    0    0 -0.76108887990E+02 -0.70880569156E+02 -0.50398823125E+03  0.51460737962E+03  0.00000000000E+00 0.  1.
         22    1    3    3    0    0 -0.21095399118E+00 -0.31578169667E+01  0.75857657918E+01  0.82194982955E+01  0.00000000000E+00 0.  1.
</event>
<event>
 7    1  0.5667373E-006  0.1513987E+03  0.7818608E-02  0.1219927E+00
          2   -1    0    0  502    0  0.00000000000E+00  0.00000000000E+00  0.19493515982E+04  0.19493515982E+04  0.00000000000E+00 0. -1.
          1   -1    0    0  501    0 -0.00000000000E+00 -0.00000000000E+00 -0.44889821331E+02  0.44889821331E+02  0.00000000000E+00 0. -1.
         25    2    1    2    0    0  0.48104310831E+02  0.18639979142E+03  0.11576875404E+04  0.11802220784E+04  0.12499922498E+03 0.  0.
          2    1    1    2  501    0  0.63036981532E+02 -0.10298708869E+03  0.11363459467E+03  0.16580959738E+03  0.00000000000E+00 0. -1.
          1    1    1    2  502    0 -0.11114129236E+03 -0.83412702724E+02  0.63313964183E+03  0.64820974376E+03  0.00000000000E+00 0. -1.
         22    1    3    3    0    0 -0.23053751990E+02  0.14416496407E+03  0.69093984326E+03  0.70619606297E+03  0.00000000000E+00 0. -1.
         22    1    3    3    0    0  0.71158062820E+02  0.42234827341E+02  0.46674769714E+03  0.47402601545E+03  0.00000000000E+00 0. -1.
</event>
<event>
 7    1  0.5667373E-006  0.8113650E+02  0.7818608E-02  0.1378451E+00
          2   -1    0    0  502    0  0.00000000000E+00  0.00000000000E+00  0.19069427319E+04  0.19069427319E+04  0.00000000000E+00 0. -1.
          1   -1    0    0  501    0 -0.00000000000E+00 -0.00000000000E+00 -0.13207075024E+03  0.13207075024E+03  0.00000000000E+00 0. -1.
         25    2    1    2    0    0  0.89662421362E+02  0.57270805289E+02 -0.36928184774E+02  0.16825446396E+03  0.12500631531E+03 0.  0.
          2    1    1    2  501    0 -0.37793450370E+02 -0.57172738627E+02  0.11238601802E+02  0.69450508302E+02  0.00000000000E+00 0. -1.
          1    1    1    2  502    0 -0.51868970993E+02 -0.98066661478E-01  0.18005615646E+04  0.18013085099E+04  0.00000000000E+00 0. -1.
         22    1    3    3    0    0  0.64481180063E+01 -0.37026007476E+02 -0.15753382728E+01  0.37616288309E+02  0.00000000000E+00 0.  1.
         22    1    3    3    0    0  0.83214303356E+02  0.94296812765E+02 -0.35352846502E+02  0.13063817565E+03  0.00000000000E+00 0.  1.
</event>
<event>
 7    1  0.5667373E-006  0.6477962E+02  0.7818608E-02  0.1441403E+00
          2   -1    0    0  502    0  0.00000000000E+00  0.00000000000E+00  0.81688741819E+03  0.81688741819E+03  0.00000000000E+00 0. -1.
          1   -1    0    0  501    0 -0.00000000000E+00 -0.00000000000E+00 -0.16809269261E+04  0.16809269261E+04  0.00000000000E+00 0. -1.
         25    2    1    2    0    0 -0.13616314762E+02 -0.97359475010E+02 -0.10995590763E+03  0.19333917333E+03  0.12500185166E+03 0.  0.
          2    1    1    2  501    0 -0.77058969374E+01  0.63824536953E+02 -0.15280937787E+04  0.15294455037E+04  0.00000000000E+00 0. -1.
          1    1    1    2  502    0  0.21322211699E+02  0.33534938057E+02  0.77401017842E+03  0.77502966723E+03  0.00000000000E+00 0. -1.
         22    1    3    3    0    0  0.21425365918E+02 -0.88235595362E+02 -0.12468928201E+03  0.15424650285E+03  0.00000000000E+00 0.  1.
         22    1    3    3    0    0 -0.35041680680E+02 -0.91238796480E+01  0.14733374374E+02  0.39092670479E+02  0.00000000000E+00 0.  1.
</event>
<event>
 7    1  0.5667373E-006  0.6926559E+02  0.7818608E-02  0.1404343E+00
          2   -1    0    0  502    0  0.00000000000E+00  0.00000000000E+00  0.80588409743E+03  0.80588409743E+03  0.00000000000E+00 0. -1.
          1   -1    0    0  501    0 -0.00000000000E+00 -0.00000000000E+00 -0.17892990692E+03  0.17892990692E+03  0.00000000000E+00 0. -1.
         25    2    1    2    0    0 -0.25202435893E+02 -0.81174760223E+02 -0.97637652093E+01  0.15147524889E+03  0.12499966177E+03 0.  0.
          2    1    1    2  501    0 -0.29932096277E+02  0.39256748287E+02 -0.90361970064E+02  0.10296751093E+03  0.00000000000E+00 0. -1.
          1    1    1    2  502    0  0.55134532169E+02  0.41918011937E+02  0.72707992578E+03  0.73037124453E+03  0.00000000000E+00 0. -1.
         22    1    3    3    0    0 -0.50449135385E+02  0.91173370426E+01 -0.24068234649E+02  0.56634980489E+02  0.00000000000E+00 0.  1.
         22    1    3    3    0    0  0.25246699493E+02 -0.90292097266E+02  0.14304469439E+02  0.94840268398E+02  0.00000000000E+00 0.  1.
</event>
<event>
 7    1  0.5667373E-006  0.1135342E+03  0.7818608E-02  0.1418325E+00
          2   -1    0    0  502    0  0.00000000000E+00  0.00000000000E+00  0.10792062528E+03  0.10792062528E+03  0.00000000000E+00 0. -1.
          1   -1    0    0  501    0 -0.00000000000E+00 -0.00000000000E+00 -0.19507083480E+04  0.19507083480E+04  0.00000000000E+00 0. -1.
         25    2    1    2    0    0  0.11449192599E+03 -0.36542487544E+02 -0.37938184799E+03  0.41713429848E+03  0.12500672731E+03 0.  0.
          2    1    1    2  501    0 -0.11269469722E+03  0.95920747176E+01 -0.15482906381E+04  0.15524161822E+04  0.00000000000E+00 0. -1.
          1    1    1    2  502    0 -0.17972287664E+01  0.26950412826E+02  0.84884763402E+02  0.89078492581E+02  0.00000000000E+00 0. -1.
         22    1    3    3    0    0  0.97999994661E+02  0.31643466433E+02 -0.21403492010E+03  0.23752106210E+03  0.00000000000E+00 0. -1.
         22    1    3    3    0    0  0.16491931327E+02 -0.68185953976E+02 -0.16534692790E+03  0.17961323638E+03  0.00000000000E+00 0. -1.
</event>
<event>
 7    1  0.5667373E-006  0.4502559E+03  0.7818608E-02  0.1191008E+00
          2   -1    0    0  502    0  0.00000000000E+00  0.00000000000E+00  0.72502189147E+03  0.72502189147E+03  0.00000000000E+00 0. -1.
          1   -1    0    0  501    0 -0.00000000000E+00 -0.00000000000E+00 -0.18600622826E+04  0.18600622826E+04  0.00000000000E+00 0. -1.
         25    2    1    2    0    0  0.43052659080E+03 -0.14229199737E+03  0.18233663960E+03  0.50445328477E+03  0.12500523377E+03 0.  0.
          2    1    1    2  501    0 -0.24466065436E+02 -0.49730522307E+02 -0.15661742894E+04  0.15671546247E+04  0.00000000000E+00 0. -1.
          1    1    1    2  502    0 -0.40606052537E+03  0.19202251968E+03  0.24879725865E+03  0.51347626453E+03  0.00000000000E+00 0. -1.
         22    1    3    3    0    0  0.52533583674E+02 -0.62263226050E+02  0.12566607922E+02  0.82428189149E+02  0.00000000000E+00 0. -1.
         22    1    3    3    0    0  0.37799300713E+03 -0.80028771325E+02  0.16977003168E+03  0.42202509562E+03  0.00000000000E+00 0. -1.
</event>
<event>
 7    1  0.5667373E-006  0.1504675E+03  0.7818608E-02  0.1398016E+00
          2   -1    0    0  502    0  0.00000000000E+00  0.00000000000E+00  0.10866660796E+04  0.10866660796E+04  0.00000000000E+00 0. -1.
          1   -1    0    0  501    0 -0.00000000000E+00 -0.00000000000E+00 -0.38401734121E+03  0.38401734121E+03  0.00000000000E+00 0. -1.
         25    2    1    2    0    0  0.33474888056E+00  0.15389110880E+03  0.36165354037E+03  0.41243140889E+03  0.12499519329E+03 0.  0.
          2    1    1    2  501    0  0.22970611707E+02 -0.14863611041E+03 -0.34264192156E+03  0.37419757980E+03  0.00000000000E+00 0. -1.
          1    1    1    2  502    0 -0.23305360587E+02 -0.52549983897E+01  0.68363711953E+03  0.68405443207E+03  0.00000000000E+00 0. -1.
         22    1    3    3    0    0 -0.13313595483E+02  0.47361840622E+01 -0.60663476041E+01  0.15378030999E+02  0.00000000000E+00 0.  1.
         22    1    3    3    0    0  0.13648344363E+02  0.14915492474E+03  0.36771988798E+03  0.39705337789E+03  0.00000000000E+00 0.  1.
</event>
<event>
 7    1  0.5667373E-006  0.9611192E+02  0.7818608E-02  0.1294673E+00
          2   -1    0    0  502    0  0.00000000000E+00  0.00000000000E+00  0.20236029115E+03  0.20236029115E+03  0.00000000000E+00 0. -1.
          1   -1    0    0  501    0 -0.00000000000E+00 -0.00000000000E+00 -0.85499088640E+03  0.85499088640E+03  0.00000000000E+00 0. -1.
         25    2    1    2    0    0 -0.38355702092E+02 -0.15677097655E+03 -0.27983944233E+01  0.20415897788E+03  0.12499903306E+03 0.  0.
          2    1    1    2  501    0 -0.24794772984E+02  0.91403604088E+02 -0.72749972340E+03  0.73363836265E+03  0.00000000000E+00 0. -1.
          1    1    1    2  502    0  0.63150475076E+02  0.65367372464E+02  0.77667522570E+02  0.11955383703E+03  0.00000000000E+00 0. -1.
         22    1    3    3    0    0  0.25404960040E+02 -0.12454592839E+03  0.21050822773E+02  0.12884190860E+03  0.00000000000E+00 0. -1.
         22    1    3    3    0    0 -0.63760662131E+02 -0.32225048167E+02 -0.23849217197E+02  0.75317069285E+02  0.00000000000E+00 0. -1.
</event>
<event>
 7    1  0.5667373E-006  0.1423641E+03  0.7818608E-02  0.1235522E+00
          2   -1    0    0  502    0  0.00000000000E+00  0.00000000000E+00  0.27872391557E+04  0.27872391557E+04  0.00000000000E+00 0. -1.
          1   -1    0    0  501    0 -0.00000000000E+00 -0.00000000000E+00 -0.46585459936E+03  0.46585459936E+03  0.00000000000E+00 0. -1.
         25    2    1    2    0    0  0.22257502063E+03 -0.89819732621E+02  0.17394534970E+03  0.32169482329E+03  0.12499340171E+03 0.  0.
          2    1    1    2  501    0 -0.11403713877E+03  0.77395446665E+02 -0.37864818127E+03  0.40295033114E+03  0.00000000000E+00 0. -1.
          1    1    1    2  502    0 -0.10853788186E+03  0.12424285956E+02  0.25260873879E+04  0.25284486006E+04  0.00000000000E+00 0. -1.
         22    1    3    3    0    0  0.75274216594E+02 -0.54379305936E+02  0.24936789531E+01  0.92895290692E+02  0.00000000000E+00 0. -1.
         22    1    3    3    0    0  0.14730080403E+03 -0.35440426685E+02  0.17145167075E+03  0.22879953259E+03  0.00000000000E+00 0. -1.
</event>
<event>
 7    1  0.5667373E-006  0.3800647E+02  0.7818608E-02  0.1583783E+00
          2   -1    0    0  502    0  0.00000000000E+00  0.00000000000E+00  0.24077211709E+03  0.24077211709E+03  0.00000000000E+00 0. -1.
          1   -1    0    0  501    0 -0.00000000000E+00 -0.00000000000E+00 -0.28461304998E+03  0.28461304998E+03  0.00000000000E+00 0. -1.
         25    2    1    2    0    0 -0.27159821685E+02 -0.35891614916E+02 -0.13475776618E+03  0.18923592060E+03  0.12499885665E+03 0.  0.
          2    1    1    2  501    0 -0.90183004532E+01  0.24209701134E+02 -0.11953304633E+03  0.12229304370E+03  0.00000000000E+00 0. -1.
          1    1    1    2  502    0  0.36178122138E+02  0.11681913782E+02  0.21044987963E+03  0.21385620278E+03  0.00000000000E+00 0. -1.
         22    1    3    3    0    0 -0.64180733846E+02 -0.30073213895E+02 -0.13418789626E+03  0.15175623971E+03  0.00000000000E+00 0.  1.
         22    1    3    3    0    0  0.37020912160E+02 -0.58184010216E+01 -0.56986992832E+00  0.37479680887E+02  0.00000000000E+00 0.  1.
</event>
<event>
 7    1  0.5667373E-006  0.1458750E+03  0.7818608E-02  0.1344371E+00
          2   -1    0    0  502    0  0.00000000000E+00  0.00000000000E+00  0.22822689544E+02  0.22822689544E+02  0.00000000000E+00 0. -1.
          1   -1    0    0  501    0 -0.00000000000E+00 -0.00000000000E+00 -0.27923948684E+04  0.27923948684E+04  0.00000000000E+00 0. -1.
         25    2    1    2    0    0  0.10885938961E+03 -0.10980616510E+03 -0.13069691399E+04  0.13220066875E+04  0.12500235401E+03 0.  0.
          2    1    1    2  501    0 -0.72905584410E+02  0.12327795572E+03 -0.14430202761E+04  0.14501104081E+04  0.00000000000E+00 0. -1.
          1    1    1    2  502    0 -0.35953805201E+02 -0.13471790615E+02 -0.19582762884E+02  0.43100462329E+02  0.00000000000E+00 0. -1.
         22    1    3    3    0    0  0.13665385105E+03 -0.92894363898E+02 -0.10366361652E+04  0.10497229048E+04  0.00000000000E+00 0. -1.
         22    1    3    3    0    0 -0.27794461441E+02 -0.16911801203E+02 -0.27033297471E+03  0.27228378271E+03  0.00000000000E+00 0. -1.
</event>
<event>
 7    1  0.5667373E-006  0.7058223E+02  0.7818608E-02  0.1388185E+00
          2   -1    0    0  502    0  0.00000000000E+00  0.00000000000E+00  0.17549269612E+04  0.17549269612E+04  0.00000000000E+00 0. -1.
          1   -1    0    0  501    0 -0.00000000000E+00 -0.00000000000E+00 -0.11258800901E+03  0.11258800901E+03  0.00000000000E+00 0. -1.
         25    2    1    2    0    0  0.67318461356E+02 -0.70840644926E+02  0.75679464584E+03  0.77324803743E+03  0.12499687678E+03 0.  0.
          2    1    1    2  501    0 -0.68620607237E+02  0.15759560603E+02 -0.91621353220E+02  0.11554922697E+03  0.00000000000E+00 0. -1.
          1    1    1    2  502    0  0.13021458807E+01  0.55081084323E+02  0.97716565957E+03  0.97871770581E+03  0.00000000000E+00 0. -1.
         22    1    3    3    0    0 -0.23586245305E+02 -0.45710361055E+02  0.43155486703E+03  0.43460942389E+03  0.00000000000E+00 0. -1.
         22    1    3    3    0    0  0.90904706661E+02 -0.25130283872E+02  0.32523977881E+03  0.33863861354E+03  0.00000000000E+00 0. -1.
</event>
<event>
 7    1  0.5667373E-006  0.3739817E+02  0.7818608E-02  0.1538601E+00
          2   -1    0    0  502    0  0.00000000000E+00  0.00000000000E+00  0.54538465712E+03  0.54538465712E+03  0.00000000000E+00 0. -1.
          1   -1    0    0  501    0 -0.00000000000E+00 -0.00000000000E+00 -0.11772806436E+03  0.11772806436E+03  0.00000000000E+00 0. -1.
         25    2    1    2    0    0  0.18231532371E+02  0.18980398998E+02  0.33691448211E+03  0.36031806471E+03  0.12500038074E+03 0.  0.
          2    1    1    2  501    0 -0.33424334912E+02  0.16776075220E+02 -0.10071565069E+03  0.10743493453E+03  0.00000000000E+00 0. -1.
          1    1    1    2  502    0  0.15192802541E+02 -0.35756474217E+02  0.19145776134E+03  0.19535972224E+03  0.00000000000E+00 0. -1.
         22    1    3    3    0    0  0.20767823135E+01  0.18808991263E+02  0.34265178160E+03  0.34317391307E+03  0.00000000000E+00 0.  1.
         22    1    3    3    0    0  0.16154750058E+02  0.17140773463E+00 -0.57372994941E+01  0.17144151642E+02  0.00000000000E+00 0.  1.
</event>
<event>
 7    1  0.5667373E-006  0.9745056E+02  0.7818608E-02  0.1387953E+00
          2   -1    0    0  502    0  0.00000000000E+00  0.00000000000E+00  0.24234191527E+04  0.24234191527E+04  0.00000000000E+00 0. -1.
          1   -1    0    0  501    0 -0.00000000000E+00 -0.00000000000E+00 -0.10187446482E+03  0.10187446482E+03  0.00000000000E+00 0. -1.
         25    2    1    2    0    0 -0.58166032948E+02 -0.11394863313E+03  0.12223493118E+03  0.21664142399E+03  0.12499819920E+03 0.  0.
          2    1    1    2  501    0 -0.40975685723E+01  0.39769760304E+02 -0.46175951632E+02  0.61078985027E+02  0.00000000000E+00 0. -1.
          1    1    1    2  502    0  0.62263601520E+02  0.74178872829E+02  0.22454857083E+04  0.22475732085E+04  0.00000000000E+00 0. -1.
         22    1    3    3    0    0  0.78760005599E+01 -0.99761498388E+02  0.10870002359E+03  0.14775006963E+03  0.00000000000E+00 0. -1.
         22    1    3    3    0    0 -0.66042033508E+02 -0.14187134745E+02  0.13534907586E+02  0.68891354359E+02  0.00000000000E+00 0. -1.
</event>
<event>
 7    1  0.5667373E-006  0.1086371E+03  0.7818608E-02  0.1370477E+00
          2   -1    0    0  502    0  0.00000000000E+00  0.00000000000E+00  0.39795884283E+03  0.39795884283E+03  0.00000000000E+00 0. -1.
          1   -1    0    0  501    0 -0.00000000000E+00 -0.00000000000E+00 -0.14105765605E+04  0.14105765605E+04  0.00000000000E+00 0. -1.
         25    2    1    2    0    0  0.89796669660E+01 -0.68668356370E+02 -0.19257419389E+03  0.23980567900E+03  0.12500386371E+03 0.  0.
          2    1    1    2  501    0 -0.27211817075E+01 -0.41274296214E+02 -0.11859196839E+04  0.11866408341E+04  0.00000000000E+00 0. -1.
          1    1    1    2  502    0 -0.62584852585E+01  0.10994265258E+03  0.36587616015E+03  0.38208889026E+03  0.00000000000E+00 0. -1.
         22    1    3    3    0    0  0.53317965337E+02 -0.64180885882E+02 -0.17104864144E+03  0.19031455351E+03  0.00000000000E+00 0. -1.
         22    1    3    3    0    0 -0.44338298371E+02 -0.44874704880E+01 -0.21525552456E+02  0.49491125491E+02  0.00000000000E+00 0. -1.
</event>
<event>
 7    1  0.5667373E-006  0.2750193E+02  0.7818608E-02  0.1635470E+00
          2   -1    0    0  502    0  0.00000000000E+00  0.00000000000E+00  0.15563348653E+03  0.15563348653E+03  0.00000000000E+00 0. -1.
          1   -1    0    0  501    0 -0.00000000000E+00 -0.00000000000E+00 -0.24190850314E+03  0.24190850314E+03  0.00000000000E+00 0. -1.
         25    2    1    2    0    0 -0.27466510847E+02 -0.27774030347E+02 -0.78737688197E+02  0.15280457078E+03  0.12499522922E+03 0.  0.
          2    1    1    2  501    0  0.12107432867E+01  0.27395919983E+02 -0.12315717940E+03  0.12617326646E+03  0.00000000000E+00 0. -1.
          1    1    1    2  502    0  0.26255767560E+02  0.37811036365E+00  0.11561985099E+03  0.11856415243E+03  0.00000000000E+00 0. -1.
         22    1    3    3    0    0 -0.50645156882E+02  0.34536547358E+02 -0.54555871105E+02  0.82061245976E+02  0.00000000000E+00 0.  1.
         22    1    3    3    0    0  0.23178646035E+02 -0.62310577706E+02 -0.24181817092E+02  0.70743324801E+02  0.00000000000E+00 0.  1.
</event>
<event>
 7    1  0.5667373E-006  0.1181631E+03  0.7818608E-02  0.1263974E+00
          2   -1    0    0  502    0  0.00000000000E+00  0.00000000000E+00  0.24234716256E+03  0.24234716256E+03  0.00000000000E+00 0. -1.
          1   -1    0    0  501    0 -0.00000000000E+00 -0.00000000000E+00 -0.61294018802E+03  0.61294018802E+03  0.00000000000E+00 0. -1.
         25    2    1    2    0    0 -0.10237621793E+03 -0.11079982520E+03 -0.27807574358E+03  0.34015977134E+03  0.12500023843E+03 0.  0.
          2    1    1    2  501    0  0.34452141583E+01  0.11553853246E+03 -0.28009402078E+03  0.30300772673E+03  0.00000000000E+00 0. -1.
          1    1    1    2  502    0  0.98931003776E+02 -0.47387072658E+01  0.18757673890E+03  0.21211985251E+03  0.00000000000E+00 0. -1.
         22    1    3    3    0    0 -0.81813229042E+02  0.74696422953E+00 -0.10279416889E+03  0.13137961622E+03  0.00000000000E+00 0. -1.
         22    1    3    3    0    0 -0.20562988892E+02 -0.11154678943E+03 -0.17528157469E+03  0.20878015512E+03  0.00000000000E+00 0. -1.
</event>
<event>
 7    1  0.5667373E-006  0.9134607E+02  0.7818608E-02  0.1395756E+00
          2   -1    0    0  502    0  0.00000000000E+00  0.00000000000E+00  0.59926547226E+03  0.59926547226E+03  0.00000000000E+00 0. -1.
          1   -1    0    0  501    0 -0.00000000000E+00 -0.00000000000E+00 -0.24630690503E+03  0.24630690503E+03  0.00000000000E+00 0. -1.
         25    2    1    2    0    0  0.71223617306E+02 -0.63059666175E+02  0.11372566314E+03  0.19392564360E+03  0.12499721448E+03 0.  0.
          2    1    1    2  501    0 -0.36971370156E+02  0.83847538144E+02 -0.19505835605E+03  0.21551114619E+03  0.00000000000E+00 0. -1.
          1    1    1    2  502    0 -0.34252247150E+02 -0.20787871969E+02  0.43429126014E+03  0.43613558751E+03  0.00000000000E+00 0. -1.
         22    1    3    3    0    0  0.81737438253E+02 -0.87999843791E+02  0.61110327132E+02  0.13475701615E+03  0.00000000000E+00 0. -1.
         22    1    3    3    0    0 -0.10513820947E+02  0.24940177616E+02  0.52615336010E+02  0.59168627446E+02  0.00000000000E+00 0. -1.
</event>
<event>
 7    1  0.5667373E-006  0.8737662E+02  0.7818608E-02  0.1472018E+00
          2   -1    0    0  502    0  0.00000000000E+00  0.00000000000E+00  0.10124419561E+04  0.10124419561E+04  0.00000000000E+00 0. -1.
          1   -1    0    0  501    0 -0.00000000000E+00 -0.00000000000E+00 -0.97029095146E+03  0.97029095146E+03  0.00000000000E+00 0. -1.
         25    2    1    2    0    0 -0.42339038140E+02  0.81649166766E+02 -0.30923064933E+03  0.34598646764E+03  0.12499544279E+03 0.  0.
          2    1    1    2  501    0  0.19009711037E+02 -0.84957486787E+02 -0.63959345930E+03  0.64549123685E+03  0.00000000000E+00 0. -1.
          1    1    1    2  502    0  0.23329327103E+02  0.33083200214E+01  0.99097511325E+03  0.99125520304E+03  0.00000000000E+00 0. -1.
         22    1    3    3    0    0 -0.79019785268E+02  0.23705192551E+02 -0.12872725824E+03  0.15289463572E+03  0.00000000000E+00 0. -1.
         22    1    3    3    0    0  0.36680747129E+02  0.57943974215E+02 -0.18050339109E+03  0.19309183192E+03  0.00000000000E+00 0. -1.
</event>
<event>
 7    1  0.5667373E-006  0.6626832E+02  0.7818608E-02  0.1465055E+00
          2   -1    0    0  502    0  0.00000000000E+00  0.00000000000E+00  0.16442205269E+04  0.16442205269E+04  0.00000000000E+00 0. -1.
          1   -1    0    0  501    0 -0.00000000000E+00 -0.00000000000E+00 -0.37264754425E+02  0.37264754425E+02  0.00000000000E+00 0. -1.
         25    2    1    2    0    0 -0.86119413206E+01  0.47120426338E+02  0.29833060828E+03  0.32698972916E+03  0.12500652395E+03 0.  0.
          2    1    1    2  501    0 -0.31879189159E+02  0.70997813678E+01 -0.99831756645E+01  0.34151916392E+02  0.00000000000E+00 0. -1.
          1    1    1    2  502    0  0.40491130479E+02 -0.54220207706E+02  0.13186083399E+04  0.13203436358E+04  0.00000000000E+00 0. -1.
         22    1    3    3    0    0  0.84807786574E+01 -0.40206988268E+02  0.61224147103E+02  0.73735484678E+02  0.00000000000E+00 0. -1.
         22    1    3    3    0    0 -0.17092719978E+02  0.87327414607E+02  0.23710646118E+03  0.25325424448E+03  0.00000000000E+00 0. -1.
</event>
<event>
 7    1  0.5978815E-006  0.5252215E+02  0.7818608E-02  0.1443482E+00
          2   -1    0    0  502    0  0.00000000000E+00  0.00000000000E+00  0.36709276498E+03  0.36709276498E+03  0.00000000000E+00 0. -1.
          1   -1    0    0  501    0 -0.00000000000E+00 -0.00000000000E+00 -0.14449523583E+04  0.14449523583E+04  0.00000000000E+00 0. -1.
         25    2    1    2    0    0  0.93615823641E+02 -0.33213175732E+02 -0.52516285996E+03  0.54889806858E+03  0.12500409084E+03 0.  0.
          2    1    1    2  501    0 -0.42173963687E+02  0.23462289641E+02 -0.90534639476E+03  0.90663179779E+03  0.00000000000E+00 0. -1.
          1    1    1    2  502    0 -0.51441859954E+02  0.97508860910E+01  0.35264966140E+03  0.35651525692E+03  0.00000000000E+00 0. -1.
         22    1    3    3    0    0  0.51905986001E+02  0.21627854897E+02 -0.76323958440E+02  0.94801593458E+02  0.00000000000E+00 0. -1.
         22    1    3    3    0    0  0.41709837639E+02 -0.54841030629E+02 -0.44883890152E+03  0.45409647512E+03  0.00000000000E+00 0. -1.
</event>
<event>
 7    1  0.5667373E-006  0.1181271E+03  0.7818608E-02  0.1330744E+00
          2   -1    0    0  502    0  0.00000000000E+00  0.00000000000E+00  0.36833973778E+03  0.36833973778E+03  0.00000000000E+00 0. -1.
          1   -1    0    0  501    0 -0.00000000000E+00 -0.00000000000E+00 -0.30493332053E+03  0.30493332053E+03  0.00000000000E+00 0. -1.
         25    2    1    2    0    0  0.21680144396E+02 -0.66058820914E+02 -0.12508785129E+03  0.19001249442E+03  0.12499592398E+03 0.  0.
          2    1    1    2  501    0  0.13179531048E+01 -0.53361787912E+02 -0.13097057430E+03  0.14143022570E+03  0.00000000000E+00 0. -1.
          1    1    1    2  502    0 -0.22998097501E+02  0.11942060883E+03  0.31946484284E+03  0.34183033820E+03  0.00000000000E+00 0. -1.
         22    1    3    3    0    0  0.62222768869E+02 -0.78881791937E+02 -0.85832146192E+02  0.13214071055E+03  0.00000000000E+00 0.  1.
         22    1    3    3    0    0 -0.40542624472E+02  0.12822971023E+02 -0.39255705102E+02  0.57871783868E+02  0.00000000000E+00 0.  1.
</event>
<event>
 7    1  0.5667373E-006  0.1404171E+03  0.7818608E-02  0.1259324E+00
          2   -1    0    0  502    0  0.00000000000E+00  0.00000000000E+00  0.14247704997E+04  0.14247704997E+04  0.00000000000E+00 0. -1.
          1   -1    0    0  501    0 -0.00000000000E+00 -0.00000000000E+00 -0.82184970004E+03  0.82184970004E+03  0.00000000000E+00 0. -1.
         25    2    1    2    0    0 -0.15764811291E+03  0.10095357982E+03  0.20474816667E+02  0.22603911468E+03  0.12501964032E+03 0.  0.
          2    1    1    2  501    0  0.72213069506E+02 -0.11857625305E+03 -0.71088313983E+03  0.72431339466E+03  0.00000000000E+00 0. -1.
          1    1    1    2  502    0  0.85435043406E+02  0.17622673225E+02  0.12933291228E+04  0.12962676904E+04  0.00000000000E+00 0. -1.
         22    1    3    3    0    0 -0.29276846654E+02 -0.13725999846E+02  0.41516138784E+02  0.52622491401E+02  0.00000000000E+00 0.  1.
         22    1    3    3    0    0 -0.12837126626E+03  0.11467957967E+03 -0.21041322117E+02  0.17341662328E+03  0.00000000000E+00 0.  1.
</event>
<event>
 7    1  0.5667373E-006  0.6130460E+02  0.7818608E-02  0.1444393E+00
          2   -1    0    0  502    0  0.00000000000E+00  0.00000000000E+00  0.27330093636E+04  0.27330093636E+04  0.00000000000E+00 0. -1.
          1   -1    0    0  501    0 -0.00000000000E+00 -0.00000000000E+00 -0.34453970798E+03  0.34453970798E+03  0.00000000000E+00 0. -1.
         25    2    1    2    0    0  0.37433381134E+02 -0.76580519248E+02  0.46972284193E+03  0.49348797119E+03  0.12499998213E+03 0.  0.
          2    1    1    2  501    0 -0.48702789764E+02  0.37088818485E+02 -0.32965166786E+03  0.33528758448E+03  0.00000000000E+00 0. -1.
          1    1    1    2  502    0  0.11269408631E+02  0.39491700763E+02  0.22483984815E+04  0.22487735159E+04  0.00000000000E+00 0. -1.
         22    1    3    3    0    0  0.51621854720E+02 -0.81932167318E+02  0.18907998790E+03  0.21243572616E+03  0.00000000000E+00 0.  1.
         22    1    3    3    0    0 -0.14188473587E+02  0.53516480700E+01  0.28064285403E+03  0.28105224503E+03  0.00000000000E+00 0.  1.
</event>
<event>
 7    1  0.5667373E-006  0.1252839E+03  0.7818608E-02  0.1348738E+00
          2   -1    0    0  502    0  0.00000000000E+00  0.00000000000E+00  0.51178878607E+03  0.51178878607E+03  0.00000000000E+00 0. -1.
          1   -1    0    0  501    0 -0.00000000000E+00 -0.00000000000E+00 -0.10055137266E+03  0.10055137266E+03  0.00000000000E+00 0. -1.
         25    2    1    2    0    0  0.14614497387E+02  0.94470681236E+02  0.28087389201E+02  0.15985084459E+03  0.12500039175E+03 0.  0.
          2    1    1    2  501    0 -0.24186077438E+02  0.35628009610E+02 -0.46729172462E+01  0.43314634550E+02  0.00000000000E+00 0. -1.
          1    1    1    2  502    0  0.95715800515E+01 -0.13009869085E+03  0.38782294145E+03  0.40917467959E+03  0.00000000000E+00 0. -1.
         22    1    3    3    0    0 -0.53422246640E+02  0.57335959658E+02  0.25076829725E+02  0.82281201347E+02  0.00000000000E+00 0. -1.
         22    1    3    3    0    0  0.68036744026E+02  0.37134721577E+02  0.30105594760E+01  0.77569643242E+02  0.00000000000E+00 0. -1.
</event>
<event>
 7    1  0.5667373E-006  0.4843775E+02  0.7818608E-02  0.1468396E+00
          2   -1    0    0  502    0  0.00000000000E+00  0.00000000000E+00  0.16840035034E+03  0.16840035034E+03  0.00000000000E+00 0. -1.
          1   -1    0    0  501    0 -0.00000000000E+00 -0.00000000000E+00 -0.11355465536E+03  0.11355465536E+03  0.00000000000E+00 0. -1.
         25    2    1    2    0    0 -0.19035259419E+02 -0.61469200631E+01  0.70137662703E+02  0.14472051104E+03  0.12499843543E+03 0.  0.
          2    1    1    2  501    0  0.41338444129E+02 -0.31341774135E+02 -0.56866907098E+02  0.76974144307E+02  0.00000000000E+00 0. -1.
          1    1    1    2  502    0 -0.22303184709E+02  0.37488694198E+02  0.41574939374E+02  0.60260350354E+02  0.00000000000E+00 0. -1.
         22    1    3    3    0    0  0.15991085547E+02  0.34993902031E+02 -0.17101727641E+02  0.42104121943E+02  0.00000000000E+00 0.  1.
         22    1    3    3    0    0 -0.35026344966E+02 -0.41140822094E+02  0.87239390344E+02  0.10261638910E+03  0.00000000000E+00 0.  1.
</event>
<event>
 7    1  0.5667373E-006  0.5983480E+02  0.7818608E-02  0.1403932E+00
          2   -1    0    0  502    0  0.00000000000E+00  0.00000000000E+00  0.34106133108E+03  0.34106133108E+03  0.00000000000E+00 0. -1.
          1   -1    0    0  501    0 -0.00000000000E+00 -0.00000000000E+00 -0.15494089893E+04  0.15494089893E+04  0.00000000000E+00 0. -1.
         25    2    1    2    0    0 -0.43362961681E+02  0.55945527643E+02 -0.12451685194E+03  0.19010325398E+03  0.12499820899E+03 0.  0.
          2    1    1    2  501    0 -0.16741142861E+02 -0.54833369081E+02 -0.13885710854E+04  0.13897541594E+04  0.00000000000E+00 0. -1.
          1    1    1    2  502    0  0.60104104542E+02 -0.11121585624E+01  0.30474027914E+03  0.31061290702E+03  0.00000000000E+00 0. -1.
         22    1    3    3    0    0 -0.43454950642E+02 -0.13403718700E+02  0.23321494999E+01  0.45534946268E+02  0.00000000000E+00 0.  1.
         22    1    3    3    0    0  0.91988961449E-01  0.69349246343E+02 -0.12684900144E+03  0.14456830772E+03  0.00000000000E+00 0.  1.
</event>
<event>
 7    1  0.5667373E-006  0.5393551E+02  0.7818608E-02  0.1466962E+00
          2   -1    0    0  502    0  0.00000000000E+00  0.00000000000E+00  0.16669898313E+04  0.16669898313E+04  0.00000000000E+00 0. -1.
          1   -1    0    0  501    0 -0.00000000000E+00 -0.00000000000E+00 -0.76568426805E+03  0.76568426805E+03  0.00000000000E+00 0. -1.
         25    2    1    2    0    0 -0.14718032965E+02  0.19146070275E+01  0.18376652176E+03  0.22272871746E+03  0.12497063994E+03 0.  0.
          2    1    1    2  501    0  0.54078240173E+02  0.22592377676E+01 -0.74495357387E+03  0.74691725609E+03  0.00000000000E+00 0. -1.
          1    1    1    2  502    0 -0.39360207207E+02 -0.41738447951E+01  0.14624926154E+04  0.14630281258E+04  0.00000000000E+00 0. -1.
         22    1    3    3    0    0 -0.37592076572E+01  0.50236335780E+02  0.24666166464E+02  0.56091361571E+02  0.00000000000E+00 0. -1.
         22    1    3    3    0    0 -0.10958825308E+02 -0.48321728753E+02  0.15910035529E+03  0.16663735589E+03  0.00000000000E+00 0. -1.
</event>
<event>
 7    1  0.5667373E-006  0.8671788E+02  0.7818608E-02  0.1425631E+00
          2   -1    0    0  502    0  0.00000000000E+00  0.00000000000E+00  0.13971392731E+04  0.13971392731E+04  0.00000000000E+00 0. -1.
          1   -1    0    0  501    0 -0.00000000000E+00 -0.00000000000E+00 -0.70713879029E+02  0.70713879029E+02  0.00000000000E+00 0. -1.
         25    2    1    2    0    0 -0.21893555397E+02  0.76840574292E+02  0.48595317189E+03  0.50809339260E+03  0.12499843485E+03 0.  0.
          2    1    1    2  501    0  0.54310215995E+02 -0.68646963355E+02 -0.27031649700E+02  0.91611763572E+02  0.00000000000E+00 0. -1.
          1    1    1    2  502    0 -0.32416660597E+02 -0.81936109372E+01  0.86750387191E+03  0.86814799598E+03  0.00000000000E+00 0. -1.
         22    1    3    3    0    0 -0.12632480392E+02 -0.32251513552E+02  0.71876593851E+02  0.79787119455E+02  0.00000000000E+00 0.  1.
         22    1    3    3    0    0 -0.92610750055E+01  0.10909208784E+03  0.41407657803E+03  0.42830627315E+03  0.00000000000E+00 0.  1.
</event>
<event>
 7    1  0.5667373E-006  0.3282048E+02  0.7818608E-02  0.1650971E+00
          2   -1    0    0  502    0  0.00000000000E+00  0.00000000000E+00  0.13519465224E+04  0.13519465224E+04  0.00000000000E+00 0. -1.
          1   -1    0    0  501    0 -0.00000000000E+00 -0.00000000000E+00 -0.13801551486E+03  0.13801551486E+03  0.00000000000E+00 0. -1.
         25    2    1    2    0    0 -0.36388145011E+02 -0.22349212273E+01  0.44733546316E+03  0.46590792863E+03  0.12502835436E+03 0.  0.
          2    1    1    2  501    0  0.28498879843E+02 -0.16300172157E+02 -0.12652054862E+03  0.13071086790E+03  0.00000000000E+00 0. -1.
          1    1    1    2  502    0  0.78892651687E+01  0.18535093384E+02  0.89311609299E+03  0.89334324072E+03  0.00000000000E+00 0. -1.
         22    1    3    3    0    0 -0.11696295456E+02  0.41060155223E+02  0.51268703043E+02  0.66717460878E+02  0.00000000000E+00 0. -1.
         22    1    3    3    0    0 -0.24691849555E+02 -0.43295076450E+02  0.39606676011E+03  0.39919046775E+03  0.00000000000E+00 0. -1.
</event>
<event>
 7    1  0.5667373E-006  0.3676845E+03  0.7818608E-02  0.1301986E+00
          2   -1    0    0  502    0  0.00000000000E+00  0.00000000000E+00  0.58346799322E+03  0.58346799322E+03  0.00000000000E+00 0. -1.
          1   -1    0    0  501    0 -0.00000000000E+00 -0.00000000000E+00 -0.95279060310E+03  0.95279060310E+03  0.00000000000E+00 0. -1.
         25    2    1    2    0    0 -0.31272192769E+03 -0.22719318779E+03  0.13730733516E+03  0.42882553489E+03  0.12500514571E+03 0.  0.
          2    1    1    2  501    0  0.29816505634E+03  0.21042453335E+03 -0.76527502649E+03  0.84783651209E+03  0.00000000000E+00 0. -1.
          1    1    1    2  502    0  0.14556871350E+02  0.16768654435E+02  0.25864508144E+03  0.25959654934E+03  0.00000000000E+00 0. -1.
         22    1    3    3    0    0 -0.27447483783E+03 -0.15643685379E+03  0.69162983950E+02  0.32340755120E+03  0.00000000000E+00 0.  1.
         22    1    3    3    0    0 -0.38247089856E+02 -0.70756334001E+02  0.68144351215E+02  0.10541798369E+03  0.00000000000E+00 0.  1.
</event>
<event>
 7    1  0.5667373E-006  0.1040836E+03  0.7818608E-02  0.1336536E+00
          2   -1    0    0  502    0  0.00000000000E+00  0.00000000000E+00  0.21230542787E+04  0.21230542787E+04  0.00000000000E+00 0. -1.
          1   -1    0    0  501    0 -0.00000000000E+00 -0.00000000000E+00 -0.33115412389E+03  0.33115412389E+03  0.00000000000E+00 0. -1.
         25    2    1    2    0    0 -0.44972423280E+02 -0.15484870164E+02 -0.24928635369E+03  0.28289194489E+03  0.12498746451E+03 0.  0.
          2    1    1    2  501    0 -0.57377874461E+02 -0.49073112722E+01 -0.50761983458E+02  0.76766406364E+02  0.00000000000E+00 0. -1.
          1    1    1    2  502    0  0.10235029774E+03  0.20392181437E+02  0.20919484920E+04  0.20945500513E+04  0.00000000000E+00 0. -1.
         22    1    3    3    0    0  0.32393538652E+02 -0.61790779911E+01 -0.15457018183E+02  0.36420348191E+02  0.00000000000E+00 0. -1.
         22    1    3    3    0    0 -0.77365961932E+02 -0.93057921733E+01 -0.23382933551E+03  0.24647159670E+03  0.00000000000E+00 0. -1.
</event>
<event>
 7    1  0.5667373E-006  0.9212778E+02  0.7818608E-02  0.1349971E+00
          2   -1    0    0  502    0  0.00000000000E+00  0.00000000000E+00  0.87369465552E+03  0.87369465552E+03  0.00000000000E+00 0. -1.
          1   -1    0    0  501    0 -0.00000000000E+00 -0.00000000000E+00 -0.46432960127E+03  0.46432960127E+03  0.00000000000E+00 0. -1.
         25    2    1    2    0    0 -0.71266616338E+02  0.58895502983E+02  0.18551127464E+03  0.24204731722E+03  0.12499943952E+03 0.  0.
          2    1    1    2  501    0  0.48159156813E+02  0.32224848088E+02 -0.43076400155E+03  0.43464395803E+03  0.00000000000E+00 0. -1.
          1    1    1    2  502    0  0.23107459524E+02 -0.91120351071E+02  0.65461778116E+03  0.66133298154E+03  0.00000000000E+00 0. -1.
         22    1    3    3    0    0  0.11376464132E+02 -0.21836516907E+02  0.13655430150E+01  0.24660132087E+02  0.00000000000E+00 0. -1.
         22    1    3    3    0    0 -0.82643080470E+02  0.80732019890E+02  0.18414573163E+03  0.21738718514E+03  0.00000000000E+00 0. -1.
</event>
<event>
 7    1  0.5667373E-006  0.1627157E+03  0.7818608E-02  0.1254860E+00
          2   -1    0    0  502    0  0.00000000000E+00  0.00000000000E+00  0.16121282124E+04  0.16121282124E+04  0.00000000000E+00 0. -1.
          1   -1    0    0  501    0 -0.00000000000E+00 -0.00000000000E+00 -0.68336856851E+03  0.68336856851E+03  0.00000000000E+00 0. -1.
         25    2    1    2    0    0  0.36008417533E+01 -0.85176001855E+02 -0.30070330725E+03  0.33662348397E+03  0.12499989447E+03 0.  0.
          2    1    1    2  501    0  0.10706481500E+02 -0.77939405919E+02 -0.35619701650E+03  0.36478143361E+03  0.00000000000E+00 0. -1.
          1    1    1    2  502    0 -0.14307323253E+02  0.16311540777E+03  0.15856599677E+04  0.15940918633E+04  0.00000000000E+00 0. -1.
         22    1    3    3    0    0  0.34751688927E+01  0.81685212987E+00 -0.21563026899E+03  0.21565981765E+03  0.00000000000E+00 0.  1.
         22    1    3    3    0    0  0.12567286064E+00 -0.85992853985E+02 -0.85073038261E+02  0.12096366632E+03  0.00000000000E+00 0.  1.
</event>
<event>
 7    1  0.5667373E-006  0.1803013E+03  0.7818608E-02  0.1222585E+00
          2   -1    0    0  502    0  0.00000000000E+00  0.00000000000E+00  0.80321520189E+03  0.80321520189E+03  0.00000000000E+00 0. -1.
          1   -1    0    0  501    0 -0.00000000000E+00 -0.00000000000E+00 -0.10304347089E+04  0.10304347089E+04  0.00000000000E+00 0. -1.
         25    2    1    2    0    0  0.11043505711E+03 -0.32093617092E+01  0.12456717664E+02  0.16729554636E+03  0.12500571256E+03 0.  0.
          2    1    1    2  501    0 -0.17423709537E+03 -0.71974979267E+02 -0.94020563192E+03  0.95891897121E+03  0.00000000000E+00 0. -1.
          1    1    1    2  502    0  0.63802038254E+02  0.75184340976E+02  0.70052940724E+03  0.70743539325E+03  0.00000000000E+00 0. -1.
         22    1    3    3    0    0  0.97653381707E+02 -0.49914372455E+02 -0.16455700666E+02  0.11089823092E+03  0.00000000000E+00 0.  1.
         22    1    3    3    0    0  0.12781675405E+02  0.46705010746E+02  0.28912418329E+02  0.56397315438E+02  0.00000000000E+00 0.  1.
</event>
<event>
 7    1  0.5667373E-006  0.5802421E+02  0.7818608E-02  0.1441291E+00
          2   -1    0    0  502    0  0.00000000000E+00  0.00000000000E+00  0.85589033745E+03  0.85589033745E+03  0.00000000000E+00 0. -1.
          1   -1    0    0  501    0 -0.00000000000E+00 -0.00000000000E+00 -0.10006696495E+03  0.10006696495E+03  0.00000000000E+00 0. -1.
         25    2    1    2    0    0 -0.12633808704E+02 -0.10972266132E+02  0.17821774189E+03  0.21832608246E+03  0.12499884405E+03 0.  0.
          2    1    1    2  501    0 -0.37860217551E+02 -0.23199970216E+02 -0.72313763820E+02  0.84858206020E+02  0.00000000000E+00 0. -1.
          1    1    1    2  502    0  0.50494026256E+02  0.34172236348E+02  0.64991939444E+03  0.65277301391E+03  0.00000000000E+00 0. -1.
         22    1    3    3    0    0  0.51664000428E+02 -0.73164292168E+01  0.12256418135E+03  0.13320914993E+03  0.00000000000E+00 0.  1.
         22    1    3    3    0    0 -0.64297809132E+02 -0.36558369153E+01  0.55653560537E+02  0.85116932529E+02  0.00000000000E+00 0.  1.
</event>
<event>
 7    1  0.5667373E-006  0.1381127E+03  0.7818608E-02  0.1248514E+00
          2   -1    0    0  502    0  0.00000000000E+00  0.00000000000E+00  0.89123445382E+03  0.89123445382E+03  0.00000000000E+00 0. -1.
          1   -1    0    0  501    0 -0.00000000000E+00 -0.00000000000E+00 -0.48250936117E+03  0.48250936117E+03  0.00000000000E+00 0. -1.
         25    2    1    2    0    0  0.13960919706E+03  0.45435765796E+02 -0.88992084841E+02  0.21236625613E+03  0.12499879543E+03 0.  0.
          2    1    1    2  501    0 -0.66562843005E+02  0.72923143524E+02 -0.31847032673E+03  0.33342427317E+03  0.00000000000E+00 0. -1.
          1    1    1    2  502    0 -0.73046354059E+02 -0.11835890932E+03  0.81618750422E+03  0.82795328570E+03  0.00000000000E+00 0. -1.
         22    1    3    3    0    0  0.41836604332E+02  0.60028895343E+02  0.83316124006E+01  0.73642280677E+02  0.00000000000E+00 0. -1.
         22    1    3    3    0    0  0.97772592732E+02 -0.14593129547E+02 -0.97323697241E+02  0.13872397545E+03  0.00000000000E+00 0. -1.
</event>
<event>
 7    1  0.5734053E-006  0.7232189E+02  0.7818608E-02  0.1409223E+00
          2   -1    0    0  502    0  0.00000000000E+00  0.00000000000E+00  0.12212798045E+04  0.12212798045E+04  0.00000000000E+00 0. -1.
          1   -1    0    0  501    0 -0.00000000000E+00 -0.00000000000E+00 -0.64847522427E+03  0.64847522427E+03  0.00000000000E+00 0. -1.
         25    2    1    2    0    0 -0.35874021820E+02 -0.16821616088E+01 -0.74930555462E+02  0.15009756989E+03  0.12499966894E+03 0.  0.
          2    1    1    2  501    0  0.66080274644E+02  0.35716255751E+02 -0.53288884769E+03  0.53815683365E+03  0.00000000000E+00 0. -1.
          1    1    1    2  502    0 -0.30206252824E+02 -0.34034094142E+02  0.11806239834E+04  0.11815006252E+04  0.00000000000E+00 0. -1.
         22    1    3    3    0    0 -0.18762219550E+01  0.47714761227E+02  0.73187976263E+01  0.48309248043E+02  0.00000000000E+00 0.  1.
         22    1    3    3    0    0 -0.33997799865E+02 -0.49396922836E+02 -0.82249353088E+02  0.10178832185E+03  0.00000000000E+00 0.  1.
</event>
<event>
 7    1  0.5667373E-006  0.8008317E+02  0.7818608E-02  0.1347728E+00
          2   -1    0    0  502    0  0.00000000000E+00  0.00000000000E+00  0.27051195976E+03  0.27051195976E+03  0.00000000000E+00 0. -1.
          1   -1    0    0  501    0 -0.00000000000E+00 -0.00000000000E+00 -0.27955561113E+03  0.27955561113E+03  0.00000000000E+00 0. -1.
         25    2    1    2    0    0 -0.10451671057E+03  0.86256072738E+02 -0.40137578515E+02  0.18868978644E+03  0.12501582870E+03 0.  0.
          2    1    1    2  501    0  0.68407829391E+02 -0.28692557305E+02 -0.15033510547E+03  0.16764109849E+03  0.00000000000E+00 0. -1.
          1    1    1    2  502    0  0.36108881174E+02 -0.57563515433E+02  0.18142903262E+03  0.19373668596E+03  0.00000000000E+00 0. -1.
         22    1    3    3    0    0 -0.84897467118E+02  0.20421274866E+02 -0.71800231338E+02  0.11304813846E+03  0.00000000000E+00 0.  1.
         22    1    3    3    0    0 -0.19619243448E+02  0.65834797873E+02  0.31662652823E+02  0.75641647973E+02  0.00000000000E+00 0.  1.
</event>
<event>
 7    1  0.5667373E-006  0.1508123E+03  0.7818608E-02  0.1206717E+00
          2   -1    0    0  502    0  0.00000000000E+00  0.00000000000E+00  0.27128998450E+04  0.27128998450E+04  0.00000000000E+00 0. -1.
          1   -1    0    0  501    0 -0.00000000000E+00 -0.00000000000E+00 -0.12304556796E+04  0.12304556796E+04  0.00000000000E+00 0. -1.
         25    2    1    2    0    0  0.22501116723E+03 -0.86871409852E+02  0.35688109533E+03  0.44851621332E+03  0.12500404068E+03 0.  0.
          2    1    1    2  501    0 -0.13594097953E+03 -0.31172901675E+02 -0.11781542247E+04  0.11863806628E+04  0.00000000000E+00 0. -1.
          1    1    1    2  502    0 -0.89070187696E+02  0.11804431153E+03  0.23037172948E+04  0.23084586486E+04  0.00000000000E+00 0. -1.
         22    1    3    3    0    0  0.46945669060E+01 -0.42564550727E+02  0.89654153326E+02  0.99356163099E+02  0.00000000000E+00 0. -1.
         22    1    3    3    0    0  0.22031660032E+03 -0.44306859125E+02  0.26722694200E+03  0.34916005023E+03  0.00000000000E+00 0. -1.
</event>
<event>
 7    1  0.5667373E-006  0.4249554E+03  0.7818608E-02  0.1230868E+00
          2   -1    0    0  502    0  0.00000000000E+00  0.00000000000E+00  0.55139881993E+03  0.55139881993E+03  0.00000000000E+00 0. -1.
          1   -1    0    0  501    0 -0.00000000000E+00 -0.00000000000E+00 -0.66749706287E+03  0.66749706287E+03  0.00000000000E+00 0. -1.
         25    2    1    2    0    0  0.32684764601E+03 -0.29285944653E+03 -0.20107175286E+03  0.49865214707E+03  0.12501229883E+03 0.  0.
          2    1    1    2  501    0 -0.28853107723E+03  0.29523661057E+03 -0.18154863524E+03  0.45097089230E+03  0.00000000000E+00 0. -1.
          1    1    1    2  502    0 -0.38316568780E+02 -0.23771640468E+01  0.26652214516E+03  0.26927284344E+03  0.00000000000E+00 0. -1.
         22    1    3    3    0    0  0.33307369746E+03 -0.29795001861E+03 -0.20224356229E+03  0.49052498409E+03  0.00000000000E+00 0. -1.
         22    1    3    3    0    0 -0.62260514498E+01  0.50905720843E+01  0.11718094258E+01  0.81271629817E+01  0.00000000000E+00 0. -1.
</event>
<event>
 7    1  0.5667373E-006  0.2881526E+02  0.7818608E-02  0.1635003E+00
          2   -1    0    0  502    0  0.00000000000E+00  0.00000000000E+00  0.46220400106E+03  0.46220400106E+03  0.00000000000E+00 0. -1.
          1   -1    0    0  501    0 -0.00000000000E+00 -0.00000000000E+00 -0.23255526361E+04  0.23255526361E+04  0.00000000000E+00 0. -1.
         25    2    1    2    0    0 -0.37470973848E+02 -0.33341483995E+02 -0.84043948857E+03  0.85116391223E+03  0.12500297240E+03 0.  0.
          2    1    1    2  501    0  0.10685758641E+02  0.22744053381E+02 -0.14791900401E+04  0.14794034784E+04  0.00000000000E+00 0. -1.
          1    1    1    2  502    0  0.26785215207E+02  0.10597430615E+02  0.45628089356E+03  0.45718924651E+03  0.00000000000E+00 0. -1.
         22    1    3    3    0    0 -0.54892515467E+01 -0.39797861278E+02 -0.75452516299E+02  0.85481482560E+02  0.00000000000E+00 0.  1.
         22    1    3    3    0    0 -0.31981722302E+02  0.64563772824E+01 -0.76498697227E+03  0.76568242967E+03  0.00000000000E+00 0.  1.
</event>
<event>
 7    1  0.5667373E-006  0.6854519E+02  0.7818608E-02  0.1365223E+00
          2   -1    0    0  502    0  0.00000000000E+00  0.00000000000E+00  0.20192731797E+04  0.20192731797E+04  0.00000000000E+00 0. -1.
          1   -1    0    0  501    0 -0.00000000000E+00 -0.00000000000E+00 -0.17241553155E+03  0.17241553155E+03  0.00000000000E+00 0. -1.
         25    2    1    2    0    0  0.66408970853E+02  0.26881545742E+02  0.32909185178E+02  0.14779293528E+03  0.12500787310E+03 0.  0.
          2    1    1    2  501    0 -0.13543746464E+02 -0.70513076383E+02 -0.10309085291E+03  0.12563140914E+03  0.00000000000E+00 0. -1.
          1    1    1    2  502    0 -0.52865224389E+02  0.43631530641E+02  0.19170393159E+04  0.19182643668E+04  0.00000000000E+00 0. -1.
         22    1    3    3    0    0  0.60816149939E+02 -0.24421463932E+02  0.60570547558E+02  0.89240143576E+02  0.00000000000E+00 0. -1.
         22    1    3    3    0    0  0.55928209136E+01  0.51303009674E+02 -0.27661362380E+02  0.58552791702E+02  0.00000000000E+00 0. -1.
</event>
<event>
 7    1  0.5667373E-006  0.1250364E+03  0.7818608E-02  0.1379953E+00
          2   -1    0    0  502    0  0.00000000000E+00  0.00000000000E+00  0.11960818485E+04  0.11960818485E+04  0.00000000000E+00 0. -1.
          1   -1    0    0  501    0 -0.00000000000E+00 -0.00000000000E+00 -0.89357917034E+02  0.89357917034E+02  0.00000000000E+00 0. -1.
         25    2    1    2    0    0  0.50299361543E+02  0.96093371449E+02  0.16223973805E+03  0.23175248795E+03  0.12499408490E+03 0.  0.
          2    1    1    2  501    0 -0.37851826283E+02 -0.12692293947E+03  0.26463641115E+02  0.13506486449E+03  0.00000000000E+00 0. -1.
          1    1    1    2  502    0 -0.12447535259E+02  0.30829568025E+02  0.91802055227E+03  0.91862241307E+03  0.00000000000E+00 0. -1.
         22    1    3    3    0    0  0.85623650392E+02  0.97928920219E+02  0.12552247134E+03  0.18076884061E+03  0.00000000000E+00 0. -1.
         22    1    3    3    0    0 -0.35324288850E+02 -0.18355487697E+01  0.36717266704E+02  0.50983647341E+02  0.00000000000E+00 0. -1.
</event>
<event>
 7    1  0.5667373E-006  0.9303574E+02  0.7818608E-02  0.1307641E+00
          2   -1    0    0  502    0  0.00000000000E+00  0.00000000000E+00  0.12977657016E+03  0.12977657016E+03  0.00000000000E+00 0. -1.
          1   -1    0    0  501    0 -0.00000000000E+00 -0.00000000000E+00 -0.10948369378E+04  0.10948369378E+04  0.00000000000E+00 0. -1.
         25    2    1    2    0    0  0.15708707672E+02 -0.60684042710E+01 -0.23333102480E+03  0.26524192656E+03  0.12500529366E+03 0.  0.
          2    1    1    2  501    0  0.70016243336E+02 -0.45190650959E+02 -0.82111573625E+03  0.82533358201E+03  0.00000000000E+00 0. -1.
          1    1    1    2  502    0 -0.85724951008E+02  0.51259055230E+02  0.89386393382E+02  0.13403799943E+03  0.00000000000E+00 0. -1.
         22    1    3    3    0    0 -0.41408828811E+02  0.28009302677E+01 -0.18588178133E+03  0.19045884842E+03  0.00000000000E+00 0.  1.
         22    1    3    3    0    0  0.57117536483E+02 -0.88693345387E+01 -0.47449243473E+02  0.74783078134E+02  0.00000000000E+00 0.  1.
</event>
<event>
 7    1  0.5667373E-006  0.4414186E+02  0.7818608E-02  0.1479957E+00
          2   -1    0    0  502    0  0.00000000000E+00  0.00000000000E+00  0.12577907058E+02  0.12577907058E+02  0.00000000000E+00 0. -1.
          1   -1    0    0  501    0 -0.00000000000E+00 -0.00000000000E+00 -0.12886385490E+04  0.12886385490E+04  0.00000000000E+00 0. -1.
         25    2    1    2    0    0  0.14478154627E+02  0.45704624696E+02 -0.57035688906E+03  0.58585926391E+03  0.12500226611E+03 0.  0.
          2    1    1    2  501    0 -0.44020646349E+02 -0.12906066510E+02 -0.58567737083E+03  0.58747116232E+03  0.00000000000E+00 0. -1.
          1    1    1    2  502    0  0.29542491722E+02 -0.32798558186E+02 -0.12002638209E+03  0.12788602986E+03  0.00000000000E+00 0. -1.
         22    1    3    3    0    0  0.32167406056E+02  0.64181086121E+02 -0.54545993090E+03  0.55016405739E+03  0.00000000000E+00 0. -1.
         22    1    3    3    0    0 -0.17689251429E+02 -0.18476461425E+02 -0.24896958159E+02  0.35695206520E+02  0.00000000000E+00 0. -1.
</event>
<event>
 7    1  0.5667373E-006  0.5017351E+02  0.7818608E-02  0.1489053E+00
          2   -1    0    0  502    0  0.00000000000E+00  0.00000000000E+00  0.18209392328E+04  0.18209392328E+04  0.00000000000E+00 0. -1.
          1   -1    0    0  501    0 -0.00000000000E+00 -0.00000000000E+00 -0.35880062228E+03  0.35880062228E+03  0.00000000000E+00 0. -1.
         25    2    1    2    0    0 -0.12829050678E+02 -0.57733296449E+02  0.39340076064E+02  0.14377225184E+03  0.12500040301E+03 0.  0.
          2    1    1    2  501    0 -0.21420048087E+02  0.45449280627E+02 -0.30433310445E+03  0.30845274198E+03  0.00000000000E+00 0. -1.
          1    1    1    2  502    0  0.34249098765E+02  0.12284015823E+02  0.17271316389E+04  0.17275148613E+04  0.00000000000E+00 0. -1.
         22    1    3    3    0    0  0.96532364810E+01 -0.91674147005E+02  0.45156627991E+02  0.10264723696E+03  0.00000000000E+00 0.  1.
         22    1    3    3    0    0 -0.22482287159E+02  0.33940850556E+02 -0.58165519272E+01  0.41125014877E+02  0.00000000000E+00 0.  1.
</event>
<event>
 7    1  0.5667373E-006  0.2556213E+03  0.7818608E-02  0.1170746E+00
          2   -1    0    0  502    0  0.00000000000E+00  0.00000000000E+00  0.82536172697E+03  0.82536172697E+03  0.00000000000E+00 0. -1.
          1   -1    0    0  501    0 -0.00000000000E+00 -0.00000000000E+00 -0.17413176957E+04  0.17413176957E+04  0.00000000000E+00 0. -1.
         25    2    1    2    0    0  0.31012691356E+03  0.82447114348E+02 -0.33143984032E+03  0.47796867760E+03  0.12500183934E+03 0.  0.
          2    1    1    2  501    0 -0.20310462791E+03 -0.14215126484E+03 -0.13200045404E+04  0.13430824467E+04  0.00000000000E+00 0. -1.
          1    1    1    2  502    0 -0.10702228565E+03  0.59704150487E+02  0.73548841197E+03  0.74562829838E+03  0.00000000000E+00 0. -1.
         22    1    3    3    0    0  0.54961489172E+02  0.48260876112E+02 -0.24014268954E+02  0.76984170895E+02  0.00000000000E+00 0.  1.
         22    1    3    3    0    0  0.25516542439E+03  0.34186238237E+02 -0.30742557137E+03  0.40098450671E+03  0.00000000000E+00 0.  1.
</event>
<event>
 7    1  0.5667373E-006  0.1104670E+03  0.7818608E-02  0.1285508E+00
          2   -1    0    0  502    0  0.00000000000E+00  0.00000000000E+00  0.77730182200E+03  0.77730182200E+03  0.00000000000E+00 0. -1.
          1   -1    0    0  501    0 -0.00000000000E+00 -0.00000000000E+00 -0.69553939782E+03  0.69553939782E+03  0.00000000000E+00 0. -1.
         25    2    1    2    0    0 -0.66674109728E+02 -0.14767163693E+03 -0.83800547757E+02  0.22113113685E+03  0.12499639443E+03 0.  0.
          2    1    1    2  501    0 -0.95379292652E+01  0.10747131682E+03 -0.53504921755E+03  0.54581931189E+03  0.00000000000E+00 0. -1.
          1    1    1    2  502    0  0.76212038993E+02  0.40200320104E+02  0.70061218949E+03  0.70589077107E+03  0.00000000000E+00 0. -1.
         22    1    3    3    0    0 -0.16908039884E+02 -0.12923425739E+03 -0.10148945367E+03  0.16518923785E+03  0.00000000000E+00 0.  1.
         22    1    3    3    0    0 -0.49766069843E+02 -0.18437379533E+02  0.17688905909E+02  0.55941899002E+02  0.00000000000E+00 0.  1.
</event>
<event>
 7    1  0.5667373E-006  0.6978806E+02  0.7818608E-02  0.1396652E+00
          2   -1    0    0  502    0  0.00000000000E+00  0.00000000000E+00  0.37718678812E+03  0.37718678812E+03  0.00000000000E+00 0. -1.
          1   -1    0    0  501    0 -0.00000000000E+00 -0.00000000000E+00 -0.10425243517E+04  0.10425243517E+04  0.00000000000E+00 0. -1.
         25    2    1    2    0    0 -0.88903695355E+02 -0.65843549169E+02  0.14125979904E+02  0.16752559400E+03  0.12500416522E+03 0.  0.
          2    1    1    2  501    0  0.51236307736E+02  0.92840228045E+01 -0.96107836556E+03  0.96248791008E+03  0.00000000000E+00 0. -1.
          1    1    1    2  502    0  0.37667387619E+02  0.56559526364E+02  0.28161482210E+03  0.28969763571E+03  0.00000000000E+00 0. -1.
         22    1    3    3    0    0 -0.30264650966E+02  0.33180565650E+02  0.25896366767E+02  0.51841304446E+02  0.00000000000E+00 0.  1.
         22    1    3    3    0    0 -0.58639044389E+02 -0.99024114819E+02 -0.11770386863E+02  0.11568428955E+03  0.00000000000E+00 0.  1.
</event>
<event>
 7    1  0.5667373E-006  0.8472680E+02  0.7818608E-02  0.1414811E+00
          2   -1    0    0  502    0  0.00000000000E+00  0.00000000000E+00  0.76820529915E+02  0.76820529915E+02  0.00000000000E+00 0. -1.
          1   -1    0    0  501    0 -0.00000000000E+00 -0.00000000000E+00 -0.79876909872E+03  0.79876909872E+03  0.00000000000E+00 0. -1.
         25    2    1    2    0    0 -0.10177820487E+02  0.74848669028E+02 -0.18275516879E+03  0.23394144345E+03  0.12499294364E+03 0.  0.
          2    1    1    2  501    0 -0.26182318587E+02 -0.82663637997E+02 -0.57999465680E+03  0.58644061317E+03  0.00000000000E+00 0. -1.
          1    1    1    2  502    0  0.36360139074E+02  0.78149689691E+01  0.40801256782E+02  0.55207572021E+02  0.00000000000E+00 0. -1.
         22    1    3    3    0    0 -0.25933699082E+02  0.22245746271E+02 -0.17521375947E+03  0.17851412124E+03  0.00000000000E+00 0. -1.
         22    1    3    3    0    0  0.15755878595E+02  0.52602922756E+02 -0.75414093211E+01  0.55427322210E+02  0.00000000000E+00 0. -1.
</event>
<event>
 7    1  0.5667373E-006  0.3919682E+02  0.7818608E-02  0.1522087E+00
          2   -1    0    0  502    0  0.00000000000E+00  0.00000000000E+00  0.21505897079E+03  0.21505897079E+03  0.00000000000E+00 0. -1.
          1   -1    0    0  501    0 -0.00000000000E+00 -0.00000000000E+00 -0.46214202427E+03  0.46214202427E+03  0.00000000000E+00 0. -1.
         25    2    1    2    0    0 -0.54354834915E+02  0.10936380162E+02 -0.56017163882E+01  0.13685985322E+03  0.12500075083E+03 0.  0.
          2    1    1    2  501    0  0.20716416836E+02 -0.30873654750E+02 -0.38744787794E+03  0.38922771048E+03  0.00000000000E+00 0. -1.
          1    1    1    2  502    0  0.33638418079E+02  0.19937274588E+02  0.14596654085E+03  0.15111343136E+03  0.00000000000E+00 0. -1.
         22    1    3    3    0    0  0.40614060134E+02  0.66798654902E+01 -0.71865887827E+01  0.41782407085E+02  0.00000000000E+00 0. -1.
         22    1    3    3    0    0 -0.94968895049E+02  0.42565146717E+01  0.15848723945E+01  0.95077446140E+02  0.00000000000E+00 0. -1.
</event>
<event>
 7    1  0.5667373E-006  0.1193175E+03  0.7818608E-02  0.1296203E+00
          2   -1    0    0  502    0  0.00000000000E+00  0.00000000000E+00  0.27047283497E+04  0.27047283497E+04  0.00000000000E+00 0. -1.
          1   -1    0    0  501    0 -0.00000000000E+00 -0.00000000000E+00 -0.13184551440E+04  0.13184551440E+04  0.00000000000E+00 0. -1.
         25    2    1    2    0    0  0.12165115574E+03  0.21089493719E+02  0.31775937955E+03  0.36309769431E+03  0.12500056754E+03 0.  0.
          2    1    1    2  501    0 -0.35382701818E+02  0.62913076984E+02 -0.12932458792E+04  0.12952586209E+04  0.00000000000E+00 0. -1.
          1    1    1    2  502    0 -0.86268453923E+02 -0.84002570703E+02  0.23617597054E+04  0.23648271785E+04  0.00000000000E+00 0. -1.
         22    1    3    3    0    0 -0.21090449504E+00  0.42480967034E+02  0.37194349807E+02  0.56463233156E+02  0.00000000000E+00 0. -1.
         22    1    3    3    0    0  0.12186206024E+03 -0.21391473315E+02  0.28056502974E+03  0.30663446116E+03  0.00000000000E+00 0. -1.
</event>
<event>
 7    1  0.5667373E-006  0.6552361E+02  0.7818608E-02  0.1441309E+00
          2   -1    0    0  502    0  0.00000000000E+00  0.00000000000E+00  0.16806199371E+03  0.16806199371E+03  0.00000000000E+00 0. -1.
          1   -1    0    0  501    0 -0.00000000000E+00 -0.00000000000E+00 -0.18710154537E+04  0.18710154537E+04  0.00000000000E+00 0. -1.
         25    2    1    2    0    0  0.22339297469E+02 -0.16237261544E+02 -0.20196235394E+03  0.23911832084E+03  0.12500434423E+03 0.  0.
          2    1    1    2  501    0 -0.55322876087E+02  0.37634001643E+02 -0.16471989986E+04  0.16485573935E+04  0.00000000000E+00 0. -1.
          1    1    1    2  502    0  0.32983578618E+02 -0.21396740099E+02  0.14620789253E+03  0.15140173309E+03  0.00000000000E+00 0. -1.
         22    1    3    3    0    0  0.29921766001E+02  0.11135281635E+02  0.31197685822E+01  0.32078646070E+02  0.00000000000E+00 0.  1.
         22    1    3    3    0    0 -0.75824685314E+01 -0.27372543179E+02 -0.20508212252E+03  0.20703967477E+03  0.00000000000E+00 0.  1.
</event>
<event>
 7    1  0.5667373E-006  0.5272249E+02  0.7818608E-02  0.1506059E+00
          2   -1    0    0  502    0  0.00000000000E+00  0.00000000000E+00  0.11954624646E+04  0.11954624646E+04  0.00000000000E+00 0. -1.
          1   -1    0    0  501    0 -0.00000000000E+00 -0.00000000000E+00 -0.25504405718E+03  0.25504405718E+03  0.00000000000E+00 0. -1.
         25    2    1    2    0    0 -0.18765581247E+02 -0.24227912017E+02  0.65147169480E+02  0.14425161223E+03  0.12500094071E+03 0.  0.
          2    1    1    2  501    0  0.49363976050E+02  0.20751609312E+02 -0.21194383000E+03  0.21860379342E+03  0.00000000000E+00 0. -1.
          1    1    1    2  502    0 -0.30598394804E+02  0.34763027042E+01  0.10872150679E+04  0.10876511161E+04  0.00000000000E+00 0. -1.
         22    1    3    3    0    0 -0.17174637376E+02  0.46238480640E+02  0.53575396180E+02  0.72823679780E+02  0.00000000000E+00 0.  1.
         22    1    3    3    0    0 -0.15909438709E+01 -0.70466392656E+02  0.11571773300E+02  0.71427932447E+02  0.00000000000E+00 0.  1.
</event>
<event>
 7    1  0.5667373E-006  0.1224423E+03  0.7818608E-02  0.1279516E+00
          2   -1    0    0  502    0  0.00000000000E+00  0.00000000000E+00  0.40348500117E+04  0.40348500117E+04  0.00000000000E+00 0. -1.
          1   -1    0    0  501    0 -0.00000000000E+00 -0.00000000000E+00 -0.67204855329E+02  0.67204855329E+02  0.00000000000E+00 0. -1.
         25    2    1    2    0    0 -0.18766664053E+03 -0.33268978369E+02  0.18580771848E+04  0.18720046875E+04  0.12500053072E+03 0.  0.
          2    1    1    2  501    0  0.79313042086E+02  0.21894446477E+02 -0.30098375987E+02  0.87611858036E+02  0.00000000000E+00 0. -1.
          1    1    1    2  502    0  0.10835359845E+03  0.11374531892E+02  0.21396663476E+04  0.21424383214E+04  0.00000000000E+00 0. -1.
         22    1    3    3    0    0 -0.28727485439E+02 -0.59552399725E+02  0.61021821159E+03  0.61378988464E+03  0.00000000000E+00 0.  1.
         22    1    3    3    0    0 -0.15893915509E+03  0.26283421356E+02  0.12478589732E+04  0.12582148029E+04  0.00000000000E+00 0.  1.
</event>
<event>
 7    1  0.5667373E-006  0.5840365E+02  0.7818608E-02  0.1449577E+00
          2   -1    0    0  502    0  0.00000000000E+00  0.00000000000E+00  0.78811782876E+03  0.78811782876E+03  0.00000000000E+00 0. -1.
          1   -1    0    0  501    0 -0.00000000000E+00 -0.00000000000E+00 -0.29238924107E+03  0.29238924107E+03  0.00000000000E+00 0. -1.
         25    2    1    2    0    0  0.26549394721E+01  0.45369495935E+02  0.52200533254E+02  0.14288142116E+03  0.12499905989E+03 0.  0.
          2    1    1    2  501    0 -0.43796525752E+02 -0.40036624551E+02 -0.24285031747E+03  0.24999468728E+03  0.00000000000E+00 0. -1.
          1    1    1    2  502    0  0.41141586280E+02 -0.53328713841E+01  0.68637837191E+03  0.68763096139E+03  0.00000000000E+00 0. -1.
         22    1    3    3    0    0 -0.40067438904E+02 -0.11520595346E+02  0.58079166741E+02  0.71493449957E+02  0.00000000000E+00 0.  1.
         22    1    3    3    0    0  0.42722378376E+02  0.56890091281E+02 -0.58786334874E+01  0.71387971198E+02  0.00000000000E+00 0.  1.
</event>
<event>
 7    1  0.5667373E-006  0.5094953E+02  0.7818608E-02  0.1563556E+00
          2   -1    0    0  502    0  0.00000000000E+00  0.00000000000E+00  0.27016841197E+03  0.27016841197E+03  0.00000000000E+00 0. -1.
          1   -1    0    0  501    0 -0.00000000000E+00 -0.00000000000E+00 -0.73803151747E+03  0.73803151747E+03  0.00000000000E+00 0. -1.
         25    2    1    2    0    0 -0.67525164632E+02 -0.11907262311E+02 -0.15236747435E+02  0.14338433127E+03  0.12500190889E+03 0.  0.
          2    1    1    2  501    0  0.46923735757E+02  0.19211922948E+02 -0.65716206538E+03  0.65911525178E+03  0.00000000000E+00 0. -1.
          1    1    1    2  502    0  0.20601428875E+02 -0.73046606366E+01  0.20453570731E+03  0.20570034639E+03  0.00000000000E+00 0. -1.
         22    1    3    3    0    0 -0.41740394626E+02  0.55814785121E+02 -0.20278599765E+01  0.69725626549E+02  0.00000000000E+00 0.  1.
         22    1    3    3    0    0 -0.25784770006E+02 -0.67722047432E+02 -0.13208887458E+02  0.73658704716E+02  0.00000000000E+00 0.  1.
</event>
<event>
 7    1  0.5667373E-006  0.5029370E+02  0.7818608E-02  0.1502550E+00
          2   -1    0    0  502    0  0.00000000000E+00  0.00000000000E+00  0.14823228623E+04  0.14823228623E+04  0.00000000000E+00 0. -1.
          1   -1    0    0  501    0 -0.00000000000E+00 -0.00000000000E+00 -0.35258572204E+03  0.35258572204E+03  0.00000000000E+00 0. -1.
         25    2    1    2    0    0 -0.26783625565E+02 -0.74875971115E+02  0.42016045998E+03  0.44551443777E+03  0.12499811391E+03 0.  0.
          2    1    1    2  501    0  0.20042381802E+02  0.26299147242E+02 -0.33852985428E+03  0.34014085972E+03  0.00000000000E+00 0. -1.
          1    1    1    2  502    0  0.67412437636E+01  0.48576823874E+02  0.10481065346E+04  0.10492532869E+04  0.00000000000E+00 0. -1.
         22    1    3    3    0    0  0.33399741399E+02 -0.79536442818E+02  0.27778317538E+03  0.29086952571E+03  0.00000000000E+00 0. -1.
         22    1    3    3    0    0 -0.60183366965E+02  0.46604717029E+01  0.14237728460E+03  0.15464491206E+03  0.00000000000E+00 0. -1.
</event>
<event>
 7    1  0.5667373E-006  0.9880811E+02  0.7818608E-02  0.1370058E+00
          2   -1    0    0  502    0  0.00000000000E+00  0.00000000000E+00  0.63886272360E+03  0.63886272360E+03  0.00000000000E+00 0. -1.
          1   -1    0    0  501    0 -0.00000000000E+00 -0.00000000000E+00 -0.22500957014E+03  0.22500957014E+03  0.00000000000E+00 0. -1.
         25    2    1    2    0    0 -0.87089996884E+02  0.41905648159E+02  0.28120568774E+03  0.32255541442E+03  0.12499842259E+03 0.  0.
          2    1    1    2  501    0 -0.15356615072E+02 -0.42975340816E+02 -0.19383594494E+03  0.19913583077E+03  0.00000000000E+00 0. -1.
          1    1    1    2  502    0  0.10244661196E+03  0.10696926575E+01  0.32648341066E+03  0.34218104854E+03  0.00000000000E+00 0. -1.
         22    1    3    3    0    0 -0.11703306090E+03  0.16571466383E+02  0.19865335742E+03  0.23115905185E+03  0.00000000000E+00 0.  1.
         22    1    3    3    0    0  0.29943064015E+02  0.25334181776E+02  0.82552330327E+02  0.91396362571E+02  0.00000000000E+00 0.  1.
</event>
<event>
 7    1  0.5667373E-006  0.4691495E+02  0.7818608E-02  0.1491108E+00
          2   -1    0    0  502    0  0.00000000000E+00  0.00000000000E+00  0.14867512106E+04  0.14867512106E+04  0.00000000000E+00 0. -1.
          1   -1    0    0  501    0 -0.00000000000E+00 -0.00000000000E+00 -0.13986016456E+03  0.13986016456E+03  0.00000000000E+00 0. -1.
         25    2    1    2    0    0  0.88332441023E+01  0.44006282337E+01  0.22499364363E+03  0.25757435476E+03  0.12500006730E+03 0.  0.
          2    1    1    2  501    0  0.28910652098E+02  0.25211571250E+02 -0.12011856846E+03  0.12609488339E+03  0.00000000000E+00 0. -1.
          1    1    1    2  502    0 -0.37743896200E+02 -0.29612199484E+02  0.12420159709E+04  0.12429421370E+04  0.00000000000E+00 0. -1.
         22    1    3    3    0    0  0.27108310717E+01 -0.35014244617E+00 -0.16113006050E+02  0.16343199467E+02  0.00000000000E+00 0. -1.
         22    1    3    3    0    0  0.61224130306E+01  0.47507706799E+01  0.24110664969E+03  0.24123115530E+03  0.00000000000E+00 0. -1.
</event>
<event>
 7    1  0.5667373E-006  0.5848164E+02  0.7818608E-02  0.1541663E+00
          2   -1    0    0  502    0  0.00000000000E+00  0.00000000000E+00  0.10758812332E+03  0.10758812332E+03  0.00000000000E+00 0. -1.
          1   -1    0    0  501    0 -0.00000000000E+00 -0.00000000000E+00 -0.65811364765E+03  0.65811364765E+03  0.00000000000E+00 0. -1.
         25    2    1    2    0    0  0.18927650642E+02  0.55469501180E+02 -0.10665614087E+02  0.13848658273E+03  0.12501862562E+03 0.  0.
          2    1    1    2  501    0 -0.37954319788E+02 -0.44610143647E+02 -0.57921741464E+03  0.58217128813E+03  0.00000000000E+00 0. -1.
          1    1    1    2  502    0  0.19026669146E+02 -0.10859357533E+02  0.39357504395E+02  0.45043900109E+02  0.00000000000E+00 0. -1.
         22    1    3    3    0    0 -0.46179713295E+02  0.31341866010E+02  0.24150762261E+02  0.60812316210E+02  0.00000000000E+00 0.  1.
         22    1    3    3    0    0  0.65107363937E+02  0.24127635170E+02 -0.34816376349E+02  0.77674266522E+02  0.00000000000E+00 0.  1.
</event>
<event>
 7    1  0.5717985E-006  0.1203694E+03  0.7818608E-02  0.1324406E+00
          2   -1    0    0  502    0  0.00000000000E+00  0.00000000000E+00  0.17172086738E+04  0.17172086738E+04  0.00000000000E+00 0. -1.
          1   -1    0    0  501    0 -0.00000000000E+00 -0.00000000000E+00 -0.57739293351E+03  0.57739293351E+03  0.00000000000E+00 0. -1.
         25    2    1    2    0    0 -0.10231298735E+03 -0.29333198617E+02 -0.16462883347E+03  0.23249954664E+03  0.12500000983E+03 0.  0.
          2    1    1    2  501    0  0.95477141911E+02  0.84308624462E+02 -0.36765045736E+03  0.38908956242E+03  0.00000000000E+00 0. -1.
          1    1    1    2  502    0  0.68358454339E+01 -0.54975425845E+02  0.16720950311E+04  0.16730124982E+04  0.00000000000E+00 0. -1.
         22    1    3    3    0    0 -0.97082046811E+02 -0.11915641006E+02 -0.18246453666E+03  0.20702708386E+03  0.00000000000E+00 0. -1.
         22    1    3    3    0    0 -0.52309405345E+01 -0.17417557611E+02  0.17835703186E+02  0.25472462782E+02  0.00000000000E+00 0. -1.
</event>
<event>
 7    1  0.5667373E-006  0.1196455E+03  0.7818608E-02  0.1444156E+00
          2   -1    0    0  502    0  0.00000000000E+00  0.00000000000E+00  0.87492100311E+03  0.87492100311E+03  0.00000000000E+00 0. -1.
          1   -1    0    0  501    0 -0.00000000000E+00 -0.00000000000E+00 -0.53510955521E+03  0.53510955521E+03  0.00000000000E+00 0. -1.
         25    2    1    2    0    0 -0.45111279796E+02  0.11938574772E+03 -0.24867231049E+02  0.18036589292E+03  0.12500196728E+03 0.  0.
          2    1    1    2  501    0  0.58833843856E+02 -0.10338432937E+03 -0.42417035778E+03  0.44053403178E+03  0.00000000000E+00 0. -1.
          1    1    1    2  502    0 -0.13722564060E+02 -0.16001418350E+02  0.78884903673E+03  0.78913063361E+03  0.00000000000E+00 0. -1.
         22    1    3    3    0    0 -0.43493219655E+02  0.79690048065E+02 -0.74039670008E+02  0.11714963359E+03  0.00000000000E+00 0. -1.
         22    1    3    3    0    0 -0.16180601405E+01  0.39695699653E+02  0.49172438958E+02  0.63216259322E+02  0.00000000000E+00 0. -1.
</event>
<event>
 7    1  0.5667373E-006  0.3811784E+02  0.7818608E-02  0.1543370E+00
          2   -1    0    0  502    0  0.00000000000E+00  0.00000000000E+00  0.91716552265E+03  0.91716552265E+03  0.00000000000E+00 0. -1.
          1   -1    0    0  501    0 -0.00000000000E+00 -0.00000000000E+00 -0.34657205520E+02  0.34657205520E+02  0.00000000000E+00 0. -1.
         25    2    1    2    0    0 -0.47520762149E+02 -0.50268378749E+02  0.43269829943E+03  0.45567434206E+03  0.12500461969E+03 0.  0.
          2    1    1    2  501    0  0.24977440291E+02  0.21933897529E+02 -0.10157163728E+02  0.34758255988E+02  0.00000000000E+00 0. -1.
          1    1    1    2  502    0  0.22543321858E+02  0.28334481220E+02  0.45996718143E+03  0.46139013013E+03  0.00000000000E+00 0. -1.
         22    1    3    3    0    0 -0.28105044848E+02 -0.63788916301E+02  0.98666140209E+02  0.12080532527E+03  0.00000000000E+00 0.  1.
         22    1    3    3    0    0 -0.19415717301E+02  0.13520537552E+02  0.33403215922E+03  0.33486901680E+03  0.00000000000E+00 0.  1.
</event>
<event>
 7    1  0.5667373E-006  0.7406126E+02  0.7818608E-02  0.1494375E+00
          2   -1    0    0  502    0  0.00000000000E+00  0.00000000000E+00  0.20954441408E+04  0.20954441408E+04  0.00000000000E+00 0. -1.
          1   -1    0    0  501    0 -0.00000000000E+00 -0.00000000000E+00 -0.12974739920E+03  0.12974739920E+03  0.00000000000E+00 0. -1.
         25    2    1    2    0    0 -0.51580269058E+02 -0.34817598299E+02 -0.74748371674E+02  0.15838369359E+03  0.12500114407E+03 0.  0.
          2    1    1    2  501    0 -0.19468307129E+02  0.13611051757E+02 -0.12304904596E+01  0.23786336817E+02  0.00000000000E+00 0. -1.
          1    1    1    2  502    0  0.71048576188E+02  0.21206546542E+02  0.20416756037E+04  0.20430215096E+04  0.00000000000E+00 0. -1.
         22    1    3    3    0    0  0.13491308041E+02  0.30031911606E+02 -0.55485027051E+02  0.64517589340E+02  0.00000000000E+00 0.  1.
         22    1    3    3    0    0 -0.65071577099E+02 -0.64849509906E+02 -0.19263344623E+02  0.93866104251E+02  0.00000000000E+00 0.  1.
</event>
<event>
 7    1  0.5667373E-006  0.4195617E+02  0.7818608E-02  0.1499449E+00
          2   -1    0    0  502    0  0.00000000000E+00  0.00000000000E+00  0.53350043730E+03  0.53350043730E+03  0.00000000000E+00 0. -1.
          1   -1    0    0  501    0 -0.00000000000E+00 -0.00000000000E+00 -0.49215373403E+03  0.49215373403E+03  0.00000000000E+00 0. -1.
         25    2    1    2    0    0 -0.36747024569E+02 -0.61742748860E+01  0.23682380723E+03  0.27036747490E+03  0.12499836131E+03 0.  0.
          2    1    1    2  501    0  0.11294633732E+02  0.40407315954E+02 -0.47282225452E+03  0.47468010734E+03  0.00000000000E+00 0. -1.
          1    1    1    2  502    0  0.25452390837E+02 -0.34233041068E+02  0.27734515056E+03  0.28060658909E+03  0.00000000000E+00 0. -1.
         22    1    3    3    0    0 -0.17281430361E+02  0.46483913122E+02  0.19265186027E+03  0.19893250433E+03  0.00000000000E+00 0.  1.
         22    1    3    3    0    0 -0.19465594208E+02 -0.52658188008E+02  0.44171946960E+02  0.71434970570E+02  0.00000000000E+00 0.  1.
</event>
<event>
 7    1  0.5667373E-006  0.7091923E+02  0.7818608E-02  0.1507085E+00
          2   -1    0    0  502    0  0.00000000000E+00  0.00000000000E+00  0.32681940232E+04  0.32681940232E+04  0.00000000000E+00 0. -1.
          1   -1    0    0  501    0 -0.00000000000E+00 -0.00000000000E+00 -0.49524639880E+03  0.49524639880E+03  0.00000000000E+00 0. -1.
         25    2    1    2    0    0 -0.50430880312E+02  0.57237001098E+01  0.17435419802E+04  0.17487537540E+04  0.12500008407E+03 0.  0.
          2    1    1    2  501    0  0.68043539710E+02 -0.20098744509E+02 -0.49000049291E+03  0.49511045826E+03  0.00000000000E+00 0. -1.
          1    1    1    2  502    0 -0.17612659398E+02  0.14375044399E+02  0.15194061371E+04  0.15195762097E+04  0.00000000000E+00 0. -1.
         22    1    3    3    0    0 -0.78894803823E+02 -0.31011656127E+02  0.13066921317E+04  0.13094389790E+04  0.00000000000E+00 0. -1.
         22    1    3    3    0    0  0.28463923511E+02  0.36735356237E+02  0.43684984855E+03  0.43931477499E+03  0.00000000000E+00 0. -1.
</event>
<event>
 7    1  0.5667373E-006  0.8878986E+02  0.7818608E-02  0.1354600E+00
          2   -1    0    0  502    0  0.00000000000E+00  0.00000000000E+00  0.11745223083E+04  0.11745223083E+04  0.00000000000E+00 0. -1.
          1   -1    0    0  501    0 -0.00000000000E+00 -0.00000000000E+00 -0.20796398880E+04  0.20796398880E+04  0.00000000000E+00 0. -1.
         25    2    1    2    0    0  0.32308456876E+02 -0.29452152246E-01  0.47210650161E+03  0.48944267018E+03  0.12500296510E+03 0.  0.
          2    1    1    2  501    0 -0.86780376395E+02 -0.19313461490E+02 -0.20688113762E+04  0.20707207330E+04  0.00000000000E+00 0. -1.
          1    1    1    2  502    0  0.54471919519E+02  0.19342913642E+02  0.69158729492E+03  0.69399879309E+03  0.00000000000E+00 0. -1.
         22    1    3    3    0    0 -0.23985941935E+02 -0.20936049759E+02  0.36709791291E+03  0.36847594392E+03  0.00000000000E+00 0.  1.
         22    1    3    3    0    0  0.56294398811E+02  0.20906597607E+02  0.10500858870E+03  0.12096672626E+03  0.00000000000E+00 0.  1.
</event>
<event>
 7    1  0.5667373E-006  0.8691483E+02  0.7818608E-02  0.1338857E+00
          2   -1    0    0  502    0  0.00000000000E+00  0.00000000000E+00  0.10441305407E+04  0.10441305407E+04  0.00000000000E+00 0. -1.
          1   -1    0    0  501    0 -0.00000000000E+00 -0.00000000000E+00 -0.11517602291E+04  0.11517602291E+04  0.00000000000E+00 0. -1.
         25    2    1    2    0    0 -0.58886090643E+02 -0.91605772069E+02 -0.63486244423E+03  0.65615115400E+03  0.12499929861E+03 0.  0.
          2    1    1    2  501    0  0.80577463243E+02  0.27595682845E+02 -0.50155444267E+03  0.50873481133E+03  0.00000000000E+00 0. -1.
          1    1    1    2  502    0 -0.21691372600E+02  0.64010089224E+02  0.10287871984E+04  0.10310048045E+04  0.00000000000E+00 0. -1.
         22    1    3    3    0    0 -0.72713435363E+02 -0.10366057775E+03 -0.61924930695E+03  0.63206207228E+03  0.00000000000E+00 0.  1.
         22    1    3    3    0    0  0.13827344720E+02  0.12054805683E+02 -0.15613137278E+02  0.24089081712E+02  0.00000000000E+00 0.  1.
</event>
<event>
 7    1  0.5667373E-006  0.6513474E+02  0.7818608E-02  0.1384091E+00
          2   -1    0    0  502    0  0.00000000000E+00  0.00000000000E+00  0.31727442899E+03  0.31727442899E+03  0.00000000000E+00 0. -1.
          1   -1    0    0  501    0 -0.00000000000E+00 -0.00000000000E+00 -0.17584159176E+04  0.17584159176E+04  0.00000000000E+00 0. -1.
         25    2    1    2    0    0 -0.47930990219E+02 -0.86781959652E+02 -0.54515575295E+03  0.56802071134E+03  0.12499698075E+03 0.  0.
          2    1    1    2  501    0 -0.11619622926E+02  0.60608744493E+02 -0.11975654258E+04  0.11991544457E+04  0.00000000000E+00 0. -1.
          1    1    1    2  502    0  0.59550613146E+02  0.26173215159E+02  0.30157969011E+03  0.30851518958E+03  0.00000000000E+00 0. -1.
         22    1    3    3    0    0  0.12304329527E+02  0.18979253960E+02 -0.21425908633E+03  0.21544968016E+03  0.00000000000E+00 0. -1.
         22    1    3    3    0    0 -0.60235319746E+02 -0.10576121361E+03 -0.33089666662E+03  0.35257103118E+03  0.00000000000E+00 0. -1.
</event>
<event>
 7    1  0.5667373E-006  0.1194624E+03  0.7818608E-02  0.1320493E+00
          2   -1    0    0  502    0  0.00000000000E+00  0.00000000000E+00  0.17246505564E+04  0.17246505564E+04  0.00000000000E+00 0. -1.
          1   -1    0    0  501    0 -0.00000000000E+00 -0.00000000000E+00 -0.78285970148E+02  0.78285970148E+02  0.00000000000E+00 0. -1.
         25    2    1    2    0    0  0.42718662101E+02 -0.12457675587E+03  0.38417260027E+03  0.42492064398E+03  0.12499885874E+03 0.  0.
          2    1    1    2  501    0  0.14751301247E+02  0.11843284300E+03  0.49547057571E+01  0.11945077772E+03  0.00000000000E+00 0. -1.
          1    1    1    2  502    0 -0.57469963348E+02  0.61439128675E+01  0.12572372803E+04  0.12585651049E+04  0.00000000000E+00 0. -1.
         22    1    3    3    0    0 -0.15173920530E+02 -0.13419736551E+02 -0.58520380838E+00  0.20265232711E+02  0.00000000000E+00 0. -1.
         22    1    3    3    0    0  0.57892582631E+02 -0.11115701932E+03  0.38475780408E+03  0.40465541126E+03  0.00000000000E+00 0. -1.
</event>
<event>
 7    1  0.5667373E-006  0.9172685E+02  0.7818608E-02  0.1370150E+00
          2   -1    0    0  502    0  0.00000000000E+00  0.00000000000E+00  0.18129987063E+04  0.18129987063E+04  0.00000000000E+00 0. -1.
          1   -1    0    0  501    0 -0.00000000000E+00 -0.00000000000E+00 -0.14521889060E+03  0.14521889060E+03  0.00000000000E+00 0. -1.
         25    2    1    2    0    0 -0.67771723666E+02  0.43772603238E+02  0.21962524720E+02  0.15038755055E+03  0.12500006219E+03 0.  0.
          2    1    1    2  501    0  0.98358794184E+02 -0.53352168191E+01 -0.50573921091E+02  0.11072776719E+03  0.00000000000E+00 0. -1.
          1    1    1    2  502    0 -0.30587070518E+02 -0.38437386418E+02  0.16963912120E+04  0.16971022791E+04  0.00000000000E+00 0. -1.
         22    1    3    3    0    0 -0.75754345973E+02  0.80427468426E+02  0.96616469081E+01  0.11090827756E+03  0.00000000000E+00 0.  1.
         22    1    3    3    0    0  0.79826223068E+01 -0.36654865188E+02  0.12300877812E+02  0.39479272989E+02  0.00000000000E+00 0.  1.
</event>
<event>
 7    1  0.9132467E-006  0.1216462E+03  0.7818608E-02  0.1267727E+00
          2   -1    0    0  502    0  0.00000000000E+00  0.00000000000E+00  0.25744528307E+04  0.25744528307E+04  0.00000000000E+00 0. -1.
          1   -1    0    0  501    0 -0.00000000000E+00 -0.00000000000E+00 -0.75717796405E+03  0.75717796405E+03  0.00000000000E+00 0. -1.
         25    2    1    2    0    0  0.94810794820E+01 -0.32543372648E+02  0.73733529114E+01  0.12972736594E+03  0.12500344462E+03 0.  0.
          2    1    1    2  501    0  0.63675033169E+02 -0.67448833153E+02 -0.69137036794E+03  0.69756493649E+03  0.00000000000E+00 0. -1.
          1    1    1    2  502    0 -0.73156112651E+02  0.99992205801E+02  0.25012718816E+04  0.25043384923E+04  0.00000000000E+00 0. -1.
         22    1    3    3    0    0 -0.40667891372E+02  0.81953114415E-01  0.43731279440E+02  0.59718580914E+02  0.00000000000E+00 0. -1.
         22    1    3    3    0    0  0.50148970854E+02 -0.32625325762E+02 -0.36357926528E+02  0.70008785022E+02  0.00000000000E+00 0. -1.
</event>
<event>
 7    1  0.5667373E-006  0.1555563E+03  0.7818608E-02  0.1406138E+00
          2   -1    0    0  502    0  0.00000000000E+00  0.00000000000E+00  0.19378161785E+03  0.19378161785E+03  0.00000000000E+00 0. -1.
          1   -1    0    0  501    0 -0.00000000000E+00 -0.00000000000E+00 -0.15581105686E+04  0.15581105686E+04  0.00000000000E+00 0. -1.
         25    2    1    2    0    0  0.88187106234E+02 -0.13549699920E+03 -0.12621765663E+04  0.12786139593E+04  0.12501027901E+03 0.  0.
          2    1    1    2  501    0  0.12895174560E+02  0.17420356136E+02 -0.25462472868E+03  0.25554550825E+03  0.00000000000E+00 0. -1.
          1    1    1    2  502    0 -0.10108228079E+03  0.11807664307E+03  0.15247234423E+03  0.21773271891E+03  0.00000000000E+00 0. -1.
         22    1    3    3    0    0  0.63407347394E+02 -0.43242477775E+02 -0.92466876708E+03  0.92784844258E+03  0.00000000000E+00 0.  1.
         22    1    3    3    0    0  0.24779758840E+02 -0.92254521430E+02 -0.33750779919E+03  0.35076551668E+03  0.00000000000E+00 0.  1.
</event>
<event>
 7    1  0.5667373E-006  0.7747300E+02  0.7818608E-02  0.1451952E+00
          2   -1    0    0  502    0  0.00000000000E+00  0.00000000000E+00  0.14109250595E+04  0.14109250595E+04  0.00000000000E+00 0. -1.
          1   -1    0    0  501    0 -0.00000000000E+00 -0.00000000000E+00 -0.90259080118E+03  0.90259080118E+03  0.00000000000E+00 0. -1.
         25    2    1    2    0    0 -0.37132380230E+02 -0.75738705439E+02  0.78337693236E+02  0.16992094163E+03  0.12498466730E+03 0.  0.
          2    1    1    2  501    0  0.30699118583E+02 -0.14350633588E+01 -0.85535782560E+03  0.85590975290E+03  0.00000000000E+00 0. -1.
          1    1    1    2  502    0  0.64332616471E+01  0.77173768798E+02  0.12853543907E+04  0.12876851661E+04  0.00000000000E+00 0. -1.
         22    1    3    3    0    0 -0.49540853849E+02 -0.67502310486E+02  0.10804374849E+03  0.13669056189E+03  0.00000000000E+00 0. -1.
         22    1    3    3    0    0  0.12408473619E+02 -0.82363949527E+01 -0.29706055254E+02  0.33230379746E+02  0.00000000000E+00 0. -1.
</event>
<event>
 7    1  0.5667373E-006  0.8668251E+02  0.7818608E-02  0.1350162E+00
          2   -1    0    0  502    0  0.00000000000E+00  0.00000000000E+00  0.39875821731E+03  0.39875821731E+03  0.00000000000E+00 0. -1.
          1   -1    0    0  501    0 -0.00000000000E+00 -0.00000000000E+00 -0.76134263908E+03  0.76134263908E+03  0.00000000000E+00 0. -1.
         25    2    1    2    0    0 -0.10314406090E+03 -0.42910380229E+02 -0.77516894442E+02  0.18469925313E+03  0.12499978861E+03 0.  0.
          2    1    1    2  501    0  0.18240104537E+02  0.58718338019E+02 -0.62329595764E+03  0.62632131964E+03  0.00000000000E+00 0. -1.
          1    1    1    2  502    0  0.84903956362E+02 -0.15807957790E+02  0.33822843031E+03  0.34908028361E+03  0.00000000000E+00 0. -1.
         22    1    3    3    0    0 -0.39689350159E+02  0.41215753878E+02 -0.64077330389E+01  0.57576400778E+02  0.00000000000E+00 0. -1.
         22    1    3    3    0    0 -0.63454710740E+02 -0.84126134107E+02 -0.71109161403E+02  0.12712285235E+03  0.00000000000E+00 0. -1.
</event>
<event>
 7    1  0.5667373E-006  0.8881277E+02  0.7818608E-02  0.1421394E+00
          2   -1    0    0  502    0  0.00000000000E+00  0.00000000000E+00  0.10115299974E+04  0.10115299974E+04  0.00000000000E+00 0. -1.
          1   -1    0    0  501    0 -0.00000000000E+00 -0.00000000000E+00 -0.12753589483E+03  0.12753589483E+03  0.00000000000E+00 0. -1.
         25    2    1    2    0    0 -0.35845138560E+02 -0.10654669635E+03  0.43183228358E+03  0.46340122654E+03  0.12499801259E+03 0.  0.
          2    1    1    2  501    0 -0.59131672309E+01  0.33200658628E+02 -0.10596017938E+03  0.11119716226E+03  0.00000000000E+00 0. -1.
          1    1    1    2  502    0  0.41758305791E+02  0.73346037727E+02  0.55812199841E+03  0.56446750346E+03  0.00000000000E+00 0. -1.
         22    1    3    3    0    0 -0.19877848142E+01  0.28657673202E+02  0.72313320468E+02  0.77810216803E+02  0.00000000000E+00 0. -1.
         22    1    3    3    0    0 -0.33857353746E+02 -0.13520436956E+03  0.35951896311E+03  0.38559100974E+03  0.00000000000E+00 0. -1.
</event>
<event>
 7    1  0.5667373E-006  0.1031575E+03  0.7818608E-02  0.1360327E+00
          2   -1    0    0  502    0  0.00000000000E+00  0.00000000000E+00  0.85420401259E+03  0.85420401259E+03  0.00000000000E+00 0. -1.
          1   -1    0    0  501    0 -0.00000000000E+00 -0.00000000000E+00 -0.57689732069E+02  0.57689732069E+02  0.00000000000E+00 0. -1.
         25    2    1    2    0    0  0.97519897489E+02  0.53843636692E+02  0.44417067165E+03  0.47468030878E+03  0.12499816947E+03 0.  0.
          2    1    1    2  501    0 -0.37279530952E+02  0.29285429850E+02 -0.19646931356E+02  0.51316680925E+02  0.00000000000E+00 0. -1.
          1    1    1    2  502    0 -0.60240366537E+02 -0.83129066542E+02  0.37199054022E+03  0.38589675495E+03  0.00000000000E+00 0. -1.
         22    1    3    3    0    0 -0.23297198446E+01  0.86998073332E+01  0.26155418675E+03  0.26170920283E+03  0.00000000000E+00 0. -1.
         22    1    3    3    0    0  0.99849617334E+02  0.45143829359E+02  0.18261648491E+03  0.21297110595E+03  0.00000000000E+00 0. -1.
</event>
<event>
 7    1  0.5667373E-006  0.6186658E+02  0.7818608E-02  0.1452934E+00
          2   -1    0    0  502    0  0.00000000000E+00  0.00000000000E+00  0.16473690322E+04  0.16473690322E+04  0.00000000000E+00 0. -1.
          1   -1    0    0  501    0 -0.00000000000E+00 -0.00000000000E+00 -0.32665727305E+02  0.32665727305E+02  0.00000000000E+00 0. -1.
         25    2    1    2    0    0 -0.42969884812E+02  0.69709860507E+02  0.79244526492E+03  0.80641228198E+03  0.12500157988E+03 0.  0.
          2    1    1    2  501    0  0.57590750269E+01 -0.61034463640E+02  0.12006106166E+02  0.62470147128E+02  0.00000000000E+00 0. -1.
          1    1    1    2  502    0  0.37210809786E+02 -0.86753968674E+01  0.81025193378E+03  0.81115233038E+03  0.00000000000E+00 0. -1.
         22    1    3    3    0    0  0.12903629286E+02  0.31880799638E+02  0.48743504381E+02  0.59655831682E+02  0.00000000000E+00 0. -1.
         22    1    3    3    0    0 -0.55873514099E+02  0.37829060869E+02  0.74370176054E+03  0.74675645029E+03  0.00000000000E+00 0. -1.
</event>
<event>
 7    1  0.5667373E-006  0.6209514E+02  0.7818608E-02  0.1403684E+00
          2   -1    0    0  502    0  0.00000000000E+00  0.00000000000E+00  0.19047645255E+02  0.19047645255E+02  0.00000000000E+00 0. -1.
          1   -1    0    0  501    0 -0.00000000000E+00 -0.00000000000E+00 -0.28952117885E+04  0.28952117885E+04  0.00000000000E+00 0. -1.
         25    2    1    2    0    0 -0.56944269603E+02 -0.70566702354E+01 -0.40948835980E+03  0.43196958643E+03  0.12499824142E+03 0.  0.
          2    1    1    2  501    0  0.56027854669E+01  0.55069005261E+02 -0.23089029572E+04  0.23095663776E+04  0.00000000000E+00 0. -1.
          1    1    1    2  502    0  0.51341484136E+02 -0.48012335025E+02 -0.15777282626E+03  0.17272346978E+03  0.00000000000E+00 0. -1.
         22    1    3    3    0    0 -0.94773114355E+01 -0.62153681734E+02 -0.22636803018E+03  0.23493698022E+03  0.00000000000E+00 0.  1.
         22    1    3    3    0    0 -0.47466958167E+02  0.55097011498E+02 -0.18312032962E+03  0.19703260622E+03  0.00000000000E+00 0.  1.
</event>
<event>
 7    1  0.5667373E-006  0.9192935E+02  0.7818608E-02  0.1414108E+00
          2   -1    0    0  502    0  0.00000000000E+00  0.00000000000E+00  0.75334787700E+03  0.75334787700E+03  0.00000000000E+00 0. -1.
          1   -1    0    0  501    0 -0.00000000000E+00 -0.00000000000E+00 -0.59563523475E+03  0.59563523475E+03  0.00000000000E+00 0. -1.
         25    2    1    2    0    0 -0.31993864358E+02 -0.71582247394E+02 -0.32357944733E+03  0.35563482174E+03  0.12499936880E+03 0.  0.
          2    1    1    2  501    0  0.13845758164E+02  0.10088069046E+03 -0.24547909159E+03  0.26576042432E+03  0.00000000000E+00 0. -1.
          1    1    1    2  502    0  0.18148106194E+02 -0.29298443065E+02  0.72677118117E+03  0.72758786569E+03  0.00000000000E+00 0. -1.
         22    1    3    3    0    0 -0.47275844118E+02 -0.18406021892E+02 -0.28173090358E+03  0.28626227329E+03  0.00000000000E+00 0. -1.
         22    1    3    3    0    0  0.15281979761E+02 -0.53176225502E+02 -0.41848543752E+02  0.69372548448E+02  0.00000000000E+00 0. -1.
</event>
<event>
 7    1  0.5667373E-006  0.6819244E+02  0.7818608E-02  0.1410123E+00
          2   -1    0    0  502    0  0.00000000000E+00  0.00000000000E+00  0.10088679510E+03  0.10088679510E+03  0.00000000000E+00 0. -1.
          1   -1    0    0  501    0 -0.00000000000E+00 -0.00000000000E+00 -0.28687709559E+04  0.28687709559E+04  0.00000000000E+00 0. -1.
         25    2    1    2    0    0  0.91447591012E+02  0.51985779549E+02 -0.44757914811E+02  0.16936292315E+03  0.12496137652E+03 0.  0.
          2    1    1    2  501    0 -0.33841062999E+02 -0.33932259615E+02 -0.27377582917E+04  0.27381776932E+04  0.00000000000E+00 0. -1.
          1    1    1    2  502    0 -0.57606528013E+02 -0.18053519934E+02  0.14632045734E+02  0.62117134626E+02  0.00000000000E+00 0. -1.
         22    1    3    3    0    0  0.81253738074E+02  0.91548550383E+02 -0.35849503316E+02  0.12754800632E+03  0.00000000000E+00 0.  1.
         22    1    3    3    0    0  0.10193852938E+02 -0.39562770834E+02 -0.89084114943E+01  0.41814916825E+02  0.00000000000E+00 0.  1.
</event>
<event>
 7    1  0.5667373E-006  0.7352128E+02  0.7818608E-02  0.1365580E+00
          2   -1    0    0  502    0  0.00000000000E+00  0.00000000000E+00  0.39524786103E+03  0.39524786103E+03  0.00000000000E+00 0. -1.
          1   -1    0    0  501    0 -0.00000000000E+00 -0.00000000000E+00 -0.52482248959E+03  0.52482248959E+03  0.00000000000E+00 0. -1.
         25    2    1    2    0    0 -0.70256772393E+02 -0.13536928298E+02 -0.22681614602E+03  0.26868134722E+03  0.12499935902E+03 0.  0.
          2    1    1    2  501    0  0.39533128912E+02  0.69288480091E+02 -0.26852527956E+03  0.28012423587E+03  0.00000000000E+00 0. -1.
          1    1    1    2  502    0  0.30723643481E+02 -0.55751551793E+02  0.36576679703E+03  0.37126476753E+03  0.00000000000E+00 0. -1.
         22    1    3    3    0    0 -0.27357244134E+02 -0.47709401764E+02 -0.20039145310E+03  0.20780120380E+03  0.00000000000E+00 0. -1.
         22    1    3    3    0    0 -0.42899528260E+02  0.34172473466E+02 -0.26424692920E+02  0.60880143426E+02  0.00000000000E+00 0. -1.
</event>
<event>
 7    1  0.5667373E-006  0.6541378E+02  0.7818608E-02  0.1428084E+00
          2   -1    0    0  502    0  0.00000000000E+00  0.00000000000E+00  0.67328080216E+03  0.67328080216E+03  0.00000000000E+00 0. -1.
          1   -1    0    0  501    0 -0.00000000000E+00 -0.00000000000E+00 -0.99687264414E+03  0.99687264414E+03  0.00000000000E+00 0. -1.
         25    2    1    2    0    0 -0.12898333443E+02  0.85489428013E+02  0.36996724924E+02  0.15642362502E+03  0.12499913400E+03 0.  0.
          2    1    1    2  501    0 -0.27035436925E+02 -0.34085277120E+02 -0.93481448300E+03  0.93582628655E+03  0.00000000000E+00 0. -1.
          1    1    1    2  502    0  0.39933770368E+02 -0.51404150893E+02  0.57422591610E+03  0.57790353474E+03  0.00000000000E+00 0. -1.
         22    1    3    3    0    0 -0.18730990213E+02  0.22325665425E+02 -0.44473449193E+02  0.53171167132E+02  0.00000000000E+00 0. -1.
         22    1    3    3    0    0  0.58326567700E+01  0.63163762588E+02  0.81470174117E+02  0.10325245789E+03  0.00000000000E+00 0. -1.
</event>
<event>
 7    1  0.5667373E-006  0.1244635E+03  0.7818608E-02  0.1363516E+00
          2   -1    0    0  502    0  0.00000000000E+00  0.00000000000E+00  0.10255872308E+04  0.10255872308E+04  0.00000000000E+00 0. -1.
          1   -1    0    0  501    0 -0.00000000000E+00 -0.00000000000E+00 -0.22358530140E+03  0.22358530140E+03  0.00000000000E+00 0. -1.
         25    2    1    2    0    0 -0.44679028210E+02 -0.82291483275E+02  0.21261302737E+03  0.26381247426E+03  0.12499847353E+03 0.  0.
          2    1    1    2  501    0 -0.96228130799E+01 -0.37025630066E+02 -0.19061537952E+03  0.19441635405E+03  0.00000000000E+00 0. -1.
          1    1    1    2  502    0  0.54301841290E+02  0.11931711334E+03  0.78000428155E+03  0.79094370390E+03  0.00000000000E+00 0. -1.
         22    1    3    3    0    0 -0.78523887419E+02 -0.67107637938E+02  0.94455215331E+02  0.13996865245E+03  0.00000000000E+00 0. -1.
         22    1    3    3    0    0  0.33844859209E+02 -0.15183845337E+02  0.11815781204E+03  0.12384382181E+03  0.00000000000E+00 0. -1.
</event>
<event>
 7    1  0.5667373E-006  0.8003753E+02  0.7818608E-02  0.1343460E+00
          2   -1    0    0  502    0  0.00000000000E+00  0.00000000000E+00  0.49290082165E+03  0.49290082165E+03  0.00000000000E+00 0. -1.
          1   -1    0    0  501    0 -0.00000000000E+00 -0.00000000000E+00 -0.82065365273E+03  0.82065365273E+03  0.00000000000E+00 0. -1.
         25    2    1    2    0    0  0.98544995360E+02 -0.58220103026E+02 -0.47393399007E+03  0.50332861486E+03  0.12500228433E+03 0.  0.
          2    1    1    2  501    0 -0.68698563557E+02 -0.15962770249E+02 -0.32486916294E+03  0.33243687475E+03  0.00000000000E+00 0. -1.
          1    1    1    2  502    0 -0.29846431803E+02  0.74182873276E+02  0.47105032192E+03  0.47778898477E+03  0.00000000000E+00 0. -1.
         22    1    3    3    0    0 -0.12919930456E+02  0.13340469524E+02 -0.10494853940E+02  0.21331542122E+02  0.00000000000E+00 0. -1.
         22    1    3    3    0    0  0.11146492582E+03 -0.71560572550E+02 -0.46343913613E+03  0.48199707274E+03  0.00000000000E+00 0. -1.
</event>
<event>
 7    1  0.5667373E-006  0.1707223E+03  0.7818608E-02  0.1206450E+00
          2   -1    0    0  502    0  0.00000000000E+00  0.00000000000E+00  0.64034219711E+03  0.64034219711E+03  0.00000000000E+00 0. -1.
          1   -1    0    0  501    0 -0.00000000000E+00 -0.00000000000E+00 -0.13685515512E+04  0.13685515512E+04  0.00000000000E+00 0. -1.
         25    2    1    2    0    0  0.48492934949E+02  0.69397727230E+02 -0.97474954498E+02  0.17970575607E+03  0.12500073089E+03 0.  0.
          2    1    1    2  501    0  0.12297306897E+03 -0.11999084891E+02 -0.12131108119E+04  0.12193868113E+04  0.00000000000E+00 0. -1.
          1    1    1    2  502    0 -0.17146600392E+03 -0.57398642339E+02  0.58237641230E+03  0.60980118092E+03  0.00000000000E+00 0. -1.
         22    1    3    3    0    0 -0.10299313340E+02 -0.19200048164E+02 -0.64958081599E+02  0.68514743448E+02  0.00000000000E+00 0. -1.
         22    1    3    3    0    0  0.58792248289E+02  0.88597775394E+02 -0.32516872899E+02  0.11119101262E+03  0.00000000000E+00 0. -1.
</event>
<event>
 7    1  0.5667373E-006  0.1321951E+03  0.7818608E-02  0.1297905E+00
          2   -1    0    0  502    0  0.00000000000E+00  0.00000000000E+00  0.23017943024E+04  0.23017943024E+04  0.00000000000E+00 0. -1.
          1   -1    0    0  501    0 -0.00000000000E+00 -0.00000000000E+00 -0.10575626517E+03  0.10575626517E+03  0.00000000000E+00 0. -1.
         25    2    1    2    0    0  0.13110383626E+03 -0.22888307875E+02  0.10577659625E+03  0.21102446484E+03  0.12502218174E+03 0.  0.
          2    1    1    2  501    0 -0.26243227061E+02 -0.58514802103E+02 -0.30919861352E+02  0.71194991803E+02  0.00000000000E+00 0. -1.
          1    1    1    2  502    0 -0.10486060920E+03  0.81403109978E+02  0.21211813024E+04  0.21253311109E+04  0.00000000000E+00 0. -1.
         22    1    3    3    0    0  0.80157552701E+02  0.28227921570E+01 -0.11088886065E+02  0.80970147614E+02  0.00000000000E+00 0. -1.
         22    1    3    3    0    0  0.50946283564E+02 -0.25711100032E+02  0.11686548231E+03  0.13005431723E+03  0.00000000000E+00 0. -1.
</event>
<event>
 7    1  0.5667373E-006  0.1232005E+03  0.7818608E-02  0.1365402E+00
          2   -1    0    0  502    0  0.00000000000E+00  0.00000000000E+00  0.10778625751E+04  0.10778625751E+04  0.00000000000E+00 0. -1.
          1   -1    0    0  501    0 -0.00000000000E+00 -0.00000000000E+00 -0.66354071330E+03  0.66354071330E+03  0.00000000000E+00 0. -1.
         25    2    1    2    0    0 -0.47905110756E+02  0.98325120429E+02  0.32769343199E+03  0.36738319748E+03  0.12499879789E+03 0.  0.
          2    1    1    2  501    0  0.18256472148E+02 -0.12216472986E+03 -0.63726596921E+03  0.64912667139E+03  0.00000000000E+00 0. -1.
          1    1    1    2  502    0  0.29648638608E+02  0.23839609430E+02  0.72389439897E+03  0.72489341948E+03  0.00000000000E+00 0. -1.
         22    1    3    3    0    0  0.67846585062E+01  0.67361266503E+02  0.28112768625E+03  0.28916491452E+03  0.00000000000E+00 0. -1.
         22    1    3    3    0    0 -0.54689769262E+02  0.30963853926E+02  0.46565745747E+02  0.78218282958E+02  0.00000000000E+00 0. -1.
</event>
<event>
 7    1  0.5667373E-006  0.2839853E+03  0.7818608E-02  0.1265578E+00
          2   -1    0    0  502    0  0.00000000000E+00  0.00000000000E+00  0.10790051262E+04  0.10790051262E+04  0.00000000000E+00 0. -1.
          1   -1    0    0  501    0 -0.00000000000E+00 -0.00000000000E+00 -0.10442081762E+04  0.10442081762E+04  0.00000000000E+00 0. -1.
         25    2    1    2    0    0  0.17367349350E+03  0.25993568999E+03 -0.32859696002E+03  0.47045730122E+03  0.12500025945E+03 0.  0.
          2    1    1    2  501    0 -0.15532386637E+03 -0.22375081005E+03 -0.61547204944E+03  0.67304960597E+03  0.00000000000E+00 0. -1.
          1    1    1    2  502    0 -0.18349627138E+02 -0.36184879942E+02  0.97886595938E+03  0.97970639520E+03  0.00000000000E+00 0. -1.
         22    1    3    3    0    0  0.45130552105E+02  0.30638041582E+02 -0.13006469334E+03  0.14103999709E+03  0.00000000000E+00 0. -1.
         22    1    3    3    0    0  0.12854294140E+03  0.22929764841E+03 -0.19853226668E+03  0.32941730413E+03  0.00000000000E+00 0. -1.
</event>
<event>
 7    1  0.5667373E-006  0.6888211E+02  0.7818608E-02  0.1447642E+00
          2   -1    0    0  502    0  0.00000000000E+00  0.00000000000E+00  0.14597002659E+04  0.14597002659E+04  0.00000000000E+00 0. -1.
          1   -1    0    0  501    0 -0.00000000000E+00 -0.00000000000E+00 -0.89984774201E+03  0.89984774201E+03  0.00000000000E+00 0. -1.
         25    2    1    2    0    0 -0.91024492745E+02  0.22652179568E+02  0.79007665936E+03  0.80538483461E+03  0.12500009856E+03 0.  0.
          2    1    1    2  501    0  0.58235814371E+02 -0.36724646643E+02 -0.89038293975E+03  0.89304081046E+03  0.00000000000E+00 0. -1.
          1    1    1    2  502    0  0.32788678373E+02  0.14072467074E+02  0.66015880426E+03  0.66112236281E+03  0.00000000000E+00 0. -1.
         22    1    3    3    0    0 -0.10032002306E+03  0.15188931636E+02  0.78638758839E+03  0.79290620495E+03  0.00000000000E+00 0.  1.
         22    1    3    3    0    0  0.92955303192E+01  0.74632479321E+01  0.36890709652E+01  0.12478629660E+02  0.00000000000E+00 0.  1.
</event>
<event>
 7    1  0.5667373E-006  0.6827801E+02  0.7818608E-02  0.1448259E+00
          2   -1    0    0  502    0  0.00000000000E+00  0.00000000000E+00  0.99357781229E+03  0.99357781229E+03  0.00000000000E+00 0. -1.
          1   -1    0    0  501    0 -0.00000000000E+00 -0.00000000000E+00 -0.17543620933E+04  0.17543620933E+04  0.00000000000E+00 0. -1.
         25    2    1    2    0    0 -0.16149450965E+02 -0.93962889572E+02  0.97129066733E+02  0.18479559128E+03  0.12500210226E+03 0.  0.
          2    1    1    2  501    0  0.30321566323E+02  0.61051696241E+02 -0.17094727608E+04  0.17108313263E+04  0.00000000000E+00 0. -1.
          1    1    1    2  502    0 -0.14172115358E+02  0.32911193331E+02  0.85155941310E+03  0.85231298801E+03  0.00000000000E+00 0. -1.
         22    1    3    3    0    0  0.40121039802E+02 -0.84356958786E+02  0.33314914825E+02  0.99174986162E+02  0.00000000000E+00 0.  1.
         22    1    3    3    0    0 -0.56270490767E+02 -0.96059307855E+01  0.63814151907E+02  0.85620605120E+02  0.00000000000E+00 0.  1.
</event>
<event>
 7    1  0.5667373E-006  0.5124024E+02  0.7818608E-02  0.1504007E+00
          2   -1    0    0  502    0  0.00000000000E+00  0.00000000000E+00  0.49892429130E+03  0.49892429130E+03  0.00000000000E+00 0. -1.
          1   -1    0    0  501    0 -0.00000000000E+00 -0.00000000000E+00 -0.34268109115E+02  0.34268109115E+02  0.00000000000E+00 0. -1.
         25    2    1    2    0    0 -0.39879292028E+02 -0.72394016730E+01  0.37542638417E+03  0.39775366240E+03  0.12498095517E+03 0.  0.
          2    1    1    2  501    0 -0.13498643246E+02 -0.29160049470E+02  0.10964876889E+02  0.33952177835E+02  0.00000000000E+00 0. -1.
          1    1    1    2  502    0  0.53377935273E+02  0.36399451142E+02  0.78264921121E+02  0.10148656017E+03  0.00000000000E+00 0. -1.
         22    1    3    3    0    0  0.24856096201E+02  0.40026211633E+02  0.94175667435E+02  0.10530422343E+03  0.00000000000E+00 0.  1.
         22    1    3    3    0    0 -0.64735388228E+02 -0.47265613306E+02  0.28125071674E+03  0.29244943897E+03  0.00000000000E+00 0.  1.
</event>
<event>
 7    1  0.5667373E-006  0.1210978E+03  0.7818608E-02  0.1323897E+00
          2   -1    0    0  502    0  0.00000000000E+00  0.00000000000E+00  0.90994906591E+03  0.90994906591E+03  0.00000000000E+00 0. -1.
          1   -1    0    0  501    0 -0.00000000000E+00 -0.00000000000E+00 -0.15424133474E+04  0.15424133474E+04  0.00000000000E+00 0. -1.
         25    2    1    2    0    0  0.10935352875E+02  0.13337136994E+03  0.59337746411E+03  0.62099017528E+03  0.12499791445E+03 0.  0.
          2    1    1    2  501    0  0.45126258562E+02 -0.31990096761E+02 -0.15170023624E+04  0.15180105115E+04  0.00000000000E+00 0. -1.
          1    1    1    2  502    0 -0.56061611437E+02 -0.10138127318E+03  0.29116061684E+03  0.31336172649E+03  0.00000000000E+00 0. -1.
         22    1    3    3    0    0 -0.48618596381E+02  0.67584232339E+02  0.39486290238E+03  0.40354443133E+03  0.00000000000E+00 0. -1.
         22    1    3    3    0    0  0.59553949256E+02  0.65787137598E+02  0.19851456173E+03  0.21744574395E+03  0.00000000000E+00 0. -1.
</event>
<event>
 7    1  0.5667373E-006  0.4968838E+02  0.7818608E-02  0.1550890E+00
          2   -1    0    0  502    0  0.00000000000E+00  0.00000000000E+00  0.19367784611E+04  0.19367784611E+04  0.00000000000E+00 0. -1.
          1   -1    0    0  501    0 -0.00000000000E+00 -0.00000000000E+00 -0.18691148088E+03  0.18691148088E+03  0.00000000000E+00 0. -1.
         25    2    1    2    0    0  0.43518345281E+02 -0.24454036934E+02  0.95934676066E+03  0.96874539303E+03  0.12501833077E+03 0.  0.
          2    1    1    2  501    0 -0.26665128963E+02  0.41951100576E+02 -0.17866694467E+03  0.18545296185E+03  0.00000000000E+00 0. -1.
          1    1    1    2  502    0 -0.16853216319E+02 -0.17497063642E+02  0.96918716423E+03  0.96949158709E+03  0.00000000000E+00 0. -1.
         22    1    3    3    0    0  0.76822654892E+02 -0.47872907844E+02  0.75294141850E+03  0.75836291794E+03  0.00000000000E+00 0.  1.
         22    1    3    3    0    0 -0.33304309611E+02  0.23418870910E+02  0.20640534216E+03  0.21038247509E+03  0.00000000000E+00 0.  1.
</event>
<event>
 7    1  0.5667373E-006  0.8419750E+02  0.7818608E-02  0.1328024E+00
          2   -1    0    0  502    0  0.00000000000E+00  0.00000000000E+00  0.22047537721E+03  0.22047537721E+03  0.00000000000E+00 0. -1.
          1   -1    0    0  501    0 -0.00000000000E+00 -0.00000000000E+00 -0.82578950954E+03  0.82578950954E+03  0.00000000000E+00 0. -1.
         25    2    1    2    0    0  0.85993816358E+01  0.33734584508E+02 -0.20559919128E+03  0.24312223688E+03  0.12500169220E+03 0.  0.
          2    1    1    2  501    0  0.50882004857E+02 -0.82163277912E+02 -0.59006120298E+03  0.59792307693E+03  0.00000000000E+00 0. -1.
          1    1    1    2  502    0 -0.59481386492E+02  0.48428693404E+02  0.19034626193E+03  0.20521957294E+03  0.00000000000E+00 0. -1.
         22    1    3    3    0    0  0.41401925769E+02 -0.26177901643E+02 -0.14038314658E+03  0.14868365692E+03  0.00000000000E+00 0.  1.
         22    1    3    3    0    0 -0.32802544133E+02  0.59912486151E+02 -0.65216044706E+02  0.94438579963E+02  0.00000000000E+00 0.  1.
</event>
<event>
 7    1  0.5667373E-006  0.2128324E+03  0.7818608E-02  0.1210122E+00
          2   -1    0    0  502    0  0.00000000000E+00  0.00000000000E+00  0.37334027897E+03  0.37334027897E+03  0.00000000000E+00 0. -1.
          1   -1    0    0  501    0 -0.00000000000E+00 -0.00000000000E+00 -0.12107058290E+04  0.12107058290E+04  0.00000000000E+00 0. -1.
         25    2    1    2    0    0 -0.45514078013E+02 -0.11900025076E+03  0.24941211634E+02  0.18021654409E+03  0.12499339081E+03 0.  0.
          2    1    1    2  501    0  0.93405836721E+02  0.20138021696E+03 -0.11133734051E+04  0.11352880609E+04  0.00000000000E+00 0. -1.
          1    1    1    2  502    0 -0.47891758708E+02 -0.82379966193E+02  0.25106664341E+03  0.26854150297E+03  0.00000000000E+00 0. -1.
         22    1    3    3    0    0  0.20466096076E+02 -0.10310651822E+03  0.36694882502E+02  0.11133880541E+03  0.00000000000E+00 0.  1.
         22    1    3    3    0    0 -0.65980174089E+02 -0.15893732541E+02 -0.11753670868E+02  0.68877738680E+02  0.00000000000E+00 0.  1.
</event>
<event>
 7    1  0.5667373E-006  0.1407474E+03  0.7818608E-02  0.1416238E+00
          2   -1    0    0  502    0  0.00000000000E+00  0.00000000000E+00  0.27565934622E+04  0.27565934622E+04  0.00000000000E+00 0. -1.
          1   -1    0    0  501    0 -0.00000000000E+00 -0.00000000000E+00 -0.96333452723E+03  0.96333452723E+03  0.00000000000E+00 0. -1.
         25    2    1    2    0    0 -0.52377716015E+02  0.13648451787E+03 -0.17616521485E+03  0.26082624727E+03  0.12499879835E+03 0.  0.
          2    1    1    2  501    0 -0.17071150372E+02 -0.14101124237E+02 -0.74284995015E+03  0.74317986674E+03  0.00000000000E+00 0. -1.
          1    1    1    2  502    0  0.69448866386E+02 -0.12238339363E+03  0.27122740999E+04  0.27159218754E+04  0.00000000000E+00 0. -1.
         22    1    3    3    0    0 -0.36585308524E+02 -0.11936422368E+02 -0.15386131197E+02  0.41445096356E+02  0.00000000000E+00 0. -1.
         22    1    3    3    0    0 -0.15792407491E+02  0.14842094024E+03 -0.16077908365E+03  0.21938115091E+03  0.00000000000E+00 0. -1.
</event>
<event>
 7    1  0.5667373E-006  0.1421116E+03  0.7818608E-02  0.1362330E+00
          2   -1    0    0  502    0  0.00000000000E+00  0.00000000000E+00  0.13364933347E+03  0.13364933347E+03  0.00000000000E+00 0. -1.
          1   -1    0    0  501    0 -0.00000000000E+00 -0.00000000000E+00 -0.22379645959E+04  0.22379645959E+04  0.00000000000E+00 0. -1.
         25    2    1    2    0    0  0.15728759506E+03  0.62834644633E+02 -0.82216496814E+03  0.84868607901E+03  0.12500098299E+03 0.  0.
          2    1    1    2  501    0 -0.21288486498E+02 -0.26303547386E+02 -0.13610770559E+04  0.13614976417E+04  0.00000000000E+00 0. -1.
          1    1    1    2  502    0 -0.13599910856E+03 -0.36531097248E+02  0.78926761557E+02  0.16143020871E+03  0.00000000000E+00 0. -1.
         22    1    3    3    0    0  0.14538225084E+03  0.17753736655E+02 -0.44111858235E+03  0.46479758790E+03  0.00000000000E+00 0.  1.
         22    1    3    3    0    0  0.11905344220E+02  0.45080907979E+02 -0.38104638579E+03  0.38388849111E+03  0.00000000000E+00 0.  1.
</event>
<event>
 7    1  0.5667373E-006  0.3847965E+02  0.7818608E-02  0.1550786E+00
          2   -1    0    0  502    0  0.00000000000E+00  0.00000000000E+00  0.50408019490E+03  0.50408019490E+03  0.00000000000E+00 0. -1.
          1   -1    0    0  501    0 -0.00000000000E+00 -0.00000000000E+00 -0.55692707503E+03  0.55692707503E+03  0.00000000000E+00 0. -1.
         25    2    1    2    0    0  0.14086253037E+02 -0.64479190109E+01 -0.18859865339E+03  0.22679569534E+03  0.12500734849E+03 0.  0.
          2    1    1    2  501    0 -0.37420055767E+02 -0.14550616478E+02 -0.34756508861E+03  0.34987636650E+03  0.00000000000E+00 0. -1.
          1    1    1    2  502    0  0.23333802730E+02  0.20998535489E+02  0.48331686187E+03  0.48433520810E+03  0.00000000000E+00 0. -1.
         22    1    3    3    0    0  0.42291675862E+02 -0.39235441984E+02 -0.35571715129E+02  0.67774277364E+02  0.00000000000E+00 0.  1.
         22    1    3    3    0    0 -0.28205422825E+02  0.32787522973E+02 -0.15302693826E+03  0.15902141797E+03  0.00000000000E+00 0.  1.
</event>
<event>
 7    1  0.5667373E-006  0.1303589E+03  0.7818608E-02  0.1342182E+00
          2   -1    0    0  502    0  0.00000000000E+00  0.00000000000E+00  0.11071484789E+04  0.11071484789E+04  0.00000000000E+00 0. -1.
          1   -1    0    0  501    0 -0.00000000000E+00 -0.00000000000E+00 -0.87788340815E+03  0.87788340815E+03  0.00000000000E+00 0. -1.
         25    2    1    2    0    0 -0.16955540847E+02  0.16910187361E+03 -0.10787953900E+03  0.23695104179E+03  0.12499946898E+03 0.  0.
          2    1    1    2  501    0  0.58932451657E+01 -0.12673931599E+03 -0.69929761894E+03  0.71071424947E+03  0.00000000000E+00 0. -1.
          1    1    1    2  502    0  0.11062295682E+02 -0.42362557620E+02  0.10364422287E+04  0.10373665958E+04  0.00000000000E+00 0. -1.
         22    1    3    3    0    0  0.33397924109E+02  0.37903208586E+02  0.12353232425E+02  0.52006508316E+02  0.00000000000E+00 0.  1.
         22    1    3    3    0    0 -0.50353464956E+02  0.13119866502E+03 -0.12023277142E+03  0.18494453347E+03  0.00000000000E+00 0.  1.
</event>
<event>
 7    1  0.5667373E-006  0.5019673E+02  0.7818608E-02  0.1474118E+00
          2   -1    0    0  502    0  0.00000000000E+00  0.00000000000E+00  0.20573810036E+04  0.20573810036E+04  0.00000000000E+00 0. -1.
          1   -1    0    0  501    0 -0.00000000000E+00 -0.00000000000E+00 -0.65789305622E+03  0.65789305622E+03  0.00000000000E+00 0. -1.
         25    2    1    2    0    0 -0.50527992562E+01 -0.32729389916E+02  0.19400175054E+03  0.23314894590E+03  0.12500003207E+03 0.  0.
          2    1    1    2  501    0  0.44428336480E+02  0.23664366670E+02 -0.63710522848E+03  0.63909072243E+03  0.00000000000E+00 0. -1.
          1    1    1    2  502    0 -0.39375537224E+02  0.90650232464E+01  0.18425914253E+04  0.18430343915E+04  0.00000000000E+00 0. -1.
         22    1    3    3    0    0  0.56069775951E+02 -0.13019252637E+02  0.53150191435E+02  0.78347071190E+02  0.00000000000E+00 0. -1.
         22    1    3    3    0    0 -0.61122575208E+02 -0.19710137279E+02  0.14085155911E+03  0.15480187471E+03  0.00000000000E+00 0. -1.
</event>
<event>
 7    1  0.1549111E-005  0.9937922E+02  0.7818608E-02  0.1436002E+00
          2   -1    0    0  502    0  0.00000000000E+00  0.00000000000E+00  0.24552454847E+04  0.24552454847E+04  0.00000000000E+00 0. -1.
          1   -1    0    0  501    0 -0.00000000000E+00 -0.00000000000E+00 -0.27164376274E+04  0.27164376274E+04  0.00000000000E+00 0. -1.
         25    2    1    2    0    0  0.34153019899E+02  0.11790165244E+03 -0.97367625162E+03  0.98931290975E+03  0.12500944775E+03 0.  0.
          2    1    1    2  501    0 -0.18295759453E+02 -0.19819085274E+02 -0.17338297382E+04  0.17340395301E+04  0.00000000000E+00 0. -1.
          1    1    1    2  502    0 -0.15857260446E+02 -0.98082567167E+02  0.24463138470E+04  0.24483306723E+04  0.00000000000E+00 0. -1.
         22    1    3    3    0    0  0.18261386973E+02  0.39890205271E+02 -0.73316544796E+02  0.85440168958E+02  0.00000000000E+00 0.  1.
         22    1    3    3    0    0  0.15891632925E+02  0.78011447170E+02 -0.90035970682E+03  0.90387274080E+03  0.00000000000E+00 0.  1.
</event>
<event>
 7    1  0.5667373E-006  0.5052146E+02  0.7818608E-02  0.1445568E+00
          2   -1    0    0  502    0  0.00000000000E+00  0.00000000000E+00  0.75758251249E+03  0.75758251249E+03  0.00000000000E+00 0. -1.
          1   -1    0    0  501    0 -0.00000000000E+00 -0.00000000000E+00 -0.22911157776E+03  0.22911157776E+03  0.00000000000E+00 0. -1.
         25    2    1    2    0    0  0.33429339666E+02  0.27531074849E+02  0.12942390467E+03  0.18506773922E+03  0.12499616061E+03 0.  0.
          2    1    1    2  501    0  0.10540538959E+02 -0.50050251890E+02 -0.19700202193E+03  0.20353360243E+03  0.00000000000E+00 0. -1.
          1    1    1    2  502    0 -0.43969878625E+02  0.22519177041E+02  0.59604905198E+03  0.59809274860E+03  0.00000000000E+00 0. -1.
         22    1    3    3    0    0  0.66420937609E+02  0.57314541984E+02  0.89406465988E+02  0.12526058373E+03  0.00000000000E+00 0.  1.
         22    1    3    3    0    0 -0.32991597943E+02 -0.29783467136E+02  0.40017438679E+02  0.59807155491E+02  0.00000000000E+00 0.  1.
</event>
<event>
 7    1  0.5667373E-006  0.1709749E+03  0.7818608E-02  0.1364943E+00
          2   -1    0    0  502    0  0.00000000000E+00  0.00000000000E+00  0.92597538724E+03  0.92597538724E+03  0.00000000000E+00 0. -1.
          1   -1    0    0  501    0 -0.00000000000E+00 -0.00000000000E+00 -0.34984229341E+03  0.34984229341E+03  0.00000000000E+00 0. -1.
         25    2    1    2    0    0 -0.15071944628E+03 -0.93390801345E+01  0.28144702418E+03  0.34298751961E+03  0.12499776512E+03 0.  0.
          2    1    1    2  501    0  0.17235745686E+03 -0.76634673351E+01 -0.29540574313E+03  0.34209702533E+03  0.00000000000E+00 0. -1.
          1    1    1    2  502    0 -0.21638010583E+02  0.17002547470E+02  0.59009181278E+03  0.59073313571E+03  0.00000000000E+00 0. -1.
         22    1    3    3    0    0 -0.26656349488E+02 -0.43815294257E+02  0.15193537863E+03  0.16035803771E+03  0.00000000000E+00 0. -1.
         22    1    3    3    0    0 -0.12406309679E+03  0.34476214122E+02  0.12951164555E+03  0.18262948189E+03  0.00000000000E+00 0. -1.
</event>
<event>
 7    1  0.5667373E-006  0.2228124E+03  0.7818608E-02  0.1364113E+00
          2   -1    0    0  502    0  0.00000000000E+00  0.00000000000E+00  0.96885103225E+03  0.96885103225E+03  0.00000000000E+00 0. -1.
          1   -1    0    0  501    0 -0.00000000000E+00 -0.00000000000E+00 -0.25823215647E+03  0.25823215647E+03  0.00000000000E+00 0. -1.
         25    2    1    2    0    0  0.16513210062E+03  0.13317230763E+03  0.11241471016E+03  0.27067639249E+03  0.12500067286E+03 0.  0.
          2    1    1    2  501    0 -0.12981711446E+01  0.21223702490E+02 -0.16209258568E+03  0.16348130514E+03  0.00000000000E+00 0. -1.
          1    1    1    2  502    0 -0.16383392947E+03 -0.15439601012E+03  0.76029675131E+03  0.79292549110E+03  0.00000000000E+00 0. -1.
         22    1    3    3    0    0  0.16368200679E+03  0.67345280673E+02  0.61257820017E+02  0.18729577328E+03  0.00000000000E+00 0. -1.
         22    1    3    3    0    0  0.14500938272E+01  0.65827026959E+02  0.51156890141E+02  0.83380619206E+02  0.00000000000E+00 0. -1.
</event>
<event>
 7    1  0.5667373E-006  0.5461012E+02  0.7818608E-02  0.1455663E+00
          2   -1    0    0  502    0  0.00000000000E+00  0.00000000000E+00  0.29535834431E+04  0.29535834431E+04  0.00000000000E+00 0. -1.
          1   -1    0    0  501    0 -0.00000000000E+00 -0.00000000000E+00 -0.15500293416E+03  0.15500293416E+03  0.00000000000E+00 0. -1.
         25    2    1    2    0    0  0.43017198645E+02 -0.61905573476E+02  0.15049281418E+02  0.14674568714E+03  0.12500014567E+03 0.  0.
          2    1    1    2  501    0 -0.41789304939E+02  0.73420375149E+01 -0.83832192142E+02  0.93957905263E+02  0.00000000000E+00 0. -1.
          1    1    1    2  502    0 -0.12278937059E+01  0.54563535961E+02  0.28673634196E+04  0.28678827848E+04  0.00000000000E+00 0. -1.
         22    1    3    3    0    0  0.10566926622E+02  0.38057943335E+02 -0.48025758863E+01  0.39788587864E+02  0.00000000000E+00 0.  1.
         22    1    3    3    0    0  0.32450272023E+02 -0.99963516811E+02  0.19851857304E+02  0.10695709928E+03  0.00000000000E+00 0.  1.
</event>
<event>
 7    1  0.5667373E-006  0.5992793E+02  0.7818608E-02  0.1549450E+00
          2   -1    0    0  502    0  0.00000000000E+00  0.00000000000E+00  0.15883291349E+03  0.15883291349E+03  0.00000000000E+00 0. -1.
          1   -1    0    0  501    0 -0.00000000000E+00 -0.00000000000E+00 -0.19464892051E+04  0.19464892051E+04  0.00000000000E+00 0. -1.
         25    2    1    2    0    0  0.40495513609E+02  0.58942563509E+02 -0.10779151127E+04  0.10874929363E+04  0.12500313592E+03 0.  0.
          2    1    1    2  501    0  0.47821055046E+01 -0.19759470206E+02 -0.85784143997E+03  0.85808230452E+03  0.00000000000E+00 0. -1.
          1    1    1    2  502    0 -0.45277619114E+02 -0.39183093304E+02  0.14810026111E+03  0.15974687769E+03  0.00000000000E+00 0. -1.
         22    1    3    3    0    0  0.69380636779E+02  0.28310575514E+02 -0.94731094444E+03  0.95027005998E+03  0.00000000000E+00 0.  1.
         22    1    3    3    0    0 -0.28885123170E+02  0.30631987995E+02 -0.13060416827E+03  0.13722287637E+03  0.00000000000E+00 0.  1.
</event>
<event>
 7    1  0.5667373E-006  0.2553674E+02  0.7818608E-02  0.1693649E+00
          2   -1    0    0  502    0  0.00000000000E+00  0.00000000000E+00  0.63007191097E+03  0.63007191097E+03  0.00000000000E+00 0. -1.
          1   -1    0    0  501    0 -0.00000000000E+00 -0.00000000000E+00 -0.10590988340E+04  0.10590988340E+04  0.00000000000E+00 0. -1.
         25    2    1    2    0    0  0.74108130577E+01  0.39037627989E+02 -0.70815178595E+02  0.14905912736E+03  0.12499990953E+03 0.  0.
          2    1    1    2  501    0 -0.14446718800E+02 -0.14515234599E+02 -0.94877579033E+03  0.94899678610E+03  0.00000000000E+00 0. -1.
          1    1    1    2  502    0  0.70359057423E+01 -0.24522393390E+02  0.59056404589E+03  0.59111483152E+03  0.00000000000E+00 0. -1.
         22    1    3    3    0    0 -0.54152427945E+02  0.12897504177E+02 -0.59043989117E+02  0.81148159050E+02  0.00000000000E+00 0.  1.
         22    1    3    3    0    0  0.61563241003E+02  0.26140123812E+02 -0.11771189479E+02  0.67910968315E+02  0.00000000000E+00 0.  1.
</event>
<event>
 7    1  0.5667373E-006  0.9416483E+02  0.7818608E-02  0.1406684E+00
          2   -1    0    0  502    0  0.00000000000E+00  0.00000000000E+00  0.18052447835E+04  0.18052447835E+04  0.00000000000E+00 0. -1.
          1   -1    0    0  501    0 -0.00000000000E+00 -0.00000000000E+00 -0.72361483767E+03  0.72361483767E+03  0.00000000000E+00 0. -1.
         25    2    1    2    0    0 -0.78712291123E+02  0.27641496788E+02  0.45985997654E+03  0.48379355648E+03  0.12500132058E+03 0.  0.
          2    1    1    2  501    0 -0.17704067144E+02 -0.30944742689E+02 -0.70945490471E+03  0.71035010587E+03  0.00000000000E+00 0. -1.
          1    1    1    2  502    0  0.96416358266E+02  0.33032459011E+01  0.13312248740E+04  0.13347159588E+04  0.00000000000E+00 0. -1.
         22    1    3    3    0    0  0.17517879253E+02  0.67223418011E+01  0.26307361798E+03  0.26374190878E+03  0.00000000000E+00 0. -1.
         22    1    3    3    0    0 -0.96230170376E+02  0.20919154987E+02  0.19678635856E+03  0.22005164769E+03  0.00000000000E+00 0. -1.
</event>
<event>
 7    1  0.5667373E-006  0.5997788E+02  0.7818608E-02  0.1507694E+00
          2   -1    0    0  502    0  0.00000000000E+00  0.00000000000E+00  0.75921765817E+02  0.75921765817E+02  0.00000000000E+00 0. -1.
          1   -1    0    0  501    0 -0.00000000000E+00 -0.00000000000E+00 -0.12218117009E+04  0.12218117009E+04  0.00000000000E+00 0. -1.
         25    2    1    2    0    0  0.35776328758E+02 -0.29293612814E+02 -0.86523870412E+03  0.87544355854E+03  0.12500139051E+03 0.  0.
          2    1    1    2  501    0  0.22589837203E+02  0.14365281430E+02 -0.33803250652E+03  0.33909089861E+03  0.00000000000E+00 0. -1.
          1    1    1    2  502    0 -0.58366165961E+02  0.14928331384E+02  0.57381275563E+02  0.83199009562E+02  0.00000000000E+00 0. -1.
         22    1    3    3    0    0  0.10024398743E+02  0.43168765451E+02 -0.15999406684E+03  0.16601846977E+03  0.00000000000E+00 0. -1.
         22    1    3    3    0    0  0.25751930015E+02 -0.72462378265E+02 -0.70524463729E+03  0.70942508878E+03  0.00000000000E+00 0. -1.
</event>
<event>
 7    1  0.5667373E-006  0.3217143E+03  0.7818608E-02  0.1266666E+00
          2   -1    0    0  502    0  0.00000000000E+00  0.00000000000E+00  0.92991819597E+03  0.92991819597E+03  0.00000000000E+00 0. -1.
          1   -1    0    0  501    0 -0.00000000000E+00 -0.00000000000E+00 -0.24640029286E+04  0.24640029286E+04  0.00000000000E+00 0. -1.
         25    2    1    2    0    0  0.12309585632E+02  0.34146450824E+03 -0.76155168084E+03  0.84400012343E+03  0.12500283783E+03 0.  0.
          2    1    1    2  501    0  0.27082927683E+02 -0.22852674629E+02 -0.16320349515E+04  0.16324196190E+04  0.00000000000E+00 0. -1.
          1    1    1    2  502    0 -0.39392513315E+02 -0.31861183361E+03  0.85950189969E+03  0.91750138212E+03  0.00000000000E+00 0. -1.
         22    1    3    3    0    0  0.45700622543E+02  0.28561074375E+03 -0.53372459368E+03  0.60706176436E+03  0.00000000000E+00 0. -1.
         22    1    3    3    0    0 -0.33391036911E+02  0.55853764487E+02 -0.22782708716E+03  0.23693835906E+03  0.00000000000E+00 0. -1.
</event>
<event>
 7    1  0.5667373E-006  0.6973626E+02  0.7818608E-02  0.1460321E+00
          2   -1    0    0  502    0  0.00000000000E+00  0.00000000000E+00  0.23586327008E+04  0.23586327008E+04  0.00000000000E+00 0. -1.
          1   -1    0    0  501    0 -0.00000000000E+00 -0.00000000000E+00 -0.18668957838E+03  0.18668957838E+03  0.00000000000E+00 0. -1.
         25    2    1    2    0    0 -0.13949063962E+02 -0.47445494790E+02  0.66540732073E+03  0.67884989740E+03  0.12499851747E+03 0.  0.
          2    1    1    2  501    0 -0.30622940924E+02 -0.96841496050E+01 -0.17775013375E+03  0.18062850637E+03  0.00000000000E+00 0. -1.
          1    1    1    2  502    0  0.44572004886E+02  0.57129644395E+02  0.16842859354E+04  0.16858438754E+04  0.00000000000E+00 0. -1.
         22    1    3    3    0    0  0.37927787663E+01 -0.41332700122E+02  0.58917030895E+02  0.72069367970E+02  0.00000000000E+00 0. -1.
         22    1    3    3    0    0 -0.17741842728E+02 -0.61127946687E+01  0.60649028983E+03  0.60678052943E+03  0.00000000000E+00 0. -1.
</event>
<event>
 7    1  0.5667373E-006  0.5548102E+02  0.7818608E-02  0.1475164E+00
          2   -1    0    0  502    0  0.00000000000E+00  0.00000000000E+00  0.19130481707E+04  0.19130481707E+04  0.00000000000E+00 0. -1.
          1   -1    0    0  501    0 -0.00000000000E+00 -0.00000000000E+00 -0.23179547579E+02  0.23179547579E+02  0.00000000000E+00 0. -1.
         25    2    1    2    0    0  0.30418481841E+02  0.26120048487E+02  0.11180788335E+04  0.11257585181E+04  0.12499768865E+03 0.  0.
          2    1    1    2  501    0 -0.13237724617E+02  0.33785227908E+02  0.11926871394E+00  0.36286267414E+02  0.00000000000E+00 0. -1.
          1    1    1    2  502    0 -0.17180757224E+02 -0.59905276395E+02  0.77167052088E+03  0.77418293275E+03  0.00000000000E+00 0. -1.
         22    1    3    3    0    0  0.31410569732E+02  0.66881296416E+02  0.94740166046E+03  0.95027871593E+03  0.00000000000E+00 0.  1.
         22    1    3    3    0    0 -0.99208789146E+00 -0.40761247929E+02  0.17067717301E+03  0.17547980214E+03  0.00000000000E+00 0.  1.
</event>
<event>
 7    1  0.5667373E-006  0.8251825E+02  0.7818608E-02  0.1383715E+00
          2   -1    0    0  502    0  0.00000000000E+00  0.00000000000E+00  0.27432768898E+03  0.27432768898E+03  0.00000000000E+00 0. -1.
          1   -1    0    0  501    0 -0.00000000000E+00 -0.00000000000E+00 -0.68237505259E+03  0.68237505259E+03  0.00000000000E+00 0. -1.
         25    2    1    2    0    0 -0.12271588137E+03 -0.44316363645E+02  0.86764460463E+02  0.20044614362E+03  0.12500982867E+03 0.  0.
          2    1    1    2  501    0  0.76493973492E+02  0.28476531217E+02 -0.61819022632E+03  0.62355544799E+03  0.00000000000E+00 0. -1.
          1    1    1    2  502    0  0.46221907879E+02  0.15839832428E+02  0.12337840225E+03  0.13270114996E+03  0.00000000000E+00 0. -1.
         22    1    3    3    0    0 -0.10338345169E+01  0.13644696888E+02 -0.22906671836E+02  0.26682619466E+02  0.00000000000E+00 0. -1.
         22    1    3    3    0    0 -0.12168204685E+03 -0.57961060533E+02  0.10967113230E+03  0.17376352415E+03  0.00000000000E+00 0. -1.
</event>
<event>
 7    1  0.5667373E-006  0.9630717E+02  0.7818608E-02  0.1455088E+00
          2   -1    0    0  502    0  0.00000000000E+00  0.00000000000E+00  0.19303522746E+04  0.19303522746E+04  0.00000000000E+00 0. -1.
          1   -1    0    0  501    0 -0.00000000000E+00 -0.00000000000E+00 -0.18873910517E+03  0.18873910517E+03  0.00000000000E+00 0. -1.
         25    2    1    2    0    0 -0.95151944263E+02 -0.86655994656E+01  0.75735154525E+03  0.77352247463E+03  0.12500668200E+03 0.  0.
          2    1    1    2  501    0  0.95116143963E+02 -0.15494891440E+02 -0.16766577059E+03  0.19338816698E+03  0.00000000000E+00 0. -1.
          1    1    1    2  502    0  0.35800300137E-01  0.24160490906E+02  0.11519273947E+04  0.11521807382E+04  0.00000000000E+00 0. -1.
         22    1    3    3    0    0 -0.86992111412E+01  0.50708621221E+02  0.20972069348E+03  0.21593936606E+03  0.00000000000E+00 0.  1.
         22    1    3    3    0    0 -0.86452733122E+02 -0.59374220686E+02  0.54763085177E+03  0.55758310857E+03  0.00000000000E+00 0.  1.
</event>
<event>
 7    1  0.5667373E-006  0.1104387E+03  0.7818608E-02  0.1280731E+00
          2   -1    0    0  502    0  0.00000000000E+00  0.00000000000E+00  0.49535165210E+03  0.49535165210E+03  0.00000000000E+00 0. -1.
          1   -1    0    0  501    0 -0.00000000000E+00 -0.00000000000E+00 -0.73432656735E+03  0.73432656735E+03  0.00000000000E+00 0. -1.
         25    2    1    2    0    0  0.12040620640E+03  0.11900605529E+03  0.39282060829E+02  0.21407661559E+03  0.12500248519E+03 0.  0.
          2    1    1    2  501    0 -0.18166307528E+02 -0.88325267130E+02 -0.63595485701E+03  0.64231608083E+03  0.00000000000E+00 0. -1.
          1    1    1    2  502    0 -0.10223989888E+03 -0.30680788163E+02  0.35769788093E+03  0.37328552303E+03  0.00000000000E+00 0. -1.
         22    1    3    3    0    0  0.84766017213E+02  0.11740707486E+03 -0.18686102823E+02  0.14600982618E+03  0.00000000000E+00 0.  1.
         22    1    3    3    0    0  0.35640189190E+02  0.15989804344E+01  0.57968163652E+02  0.68066789414E+02  0.00000000000E+00 0.  1.
</event>
<event>
 7    1  0.5667373E-006  0.3758860E+02  0.7818608E-02  0.1563201E+00
          2   -1    0    0  502    0  0.00000000000E+00  0.00000000000E+00  0.10406597344E+04  0.10406597344E+04  0.00000000000E+00 0. -1.
          1   -1    0    0  501    0 -0.00000000000E+00 -0.00000000000E+00 -0.42343768781E+03  0.42343768781E+03  0.00000000000E+00 0. -1.
         25    2    1    2    0    0  0.97190648735E+01 -0.66123221946E+02  0.88998720700E+02  0.16735244177E+03  0.12497730504E+03 0.  0.
          2    1    1    2  501    0 -0.82220261553E+01  0.36466972915E+02 -0.38310926315E+03  0.38492875879E+03  0.00000000000E+00 0. -1.
          1    1    1    2  502    0 -0.14970387182E+01  0.29656249031E+02  0.91133258899E+03  0.91181622161E+03  0.00000000000E+00 0. -1.
         22    1    3    3    0    0  0.50908455947E+02 -0.78429890214E+02  0.38725865305E+02  0.10120578644E+03  0.00000000000E+00 0. -1.
         22    1    3    3    0    0 -0.41189391073E+02  0.12306668267E+02  0.50272855395E+02  0.66146655323E+02  0.00000000000E+00 0. -1.
</event>
<event>
 7    1  0.5667373E-006  0.1164751E+03  0.7818608E-02  0.1381718E+00
          2   -1    0    0  502    0  0.00000000000E+00  0.00000000000E+00  0.31796575577E+03  0.31796575577E+03  0.00000000000E+00 0. -1.
          1   -1    0    0  501    0 -0.00000000000E+00 -0.00000000000E+00 -0.10844830744E+03  0.10844830744E+03  0.00000000000E+00 0. -1.
         25    2    1    2    0    0 -0.96307923195E+02 -0.38076727645E+01  0.44148239939E+02  0.16390038015E+03  0.12499821232E+03 0.  0.
          2    1    1    2  501    0 -0.25192783287E+02  0.24558134239E+02 -0.19573006840E+02  0.40260164975E+02  0.00000000000E+00 0. -1.
          1    1    1    2  502    0  0.12150070648E+03 -0.20750461474E+02  0.18494221523E+03  0.22225351809E+03  0.00000000000E+00 0. -1.
         22    1    3    3    0    0 -0.66408913559E+02 -0.61274794390E+02  0.10686447196E+02  0.90988704691E+02  0.00000000000E+00 0.  1.
         22    1    3    3    0    0 -0.29899009636E+02  0.57467121626E+02  0.33461792744E+02  0.72911675463E+02  0.00000000000E+00 0.  1.
</event>
<event>
 7    1  0.5667373E-006  0.2146959E+03  0.7818608E-02  0.1283242E+00
          2   -1    0    0  502    0  0.00000000000E+00  0.00000000000E+00  0.20730727152E+04  0.20730727152E+04  0.00000000000E+00 0. -1.
          1   -1    0    0  501    0 -0.00000000000E+00 -0.00000000000E+00 -0.32206573346E+03  0.32206573346E+03  0.00000000000E+00 0. -1.
         25    2    1    2    0    0 -0.56806806978E+02 -0.24520624844E+03  0.81236348898E+02  0.29253586914E+03  0.12499909103E+03 0.  0.
          2    1    1    2  501    0  0.29585475885E+02  0.34295999275E+02 -0.20797662030E+03  0.21285156927E+03  0.00000000000E+00 0. -1.
          1    1    1    2  502    0  0.27221331093E+02  0.21091024917E+03  0.18777472532E+04  0.18897510103E+04  0.00000000000E+00 0. -1.
         22    1    3    3    0    0 -0.24318306116E+02 -0.24592593342E+03  0.62043022900E+02  0.25479458673E+03  0.00000000000E+00 0. -1.
         22    1    3    3    0    0 -0.32488500862E+02  0.71968497373E+00  0.19193325998E+02  0.37741282405E+02  0.00000000000E+00 0. -1.
</event>
<event>
 7    1  0.5667373E-006  0.6473548E+02  0.7818608E-02  0.1408197E+00
          2   -1    0    0  502    0  0.00000000000E+00  0.00000000000E+00  0.45174344980E+03  0.45174344980E+03  0.00000000000E+00 0. -1.
          1   -1    0    0  501    0 -0.00000000000E+00 -0.00000000000E+00 -0.27170641050E+03  0.27170641050E+03  0.00000000000E+00 0. -1.
         25    2    1    2    0    0 -0.74429282493E+02 -0.53134055510E+02  0.88505760124E+02  0.17838546436E+03  0.12500063349E+03 0.  0.
          2    1    1    2  501    0  0.10726649851E+02  0.50112444777E+02 -0.22060518941E+03  0.22647950841E+03  0.00000000000E+00 0. -1.
          1    1    1    2  502    0  0.63702632641E+02  0.30216107329E+01  0.31213646858E+03  0.31858488752E+03  0.00000000000E+00 0. -1.
         22    1    3    3    0    0 -0.36326402771E+02 -0.92355478557E+02  0.66381764171E+02  0.11939715479E+03  0.00000000000E+00 0. -1.
         22    1    3    3    0    0 -0.38102879722E+02  0.39221423047E+02  0.22123995953E+02  0.58988309569E+02  0.00000000000E+00 0. -1.
</event>
<event>
 7    1  0.5667373E-006  0.3696795E+02  0.7818608E-02  0.1623852E+00
          2   -1    0    0  502    0  0.00000000000E+00  0.00000000000E+00  0.10066682337E+04  0.10066682337E+04  0.00000000000E+00 0. -1.
          1   -1    0    0  501    0 -0.00000000000E+00 -0.00000000000E+00 -0.41976675798E+02  0.41976675798E+02  0.00000000000E+00 0. -1.
         25    2    1    2    0    0 -0.22409459460E+02 -0.22565457548E+02  0.16917450611E+03  0.21273381919E+03  0.12499712222E+03 0.  0.
          2    1    1    2  501    0  0.74667499640E+01  0.37170516892E+02 -0.21466390112E+01  0.37973777006E+02  0.00000000000E+00 0. -1.
          1    1    1    2  502    0  0.14942709496E+02 -0.14605059345E+02  0.79766369082E+03  0.79793731331E+03  0.00000000000E+00 0. -1.
         22    1    3    3    0    0 -0.70892032283E+02 -0.34469583722E+02  0.97338119801E+02  0.12525391016E+03  0.00000000000E+00 0. -1.
         22    1    3    3    0    0  0.48482572823E+02  0.11904126174E+02  0.71836386307E+02  0.87479909037E+02  0.00000000000E+00 0. -1.
</event>
<event>
 7    1  0.5667373E-006  0.7452481E+02  0.7818608E-02  0.1379942E+00
          2   -1    0    0  502    0  0.00000000000E+00  0.00000000000E+00  0.30451763917E+04  0.30451763917E+04  0.00000000000E+00 0. -1.
          1   -1    0    0  501    0 -0.00000000000E+00 -0.00000000000E+00 -0.91841564491E+03  0.91841564491E+03  0.00000000000E+00 0. -1.
         25    2    1    2    0    0  0.71642833346E+02  0.22926471005E+02  0.14897594082E+03  0.20851357233E+03  0.12500304099E+03 0.  0.
          2    1    1    2  501    0 -0.35718416034E+02 -0.65607388434E+02 -0.88680492291E+03  0.88994556349E+03  0.00000000000E+00 0. -1.
          1    1    1    2  502    0 -0.35924417312E+02  0.42680917429E+02  0.28645897289E+04  0.28651329008E+04  0.00000000000E+00 0. -1.
         22    1    3    3    0    0  0.10592145606E+03  0.49186111397E+01  0.97078921745E+02  0.14376322421E+03  0.00000000000E+00 0. -1.
         22    1    3    3    0    0 -0.34278622710E+02  0.18007859865E+02  0.51897019079E+02  0.64750348115E+02  0.00000000000E+00 0. -1.
</event>
<event>
 7    1  0.5667373E-006  0.6614395E+02  0.7818608E-02  0.1454687E+00
          2   -1    0    0  502    0  0.00000000000E+00  0.00000000000E+00  0.29156661927E+02  0.29156661927E+02  0.00000000000E+00 0. -1.
          1   -1    0    0  501    0 -0.00000000000E+00 -0.00000000000E+00 -0.84287343418E+03  0.84287343418E+03  0.00000000000E+00 0. -1.
         25    2    1    2    0    0  0.36028574870E+02  0.71779875814E+02 -0.19496431927E+03  0.24512163333E+03  0.12499248201E+03 0.  0.
          2    1    1    2  501    0 -0.13291943759E+01 -0.65396543461E+02 -0.41529322191E+03  0.42041281476E+03  0.00000000000E+00 0. -1.
          1    1    1    2  502    0 -0.34699380494E+02 -0.63833323531E+01 -0.20345923107E+03  0.20649564801E+03  0.00000000000E+00 0. -1.
         22    1    3    3    0    0  0.83028100339E+02  0.45344259240E+02 -0.12704744507E+03  0.15840082257E+03  0.00000000000E+00 0.  1.
         22    1    3    3    0    0 -0.46999525469E+02  0.26435616574E+02 -0.67916874203E+02  0.86720810763E+02  0.00000000000E+00 0.  1.
</event>
<event>
 7    1  0.5667373E-006  0.6115602E+02  0.7818608E-02  0.1438462E+00
          2   -1    0    0  502    0  0.00000000000E+00  0.00000000000E+00  0.18028785890E+04  0.18028785890E+04  0.00000000000E+00 0. -1.
          1   -1    0    0  501    0 -0.00000000000E+00 -0.00000000000E+00 -0.11573748017E+03  0.11573748017E+03  0.00000000000E+00 0. -1.
         25    2    1    2    0    0 -0.79421796784E+02 -0.40266871823E+02  0.13036087040E+03  0.20136566367E+03  0.12499972481E+03 0.  0.
          2    1    1    2  501    0  0.36925798255E+02  0.47022664459E+02 -0.68772675522E+02  0.91128077167E+02  0.00000000000E+00 0. -1.
          1    1    1    2  502    0  0.42495998529E+02 -0.67557926364E+01  0.16255529140E+04  0.16261223284E+04  0.00000000000E+00 0. -1.
         22    1    3    3    0    0 -0.66885354019E+02 -0.28997014773E+02  0.15512940714E+03  0.17140481442E+03  0.00000000000E+00 0.  1.
         22    1    3    3    0    0 -0.12536442764E+02 -0.11269857050E+02 -0.24768536743E+02  0.29960849245E+02  0.00000000000E+00 0.  1.
</event>
<event>
 7    1  0.5667373E-006  0.1752604E+03  0.7818608E-02  0.1369516E+00
          2   -1    0    0  502    0  0.00000000000E+00  0.00000000000E+00  0.32654341063E+04  0.32654341063E+04  0.00000000000E+00 0. -1.
          1   -1    0    0  501    0 -0.00000000000E+00 -0.00000000000E+00 -0.74793147929E+03  0.74793147929E+03  0.00000000000E+00 0. -1.
         25    2    1    2    0    0 -0.75791804554E+02 -0.14586496104E+03  0.20724502289E+03  0.29256978859E+03  0.12500238872E+03 0.  0.
          2    1    1    2  501    0  0.16536487891E+02 -0.19861878563E+02 -0.70246316730E+03  0.70293844045E+03  0.00000000000E+00 0. -1.
          1    1    1    2  502    0  0.59255316663E+02  0.16572683960E+03  0.30127207715E+04  0.30178573566E+04  0.00000000000E+00 0. -1.
         22    1    3    3    0    0  0.68213559598E+00 -0.10300963340E+03  0.54710712492E+02  0.11663923843E+03  0.00000000000E+00 0. -1.
         22    1    3    3    0    0 -0.76473940150E+02 -0.42855327643E+02  0.15253431039E+03  0.17593055015E+03  0.00000000000E+00 0. -1.
</event>
<event>
 7    1  0.5667373E-006  0.1526101E+03  0.7818608E-02  0.1285383E+00
          2   -1    0    0  502    0  0.00000000000E+00  0.00000000000E+00  0.36393273703E+03  0.36393273703E+03  0.00000000000E+00 0. -1.
          1   -1    0    0  501    0 -0.00000000000E+00 -0.00000000000E+00 -0.91491566366E+03  0.91491566366E+03  0.00000000000E+00 0. -1.
         25    2    1    2    0    0 -0.12954072116E+03  0.15443141738E+03  0.17951402346E+02  0.23785886716E+03  0.12499890690E+03 0.  0.
          2    1    1    2  501    0  0.11777231629E+03 -0.93106474950E+02 -0.79366765648E+03  0.80774221328E+03  0.00000000000E+00 0. -1.
          1    1    1    2  502    0  0.11768404867E+02 -0.61324942435E+02  0.22473332750E+03  0.23324732026E+03  0.00000000000E+00 0. -1.
         22    1    3    3    0    0 -0.48887754500E+02  0.58036255443E+02  0.68654625550E+02  0.10233121271E+03  0.00000000000E+00 0.  1.
         22    1    3    3    0    0 -0.80652966656E+02  0.96395161942E+02 -0.50703223204E+02  0.13552765445E+03  0.00000000000E+00 0.  1.
</event>
<event>
 7    1  0.5667373E-006  0.1173545E+03  0.7818608E-02  0.1449578E+00
          2   -1    0    0  502    0  0.00000000000E+00  0.00000000000E+00  0.19768589582E+04  0.19768589582E+04  0.00000000000E+00 0. -1.
          1   -1    0    0  501    0 -0.00000000000E+00 -0.00000000000E+00 -0.17496394519E+03  0.17496394519E+03  0.00000000000E+00 0. -1.
         25    2    1    2    0    0  0.49483850659E+02  0.12771980671E+03 -0.46641318666E+02  0.19121088636E+03  0.12500075981E+03 0.  0.
          2    1    1    2  501    0 -0.11937051095E+02 -0.16845354159E+02 -0.52272513707E+02  0.56202089239E+02  0.00000000000E+00 0. -1.
          1    1    1    2  502    0 -0.37546799564E+02 -0.11087445255E+03  0.19008088454E+04  0.19044099278E+04  0.00000000000E+00 0. -1.
         22    1    3    3    0    0  0.41646420769E+02  0.14017553943E+02 -0.62226915875E+02  0.76178115235E+02  0.00000000000E+00 0.  1.
         22    1    3    3    0    0  0.78374298908E+01  0.11370225277E+03  0.15585597209E+02  0.11503277112E+03  0.00000000000E+00 0.  1.
</event>
<event>
 7    1  0.5667373E-006  0.4078242E+02  0.7818608E-02  0.1556276E+00
          2   -1    0    0  502    0  0.00000000000E+00  0.00000000000E+00  0.56522074198E+03  0.56522074198E+03  0.00000000000E+00 0. -1.
          1   -1    0    0  501    0 -0.00000000000E+00 -0.00000000000E+00 -0.14539945885E+03  0.14539945885E+03  0.00000000000E+00 0. -1.
         25    2    1    2    0    0  0.58608071313E+02  0.34384133497E+02  0.38760216958E+03  0.41288952669E+03  0.12500057892E+03 0.  0.
          2    1    1    2  501    0 -0.31337099759E+02 -0.25776646455E+02 -0.12836223012E+03  0.13462284890E+03  0.00000000000E+00 0. -1.
          1    1    1    2  502    0 -0.27270971554E+02 -0.86074870415E+01  0.16058134367E+03  0.16310782525E+03  0.00000000000E+00 0. -1.
         22    1    3    3    0    0  0.65403181890E+02  0.13950826624E+02  0.78861932219E+02  0.10339925589E+03  0.00000000000E+00 0. -1.
         22    1    3    3    0    0 -0.67951105767E+01  0.20433306872E+02  0.30874023736E+03  0.30949027081E+03  0.00000000000E+00 0. -1.
</event>
<event>
 7    1  0.5667373E-006  0.3644076E+02  0.7818608E-02  0.1574410E+00
          2   -1    0    0  502    0  0.00000000000E+00  0.00000000000E+00  0.14215445007E+03  0.14215445007E+03  0.00000000000E+00 0. -1.
          1   -1    0    0  501    0 -0.00000000000E+00 -0.00000000000E+00 -0.10207666922E+03  0.10207666922E+03  0.00000000000E+00 0. -1.
         25    2    1    2    0    0  0.35792917059E+02  0.48704705363E+02 -0.13340402956E+02  0.13948600683E+03  0.12500039405E+03 0.  0.
          2    1    1    2  501    0 -0.21143514136E+02 -0.24197138206E+02 -0.11256825839E+02  0.34047992823E+02  0.00000000000E+00 0. -1.
          1    1    1    2  502    0 -0.14649402924E+02 -0.24507567157E+02  0.64675009645E+02  0.70697119648E+02  0.00000000000E+00 0. -1.
         22    1    3    3    0    0  0.39703348502E+02 -0.33457400117E+02 -0.22766151990E+02  0.56692602527E+02  0.00000000000E+00 0. -1.
         22    1    3    3    0    0 -0.39104314423E+01  0.82162105479E+02  0.94257490341E+01  0.82793404301E+02  0.00000000000E+00 0. -1.
</event>
<event>
 7    1  0.5667373E-006  0.8130546E+02  0.7818608E-02  0.1448552E+00
          2   -1    0    0  502    0  0.00000000000E+00  0.00000000000E+00  0.15084492917E+03  0.15084492917E+03  0.00000000000E+00 0. -1.
          1   -1    0    0  501    0 -0.00000000000E+00 -0.00000000000E+00 -0.44216187923E+03  0.44216187923E+03  0.00000000000E+00 0. -1.
         25    2    1    2    0    0 -0.58836504111E+02 -0.30802974809E+02 -0.52712899285E+02  0.15104328641E+03  0.12499946858E+03 0.  0.
          2    1    1    2  501    0 -0.24494214024E+02  0.17367306325E+02 -0.32194693704E+03  0.32334412028E+03  0.00000000000E+00 0. -1.
          1    1    1    2  502    0  0.83330718135E+02  0.13435668484E+02  0.83342886267E+02  0.11861940172E+03  0.00000000000E+00 0. -1.
         22    1    3    3    0    0  0.20849496983E+02  0.25617244379E+02  0.10583662765E+02  0.34683694318E+02  0.00000000000E+00 0.  1.
         22    1    3    3    0    0 -0.79686001094E+02 -0.56420219188E+02 -0.63296562050E+02  0.11635959209E+03  0.00000000000E+00 0.  1.
</event>
<event>
 7    1  0.5667373E-006  0.1161493E+03  0.7818608E-02  0.1274121E+00
          2   -1    0    0  502    0  0.00000000000E+00  0.00000000000E+00  0.28152150626E+04  0.28152150626E+04  0.00000000000E+00 0. -1.
          1   -1    0    0  501    0 -0.00000000000E+00 -0.00000000000E+00 -0.87628739186E+02  0.87628739186E+02  0.00000000000E+00 0. -1.
         25    2    1    2    0    0  0.17844166626E+02  0.71911627291E+02  0.42295636730E+03  0.44721704466E+03  0.12498519899E+03 0.  0.
          2    1    1    2  501    0 -0.85042008636E+02  0.33303390520E+02 -0.45601322053E+02  0.10208202401E+03  0.00000000000E+00 0. -1.
          1    1    1    2  502    0  0.67197842010E+02 -0.10521501781E+03  0.23502312781E+04  0.23535447331E+04  0.00000000000E+00 0. -1.
         22    1    3    3    0    0  0.45185382024E+02 -0.12682478789E+02  0.78377021139E+02  0.91353825643E+02  0.00000000000E+00 0. -1.
         22    1    3    3    0    0 -0.27341215398E+02  0.84594106080E+02  0.34457934616E+03  0.35586321901E+03  0.00000000000E+00 0. -1.
</event>
<event>
 7    1  0.5667373E-006  0.3356473E+03  0.7818608E-02  0.1271897E+00
          2   -1    0    0  502    0  0.00000000000E+00  0.00000000000E+00  0.80223334993E+03  0.80223334993E+03  0.00000000000E+00 0. -1.
          1   -1    0    0  501    0 -0.00000000000E+00 -0.00000000000E+00 -0.84023448496E+03  0.84023448496E+03  0.00000000000E+00 0. -1.
         25    2    1    2    0    0  0.29176602116E+03  0.22060220972E+03  0.45966621525E+03  0.60059188768E+03  0.12499936024E+03 0.  0.
          2    1    1    2  501    0 -0.26460623862E+03 -0.20314139305E+03 -0.73247338071E+03  0.80486032362E+03  0.00000000000E+00 0. -1.
          1    1    1    2  502    0 -0.27159782542E+02 -0.17460816673E+02  0.23480603042E+03  0.23701562360E+03  0.00000000000E+00 0. -1.
         22    1    3    3    0    0  0.39647381420E+02  0.80149894195E+02  0.60264659577E+02  0.10783204341E+03  0.00000000000E+00 0.  1.
         22    1    3    3    0    0  0.25211863974E+03  0.14045231553E+03  0.39940155567E+03  0.49275984426E+03  0.00000000000E+00 0.  1.
</event>
<event>
 7    1  0.5667373E-006  0.1154721E+03  0.7818608E-02  0.1356966E+00
          2   -1    0    0  502    0  0.00000000000E+00  0.00000000000E+00  0.50216861862E+03  0.50216861862E+03  0.00000000000E+00 0. -1.
          1   -1    0    0  501    0 -0.00000000000E+00 -0.00000000000E+00 -0.92563877384E+03  0.92563877384E+03  0.00000000000E+00 0. -1.
         25    2    1    2    0    0  0.40502231098E+02  0.14219135675E+03  0.46811348960E+02  0.19918650656E+03  0.12500059738E+03 0.  0.
          2    1    1    2  501    0 -0.69970109419E+01 -0.11434429068E+03 -0.84431871301E+03  0.85205496543E+03  0.00000000000E+00 0. -1.
          1    1    1    2  502    0 -0.33505220156E+02 -0.27847066067E+02  0.37403720883E+03  0.37656592046E+03  0.00000000000E+00 0. -1.
         22    1    3    3    0    0  0.76710820021E+02  0.10643641286E+03  0.63331634585E+02  0.14568512563E+03  0.00000000000E+00 0. -1.
         22    1    3    3    0    0 -0.36208588923E+02  0.35754943893E+02 -0.16520285625E+02  0.53501380933E+02  0.00000000000E+00 0. -1.
</event>
<event>
 7    1  0.5667373E-006  0.9006213E+02  0.7818608E-02  0.1391638E+00
          2   -1    0    0  502    0  0.00000000000E+00  0.00000000000E+00  0.15146774573E+04  0.15146774573E+04  0.00000000000E+00 0. -1.
          1   -1    0    0  501    0 -0.00000000000E+00 -0.00000000000E+00 -0.23497878341E+03  0.23497878341E+03  0.00000000000E+00 0. -1.
         25    2    1    2    0    0 -0.15897650767E+02 -0.47082918648E+02  0.46133008822E+03  0.48054155952E+03  0.12500081441E+03 0.  0.
          2    1    1    2  501    0  0.39502718673E+02  0.81818877977E+02 -0.21577267372E+03  0.23412099500E+03  0.00000000000E+00 0. -1.
          1    1    1    2  502    0 -0.23605067906E+02 -0.34735959330E+02  0.10341412594E+04  0.10349936862E+04  0.00000000000E+00 0. -1.
         22    1    3    3    0    0 -0.61639991811E+02 -0.48756933970E+02  0.37149585352E+03  0.37971818021E+03  0.00000000000E+00 0.  1.
         22    1    3    3    0    0  0.45742341044E+02  0.16740153222E+01  0.89834234696E+02  0.10082337931E+03  0.00000000000E+00 0.  1.
</event>
<event>
 7    1  0.5667373E-006  0.7369838E+02  0.7818608E-02  0.1412721E+00
          2   -1    0    0  502    0  0.00000000000E+00  0.00000000000E+00  0.11368776433E+04  0.11368776433E+04  0.00000000000E+00 0. -1.
          1   -1    0    0  501    0 -0.00000000000E+00 -0.00000000000E+00 -0.16705395386E+04  0.16705395386E+04  0.00000000000E+00 0. -1.
         25    2    1    2    0    0 -0.11214509321E+03 -0.27037630712E+02  0.13218284243E+02  0.17061212505E+03  0.12500487499E+03 0.  0.
          2    1    1    2  501    0  0.43387511934E+02  0.24157652336E+01 -0.15902693724E+04  0.15908629699E+04  0.00000000000E+00 0. -1.
          1    1    1    2  502    0  0.68757581277E+02  0.24621865478E+02  0.10433891929E+04  0.10459420869E+04  0.00000000000E+00 0. -1.
         22    1    3    3    0    0 -0.61413788936E+02 -0.44326593250E+02  0.62198662613E+02  0.98005989467E+02  0.00000000000E+00 0. -1.
         22    1    3    3    0    0 -0.50731304275E+02  0.17288962538E+02 -0.48980378370E+02  0.72606135583E+02  0.00000000000E+00 0. -1.
</event>
<event>
 7    1  0.5667373E-006  0.8870809E+02  0.7818608E-02  0.1439979E+00
          2   -1    0    0  502    0  0.00000000000E+00  0.00000000000E+00  0.16667527416E+04  0.16667527416E+04  0.00000000000E+00 0. -1.
          1   -1    0    0  501    0 -0.00000000000E+00 -0.00000000000E+00 -0.81835389729E+03  0.81835389729E+03  0.00000000000E+00 0. -1.
         25    2    1    2    0    0  0.11688646835E+03 -0.32907466708E+01  0.11032974387E+04  0.11164956033E+04  0.12499567391E+03 0.  0.
          2    1    1    2  501    0 -0.88544844632E+02 -0.42598414507E+01 -0.80894558979E+03  0.81378824211E+03  0.00000000000E+00 0. -1.
          1    1    1    2  502    0 -0.28341623716E+02  0.75505881215E+01  0.55404699535E+03  0.55482279340E+03  0.00000000000E+00 0. -1.
         22    1    3    3    0    0 -0.26432318114E+02 -0.71430052191E+01  0.15021591632E+03  0.15269090176E+03  0.00000000000E+00 0.  1.
         22    1    3    3    0    0  0.14331878646E+03  0.38522585483E+01  0.95308152240E+03  0.96380470158E+03  0.00000000000E+00 0.  1.
</event>
<event>
 7    1  0.5667373E-006  0.1831804E+03  0.7818608E-02  0.1327253E+00
          2   -1    0    0  502    0  0.00000000000E+00  0.00000000000E+00  0.10110896492E+03  0.10110896492E+03  0.00000000000E+00 0. -1.
          1   -1    0    0  501    0 -0.00000000000E+00 -0.00000000000E+00 -0.68387482135E+03  0.68387482135E+03  0.00000000000E+00 0. -1.
         25    2    1    2    0    0  0.12140017510E+03 -0.10565893399E+03 -0.20379866065E+03  0.28820332185E+03  0.12500179117E+03 0.  0.
          2    1    1    2  501    0 -0.15417027347E+03  0.11930273972E+03 -0.40717893959E+03  0.45143804201E+03  0.00000000000E+00 0. -1.
          1    1    1    2  502    0  0.32770098372E+02 -0.13643805726E+02  0.28211743807E+02  0.45342422417E+02  0.00000000000E+00 0. -1.
         22    1    3    3    0    0 -0.23736443444E+02 -0.34910630594E+02 -0.46046968999E+02  0.62469946613E+02  0.00000000000E+00 0.  1.
         22    1    3    3    0    0  0.14513661854E+03 -0.70748303399E+02 -0.15775169165E+03  0.22573337523E+03  0.00000000000E+00 0.  1.
</event>
<event>
 7    1  0.5667373E-006  0.7300801E+02  0.7818608E-02  0.1430414E+00
          2   -1    0    0  502    0  0.00000000000E+00  0.00000000000E+00  0.12407139486E+04  0.12407139486E+04  0.00000000000E+00 0. -1.
          1   -1    0    0  501    0 -0.00000000000E+00 -0.00000000000E+00 -0.11668301742E+04  0.11668301742E+04  0.00000000000E+00 0. -1.
         25    2    1    2    0    0  0.29831596754E+02 -0.61107201106E+02  0.40867435484E+03  0.43273928201E+03  0.12499817476E+03 0.  0.
          2    1    1    2  501    0  0.32730215937E+02  0.19884019976E+02 -0.11527676983E+04  0.11534036620E+04  0.00000000000E+00 0. -1.
          1    1    1    2  502    0 -0.62561812691E+02  0.41223181131E+02  0.81797711792E+03  0.82140117879E+03  0.00000000000E+00 0. -1.
         22    1    3    3    0    0 -0.38341295287E+02 -0.62267604606E+02  0.18593032333E+03  0.19979337988E+03  0.00000000000E+00 0. -1.
         22    1    3    3    0    0  0.68172892041E+02  0.11604035001E+01  0.22274403151E+03  0.23294590213E+03  0.00000000000E+00 0. -1.
</event>
<event>
 7    1  0.5667373E-006  0.8803651E+02  0.7818608E-02  0.1360207E+00
          2   -1    0    0  502    0  0.00000000000E+00  0.00000000000E+00  0.49960842050E+03  0.49960842050E+03  0.00000000000E+00 0. -1.
          1   -1    0    0  501    0 -0.00000000000E+00 -0.00000000000E+00 -0.29864914171E+03  0.29864914171E+03  0.00000000000E+00 0. -1.
         25    2    1    2    0    0 -0.13849801807E+02  0.57358811855E+02 -0.67085628271E+02  0.15364770068E+03  0.12500113638E+03 0.  0.
          2    1    1    2  501    0  0.49761148306E+02  0.24815079647E+02 -0.17963078861E+03  0.18804036874E+03  0.00000000000E+00 0. -1.
          1    1    1    2  502    0 -0.35911346498E+02 -0.82173891502E+02  0.44767569568E+03  0.45656949280E+03  0.00000000000E+00 0. -1.
         22    1    3    3    0    0 -0.12466445249E+02  0.38040809210E+02  0.32892153330E+02  0.51811284226E+02  0.00000000000E+00 0.  1.
         22    1    3    3    0    0 -0.13833565588E+01  0.19318002646E+02 -0.99977781602E+02  0.10183641645E+03  0.00000000000E+00 0.  1.
</event>
<event>
 7    1  0.5667373E-006  0.1179702E+03  0.7818608E-02  0.1309360E+00
          2   -1    0    0  502    0  0.00000000000E+00  0.00000000000E+00  0.20441179223E+04  0.20441179223E+04  0.00000000000E+00 0. -1.
          1   -1    0    0  501    0 -0.00000000000E+00 -0.00000000000E+00 -0.16168969698E+03  0.16168969698E+03  0.00000000000E+00 0. -1.
         25    2    1    2    0    0 -0.75029360252E+02 -0.13464021342E+03  0.17442295277E+02  0.19921388992E+03  0.12499819320E+03 0.  0.
          2    1    1    2  501    0 -0.17531901113E+02  0.62280060264E+02 -0.53841417464E+02  0.84172867943E+02  0.00000000000E+00 0. -1.
          1    1    1    2  502    0  0.92561261365E+02  0.72360153155E+02  0.19188273475E+04  0.19224208614E+04  0.00000000000E+00 0. -1.
         22    1    3    3    0    0  0.10008396767E+02  0.46013668738E+01  0.33505496449E+02  0.35269801180E+02  0.00000000000E+00 0. -1.
         22    1    3    3    0    0 -0.85037757019E+02 -0.13924158029E+03 -0.16063201173E+02  0.16394408874E+03  0.00000000000E+00 0. -1.
</event>
<event>
 7    1  0.5667373E-006  0.6491266E+02  0.7818608E-02  0.1417940E+00
          2   -1    0    0  502    0  0.00000000000E+00  0.00000000000E+00  0.66098620911E+03  0.66098620911E+03  0.00000000000E+00 0. -1.
          1   -1    0    0  501    0 -0.00000000000E+00 -0.00000000000E+00 -0.27299321161E+03  0.27299321161E+03  0.00000000000E+00 0. -1.
         25    2    1    2    0    0 -0.48560094546E+02 -0.53287777586E+01  0.26396303236E+03  0.29612790381E+03  0.12501509633E+03 0.  0.
          2    1    1    2  501    0  0.50075202669E+02 -0.42029331669E+02 -0.25123775376E+03  0.25960431344E+03  0.00000000000E+00 0. -1.
          1    1    1    2  502    0 -0.15151081225E+01  0.47358109428E+02  0.37526771891E+03  0.37824720347E+03  0.00000000000E+00 0. -1.
         22    1    3    3    0    0 -0.54056948440E+02 -0.11031272835E+02  0.27614228459E+03  0.28159972300E+03  0.00000000000E+00 0. -1.
         22    1    3    3    0    0  0.54968538941E+01  0.57024950765E+01 -0.12179252232E+02  0.14528180814E+02  0.00000000000E+00 0. -1.
</event>
<event>
 7    1  0.5667373E-006  0.1387370E+03  0.7818608E-02  0.1336396E+00
          2   -1    0    0  502    0  0.00000000000E+00  0.00000000000E+00  0.33017853877E+03  0.33017853877E+03  0.00000000000E+00 0. -1.
          1   -1    0    0  501    0 -0.00000000000E+00 -0.00000000000E+00 -0.62616700339E+03  0.62616700339E+03  0.00000000000E+00 0. -1.
         25    2    1    2    0    0  0.99238145185E+02  0.85542052108E+02  0.69692718706E+02  0.19402973484E+03  0.12499924329E+03 0.  0.
          2    1    1    2  501    0 -0.23195414235E+02  0.36511058097E+02 -0.53694524967E+03  0.53868477401E+03  0.00000000000E+00 0. -1.
          1    1    1    2  502    0 -0.76042730950E+02 -0.12205311021E+03  0.17126406634E+03  0.22363103332E+03  0.00000000000E+00 0. -1.
         22    1    3    3    0    0  0.93084867164E+02  0.11643718446E+03  0.62928367998E+02  0.16180973370E+03  0.00000000000E+00 0.  1.
         22    1    3    3    0    0  0.61532780210E+01 -0.30895132352E+02  0.67643507084E+01  0.32220001148E+02  0.00000000000E+00 0.  1.
</event>
<event>
 7    1  0.5667373E-006  0.5690788E+02  0.7818608E-02  0.1505103E+00
          2   -1    0    0  502    0  0.00000000000E+00  0.00000000000E+00  0.22543491322E+04  0.22543491322E+04  0.00000000000E+00 0. -1.
          1   -1    0    0  501    0 -0.00000000000E+00 -0.00000000000E+00 -0.47515346920E+03  0.47515346920E+03  0.00000000000E+00 0. -1.
         25    2    1    2    0    0 -0.37701277489E+02  0.86553272427E+01  0.11855824614E+03  0.17657501094E+03  0.12500550286E+03 0.  0.
          2    1    1    2  501    0 -0.17796549840E+02 -0.22537859914E+02 -0.44529413205E+03  0.44621915732E+03  0.00000000000E+00 0. -1.
          1    1    1    2  502    0  0.55497827329E+02  0.13882532671E+02  0.21059315489E+04  0.21067084332E+04  0.00000000000E+00 0. -1.
         22    1    3    3    0    0 -0.41052829316E+02 -0.43523479716E+02  0.16758585237E+02  0.62132747087E+02  0.00000000000E+00 0. -1.
         22    1    3    3    0    0  0.33515518262E+01  0.52178806958E+02  0.10179966091E+03  0.11444226385E+03  0.00000000000E+00 0. -1.
</event>
<event>
 7    1  0.5667373E-006  0.2906725E+02  0.7818608E-02  0.1649164E+00
          2   -1    0    0  502    0  0.00000000000E+00  0.00000000000E+00  0.76116318819E+03  0.76116318819E+03  0.00000000000E+00 0. -1.
          1   -1    0    0  501    0 -0.00000000000E+00 -0.00000000000E+00 -0.44101970127E+02  0.44101970127E+02  0.00000000000E+00 0. -1.
         25    2    1    2    0    0  0.29344000317E+01  0.11281688458E+02  0.16645164415E+03  0.20848722711E+03  0.12499954732E+03 0.  0.
          2    1    1    2  501    0  0.22770246624E+02  0.30875376928E+01 -0.16887856573E+02  0.28516954956E+02  0.00000000000E+00 0. -1.
          1    1    1    2  502    0 -0.25704646656E+02 -0.14369226151E+02  0.56749743048E+03  0.56826097624E+03  0.00000000000E+00 0. -1.
         22    1    3    3    0    0 -0.47358898936E+02  0.44559625887E+02  0.92363580860E+02  0.11295776484E+03  0.00000000000E+00 0. -1.
         22    1    3    3    0    0  0.50293298967E+02 -0.33277937429E+02  0.74088063292E+02  0.95529462276E+02  0.00000000000E+00 0. -1.
</event>
<event>
 7    1  0.5667373E-006  0.5842773E+02  0.7818608E-02  0.1503240E+00
          2   -1    0    0  502    0  0.00000000000E+00  0.00000000000E+00  0.28191228338E+04  0.28191228338E+04  0.00000000000E+00 0. -1.
          1   -1    0    0  501    0 -0.00000000000E+00 -0.00000000000E+00 -0.70359384779E+03  0.70359384779E+03  0.00000000000E+00 0. -1.
         25    2    1    2    0    0  0.22095385111E+01  0.80888749907E+02  0.11813391563E+04  0.11906868156E+04  0.12500007465E+03 0.  0.
          2    1    1    2  501    0  0.10841489259E+02 -0.26171578891E+02 -0.69814828996E+03  0.69872278066E+03  0.00000000000E+00 0. -1.
          1    1    1    2  502    0 -0.13051027770E+02 -0.54717171015E+02  0.16323381196E+04  0.16333070853E+04  0.00000000000E+00 0. -1.
         22    1    3    3    0    0  0.26487969596E+02 -0.16661360558E+02  0.10239731417E+03  0.10707204779E+03  0.00000000000E+00 0.  1.
         22    1    3    3    0    0 -0.24278431085E+02  0.97550110465E+02  0.10789418422E+04  0.10836147678E+04  0.00000000000E+00 0.  1.
</event>
<event>
 7    1  0.5667373E-006  0.9400889E+02  0.7818608E-02  0.1331802E+00
          2   -1    0    0  502    0  0.00000000000E+00  0.00000000000E+00  0.39680912796E+03  0.39680912796E+03  0.00000000000E+00 0. -1.
          1   -1    0    0  501    0 -0.00000000000E+00 -0.00000000000E+00 -0.56104569457E+03  0.56104569457E+03  0.00000000000E+00 0. -1.
         25    2    1    2    0    0  0.83907079429E+02  0.77331150117E+02 -0.44465241891E+02  0.17498563557E+03  0.12498924019E+03 0.  0.
          2    1    1    2  501    0 -0.93266553372E+02 -0.11541316624E+02 -0.44301110779E+03  0.45286940015E+03  0.00000000000E+00 0. -1.
          1    1    1    2  502    0  0.93594739429E+01 -0.65789833493E+02  0.32323978306E+03  0.32999978681E+03  0.00000000000E+00 0. -1.
         22    1    3    3    0    0  0.40200206392E+01 -0.52919212004E+01 -0.58793246280E+02  0.59167649980E+02  0.00000000000E+00 0. -1.
         22    1    3    3    0    0  0.79887058789E+02  0.82623071317E+02  0.14328004390E+02  0.11581798559E+03  0.00000000000E+00 0. -1.
</event>
<event>
 7    1  0.5667373E-006  0.2052534E+03  0.7818608E-02  0.1234947E+00
          2   -1    0    0  502    0  0.00000000000E+00  0.00000000000E+00  0.22796531175E+04  0.22796531175E+04  0.00000000000E+00 0. -1.
          1   -1    0    0  501    0 -0.00000000000E+00 -0.00000000000E+00 -0.27034300218E+03  0.27034300218E+03  0.00000000000E+00 0. -1.
         25    2    1    2    0    0 -0.13588283334E+03 -0.15077512445E+03  0.11321531148E+03  0.26389587007E+03  0.12500416366E+03 0.  0.
          2    1    1    2  501    0  0.63364469887E+02 -0.42362115459E+02 -0.18224728232E+03  0.19754411351E+03  0.00000000000E+00 0. -1.
          1    1    1    2  502    0  0.72518363458E+02  0.19313723991E+03  0.20783420862E+04  0.20885561361E+04  0.00000000000E+00 0. -1.
         22    1    3    3    0    0  0.12300288830E+02 -0.31606305844E+02  0.55732955567E+02  0.65241229377E+02  0.00000000000E+00 0.  1.
         22    1    3    3    0    0 -0.14818312217E+03 -0.11916881861E+03  0.57482355908E+02  0.19865464069E+03  0.00000000000E+00 0.  1.
</event>
<event>
 7    1  0.5667373E-006  0.1388411E+03  0.7818608E-02  0.1346450E+00
          2   -1    0    0  502    0  0.00000000000E+00  0.00000000000E+00  0.14026705115E+04  0.14026705115E+04  0.00000000000E+00 0. -1.
          1   -1    0    0  501    0 -0.00000000000E+00 -0.00000000000E+00 -0.50327824821E+03  0.50327824821E+03  0.00000000000E+00 0. -1.
         25    2    1    2    0    0 -0.16747889017E+03 -0.21928923915E+02 -0.12620673138E+03  0.24511917441E+03  0.12500085705E+03 0.  0.
          2    1    1    2  501    0  0.29255163731E+02  0.26726990670E+02 -0.31280175885E+03  0.31530166027E+03  0.00000000000E+00 0. -1.
          1    1    1    2  502    0  0.13822372644E+03 -0.47980667558E+01  0.13384007535E+04  0.13455279250E+04  0.00000000000E+00 0. -1.
         22    1    3    3    0    0  0.13001613779E+02  0.12913821166E+02  0.53365204211E+01  0.19086308919E+02  0.00000000000E+00 0.  1.
         22    1    3    3    0    0 -0.18048050395E+03 -0.34842745080E+02 -0.13154325180E+03  0.22603286549E+03  0.00000000000E+00 0.  1.
</event>
<event>
 7    1  0.5667373E-006  0.4302588E+02  0.7818608E-02  0.1549003E+00
          2   -1    0    0  502    0  0.00000000000E+00  0.00000000000E+00  0.15634961741E+03  0.15634961741E+03  0.00000000000E+00 0. -1.
          1   -1    0    0  501    0 -0.00000000000E+00 -0.00000000000E+00 -0.48218601311E+03  0.48218601311E+03  0.00000000000E+00 0. -1.
         25    2    1    2    0    0  0.33158621558E+02  0.20806990114E+02 -0.15290471094E+03  0.20133900682E+03  0.12500048008E+03 0.  0.
          2    1    1    2  501    0 -0.19793822979E+02  0.20362454699E+02 -0.30083263369E+03  0.30216998276E+03  0.00000000000E+00 0. -1.
          1    1    1    2  502    0 -0.13364798579E+02 -0.41169444813E+02  0.12790094892E+03  0.13502664094E+03  0.00000000000E+00 0. -1.
         22    1    3    3    0    0 -0.13081046107E+02 -0.45227313117E+02 -0.35692991491E+02  0.59081412141E+02  0.00000000000E+00 0.  1.
         22    1    3    3    0    0  0.46239667665E+02  0.66034303231E+02 -0.11721171945E+03  0.14225759468E+03  0.00000000000E+00 0.  1.
</event>
<event>
 7    1  0.5667373E-006  0.1032165E+03  0.7818608E-02  0.1318056E+00
          2   -1    0    0  502    0  0.00000000000E+00  0.00000000000E+00  0.18420054422E+03  0.18420054422E+03  0.00000000000E+00 0. -1.
          1   -1    0    0  501    0 -0.00000000000E+00 -0.00000000000E+00 -0.31574359727E+04  0.31574359727E+04  0.00000000000E+00 0. -1.
         25    2    1    2    0    0  0.41298490088E+01 -0.16331332856E+03 -0.55402826103E+03  0.59098356471E+03  0.12500384313E+03 0.  0.
          2    1    1    2  501    0 -0.24735283979E+02  0.63737760940E+02 -0.25688341618E+04  0.25697438175E+04  0.00000000000E+00 0. -1.
          1    1    1    2  502    0  0.20605434970E+02  0.99575567623E+02  0.14962699433E+03  0.18090913479E+03  0.00000000000E+00 0. -1.
         22    1    3    3    0    0  0.42360637281E+01 -0.17109104350E+03 -0.37976934650E+03  0.41655113244E+03  0.00000000000E+00 0. -1.
         22    1    3    3    0    0 -0.10621471926E+00  0.77777149398E+01 -0.17425891454E+03  0.17443243227E+03  0.00000000000E+00 0. -1.
</event>
<event>
 7    1  0.5667373E-006  0.6080780E+02  0.7818608E-02  0.1413292E+00
          2   -1    0    0  502    0  0.00000000000E+00  0.00000000000E+00  0.46156098126E+03  0.46156098126E+03  0.00000000000E+00 0. -1.
          1   -1    0    0  501    0 -0.00000000000E+00 -0.00000000000E+00 -0.25220946389E+03  0.25220946389E+03  0.00000000000E+00 0. -1.
         25    2    1    2    0    0 -0.60257867664E+01 -0.34029776475E+02  0.62515287226E+02  0.14396869524E+03  0.12499795310E+03 0.  0.
          2    1    1    2  501    0 -0.45636631005E+02  0.42989015588E+02 -0.20484938178E+03  0.21422891207E+03  0.00000000000E+00 0. -1.
          1    1    1    2  502    0  0.51662417771E+02 -0.89592391131E+01  0.35168561193E+03  0.35557283785E+03  0.00000000000E+00 0. -1.
         22    1    3    3    0    0  0.50130968054E+02 -0.22442298786E+02 -0.52778737274E+01  0.55178135923E+02  0.00000000000E+00 0. -1.
         22    1    3    3    0    0 -0.56156754821E+02 -0.11587477688E+02  0.67793160953E+02  0.88790559314E+02  0.00000000000E+00 0. -1.
</event>
<event>
 7    1  0.5667373E-006  0.3605202E+02  0.7818608E-02  0.1581397E+00
          2   -1    0    0  502    0  0.00000000000E+00  0.00000000000E+00  0.11154403184E+04  0.11154403184E+04  0.00000000000E+00 0. -1.
          1   -1    0    0  501    0 -0.00000000000E+00 -0.00000000000E+00 -0.11401335149E+03  0.11401335149E+03  0.00000000000E+00 0. -1.
         25    2    1    2    0    0 -0.41929338608E+02 -0.47219797325E+02  0.11536724682E+03  0.18143085215E+03  0.12497909336E+03 0.  0.
          2    1    1    2  501    0  0.16077149011E+02  0.22481002500E+02 -0.78281878145E+02  0.83017604396E+02  0.00000000000E+00 0. -1.
          1    1    1    2  502    0  0.25852189597E+02  0.24738794825E+02  0.96434159824E+03  0.96500521334E+03  0.00000000000E+00 0. -1.
         22    1    3    3    0    0 -0.64752455786E+02 -0.55881746293E+02  0.26906902284E+02  0.89663992157E+02  0.00000000000E+00 0. -1.
         22    1    3    3    0    0  0.22823117178E+02  0.86619489678E+01  0.88460344532E+02  0.91766859990E+02  0.00000000000E+00 0. -1.
</event>
<event>
 7    1  0.5667373E-006  0.1126709E+03  0.7818608E-02  0.1312258E+00
          2   -1    0    0  502    0  0.00000000000E+00  0.00000000000E+00  0.34476237310E+04  0.34476237310E+04  0.00000000000E+00 0. -1.
          1   -1    0    0  501    0 -0.00000000000E+00 -0.00000000000E+00 -0.62074029859E+03  0.62074029859E+03  0.00000000000E+00 0. -1.
         25    2    1    2    0    0 -0.12162550773E+03  0.28932588309E+02 -0.18238570619E+03  0.25400824589E+03  0.12500313739E+03 0.  0.
          2    1    1    2  501    0  0.10756889742E+03  0.35540087880E+02 -0.39424650216E+03  0.41020052414E+03  0.00000000000E+00 0. -1.
          1    1    1    2  502    0  0.14056610311E+02 -0.64472676188E+02  0.34035156407E+04  0.34041552595E+04  0.00000000000E+00 0. -1.
         22    1    3    3    0    0  0.13835955241E+02 -0.12558875528E-01 -0.81445443858E+02  0.82612312281E+02  0.00000000000E+00 0. -1.
         22    1    3    3    0    0 -0.13546146297E+03  0.28945147184E+02 -0.10094026234E+03  0.17139593361E+03  0.00000000000E+00 0. -1.
</event>
<event>
 7    1  0.5667373E-006  0.8122467E+02  0.7818608E-02  0.1461944E+00
          2   -1    0    0  502    0  0.00000000000E+00  0.00000000000E+00  0.12057719609E+04  0.12057719609E+04  0.00000000000E+00 0. -1.
          1   -1    0    0  501    0 -0.00000000000E+00 -0.00000000000E+00 -0.20230338163E+03  0.20230338163E+03  0.00000000000E+00 0. -1.
         25    2    1    2    0    0 -0.17299598166E+02  0.85308101941E+02 -0.89315159840E+02  0.17657632644E+03  0.12500101171E+03 0.  0.
          2    1    1    2  501    0 -0.92318111679E+01 -0.79081070015E+02 -0.46291727633E+02  0.92097589650E+02  0.00000000000E+00 0. -1.
          1    1    1    2  502    0  0.26531409334E+02 -0.62270319269E+01  0.11390754668E+04  0.11394014264E+04  0.00000000000E+00 0. -1.
         22    1    3    3    0    0  0.27473530136E+02 -0.16105769984E+02 -0.49352819968E+02  0.58735777204E+02  0.00000000000E+00 0.  1.
         22    1    3    3    0    0 -0.44773128303E+02  0.10141387193E+03 -0.39962339872E+02  0.11784054924E+03  0.00000000000E+00 0.  1.
</event>
<event>
 7    1  0.5667373E-006  0.6167994E+02  0.7818608E-02  0.1513027E+00
          2   -1    0    0  502    0  0.00000000000E+00  0.00000000000E+00  0.31852978390E+03  0.31852978390E+03  0.00000000000E+00 0. -1.
          1   -1    0    0  501    0 -0.00000000000E+00 -0.00000000000E+00 -0.34613158734E+03  0.34613158734E+03  0.00000000000E+00 0. -1.
         25    2    1    2    0    0 -0.42657947783E+02  0.48598947487E+02  0.85284685699E+02  0.16455355530E+03  0.12499134666E+03 0.  0.
          2    1    1    2  501    0  0.19599068290E+02 -0.58533984363E+02 -0.30255341444E+03  0.30878620337E+03  0.00000000000E+00 0. -1.
          1    1    1    2  502    0  0.23058879493E+02  0.99350368761E+01  0.18966692530E+03  0.19132161257E+03  0.00000000000E+00 0. -1.
         22    1    3    3    0    0 -0.44891388391E+02  0.85408489752E+02  0.83552462059E+02  0.12763565642E+03  0.00000000000E+00 0.  1.
         22    1    3    3    0    0  0.22334406083E+01 -0.36809542265E+02  0.17322236397E+01  0.36917898877E+02  0.00000000000E+00 0.  1.
</event>
<event>
 7    1  0.5667373E-006  0.9005231E+02  0.7818608E-02  0.1419193E+00
          2   -1    0    0  502    0  0.00000000000E+00  0.00000000000E+00  0.69029312479E+03  0.69029312479E+03  0.00000000000E+00 0. -1.
          1   -1    0    0  501    0 -0.00000000000E+00 -0.00000000000E+00 -0.34813467913E+03  0.34813467913E+03  0.00000000000E+00 0. -1.
         25    2    1    2    0    0 -0.88526500582E+02 -0.17488498610E+02  0.40607908278E+03  0.43436263395E+03  0.12501154910E+03 0.  0.
          2    1    1    2  501    0  0.75775601330E+02  0.48819764443E+02 -0.32680748123E+03  0.33901097466E+03  0.00000000000E+00 0. -1.
          1    1    1    2  502    0  0.12750899252E+02 -0.31331265833E+02  0.26288684409E+03  0.26505419530E+03  0.00000000000E+00 0. -1.
         22    1    3    3    0    0 -0.85591863069E+02 -0.27880175449E+02  0.13029279266E+03  0.15836503094E+03  0.00000000000E+00 0. -1.
         22    1    3    3    0    0 -0.29346375131E+01  0.10391676839E+02  0.27578629012E+03  0.27599760301E+03  0.00000000000E+00 0. -1.
</event>
<event>
 7    1  0.5667373E-006  0.7553592E+02  0.7818608E-02  0.1358080E+00
          2   -1    0    0  502    0  0.00000000000E+00  0.00000000000E+00  0.36242183839E+03  0.36242183839E+03  0.00000000000E+00 0. -1.
          1   -1    0    0  501    0 -0.00000000000E+00 -0.00000000000E+00 -0.61407328701E+03  0.61407328701E+03  0.00000000000E+00 0. -1.
         25    2    1    2    0    0  0.15240302673E+02 -0.37592965144E+02  0.14165080405E+03  0.19322343532E+03  0.12499939126E+03 0.  0.
          2    1    1    2  501    0 -0.72591933360E+02 -0.20882667438E+02 -0.57711441529E+03  0.58203670238E+03  0.00000000000E+00 0. -1.
          1    1    1    2  502    0  0.57351630687E+02  0.58475632582E+02  0.18381216261E+03  0.20123498769E+03  0.00000000000E+00 0. -1.
         22    1    3    3    0    0  0.12792718103E+01  0.33668241793E+02 -0.39252752693E+00  0.33694823336E+02  0.00000000000E+00 0.  1.
         22    1    3    3    0    0  0.13961030862E+02 -0.71261206937E+02  0.14204333158E+03  0.15952861199E+03  0.00000000000E+00 0.  1.
</event>
<event>
 7    1  0.5667373E-006  0.2176991E+02  0.7818608E-02  0.1784715E+00
          2   -1    0    0  502    0  0.00000000000E+00  0.00000000000E+00  0.37545881066E+03  0.37545881066E+03  0.00000000000E+00 0. -1.
          1   -1    0    0  501    0 -0.00000000000E+00 -0.00000000000E+00 -0.64653468874E+02  0.64653468874E+02  0.00000000000E+00 0. -1.
         25    2    1    2    0    0 -0.21602924495E+00  0.68533570452E+01  0.25221538087E+01  0.12522201704E+03  0.12500870818E+03 0.  0.
          2    1    1    2  501    0  0.21564157332E+02 -0.11117910795E+02  0.48827777092E+02  0.54523138553E+02  0.00000000000E+00 0. -1.
          1    1    1    2  502    0 -0.21348128087E+02  0.42645537500E+01  0.25945541088E+03  0.26036712394E+03  0.00000000000E+00 0. -1.
         22    1    3    3    0    0  0.34533669139E+02  0.32591956687E+02  0.44411062170E+02  0.65016554722E+02  0.00000000000E+00 0.  1.
         22    1    3    3    0    0 -0.34749698384E+02 -0.25738599642E+02 -0.41888908361E+02  0.60205462318E+02  0.00000000000E+00 0.  1.
</event>
<event>
 7    1  0.5667373E-006  0.9821342E+02  0.7818608E-02  0.1351705E+00
          2   -1    0    0  502    0  0.00000000000E+00  0.00000000000E+00  0.15835687177E+04  0.15835687177E+04  0.00000000000E+00 0. -1.
          1   -1    0    0  501    0 -0.00000000000E+00 -0.00000000000E+00 -0.13765111471E+03  0.13765111471E+03  0.00000000000E+00 0. -1.
         25    2    1    2    0    0 -0.10853855804E+03 -0.38889596023E+02  0.22876851259E+03  0.28504931140E+03  0.12500023327E+03 0.  0.
          2    1    1    2  501    0  0.11560704379E+02  0.52296040822E+02 -0.10103660093E+03  0.11435436371E+03  0.00000000000E+00 0. -1.
          1    1    1    2  502    0  0.96977853659E+02 -0.13406444799E+02  0.13181856913E+04  0.13218161573E+04  0.00000000000E+00 0. -1.
         22    1    3    3    0    0 -0.97707509229E+02 -0.41302772166E+02  0.24408279708E+03  0.26613734834E+03  0.00000000000E+00 0.  1.
         22    1    3    3    0    0 -0.10831048809E+02  0.24131761433E+01 -0.15314284492E+02  0.18911963063E+02  0.00000000000E+00 0.  1.
</event>
<event>
 7    1  0.5667373E-006  0.6327077E+02  0.7818608E-02  0.1465907E+00
          2   -1    0    0  502    0  0.00000000000E+00  0.00000000000E+00  0.15583198473E+04  0.15583198473E+04  0.00000000000E+00 0. -1.
          1   -1    0    0  501    0 -0.00000000000E+00 -0.00000000000E+00 -0.18501932446E+03  0.18501932446E+03  0.00000000000E+00 0. -1.
         25    2    1    2    0    0 -0.26043355637E+02  0.21704636382E+02  0.34176137711E+02  0.13395005694E+03  0.12500104700E+03 0.  0.
          2    1    1    2  501    0 -0.33995740120E+02 -0.40496933269E+00 -0.13229378036E+03  0.13659252787E+03  0.00000000000E+00 0. -1.
          1    1    1    2  502    0  0.60039095757E+02 -0.21299667049E+02  0.14714181655E+04  0.14727965870E+04  0.00000000000E+00 0. -1.
         22    1    3    3    0    0 -0.23278855977E+02 -0.50960021244E+02  0.76471274255E+01  0.56544738558E+02  0.00000000000E+00 0. -1.
         22    1    3    3    0    0 -0.27644996605E+01  0.72664657626E+02  0.26529010286E+02  0.77405318377E+02  0.00000000000E+00 0. -1.
</event>
<event>
 7    1  0.5667373E-006  0.4982258E+02  0.7818608E-02  0.1486970E+00
          2   -1    0    0  502    0  0.00000000000E+00  0.00000000000E+00  0.18134833986E+03  0.18134833986E+03  0.00000000000E+00 0. -1.
          1   -1    0    0  501    0 -0.00000000000E+00 -0.00000000000E+00 -0.24027886002E+03  0.24027886002E+03  0.00000000000E+00 0. -1.
         25    2    1    2    0    0 -0.66118846805E+02 -0.29565978657E+02 -0.12466579662E+03  0.19081917858E+03  0.12499819627E+03 0.  0.
          2    1    1    2  501    0  0.35923518284E+02 -0.95794209307E+01 -0.73874924258E+02  0.82702895387E+02  0.00000000000E+00 0. -1.
          1    1    1    2  502    0  0.30195328521E+02  0.39145399588E+02  0.13961020073E+03  0.14810512591E+03  0.00000000000E+00 0. -1.
         22    1    3    3    0    0 -0.82775293190E+02 -0.39724663874E+02 -0.33729385591E+02  0.97813442506E+02  0.00000000000E+00 0. -1.
         22    1    3    3    0    0  0.16656446385E+02  0.10158685217E+02 -0.90936411034E+02  0.93005736077E+02  0.00000000000E+00 0. -1.
</event>
<event>
 7    1  0.5667373E-006  0.4242108E+02  0.7818608E-02  0.1560205E+00
          2   -1    0    0  502    0  0.00000000000E+00  0.00000000000E+00  0.13276181606E+04  0.13276181606E+04  0.00000000000E+00 0. -1.
          1   -1    0    0  501    0 -0.00000000000E+00 -0.00000000000E+00 -0.31398510419E+03  0.31398510419E+03  0.00000000000E+00 0. -1.
         25    2    1    2    0    0  0.57743475913E+02 -0.31791917183E+02  0.12855817247E+03  0.19104406540E+03  0.12500238481E+03 0.  0.
          2    1    1    2  501    0 -0.31131554695E+02  0.28500739064E+02 -0.28101199709E+03  0.28416405180E+03  0.00000000000E+00 0. -1.
          1    1    1    2  502    0 -0.26611921218E+02  0.32911781192E+01  0.11660868811E+04  0.11663951476E+04  0.00000000000E+00 0. -1.
         22    1    3    3    0    0  0.77833602238E+02 -0.40970833117E+01  0.24802223520E+02  0.81792456990E+02  0.00000000000E+00 0. -1.
         22    1    3    3    0    0 -0.20090126324E+02 -0.27694833872E+02  0.10375594895E+03  0.10925160841E+03  0.00000000000E+00 0. -1.
</event>
<event>
 7    1  0.5667373E-006  0.6389810E+02  0.7818608E-02  0.1508767E+00
          2   -1    0    0  502    0  0.00000000000E+00  0.00000000000E+00  0.87875621582E+02  0.87875621582E+02  0.00000000000E+00 0. -1.
          1   -1    0    0  501    0 -0.00000000000E+00 -0.00000000000E+00 -0.70214665076E+03  0.70214665076E+03  0.00000000000E+00 0. -1.
         25    2    1    2    0    0  0.72853511900E+02  0.35965603104E+02 -0.17587365136E+03  0.23055413003E+03  0.12499002691E+03 0.  0.
          2    1    1    2  501    0 -0.48263161545E+02 -0.40160458717E+02 -0.49428979285E+03  0.49826157239E+03  0.00000000000E+00 0. -1.
          1    1    1    2  502    0 -0.24590350354E+02  0.41948556135E+01  0.55892415031E+02  0.61206569927E+02  0.00000000000E+00 0. -1.
         22    1    3    3    0    0  0.58308769409E+02  0.81597541234E+02 -0.10686931067E+03  0.14655756851E+03  0.00000000000E+00 0. -1.
         22    1    3    3    0    0  0.14544742490E+02 -0.45631938130E+02 -0.69004340696E+02  0.83996561516E+02  0.00000000000E+00 0. -1.
</event>
<event>
 7    1  0.5667373E-006  0.4485911E+02  0.7818608E-02  0.1480426E+00
          2   -1    0    0  502    0  0.00000000000E+00  0.00000000000E+00  0.80409390581E+03  0.80409390581E+03  0.00000000000E+00 0. -1.
          1   -1    0    0  501    0 -0.00000000000E+00 -0.00000000000E+00 -0.18365324444E+03  0.18365324444E+03  0.00000000000E+00 0. -1.
         25    2    1    2    0    0  0.11888041552E+02  0.32459173876E+01  0.25775615857E+02  0.12820762425E+03  0.12498380308E+03 0.  0.
          2    1    1    2  501    0 -0.80784115887E+01 -0.46313387452E+02 -0.12759817096E+03  0.13598339540E+03  0.00000000000E+00 0. -1.
          1    1    1    2  502    0 -0.38096299634E+01  0.43067470064E+02  0.72226321647E+03  0.72355613060E+03  0.00000000000E+00 0. -1.
         22    1    3    3    0    0 -0.33565930084E+02 -0.41790097789E+02 -0.10548794767E+02  0.54629305383E+02  0.00000000000E+00 0. -1.
         22    1    3    3    0    0  0.45453971636E+02  0.45036015176E+02  0.36324410623E+02  0.73578318869E+02  0.00000000000E+00 0. -1.
</event>
<event>
 7    1  0.5667373E-006  0.4061864E+02  0.7818608E-02  0.1545419E+00
          2   -1    0    0  502    0  0.00000000000E+00  0.00000000000E+00  0.35831948179E+03  0.35831948179E+03  0.00000000000E+00 0. -1.
          1   -1    0    0  501    0 -0.00000000000E+00 -0.00000000000E+00 -0.14541333910E+04  0.14541333910E+04  0.00000000000E+00 0. -1.
         25    2    1    2    0    0 -0.27020401456E+02  0.91919101647E+01 -0.10109606981E+04  0.10190590638E+04  0.12500099649E+03 0.  0.
          2    1    1    2  501    0  0.42604697272E+02  0.17355582005E+02 -0.43724576722E+03  0.43965922873E+03  0.00000000000E+00 0. -1.
          1    1    1    2  502    0 -0.15584295817E+02 -0.26547492170E+02  0.35239255614E+03  0.35373458022E+03  0.00000000000E+00 0. -1.
         22    1    3    3    0    0 -0.57796808850E+02 -0.39928218245E+02 -0.55838078015E+03  0.56278222197E+03  0.00000000000E+00 0.  1.
         22    1    3    3    0    0  0.30776407395E+02  0.49120128410E+02 -0.45257991798E+03  0.45627684187E+03  0.00000000000E+00 0.  1.
</event>
<event>
 7    1  0.5667373E-006  0.1329142E+03  0.7818608E-02  0.1307503E+00
          2   -1    0    0  502    0  0.00000000000E+00  0.00000000000E+00  0.75027098441E+02  0.75027098441E+02  0.00000000000E+00 0. -1.
          1   -1    0    0  501    0 -0.00000000000E+00 -0.00000000000E+00 -0.88964164109E+03  0.88964164109E+03  0.00000000000E+00 0. -1.
         25    2    1    2    0    0 -0.31560419719E+01  0.10929031882E+03 -0.24001511998E+03  0.29186747422E+03  0.12500012119E+03 0.  0.
          2    1    1    2  501    0  0.51519732018E+02  0.27509984404E+02 -0.51108466889E+03  0.51441094546E+03  0.00000000000E+00 0. -1.
          1    1    1    2  502    0 -0.48363690046E+02 -0.13680030323E+03 -0.63514753777E+02  0.15839031986E+03  0.00000000000E+00 0. -1.
         22    1    3    3    0    0 -0.31534209728E+02  0.89342007936E+01 -0.29885446793E+01  0.32911361659E+02  0.00000000000E+00 0. -1.
         22    1    3    3    0    0  0.28378167756E+02  0.10035611803E+03 -0.23702657531E+03  0.25895611256E+03  0.00000000000E+00 0. -1.
</event>
<event>
 7    1  0.5667373E-006  0.4309344E+02  0.7818608E-02  0.1523991E+00
          2   -1    0    0  502    0  0.00000000000E+00  0.00000000000E+00  0.35408454978E+03  0.35408454978E+03  0.00000000000E+00 0. -1.
          1   -1    0    0  501    0 -0.00000000000E+00 -0.00000000000E+00 -0.58502253090E+03  0.58502253090E+03  0.00000000000E+00 0. -1.
         25    2    1    2    0    0 -0.38304266024E+02  0.97410640902E+01 -0.47271538508E+03  0.49056012961E+03  0.12500920107E+03 0.  0.
          2    1    1    2  501    0  0.28084320497E+02 -0.41530574224E+02 -0.96435782416E+02  0.10868936371E+03  0.00000000000E+00 0. -1.
          1    1    1    2  502    0  0.10219945527E+02  0.31789510134E+02  0.33821318638E+03  0.33985758736E+03  0.00000000000E+00 0. -1.
         22    1    3    3    0    0 -0.61034519990E+02  0.51237165417E+02 -0.23388718106E+03  0.24709041506E+03  0.00000000000E+00 0. -1.
         22    1    3    3    0    0  0.22730253966E+02 -0.41496101326E+02 -0.23882820402E+03  0.24346971455E+03  0.00000000000E+00 0. -1.
</event>
<event>
 7    1  0.5667373E-006  0.1256138E+03  0.7818608E-02  0.1240589E+00
          2   -1    0    0  502    0  0.00000000000E+00  0.00000000000E+00  0.26584425189E+04  0.26584425189E+04  0.00000000000E+00 0. -1.
          1   -1    0    0  501    0 -0.00000000000E+00 -0.00000000000E+00 -0.64215969939E+03  0.64215969939E+03  0.00000000000E+00 0. -1.
         25    2    1    2    0    0  0.33319268282E+02 -0.42819369171E+02  0.78975914638E+03  0.80142863812E+03  0.12499872278E+03 0.  0.
          2    1    1    2  501    0  0.63724918874E+02  0.10921646420E+03 -0.62816289698E+03  0.64076339352E+03  0.00000000000E+00 0. -1.
          1    1    1    2  502    0 -0.97044187156E+02 -0.66397095028E+02  0.18546865701E+04  0.18584101866E+04  0.00000000000E+00 0. -1.
         22    1    3    3    0    0 -0.38904129584E+01 -0.77434025154E+01 -0.12612815302E+01  0.87570786568E+01  0.00000000000E+00 0.  1.
         22    1    3    3    0    0  0.37209681240E+02 -0.35075966655E+02  0.79102042791E+03  0.79267155947E+03  0.00000000000E+00 0.  1.
</event>
<event>
 7    1  0.5667373E-006  0.4491622E+02  0.7818608E-02  0.1584761E+00
          2   -1    0    0  502    0  0.00000000000E+00  0.00000000000E+00  0.19581372344E+02  0.19581372344E+02  0.00000000000E+00 0. -1.
          1   -1    0    0  501    0 -0.00000000000E+00 -0.00000000000E+00 -0.20741082954E+04  0.20741082954E+04  0.00000000000E+00 0. -1.
         25    2    1    2    0    0  0.43208822288E+02  0.41737371299E+02 -0.52217051285E+03  0.54027444988E+03  0.12500170486E+03 0.  0.
          2    1    1    2  501    0 -0.21401124559E+02 -0.37638338805E+01 -0.14969346142E+04  0.14970923197E+04  0.00000000000E+00 0. -1.
          1    1    1    2  502    0 -0.21807697729E+02 -0.37973537419E+02 -0.35421796046E+02  0.56322898181E+02  0.00000000000E+00 0. -1.
         22    1    3    3    0    0  0.81630906312E+02  0.13209164497E+00 -0.32877804051E+03  0.33876042012E+03  0.00000000000E+00 0. -1.
         22    1    3    3    0    0 -0.38422084024E+02  0.41605279654E+02 -0.19339247233E+03  0.20151402976E+03  0.00000000000E+00 0. -1.
</event>
<event>
 7    1  0.5667373E-006  0.6113201E+02  0.7818608E-02  0.1437334E+00
          2   -1    0    0  502    0  0.00000000000E+00  0.00000000000E+00  0.25871888685E+03  0.25871888685E+03  0.00000000000E+00 0. -1.
          1   -1    0    0  501    0 -0.00000000000E+00 -0.00000000000E+00 -0.21754653999E+04  0.21754653999E+04  0.00000000000E+00 0. -1.
         25    2    1    2    0    0 -0.18638335175E+02 -0.27841779130E+01 -0.44269256406E+03  0.46038748163E+03  0.12499915114E+03 0.  0.
          2    1    1    2  501    0 -0.42599591886E+02  0.83591423798E+01 -0.17198642136E+04  0.17204120186E+04  0.00000000000E+00 0. -1.
          1    1    1    2  502    0  0.61237927062E+02 -0.55749644668E+01  0.24581026453E+03  0.25338478661E+03  0.00000000000E+00 0. -1.
         22    1    3    3    0    0 -0.21593435451E+02 -0.18459432155E+02 -0.14494268166E+02  0.31892176153E+02  0.00000000000E+00 0.  1.
         22    1    3    3    0    0  0.29551002756E+01  0.15675254242E+02 -0.42819829589E+03  0.42849530548E+03  0.00000000000E+00 0.  1.
</event>
<event>
 7    1  0.5667373E-006  0.2364321E+03  0.7818608E-02  0.1303223E+00
          2   -1    0    0  502    0  0.00000000000E+00  0.00000000000E+00  0.13838065296E+04  0.13838065296E+04  0.00000000000E+00 0. -1.
          1   -1    0    0  501    0 -0.00000000000E+00 -0.00000000000E+00 -0.51449775147E+03  0.51449775147E+03  0.00000000000E+00 0. -1.
         25    2    1    2    0    0 -0.97671959476E+02  0.24881436855E+03  0.32764669089E+03  0.44092863510E+03  0.12496921835E+03 0.  0.
          2    1    1    2  501    0  0.78763605832E+02 -0.22038559378E+03 -0.42762900335E+03  0.48748341516E+03  0.00000000000E+00 0. -1.
          1    1    1    2  502    0  0.18908353644E+02 -0.28428774768E+02  0.96929109058E+03  0.96989223079E+03  0.00000000000E+00 0. -1.
         22    1    3    3    0    0 -0.79029175588E+02  0.17844153693E+03  0.14151775449E+03  0.24106900990E+03  0.00000000000E+00 0. -1.
         22    1    3    3    0    0 -0.18642783888E+02  0.70372831617E+02  0.18612893640E+03  0.19985962520E+03  0.00000000000E+00 0. -1.
</event>
<event>
 7    1  0.5667373E-006  0.7509791E+02  0.7818608E-02  0.1419564E+00
          2   -1    0    0  502    0  0.00000000000E+00  0.00000000000E+00  0.38102080082E+03  0.38102080082E+03  0.00000000000E+00 0. -1.
          1   -1    0    0  501    0 -0.00000000000E+00 -0.00000000000E+00 -0.13722845331E+03  0.13722845331E+03  0.00000000000E+00 0. -1.
         25    2    1    2    0    0 -0.10947581135E+03  0.14496022167E+02  0.11728711557E+01  0.16679665839E+03  0.12499864676E+03 0.  0.
          2    1    1    2  501    0  0.36341449226E+02 -0.17755465471E+02 -0.41561299629E+02  0.57993957554E+02  0.00000000000E+00 0. -1.
          1    1    1    2  502    0  0.73134362122E+02  0.32594433041E+01  0.28418077598E+03  0.29345863820E+03  0.00000000000E+00 0. -1.
         22    1    3    3    0    0 -0.49090860482E+02 -0.37544770026E+02 -0.43350143026E+02  0.75490113522E+02  0.00000000000E+00 0. -1.
         22    1    3    3    0    0 -0.60384950865E+02  0.52040792193E+02  0.44523014182E+02  0.91306544864E+02  0.00000000000E+00 0. -1.
</event>
<event>
 7    1  0.5667373E-006  0.1860598E+03  0.7818608E-02  0.1190025E+00
          2   -1    0    0  502    0  0.00000000000E+00  0.00000000000E+00  0.14339631555E+04  0.14339631555E+04  0.00000000000E+00 0. -1.
          1   -1    0    0  501    0 -0.00000000000E+00 -0.00000000000E+00 -0.52785275059E+03  0.52785275059E+03  0.00000000000E+00 0. -1.
         25    2    1    2    0    0 -0.14894907000E+03 -0.21103519273E+03  0.34124164789E+03  0.44586184428E+03  0.12500097561E+03 0.  0.
          2    1    1    2  501    0  0.16179964241E+02  0.18355206367E+03 -0.45302754144E+03  0.48906758697E+03  0.00000000000E+00 0. -1.
          1    1    1    2  502    0  0.13276910576E+03  0.27483129060E+02  0.10178962985E+04  0.10268864749E+04  0.00000000000E+00 0. -1.
         22    1    3    3    0    0 -0.11507844859E+03 -0.21803863153E+03  0.32422512643E+03  0.40731538981E+03  0.00000000000E+00 0.  1.
         22    1    3    3    0    0 -0.33870621405E+02  0.70034387987E+01  0.17016521465E+02  0.38546454469E+02  0.00000000000E+00 0.  1.
</event>
<event>
 7    1  0.5667373E-006  0.4457647E+02  0.7818608E-02  0.1564636E+00
          2   -1    0    0  502    0  0.00000000000E+00  0.00000000000E+00  0.14432103578E+04  0.14432103578E+04  0.00000000000E+00 0. -1.
          1   -1    0    0  501    0 -0.00000000000E+00 -0.00000000000E+00 -0.15603102479E+04  0.15603102479E+04  0.00000000000E+00 0. -1.
         25    2    1    2    0    0 -0.21059633885E+02 -0.12494755584E+02 -0.30615740503E+02  0.13105143295E+03  0.12505009962E+03 0.  0.
          2    1    1    2  501    0  0.25184196636E+02  0.36963169415E+02 -0.14790280617E+04  0.14797042025E+04  0.00000000000E+00 0. -1.
          1    1    1    2  502    0 -0.41245627513E+01 -0.24468413831E+02  0.13925439121E+04  0.13927649703E+04  0.00000000000E+00 0. -1.
         22    1    3    3    0    0 -0.71891512960E+02  0.24431203785E+01 -0.30339277075E+02  0.78069393531E+02  0.00000000000E+00 0. -1.
         22    1    3    3    0    0  0.50831879075E+02 -0.14937875962E+02 -0.27646342858E+00  0.52982039416E+02  0.00000000000E+00 0. -1.
</event>
<event>
 7    1  0.5667373E-006  0.3869031E+02  0.7818608E-02  0.1596454E+00
          2   -1    0    0  502    0  0.00000000000E+00  0.00000000000E+00  0.18456349796E+04  0.18456349796E+04  0.00000000000E+00 0. -1.
          1   -1    0    0  501    0 -0.00000000000E+00 -0.00000000000E+00 -0.21104028810E+03  0.21104028810E+03  0.00000000000E+00 0. -1.
         25    2    1    2    0    0  0.43745756101E+02 -0.32632148961E+02  0.20459257958E+02  0.13791823168E+03  0.12499723625E+03 0.  0.
          2    1    1    2  501    0 -0.64244996058E+01  0.22596790782E+02 -0.15119219021E+03  0.15300642970E+03  0.00000000000E+00 0. -1.
          1    1    1    2  502    0 -0.37321256495E+02  0.10035358180E+02  0.17653276237E+04  0.17657506063E+04  0.00000000000E+00 0. -1.
         22    1    3    3    0    0  0.20040962400E+02  0.48094235949E+02  0.11021944616E+02  0.53255788123E+02  0.00000000000E+00 0.  1.
         22    1    3    3    0    0  0.23704793701E+02 -0.80726384911E+02  0.94373133419E+01  0.84662443552E+02  0.00000000000E+00 0.  1.
</event>
<event>
 7    1  0.5667373E-006  0.8622002E+02  0.7818608E-02  0.1325623E+00
          2   -1    0    0  502    0  0.00000000000E+00  0.00000000000E+00  0.13142021716E+04  0.13142021716E+04  0.00000000000E+00 0. -1.
          1   -1    0    0  501    0 -0.00000000000E+00 -0.00000000000E+00 -0.55814802546E+03  0.55814802546E+03  0.00000000000E+00 0. -1.
         25    2    1    2    0    0 -0.17465152345E+02  0.14334378605E+02 -0.24505919154E+03  0.27602530108E+03  0.12500181407E+03 0.  0.
          2    1    1    2  501    0 -0.65331492735E+02 -0.39820548995E+02 -0.29121404370E+03  0.30109715926E+03  0.00000000000E+00 0. -1.
          1    1    1    2  502    0  0.82796645080E+02  0.25486170390E+02  0.12923273814E+04  0.12952277367E+04  0.00000000000E+00 0. -1.
         22    1    3    3    0    0 -0.22373250251E+02  0.12843608316E+02 -0.25945940878E+03  0.26073876852E+03  0.00000000000E+00 0.  1.
         22    1    3    3    0    0  0.49080979052E+01  0.14907702895E+01  0.14400217244E+02  0.15286532563E+02  0.00000000000E+00 0.  1.
</event>
<event>
 7    1  0.5667373E-006  0.4872177E+02  0.7818608E-02  0.1458687E+00
          2   -1    0    0  502    0  0.00000000000E+00  0.00000000000E+00  0.58714841492E+03  0.58714841492E+03  0.00000000000E+00 0. -1.
          1   -1    0    0  501    0 -0.00000000000E+00 -0.00000000000E+00 -0.17974484621E+03  0.17974484621E+03  0.00000000000E+00 0. -1.
         25    2    1    2    0    0  0.16591316241E+02 -0.11632281548E+01  0.47437724783E+02  0.13474571329E+03  0.12501777731E+03 0.  0.
          2    1    1    2  501    0 -0.15991406039E+01 -0.46492360889E+02 -0.13080990835E+03  0.13883561861E+03  0.00000000000E+00 0. -1.
          1    1    1    2  502    0 -0.14992175637E+02  0.47655589044E+02  0.49077575228E+03  0.49331192923E+03  0.00000000000E+00 0. -1.
         22    1    3    3    0    0  0.62352636727E+02  0.30230743269E+02  0.16587697206E+02  0.71252374304E+02  0.00000000000E+00 0.  1.
         22    1    3    3    0    0 -0.45761320486E+02 -0.31393971424E+02  0.30850027576E+02  0.63493338988E+02  0.00000000000E+00 0.  1.
</event>
<event>
 7    1  0.5667373E-006  0.8255158E+02  0.7818608E-02  0.1369957E+00
          2   -1    0    0  502    0  0.00000000000E+00  0.00000000000E+00  0.22855919535E+03  0.22855919535E+03  0.00000000000E+00 0. -1.
          1   -1    0    0  501    0 -0.00000000000E+00 -0.00000000000E+00 -0.13042348278E+04  0.13042348278E+04  0.00000000000E+00 0. -1.
         25    2    1    2    0    0 -0.34590839442E+01  0.53416682371E+02 -0.26795564069E+03  0.30048392527E+03  0.12500022701E+03 0.  0.
          2    1    1    2  501    0 -0.47647786046E+02 -0.72828374989E+02 -0.10146014451E+04  0.10183272442E+04  0.00000000000E+00 0. -1.
          1    1    1    2  502    0  0.51106869990E+02  0.19411692617E+02  0.20688145334E+03  0.21398285376E+03  0.00000000000E+00 0. -1.
         22    1    3    3    0    0  0.31002844732E+02  0.61275578905E+02 -0.25291155606E+03  0.26206893776E+03  0.00000000000E+00 0.  1.
         22    1    3    3    0    0 -0.34461928676E+02 -0.78588965333E+01 -0.15044084626E+02  0.38414987505E+02  0.00000000000E+00 0.  1.
</event>
<event>
 7    1  0.5667373E-006  0.5735060E+02  0.7818608E-02  0.1464498E+00
          2   -1    0    0  502    0  0.00000000000E+00  0.00000000000E+00  0.19490875001E+04  0.19490875001E+04  0.00000000000E+00 0. -1.
          1   -1    0    0  501    0 -0.00000000000E+00 -0.00000000000E+00 -0.18150139330E+03  0.18150139330E+03  0.00000000000E+00 0. -1.
         25    2    1    2    0    0 -0.61940398899E+02 -0.53055183712E+02  0.69991622937E+02  0.16484993029E+03  0.12500082680E+03 0.  0.
          2    1    1    2  501    0  0.37872476946E+02  0.11751429223E+01 -0.13093909074E+03  0.13631122828E+03  0.00000000000E+00 0. -1.
          1    1    1    2  502    0  0.24067921952E+02  0.51880040790E+02  0.18285335746E+04  0.18294277348E+04  0.00000000000E+00 0. -1.
         22    1    3    3    0    0  0.26984266199E+01  0.30678323393E+02 -0.98350532485E+01  0.32329078317E+02  0.00000000000E+00 0.  1.
         22    1    3    3    0    0 -0.64638825519E+02 -0.83733507105E+02  0.79826676185E+02  0.13252085197E+03  0.00000000000E+00 0.  1.
</event>
<event>
 7    1  0.5667373E-006  0.6509878E+02  0.7818608E-02  0.1449866E+00
          2   -1    0    0  502    0  0.00000000000E+00  0.00000000000E+00  0.12026286471E+04  0.12026286471E+04  0.00000000000E+00 0. -1.
          1   -1    0    0  501    0 -0.00000000000E+00 -0.00000000000E+00 -0.19575279508E+02  0.19575279508E+02  0.00000000000E+00 0. -1.
         25    2    1    2    0    0  0.32485232957E+01 -0.76631414436E+02  0.58304203603E+03  0.60120413978E+03  0.12500190128E+03 0.  0.
          2    1    1    2  501    0  0.30171562209E+02  0.21657919285E+02  0.31041282777E+02  0.48404027419E+02  0.00000000000E+00 0. -1.
          1    1    1    2  502    0 -0.33420085505E+02  0.54973495150E+02  0.56897004882E+03  0.57259575945E+03  0.00000000000E+00 0. -1.
         22    1    3    3    0    0  0.22814326539E+02 -0.22109780920E+02  0.25709628421E+02  0.40869559593E+02  0.00000000000E+00 0. -1.
         22    1    3    3    0    0 -0.19565803244E+02 -0.54521633515E+02  0.55733240761E+03  0.56033458019E+03  0.00000000000E+00 0. -1.
</event>
<event>
 7    1  0.5667373E-006  0.4197830E+02  0.7818608E-02  0.1533092E+00
          2   -1    0    0  502    0  0.00000000000E+00  0.00000000000E+00  0.25657353604E+03  0.25657353604E+03  0.00000000000E+00 0. -1.
          1   -1    0    0  501    0 -0.00000000000E+00 -0.00000000000E+00 -0.20244556123E+03  0.20244556123E+03  0.00000000000E+00 0. -1.
         25    2    1    2    0    0  0.25281085317E+02 -0.31009543748E+02 -0.67541268929E+02  0.14760328354E+03  0.12499672486E+03 0.  0.
          2    1    1    2  501    0  0.45448362457E+01  0.43349026913E+02 -0.88569633894E+02  0.98713594398E+02  0.00000000000E+00 0. -1.
          1    1    1    2  502    0 -0.29825921563E+02 -0.12339483165E+02  0.21023887763E+03  0.21270221934E+03  0.00000000000E+00 0. -1.
         22    1    3    3    0    0  0.51250335949E+02  0.81309928704E+01 -0.83229187726E+02  0.98080618215E+02  0.00000000000E+00 0.  1.
         22    1    3    3    0    0 -0.25969250631E+02 -0.39140536618E+02  0.15687918796E+02  0.49522665329E+02  0.00000000000E+00 0.  1.
</event>
<event>
 7    1  0.5667373E-006  0.9018016E+02  0.7818608E-02  0.1318463E+00
          2   -1    0    0  502    0  0.00000000000E+00  0.00000000000E+00  0.13838126719E+04  0.13838126719E+04  0.00000000000E+00 0. -1.
          1   -1    0    0  501    0 -0.00000000000E+00 -0.00000000000E+00 -0.16449028470E+03  0.16449028470E+03  0.00000000000E+00 0. -1.
         25    2    1    2    0    0  0.42738214617E+02 -0.90086478047E+01  0.94886950000E+01  0.13275196718E+03  0.12500135492E+03 0.  0.
          2    1    1    2  501    0 -0.10740940892E+03 -0.34540582432E+02 -0.70371627905E+02  0.13297367775E+03  0.00000000000E+00 0. -1.
          1    1    1    2  502    0  0.64671194303E+02  0.43549230236E+02  0.12802053201E+04  0.12825773117E+04  0.00000000000E+00 0. -1.
         22    1    3    3    0    0  0.57119603263E+02  0.45872949775E+02  0.17854298943E+02  0.75403929531E+02  0.00000000000E+00 0.  1.
         22    1    3    3    0    0 -0.14381388645E+02 -0.54881597580E+02 -0.83656039432E+01  0.57348037644E+02  0.00000000000E+00 0.  1.
</event>
<event>
 7    1  0.5667373E-006  0.4591587E+02  0.7818608E-02  0.1522881E+00
          2   -1    0    0  502    0  0.00000000000E+00  0.00000000000E+00  0.64916708279E+02  0.64916708279E+02  0.00000000000E+00 0. -1.
          1   -1    0    0  501    0 -0.00000000000E+00 -0.00000000000E+00 -0.47303656742E+03  0.47303656742E+03  0.00000000000E+00 0. -1.
         25    2    1    2    0    0 -0.71350653256E+01  0.45369423607E+02 -0.13612243087E+03  0.19042815989E+03  0.12499709652E+03 0.  0.
          2    1    1    2  501    0 -0.23966985665E+02 -0.39943367547E+02 -0.30104258459E+03  0.30462522343E+03  0.00000000000E+00 0. -1.
          1    1    1    2  502    0  0.31102050990E+02 -0.54260560603E+01  0.29045156319E+02  0.42899892375E+02  0.00000000000E+00 0. -1.
         22    1    3    3    0    0  0.17587013586E+01  0.71830939795E+00 -0.14417990188E+03  0.14419241695E+03  0.00000000000E+00 0.  1.
         22    1    3    3    0    0 -0.88937666842E+01  0.44651114209E+02  0.80574710195E+01  0.46235742940E+02  0.00000000000E+00 0.  1.
</event>
<event>
 7    1  0.5667373E-006  0.1300241E+03  0.7818608E-02  0.1373674E+00
          2   -1    0    0  502    0  0.00000000000E+00  0.00000000000E+00  0.37280558199E+03  0.37280558199E+03  0.00000000000E+00 0. -1.
          1   -1    0    0  501    0 -0.00000000000E+00 -0.00000000000E+00 -0.39776491704E+03  0.39776491704E+03  0.00000000000E+00 0. -1.
         25    2    1    2    0    0  0.58790196265E+02 -0.13764814013E+03  0.54379894946E+02  0.20244818994E+03  0.12499919591E+03 0.  0.
          2    1    1    2  501    0 -0.30213295429E+02  0.14838624239E+02 -0.30648410044E+03  0.30832698846E+03  0.00000000000E+00 0. -1.
          1    1    1    2  502    0 -0.28576900837E+02  0.12280951589E+03  0.22714487044E+03  0.25979532063E+03  0.00000000000E+00 0. -1.
         22    1    3    3    0    0  0.71424354772E+02 -0.47752107163E+02  0.69386917564E+02  0.11043661767E+03  0.00000000000E+00 0.  1.
         22    1    3    3    0    0 -0.12634158506E+02 -0.89896032969E+02 -0.15007022618E+02  0.92011572275E+02  0.00000000000E+00 0.  1.
</event>
<event>
 7    1  0.5667373E-006  0.1445227E+03  0.7818608E-02  0.1241724E+00
          2   -1    0    0  502    0  0.00000000000E+00  0.00000000000E+00  0.84785837008E+03  0.84785837008E+03  0.00000000000E+00 0. -1.
          1   -1    0    0  501    0 -0.00000000000E+00 -0.00000000000E+00 -0.86816243666E+03  0.86816243666E+03  0.00000000000E+00 0. -1.
         25    2    1    2    0    0  0.13646178220E+03 -0.18246437538E+03  0.12892814264E+03  0.29010815540E+03  0.12500083831E+03 0.  0.
          2    1    1    2  501    0 -0.29020694134E+02  0.96773788059E+02 -0.77686661001E+03  0.78340863953E+03  0.00000000000E+00 0. -1.
          1    1    1    2  502    0 -0.10744108806E+03  0.85690587321E+02  0.62763440078E+03  0.64250401182E+03  0.00000000000E+00 0. -1.
         22    1    3    3    0    0  0.60787034158E+02 -0.14518364601E+03  0.30233316004E+02  0.16027291720E+03  0.00000000000E+00 0. -1.
         22    1    3    3    0    0  0.75674748040E+02 -0.37280729372E+02  0.98694826638E+02  0.12983523820E+03  0.00000000000E+00 0. -1.
</event>
<event>
 7    1  0.5667373E-006  0.3361712E+02  0.7818608E-02  0.1630713E+00
          2   -1    0    0  502    0  0.00000000000E+00  0.00000000000E+00  0.30682763295E+02  0.30682763295E+02  0.00000000000E+00 0. -1.
          1   -1    0    0  501    0 -0.00000000000E+00 -0.00000000000E+00 -0.16182579414E+04  0.16182579414E+04  0.00000000000E+00 0. -1.
         25    2    1    2    0    0 -0.41578523428E+02  0.12626206476E+02 -0.19592229412E+03  0.23643138558E+03  0.12500424014E+03 0.  0.
          2    1    1    2  501    0  0.32706419736E+02  0.75923616355E+01 -0.13899594921E+04  0.13903649678E+04  0.00000000000E+00 0. -1.
          1    1    1    2  502    0  0.88721036924E+01 -0.20218568112E+02 -0.16933918544E+01  0.22144351343E+02  0.00000000000E+00 0. -1.
         22    1    3    3    0    0 -0.48559968839E+02  0.33589436350E+02 -0.25054366650E+02  0.64140798998E+02  0.00000000000E+00 0.  1.
         22    1    3    3    0    0  0.69814454109E+01 -0.20963229873E+02 -0.17086792747E+03  0.17229058658E+03  0.00000000000E+00 0.  1.
</event>
<event>
 7    1  0.5667373E-006  0.1042148E+03  0.7818608E-02  0.1437995E+00
          2   -1    0    0  502    0  0.00000000000E+00  0.00000000000E+00  0.18965449945E+04  0.18965449945E+04  0.00000000000E+00 0. -1.
          1   -1    0    0  501    0 -0.00000000000E+00 -0.00000000000E+00 -0.67807682058E+03  0.67807682058E+03  0.00000000000E+00 0. -1.
         25    2    1    2    0    0 -0.12768374132E+03  0.19760450991E+02  0.89483492248E+03  0.91271469912E+03  0.12499988111E+03 0.  0.
          2    1    1    2  501    0  0.10330854070E+03 -0.12837303278E+02 -0.66492455742E+03  0.67302460431E+03  0.00000000000E+00 0. -1.
          1    1    1    2  502    0  0.24375200618E+02 -0.69231477132E+01  0.98855780890E+03  0.98888251169E+03  0.00000000000E+00 0. -1.
         22    1    3    3    0    0  0.24579918446E+02  0.58918763068E+01  0.89802826212E+02  0.93292197921E+02  0.00000000000E+00 0.  1.
         22    1    3    3    0    0 -0.15226365977E+03  0.13868574684E+02  0.80503209627E+03  0.81942250120E+03  0.00000000000E+00 0.  1.
</event>
<event>
 7    1  0.5667373E-006  0.7289909E+02  0.7818608E-02  0.1391595E+00
          2   -1    0    0  502    0  0.00000000000E+00  0.00000000000E+00  0.11497209905E+04  0.11497209905E+04  0.00000000000E+00 0. -1.
          1   -1    0    0  501    0 -0.00000000000E+00 -0.00000000000E+00 -0.11308654852E+03  0.11308654852E+03  0.00000000000E+00 0. -1.
         25    2    1    2    0    0 -0.28513767345E+02 -0.14054796428E+02  0.37093472094E+03  0.39271784655E+03  0.12499667024E+03 0.  0.
          2    1    1    2  501    0  0.35760848222E+02  0.65449666971E+02 -0.87574447558E+02  0.11502947899E+03  0.00000000000E+00 0. -1.
          1    1    1    2  502    0 -0.72470808777E+01 -0.51394870543E+02  0.75327416855E+03  0.75506021342E+03  0.00000000000E+00 0. -1.
         22    1    3    3    0    0  0.73861083286E+01  0.46968486508E+02  0.23156652491E+03  0.23639722668E+03  0.00000000000E+00 0.  1.
         22    1    3    3    0    0 -0.35899875673E+02 -0.61023282936E+02  0.13936819603E+03  0.15632061988E+03  0.00000000000E+00 0.  1.
</event>
<event>
 7    1  0.5667373E-006  0.4812089E+02  0.7818608E-02  0.1578125E+00
          2   -1    0    0  502    0  0.00000000000E+00  0.00000000000E+00  0.87497541653E+03  0.87497541653E+03  0.00000000000E+00 0. -1.
          1   -1    0    0  501    0 -0.00000000000E+00 -0.00000000000E+00 -0.55367047531E+02  0.55367047531E+02  0.00000000000E+00 0. -1.
         25    2    1    2    0    0  0.11248927241E+02 -0.36549579634E+02  0.67786017126E+02  0.14725025338E+03  0.12500113146E+03 0.  0.
          2    1    1    2  501    0  0.21120815795E+02  0.59345761696E+00 -0.73566351784E+01  0.22373223570E+02  0.00000000000E+00 0. -1.
          1    1    1    2  502    0 -0.32369743035E+02  0.35956122017E+02  0.75917898705E+03  0.76071898711E+03  0.00000000000E+00 0. -1.
         22    1    3    3    0    0  0.37775957569E+02 -0.32380580822E+02  0.96107270387E+02  0.10822260580E+03  0.00000000000E+00 0.  1.
         22    1    3    3    0    0 -0.26527030329E+02 -0.41689988117E+01 -0.28321253261E+02  0.39027647577E+02  0.00000000000E+00 0.  1.
</event>
<event>
 7    1  0.5667373E-006  0.1131697E+03  0.7818608E-02  0.1357941E+00
          2   -1    0    0  502    0  0.00000000000E+00  0.00000000000E+00  0.24584901253E+04  0.24584901253E+04  0.00000000000E+00 0. -1.
          1   -1    0    0  501    0 -0.00000000000E+00 -0.00000000000E+00 -0.35627608015E+03  0.35627608015E+03  0.00000000000E+00 0. -1.
         25    2    1    2    0    0  0.91810056961E+02  0.10453625091E+03 -0.12527521504E+03  0.22511174533E+03  0.12499801627E+03 0.  0.
          2    1    1    2  501    0 -0.49006036274E+02 -0.93968599537E+02 -0.16535581079E+03  0.19640324196E+03  0.00000000000E+00 0. -1.
          1    1    1    2  502    0 -0.42804020687E+02 -0.10567651371E+02  0.23928450710E+04  0.23932512181E+04  0.00000000000E+00 0. -1.
         22    1    3    3    0    0  0.14445212498E+02  0.88253735979E+02 -0.11455576652E+03  0.14532862664E+03  0.00000000000E+00 0. -1.
         22    1    3    3    0    0  0.77364844463E+02  0.16282514928E+02 -0.10719448516E+02  0.79783118689E+02  0.00000000000E+00 0. -1.
</event>
<event>
 7    1  0.5667373E-006  0.1251142E+03  0.7818608E-02  0.1260696E+00
          2   -1    0    0  502    0  0.00000000000E+00  0.00000000000E+00  0.17740522117E+03  0.17740522117E+03  0.00000000000E+00 0. -1.
          1   -1    0    0  501    0 -0.00000000000E+00 -0.00000000000E+00 -0.12294277738E+04  0.12294277738E+04  0.00000000000E+00 0. -1.
         25    2    1    2    0    0 -0.12275633972E+03 -0.45467593285E+02 -0.53959273182E+03  0.56914119281E+03  0.12499984058E+03 0.  0.
          2    1    1    2  501    0  0.68055484506E+02 -0.68544797000E+02 -0.64633552192E+03  0.65351323251E+03  0.00000000000E+00 0. -1.
          1    1    1    2  502    0  0.54700855209E+02  0.11401239028E+03  0.13390570115E+03  0.18417856960E+03  0.00000000000E+00 0. -1.
         22    1    3    3    0    0 -0.55508815871E+02 -0.12194260390E+02 -0.44398939738E+03  0.44761201236E+03  0.00000000000E+00 0. -1.
         22    1    3    3    0    0 -0.67247523844E+02 -0.33273332895E+02 -0.95603334439E+02  0.12152918045E+03  0.00000000000E+00 0. -1.
</event>
<event>
 7    1  0.5667373E-006  0.1548155E+03  0.7818608E-02  0.1298403E+00
          2   -1    0    0  502    0  0.00000000000E+00  0.00000000000E+00  0.16758727467E+04  0.16758727467E+04  0.00000000000E+00 0. -1.
          1   -1    0    0  501    0 -0.00000000000E+00 -0.00000000000E+00 -0.29476770795E+03  0.29476770795E+03  0.00000000000E+00 0. -1.
         25    2    1    2    0    0 -0.10249360474E+03  0.91682557042E+01  0.88573115635E+03  0.90040909044E+03  0.12501141111E+03 0.  0.
          2    1    1    2  501    0  0.15605919385E+03  0.92525525455E+00 -0.26519744641E+03  0.30770930058E+03  0.00000000000E+00 0. -1.
          1    1    1    2  502    0 -0.53565589109E+02 -0.10093510959E+02  0.76057132877E+03  0.76252206358E+03  0.00000000000E+00 0. -1.
         22    1    3    3    0    0 -0.56479319643E+01 -0.89844331988E+01  0.56001778167E+03  0.56011832228E+03  0.00000000000E+00 0.  1.
         22    1    3    3    0    0 -0.96845672778E+02  0.18152688903E+02  0.32571337468E+03  0.34029076816E+03  0.00000000000E+00 0.  1.
</event>
<event>
 7    1  0.5667373E-006  0.5939683E+02  0.7818608E-02  0.1530513E+00
          2   -1    0    0  502    0  0.00000000000E+00  0.00000000000E+00  0.97583895030E+03  0.97583895030E+03  0.00000000000E+00 0. -1.
          1   -1    0    0  501    0 -0.00000000000E+00 -0.00000000000E+00 -0.36645336104E+03  0.36645336104E+03  0.00000000000E+00 0. -1.
         25    2    1    2    0    0 -0.28655465401E+02 -0.31584324058E+02  0.24315137835E+03  0.27670495441E+03  0.12499733509E+03 0.  0.
          2    1    1    2  501    0  0.20721020886E+01 -0.23109830863E+02 -0.34799814526E+03  0.34877079435E+03  0.00000000000E+00 0. -1.
          1    1    1    2  502    0  0.26583363312E+02  0.54694154921E+02  0.71423235616E+03  0.71681656257E+03  0.00000000000E+00 0. -1.
         22    1    3    3    0    0 -0.22328765904E+01 -0.54610640058E+02  0.33417301424E+02  0.64062655111E+02  0.00000000000E+00 0.  1.
         22    1    3    3    0    0 -0.26422588811E+02  0.23026316000E+02  0.20973407693E+03  0.21264229930E+03  0.00000000000E+00 0.  1.
</event>
<event>
 7    1  0.5667373E-006  0.6685880E+02  0.7818608E-02  0.1384997E+00
          2   -1    0    0  502    0  0.00000000000E+00  0.00000000000E+00  0.19471653907E+04  0.19471653907E+04  0.00000000000E+00 0. -1.
          1   -1    0    0  501    0 -0.00000000000E+00 -0.00000000000E+00 -0.12189767693E+04  0.12189767693E+04  0.00000000000E+00 0. -1.
         25    2    1    2    0    0  0.99132525698E+00 -0.18382002390E+02  0.36971889342E+03  0.39071156794E+03  0.12499835373E+03 0.  0.
          2    1    1    2  501    0  0.55568848589E+02  0.37429647464E+02 -0.12069827579E+04  0.12088408718E+04  0.00000000000E+00 0. -1.
          1    1    1    2  502    0 -0.56560173846E+02 -0.19047645074E+02  0.15654524859E+04  0.15665897202E+04  0.00000000000E+00 0. -1.
         22    1    3    3    0    0 -0.18709859644E+02  0.89754691179E+01  0.13414224708E+01  0.20794646139E+02  0.00000000000E+00 0. -1.
         22    1    3    3    0    0  0.19701184901E+02 -0.27357471508E+02  0.36837747095E+03  0.36991692180E+03  0.00000000000E+00 0. -1.
</event>
<event>
 7    1  0.5667373E-006  0.6859998E+02  0.7818608E-02  0.1505797E+00
          2   -1    0    0  502    0  0.00000000000E+00  0.00000000000E+00  0.10252232987E+04  0.10252232987E+04  0.00000000000E+00 0. -1.
          1   -1    0    0  501    0 -0.00000000000E+00 -0.00000000000E+00 -0.26078498867E+03  0.26078498867E+03  0.00000000000E+00 0. -1.
         25    2    1    2    0    0 -0.25335721710E+02 -0.87596467558E+02  0.15336011146E+03  0.21785130188E+03  0.12499930408E+03 0.  0.
          2    1    1    2  501    0  0.14790599806E+02  0.66360518258E+02 -0.22331071610E+03  0.23343126644E+03  0.00000000000E+00 0. -1.
          1    1    1    2  502    0  0.10545121904E+02  0.21235949300E+02  0.83438891462E+03  0.83472571901E+03  0.00000000000E+00 0. -1.
         22    1    3    3    0    0 -0.63853365973E+02 -0.92029564965E+02  0.90534190893E+02  0.14402476486E+03  0.00000000000E+00 0. -1.
         22    1    3    3    0    0  0.38517644263E+02  0.44330974066E+01  0.62825920567E+02  0.73826537013E+02  0.00000000000E+00 0. -1.
</event>
<event>
 7    1  0.5667373E-006  0.3388579E+03  0.7818608E-02  0.1090016E+00
          2   -1    0    0  502    0  0.00000000000E+00  0.00000000000E+00  0.52231296079E+03  0.52231296079E+03  0.00000000000E+00 0. -1.
          1   -1    0    0  501    0 -0.00000000000E+00 -0.00000000000E+00 -0.36026649525E+04  0.36026649525E+04  0.00000000000E+00 0. -1.
         25    2    1    2    0    0  0.88909514121E+02  0.14917796167E+03 -0.17913893945E+03  0.27905908597E+03  0.12499699150E+03 0.  0.
          2    1    1    2  501    0 -0.11316611220E+02  0.24902533862E+03 -0.32808468182E+04  0.32903035619E+04  0.00000000000E+00 0. -1.
          1    1    1    2  502    0 -0.77592902901E+02 -0.39820330029E+03  0.37963376594E+03  0.55561526543E+03  0.00000000000E+00 0. -1.
         22    1    3    3    0    0 -0.24333355345E+02  0.66924159865E+01 -0.23830252070E+01  0.25349150345E+02  0.00000000000E+00 0. -1.
         22    1    3    3    0    0  0.11324286947E+03  0.14248554568E+03 -0.17675591424E+03  0.25370993562E+03  0.00000000000E+00 0. -1.
</event>
<event>
 7    1  0.5667373E-006  0.3906461E+02  0.7818608E-02  0.1528189E+00
          2   -1    0    0  502    0  0.00000000000E+00  0.00000000000E+00  0.15133465854E+04  0.15133465854E+04  0.00000000000E+00 0. -1.
          1   -1    0    0  501    0 -0.00000000000E+00 -0.00000000000E+00 -0.13415150012E+04  0.13415150012E+04  0.00000000000E+00 0. -1.
         25    2    1    2    0    0 -0.67015823402E+02 -0.10115468334E+02  0.64553669117E+02  0.15615258794E+03  0.12499204470E+03 0.  0.
          2    1    1    2  501    0  0.34166030561E+02 -0.10774006239E+02 -0.12951977755E+04  0.12956931251E+04  0.00000000000E+00 0. -1.
          1    1    1    2  502    0  0.32849792841E+02  0.20889474573E+02  0.14024756905E+04  0.14030158736E+04  0.00000000000E+00 0. -1.
         22    1    3    3    0    0 -0.57307250211E+02 -0.62148325165E+02  0.19769739705E+02  0.86818073323E+02  0.00000000000E+00 0. -1.
         22    1    3    3    0    0 -0.97085731912E+01  0.52032856831E+02  0.44783929412E+02  0.69334514616E+02  0.00000000000E+00 0. -1.
</event>
<event>
 7    1  0.5667373E-006  0.7493303E+02  0.7818608E-02  0.1364026E+00
          2   -1    0    0  502    0  0.00000000000E+00  0.00000000000E+00  0.95860536884E+02  0.95860536884E+02  0.00000000000E+00 0. -1.
          1   -1    0    0  501    0 -0.00000000000E+00 -0.00000000000E+00 -0.10773008661E+04  0.10773008661E+04  0.00000000000E+00 0. -1.
         25    2    1    2    0    0 -0.11061534340E+03 -0.73108876249E+01 -0.18477421257E+03  0.24910973328E+03  0.12499978525E+03 0.  0.
          2    1    1    2  501    0  0.51990174510E+02 -0.36060810267E+02 -0.83789406300E+03  0.84027960887E+03  0.00000000000E+00 0. -1.
          1    1    1    2  502    0  0.58625168895E+02  0.43371697892E+02  0.41227946382E+02  0.83772060789E+02  0.00000000000E+00 0. -1.
         22    1    3    3    0    0  0.85317988977E+01  0.17988644922E+02  0.76884573361E+01  0.21342336207E+02  0.00000000000E+00 0. -1.
         22    1    3    3    0    0 -0.11914714230E+03 -0.25299532547E+02 -0.19246266990E+03  0.22776739708E+03  0.00000000000E+00 0. -1.
</event>
<event>
 7    1  0.5667373E-006  0.9374336E+02  0.7818608E-02  0.1321418E+00
          2   -1    0    0  502    0  0.00000000000E+00  0.00000000000E+00  0.60405519168E+03  0.60405519168E+03  0.00000000000E+00 0. -1.
          1   -1    0    0  501    0 -0.00000000000E+00 -0.00000000000E+00 -0.38050179395E+03  0.38050179395E+03  0.00000000000E+00 0. -1.
         25    2    1    2    0    0  0.38555435152E+02  0.51204195731E+02 -0.15065710752E+03  0.20598925304E+03  0.12500246830E+03 0.  0.
          2    1    1    2  501    0  0.56240350731E+02 -0.46618389633E+02 -0.19149567248E+03  0.20495571200E+03  0.00000000000E+00 0. -1.
          1    1    1    2  502    0 -0.94795785883E+02 -0.45858060982E+01  0.56570617773E+03  0.57361202059E+03  0.00000000000E+00 0. -1.
         22    1    3    3    0    0  0.53188420285E+02  0.79104833083E+02 -0.14567699933E+03  0.17409299470E+03  0.00000000000E+00 0.  1.
         22    1    3    3    0    0 -0.14632985132E+02 -0.27900637352E+02 -0.49801081956E+01  0.31896258342E+02  0.00000000000E+00 0.  1.
</event>
<event>
 7    1  0.5667373E-006  0.2062000E+03  0.7818608E-02  0.1359341E+00
          2   -1    0    0  502    0  0.00000000000E+00  0.00000000000E+00  0.24485190976E+04  0.24485190976E+04  0.00000000000E+00 0. -1.
          1   -1    0    0  501    0 -0.00000000000E+00 -0.00000000000E+00 -0.23286285123E+03  0.23286285123E+03  0.00000000000E+00 0. -1.
         25    2    1    2    0    0  0.18181143521E+03  0.40854169048E+02  0.20946988802E+04  0.21066830180E+04  0.12500191388E+03 0.  0.
          2    1    1    2  501    0 -0.20412276891E+03 -0.32246828709E+02 -0.17923664674E+03  0.27355390380E+03  0.00000000000E+00 0. -1.
          1    1    1    2  502    0  0.22311333706E+02 -0.86073403396E+01  0.30019401285E+03  0.30114502697E+03  0.00000000000E+00 0. -1.
         22    1    3    3    0    0  0.54224256940E+02 -0.41600697124E+02  0.47773453001E+03  0.48259835185E+03  0.00000000000E+00 0.  1.
         22    1    3    3    0    0  0.12758717827E+03  0.82454866172E+02  0.16169643502E+04  0.16240846662E+04  0.00000000000E+00 0.  1.
</event>
<event>
 7    1  0.5667373E-006  0.6004877E+02  0.7818608E-02  0.1398392E+00
          2   -1    0    0  502    0  0.00000000000E+00  0.00000000000E+00  0.30793150594E+04  0.30793150594E+04  0.00000000000E+00 0. -1.
          1   -1    0    0  501    0 -0.00000000000E+00 -0.00000000000E+00 -0.79139761002E+03  0.79139761002E+03  0.00000000000E+00 0. -1.
         25    2    1    2    0    0 -0.80606860295E+02  0.83728066438E+02  0.74279425253E+03  0.76215383112E+03  0.12500922232E+03 0.  0.
          2    1    1    2  501    0  0.50649411751E+02 -0.32105908643E+02 -0.78018424816E+03  0.78248553556E+03  0.00000000000E+00 0. -1.
          1    1    1    2  502    0  0.29957448544E+02 -0.51622157795E+02  0.23253074450E+04  0.23260733027E+04  0.00000000000E+00 0. -1.
         22    1    3    3    0    0 -0.50902129475E+02 -0.25123656528E+02  0.20950648273E+03  0.21706034002E+03  0.00000000000E+00 0.  1.
         22    1    3    3    0    0 -0.29704730820E+02  0.10885172297E+03  0.53328776980E+03  0.54509349111E+03  0.00000000000E+00 0.  1.
</event>
<event>
 7    1  0.5667373E-006  0.8919199E+02  0.7818608E-02  0.1485420E+00
          2   -1    0    0  502    0  0.00000000000E+00  0.00000000000E+00  0.14130393848E+04  0.14130393848E+04  0.00000000000E+00 0. -1.
          1   -1    0    0  501    0 -0.00000000000E+00 -0.00000000000E+00 -0.88529707724E+02  0.88529707724E+02  0.00000000000E+00 0. -1.
         25    2    1    2    0    0  0.31682552132E+02 -0.62408701490E+02  0.48776567274E+03  0.50837168336E+03  0.12501114675E+03 0.  0.
          2    1    1    2  501    0 -0.34994327767E+02  0.83140546851E+02 -0.52057066098E+02  0.10414841159E+03  0.00000000000E+00 0. -1.
          1    1    1    2  502    0  0.33117756350E+01 -0.20731845361E+02  0.88880107045E+03  0.88904899759E+03  0.00000000000E+00 0. -1.
         22    1    3    3    0    0  0.65647494987E+02 -0.81106158315E+02  0.34489159390E+03  0.36033042344E+03  0.00000000000E+00 0. -1.
         22    1    3    3    0    0 -0.33964942855E+02  0.18697456825E+02  0.14287407884E+03  0.14804125992E+03  0.00000000000E+00 0. -1.
</event>
<event>
 7    1  0.5667373E-006  0.7920769E+02  0.7818608E-02  0.1346727E+00
          2   -1    0    0  502    0  0.00000000000E+00  0.00000000000E+00  0.14113197886E+03  0.14113197886E+03  0.00000000000E+00 0. -1.
          1   -1    0    0  501    0 -0.00000000000E+00 -0.00000000000E+00 -0.14933852616E+04  0.14933852616E+04  0.00000000000E+00 0. -1.
         25    2    1    2    0    0 -0.11131218752E+02  0.22030786015E+02 -0.71600660676E+01  0.12761671214E+03  0.12500199641E+03 0.  0.
          2    1    1    2  501    0 -0.37982107790E+02 -0.70913819673E+02 -0.14097992954E+04  0.14120925833E+04  0.00000000000E+00 0. -1.
          1    1    1    2  502    0  0.49113326542E+02  0.48883033658E+02  0.64706078731E+02  0.94807945070E+02  0.00000000000E+00 0. -1.
         22    1    3    3    0    0 -0.13387701253E+02 -0.33655019278E+02  0.40465438237E+02  0.54307849885E+02  0.00000000000E+00 0.  1.
         22    1    3    3    0    0  0.22564825006E+01  0.55685805293E+02 -0.47625504305E+02  0.73308862252E+02  0.00000000000E+00 0.  1.
</event>
<event>
 7    1  0.5667373E-006  0.1078313E+03  0.7818608E-02  0.1382724E+00
          2   -1    0    0  502    0  0.00000000000E+00  0.00000000000E+00  0.62369490948E+03  0.62369490948E+03  0.00000000000E+00 0. -1.
          1   -1    0    0  501    0 -0.00000000000E+00 -0.00000000000E+00 -0.40412768567E+03  0.40412768567E+03  0.00000000000E+00 0. -1.
         25    2    1    2    0    0  0.13872696562E+03  0.37791767039E+02 -0.47917263243E+02  0.19645978376E+03  0.12500797524E+03 0.  0.
          2    1    1    2  501    0 -0.37140736986E+02 -0.64280540561E+01 -0.27550053123E+03  0.27806707272E+03  0.00000000000E+00 0. -1.
          1    1    1    2  502    0 -0.10158622863E+03 -0.31363712983E+02  0.54298501828E+03  0.55329573866E+03  0.00000000000E+00 0. -1.
         22    1    3    3    0    0  0.13877898311E+03  0.32816191388E+00 -0.67347075575E+02  0.15425739021E+03  0.00000000000E+00 0. -1.
         22    1    3    3    0    0 -0.52017494146E-01  0.37463605125E+02  0.19429812331E+02  0.42202393558E+02  0.00000000000E+00 0. -1.
</event>
<event>
 7    1  0.5667373E-006  0.3781590E+02  0.7818608E-02  0.1531005E+00
          2   -1    0    0  502    0  0.00000000000E+00  0.00000000000E+00  0.16975345045E+04  0.16975345045E+04  0.00000000000E+00 0. -1.
          1   -1    0    0  501    0 -0.00000000000E+00 -0.00000000000E+00 -0.17859504960E+03  0.17859504960E+03  0.00000000000E+00 0. -1.
         25    2    1    2    0    0 -0.70469055358E+02  0.20727643594E+02  0.35832744772E+03  0.38654842238E+03  0.12500240029E+03 0.  0.
          2    1    1    2  501    0  0.35126952186E+02 -0.92552539365E+01 -0.16221489171E+03  0.16623246851E+03  0.00000000000E+00 0. -1.
          1    1    1    2  502    0  0.35342103171E+02 -0.11472389657E+02  0.13228268989E+04  0.13233486632E+04  0.00000000000E+00 0. -1.
         22    1    3    3    0    0  0.36206871302E+02  0.76957792566E+01  0.78360397265E+02  0.86663224077E+02  0.00000000000E+00 0. -1.
         22    1    3    3    0    0 -0.10667592666E+03  0.13031864337E+02  0.27996705046E+03  0.29988519830E+03  0.00000000000E+00 0. -1.
</event>
<event>
 7    1  0.5667373E-006  0.1442062E+03  0.7818608E-02  0.1398073E+00
          2   -1    0    0  502    0  0.00000000000E+00  0.00000000000E+00  0.23085617802E+03  0.23085617802E+03  0.00000000000E+00 0. -1.
          1   -1    0    0  501    0 -0.00000000000E+00 -0.00000000000E+00 -0.24328214427E+03  0.24328214427E+03  0.00000000000E+00 0. -1.
         25    2    1    2    0    0 -0.94260934465E+01  0.14910427737E+03 -0.72878423900E+02  0.20798367752E+03  0.12500003470E+03 0.  0.
          2    1    1    2  501    0  0.31560464209E+02 -0.13766322812E+03 -0.52356486732E+02  0.15062678706E+03  0.00000000000E+00 0. -1.
          1    1    1    2  502    0 -0.22134370763E+02 -0.11441049258E+02  0.11280894438E+03  0.11552785772E+03  0.00000000000E+00 0. -1.
         22    1    3    3    0    0 -0.18322203127E+01 -0.22716044650E+02 -0.75909050303E+01  0.24020773405E+02  0.00000000000E+00 0.  1.
         22    1    3    3    0    0 -0.75938731337E+01  0.17182032202E+03 -0.65287518870E+02  0.18396290411E+03  0.00000000000E+00 0.  1.
</event>
<event>
 7    1  0.5667373E-006  0.1123142E+03  0.7818608E-02  0.1288645E+00
          2   -1    0    0  502    0  0.00000000000E+00  0.00000000000E+00  0.24341213065E+04  0.24341213065E+04  0.00000000000E+00 0. -1.
          1   -1    0    0  501    0 -0.00000000000E+00 -0.00000000000E+00 -0.79539013733E+02  0.79539013733E+02  0.00000000000E+00 0. -1.
         25    2    1    2    0    0 -0.77109918458E+02 -0.19921960436E+02  0.49845878076E+03  0.52002798269E+03  0.12500049054E+03 0.  0.
          2    1    1    2  501    0  0.10220132722E+03 -0.58441497502E+02 -0.16781509038E+02  0.11892072553E+03  0.00000000000E+00 0. -1.
          1    1    1    2  502    0 -0.25091408762E+02  0.78363457938E+02  0.18729050210E+04  0.18747116120E+04  0.00000000000E+00 0. -1.
         22    1    3    3    0    0  0.54737661738E+01  0.18656100456E+02  0.77579730853E+01  0.20933187687E+02  0.00000000000E+00 0. -1.
         22    1    3    3    0    0 -0.82583684632E+02 -0.38578060892E+02  0.49070080767E+03  0.49909479500E+03  0.00000000000E+00 0. -1.
</event>
<event>
 7    1  0.5667373E-006  0.2233492E+03  0.7818608E-02  0.1230008E+00
          2   -1    0    0  502    0  0.00000000000E+00  0.00000000000E+00  0.89172697910E+03  0.89172697910E+03  0.00000000000E+00 0. -1.
          1   -1    0    0  501    0 -0.00000000000E+00 -0.00000000000E+00 -0.27307734272E+03  0.27307734272E+03  0.00000000000E+00 0. -1.
         25    2    1    2    0    0 -0.82262004904E+02  0.20509387301E+03  0.34175109221E+03  0.42573305521E+03  0.12499716429E+03 0.  0.
          2    1    1    2  501    0  0.11290252353E+02 -0.22493873360E+03 -0.17248651510E+03  0.28368380560E+03  0.00000000000E+00 0. -1.
          1    1    1    2  502    0  0.70971752551E+02  0.19844860593E+02  0.44938505926E+03  0.45538746101E+03  0.00000000000E+00 0. -1.
         22    1    3    3    0    0 -0.19699164455E+02  0.61251353184E+01  0.11821970260E+03  0.12000613504E+03  0.00000000000E+00 0. -1.
         22    1    3    3    0    0 -0.62562840449E+02  0.19896873769E+03  0.22353138961E+03  0.30572692018E+03  0.00000000000E+00 0. -1.
</event>
<event>
 7    1  0.5667373E-006  0.7290378E+02  0.7818608E-02  0.1390863E+00
          2   -1    0    0  502    0  0.00000000000E+00  0.00000000000E+00  0.55190339641E+03  0.55190339641E+03  0.00000000000E+00 0. -1.
          1   -1    0    0  501    0 -0.00000000000E+00 -0.00000000000E+00 -0.20546222142E+03  0.20546222142E+03  0.00000000000E+00 0. -1.
         25    2    1    2    0    0 -0.10888459461E+02  0.40634749320E+02  0.68429123690E+02  0.14858420652E+03  0.12499992022E+03 0.  0.
          2    1    1    2  501    0 -0.33176527885E+02 -0.68628756150E+02 -0.15494915162E+03  0.17268418504E+03  0.00000000000E+00 0. -1.
          1    1    1    2  502    0  0.44064987346E+02  0.27994006830E+02  0.43296120292E+03  0.43609722628E+03  0.00000000000E+00 0. -1.
         22    1    3    3    0    0 -0.41062208370E+02  0.59132916745E+02  0.50637430032E+00  0.71993494247E+02  0.00000000000E+00 0. -1.
         22    1    3    3    0    0  0.30173748908E+02 -0.18498167425E+02  0.67922749390E+02  0.76590712269E+02  0.00000000000E+00 0. -1.
</event>
<event>
 7    1  0.5667373E-006  0.1025097E+03  0.7818608E-02  0.1354265E+00
          2   -1    0    0  502    0  0.00000000000E+00  0.00000000000E+00  0.58728619009E+03  0.58728619009E+03  0.00000000000E+00 0. -1.
          1   -1    0    0  501    0 -0.00000000000E+00 -0.00000000000E+00 -0.32979812995E+04  0.32979812995E+04  0.00000000000E+00 0. -1.
         25    2    1    2    0    0  0.49398481349E+02  0.11445991481E+03 -0.87192408106E+03  0.88961685263E+03  0.12500103716E+03 0.  0.
          2    1    1    2  501    0 -0.72673667427E+02 -0.69970218898E+02 -0.24150661854E+04  0.24171723094E+04  0.00000000000E+00 0. -1.
          1    1    1    2  502    0  0.23275186078E+02 -0.44489695907E+02  0.57629515709E+03  0.57847832752E+03  0.00000000000E+00 0. -1.
         22    1    3    3    0    0 -0.16568879818E+02  0.80041633681E+01 -0.15427650278E+02  0.24012638396E+02  0.00000000000E+00 0. -1.
         22    1    3    3    0    0  0.65967361167E+02  0.10645575144E+03 -0.85649643078E+03  0.86560421423E+03  0.00000000000E+00 0. -1.
</event>
<event>
 7    1  0.5667373E-006  0.9092148E+02  0.7818608E-02  0.1343144E+00
          2   -1    0    0  502    0  0.00000000000E+00  0.00000000000E+00  0.93921876201E+03  0.93921876201E+03  0.00000000000E+00 0. -1.
          1   -1    0    0  501    0 -0.00000000000E+00 -0.00000000000E+00 -0.66431387379E+03  0.66431387379E+03  0.00000000000E+00 0. -1.
         25    2    1    2    0    0 -0.57909433373E+02  0.18055122577E+02  0.28629334489E+03  0.31822700370E+03  0.12500022653E+03 0.  0.
          2    1    1    2  501    0  0.82642272645E+02  0.39076427103E+02 -0.64358817500E+03  0.65004803775E+03  0.00000000000E+00 0. -1.
          1    1    1    2  502    0 -0.24732839272E+02 -0.57131549680E+02  0.63219971833E+03  0.63525759434E+03  0.00000000000E+00 0. -1.
         22    1    3    3    0    0  0.31846126023E+02  0.28177801506E+02  0.13981754254E+03  0.14614071795E+03  0.00000000000E+00 0.  1.
         22    1    3    3    0    0 -0.89755559396E+02 -0.10122678929E+02  0.14647580234E+03  0.17208628575E+03  0.00000000000E+00 0.  1.
</event>
<event>
 7    1  0.5667373E-006  0.4241280E+02  0.7818608E-02  0.1541990E+00
          2   -1    0    0  502    0  0.00000000000E+00  0.00000000000E+00  0.15562347916E+04  0.15562347916E+04  0.00000000000E+00 0. -1.
          1   -1    0    0  501    0 -0.00000000000E+00 -0.00000000000E+00 -0.43616959788E+03  0.43616959788E+03  0.00000000000E+00 0. -1.
         25    2    1    2    0    0  0.13975285521E+02  0.60944704363E+02 -0.86317658679E+02  0.16427065047E+03  0.12499817123E+03 0.  0.
          2    1    1    2  501    0 -0.25613001515E+02 -0.33138226375E+02 -0.30931423892E+03  0.31213693517E+03  0.00000000000E+00 0. -1.
          1    1    1    2  502    0  0.11637715995E+02 -0.27806477988E+02  0.15156970914E+04  0.15159968039E+04  0.00000000000E+00 0. -1.
         22    1    3    3    0    0 -0.11893796256E+02  0.44276964403E+02  0.22582003152E+02  0.51106348260E+02  0.00000000000E+00 0. -1.
         22    1    3    3    0    0  0.25869081777E+02  0.16667739959E+02 -0.10889966183E+03  0.11316430221E+03  0.00000000000E+00 0. -1.
</event>
<event>
 7    1  0.5667373E-006  0.2122122E+03  0.7818608E-02  0.1205322E+00
          2   -1    0    0  502    0  0.00000000000E+00  0.00000000000E+00  0.18843437757E+04  0.18843437757E+04  0.00000000000E+00 0. -1.
          1   -1    0    0  501    0 -0.00000000000E+00 -0.00000000000E+00 -0.30952310251E+03  0.30952310251E+03  0.00000000000E+00 0. -1.
         25    2    1    2    0    0  0.15938184740E+02  0.12374674472E+03  0.54435447207E+03  0.57228892899E+03  0.12500217768E+03 0.  0.
          2    1    1    2  501    0  0.19432538899E+02 -0.21793764325E+03 -0.25281995508E+03  0.33435365947E+03  0.00000000000E+00 0. -1.
          1    1    1    2  502    0 -0.35370723639E+02  0.94190898530E+02  0.12832861562E+04  0.12872242897E+04  0.00000000000E+00 0. -1.
         22    1    3    3    0    0  0.45096797758E+02  0.62551872829E+02  0.12059483985E+03  0.14314179459E+03  0.00000000000E+00 0. -1.
         22    1    3    3    0    0 -0.29158613018E+02  0.61194871888E+02  0.42375963223E+03  0.42914713440E+03  0.00000000000E+00 0. -1.
</event>
<event>
 7    1  0.5667373E-006  0.4118841E+02  0.7818608E-02  0.1511833E+00
          2   -1    0    0  502    0  0.00000000000E+00  0.00000000000E+00  0.10025784984E+03  0.10025784984E+03  0.00000000000E+00 0. -1.
          1   -1    0    0  501    0 -0.00000000000E+00 -0.00000000000E+00 -0.83971198052E+03  0.83971198052E+03  0.00000000000E+00 0. -1.
         25    2    1    2    0    0 -0.47205698712E+02  0.48816423810E+02 -0.37842022348E+03  0.40427816698E+03  0.12501019773E+03 0.  0.
          2    1    1    2  501    0  0.36769235788E+02 -0.92053916805E+01 -0.44270442741E+03  0.44432412267E+03  0.00000000000E+00 0. -1.
          1    1    1    2  502    0  0.10436462924E+02 -0.39611032130E+02  0.81670520207E+02  0.91367540711E+02  0.00000000000E+00 0. -1.
         22    1    3    3    0    0 -0.77123277708E+01  0.82224860889E+02 -0.16291878847E+03  0.18265524735E+03  0.00000000000E+00 0.  1.
         22    1    3    3    0    0 -0.39493370941E+02 -0.33408437078E+02 -0.21550143501E+03  0.22162291963E+03  0.00000000000E+00 0.  1.
</event>
<event>
 7    1  0.5667373E-006  0.1144586E+03  0.7818608E-02  0.1280956E+00
          2   -1    0    0  502    0  0.00000000000E+00  0.00000000000E+00  0.12508780562E+04  0.12508780562E+04  0.00000000000E+00 0. -1.
          1   -1    0    0  501    0 -0.00000000000E+00 -0.00000000000E+00 -0.12602627555E+03  0.12602627555E+03  0.00000000000E+00 0. -1.
         25    2    1    2    0    0  0.92414694476E+02 -0.15038625763E+03  0.64775531684E+03  0.68291157720E+03  0.12499907814E+03 0.  0.
          2    1    1    2  501    0 -0.68870713953E+02  0.52866035923E+02 -0.85896108200E+02  0.12213162735E+03  0.00000000000E+00 0. -1.
          1    1    1    2  502    0 -0.23543980523E+02  0.97520221708E+02  0.56299257205E+03  0.57186112723E+03  0.00000000000E+00 0. -1.
         22    1    3    3    0    0  0.11462898521E+03 -0.12152600320E+03  0.60018192713E+03  0.62299816963E+03  0.00000000000E+00 0. -1.
         22    1    3    3    0    0 -0.22214290731E+02 -0.28860254428E+02  0.47573389711E+02  0.59913407572E+02  0.00000000000E+00 0. -1.
</event>
<event>
 7    1  0.5667373E-006  0.1056082E+03  0.7818608E-02  0.1297010E+00
          2   -1    0    0  502    0  0.00000000000E+00  0.00000000000E+00  0.32035467935E+04  0.32035467935E+04  0.00000000000E+00 0. -1.
          1   -1    0    0  501    0 -0.00000000000E+00 -0.00000000000E+00 -0.99303677256E+03  0.99303677256E+03  0.00000000000E+00 0. -1.
         25    2    1    2    0    0  0.11070310490E+03  0.12060047514E+03  0.44495939384E+03  0.49031864597E+03  0.12499544143E+03 0.  0.
          2    1    1    2  501    0 -0.77813741595E+02 -0.22287078984E+02 -0.96768481577E+03  0.97106415594E+03  0.00000000000E+00 0. -1.
          1    1    1    2  502    0 -0.32889363307E+02 -0.98313396160E+02  0.27332354429E+04  0.27352007641E+04  0.00000000000E+00 0. -1.
         22    1    3    3    0    0  0.24590419697E+02  0.19489563796E+02  0.63115839181E+01  0.32005748381E+02  0.00000000000E+00 0. -1.
         22    1    3    3    0    0  0.86112685205E+02  0.10111091135E+03  0.43864780992E+03  0.45831289759E+03  0.00000000000E+00 0. -1.
</event>
<event>
 7    1  0.5667373E-006  0.6516676E+02  0.7818608E-02  0.1406404E+00
          2   -1    0    0  502    0  0.00000000000E+00  0.00000000000E+00  0.68784242610E+03  0.68784242610E+03  0.00000000000E+00 0. -1.
          1   -1    0    0  501    0 -0.00000000000E+00 -0.00000000000E+00 -0.11667976214E+03  0.11667976214E+03  0.00000000000E+00 0. -1.
         25    2    1    2    0    0  0.93178047365E+02  0.52749923682E+02  0.68954639833E+02  0.17845129085E+03  0.12500167155E+03 0.  0.
          2    1    1    2  501    0 -0.51450348044E+02 -0.42852269052E+01 -0.48991589580E+02  0.71173571872E+02  0.00000000000E+00 0. -1.
          1    1    1    2  502    0 -0.41727699321E+02 -0.48464696777E+02  0.55119961370E+03  0.55489732552E+03  0.00000000000E+00 0. -1.
         22    1    3    3    0    0  0.97384730415E+02  0.35774424498E+02 -0.36083479021E+01  0.10381047799E+03  0.00000000000E+00 0.  1.
         22    1    3    3    0    0 -0.42066830502E+01  0.16975499184E+02  0.72562987735E+02  0.74640812857E+02  0.00000000000E+00 0.  1.
</event>
<event>
 7    1  0.5667373E-006  0.5270805E+02  0.7818608E-02  0.1446255E+00
          2   -1    0    0  502    0  0.00000000000E+00  0.00000000000E+00  0.32239285388E+03  0.32239285388E+03  0.00000000000E+00 0. -1.
          1   -1    0    0  501    0 -0.00000000000E+00 -0.00000000000E+00 -0.28116385030E+03  0.28116385030E+03  0.00000000000E+00 0. -1.
         25    2    1    2    0    0 -0.97267746964E+00  0.20667261666E+02 -0.48228593120E+02  0.13554550306E+03  0.12497401490E+03 0.  0.
          2    1    1    2  501    0 -0.46934133790E+02  0.40790395690E+01 -0.18366808321E+03  0.18961386096E+03  0.00000000000E+00 0. -1.
          1    1    1    2  502    0  0.47906811260E+02 -0.24746301235E+02  0.27312567990E+03  0.27839734016E+03  0.00000000000E+00 0. -1.
         22    1    3    3    0    0 -0.11631421700E+02 -0.40171210892E+02 -0.59533093733E+02  0.72754418455E+02  0.00000000000E+00 0.  1.
         22    1    3    3    0    0  0.10658744231E+02  0.60838472558E+02  0.11304500613E+02  0.62791084605E+02  0.00000000000E+00 0.  1.
</event>
<event>
 7    1  0.5667373E-006  0.1302636E+03  0.7818608E-02  0.1287341E+00
          2   -1    0    0  502    0  0.00000000000E+00  0.00000000000E+00  0.11586677037E+04  0.11586677037E+04  0.00000000000E+00 0. -1.
          1   -1    0    0  501    0 -0.00000000000E+00 -0.00000000000E+00 -0.30610664232E+03  0.30610664232E+03  0.00000000000E+00 0. -1.
         25    2    1    2    0    0 -0.62586407497E+02  0.94990264406E+02  0.65473077535E+03  0.67619385774E+03  0.12500214526E+03 0.  0.
          2    1    1    2  501    0  0.12021324074E+03 -0.52128342571E+02 -0.27801549183E+03  0.30734541000E+03  0.00000000000E+00 0. -1.
          1    1    1    2  502    0 -0.57626833240E+02 -0.42861921835E+02  0.47584577783E+03  0.48123507824E+03  0.00000000000E+00 0. -1.
         22    1    3    3    0    0 -0.90186564960E+02  0.24947797771E+02  0.37720697863E+03  0.38864008264E+03  0.00000000000E+00 0.  1.
         22    1    3    3    0    0  0.27600157463E+02  0.70042466635E+02  0.27752379673E+03  0.28755377510E+03  0.00000000000E+00 0.  1.
</event>
<event>
 7    1  0.5667373E-006  0.2473534E+03  0.7818608E-02  0.1210743E+00
          2   -1    0    0  502    0  0.00000000000E+00  0.00000000000E+00  0.12505684881E+04  0.12505684881E+04  0.00000000000E+00 0. -1.
          1   -1    0    0  501    0 -0.00000000000E+00 -0.00000000000E+00 -0.13049017250E+03  0.13049017250E+03  0.00000000000E+00 0. -1.
         25    2    1    2    0    0  0.10862327137E+03  0.19255795831E+03  0.35157618883E+03  0.43371447000E+03  0.12499937015E+03 0.  0.
          2    1    1    2  501    0 -0.59210589859E+02 -0.25730628962E+03  0.11365986545E+03  0.28745605863E+03  0.00000000000E+00 0. -1.
          1    1    1    2  502    0 -0.49412681515E+02  0.64748331312E+02  0.65484226136E+03  0.65988813201E+03  0.00000000000E+00 0. -1.
         22    1    3    3    0    0  0.12636697187E+03  0.10433522059E+03  0.22078193522E+03  0.27495292826E+03  0.00000000000E+00 0.  1.
         22    1    3    3    0    0 -0.17743700500E+02  0.88222737717E+02  0.13079425361E+03  0.15876154174E+03  0.00000000000E+00 0.  1.
</event>
<event>
 7    1  0.5667373E-006  0.7505768E+02  0.7818608E-02  0.1346991E+00
          2   -1    0    0  502    0  0.00000000000E+00  0.00000000000E+00  0.12275605688E+04  0.12275605688E+04  0.00000000000E+00 0. -1.
          1   -1    0    0  501    0 -0.00000000000E+00 -0.00000000000E+00 -0.15162701401E+04  0.15162701401E+04  0.00000000000E+00 0. -1.
         25    2    1    2    0    0 -0.23558793962E+02 -0.12975285109E+02  0.14316665920E+03  0.19194902587E+03  0.12499744569E+03 0.  0.
          2    1    1    2  501    0 -0.38188557141E+02  0.62167825348E+02 -0.14895148479E+04  0.14913006694E+04  0.00000000000E+00 0. -1.
          1    1    1    2  502    0  0.61747351103E+02 -0.49192540239E+02  0.10576386174E+04  0.10605810136E+04  0.00000000000E+00 0. -1.
         22    1    3    3    0    0 -0.14951762904E+02 -0.63158146052E+02  0.38265265577E+02  0.75344125029E+02  0.00000000000E+00 0.  1.
         22    1    3    3    0    0 -0.86070310584E+01  0.50182860943E+02  0.10490139362E+03  0.11660490084E+03  0.00000000000E+00 0.  1.
</event>
<event>
 7    1  0.5667373E-006  0.1151389E+03  0.7818608E-02  0.1283832E+00
          2   -1    0    0  502    0  0.00000000000E+00  0.00000000000E+00  0.59512983441E+03  0.59512983441E+03  0.00000000000E+00 0. -1.
          1   -1    0    0  501    0 -0.00000000000E+00 -0.00000000000E+00 -0.10667995427E+04  0.10667995427E+04  0.00000000000E+00 0. -1.
         25    2    1    2    0    0  0.45532884206E+02  0.35749832517E+02 -0.13638275909E+03  0.19385341619E+03  0.12501038325E+03 0.  0.
          2    1    1    2  501    0 -0.12498005063E+03 -0.85104534411E+01 -0.89417771060E+03  0.90290986206E+03  0.00000000000E+00 0. -1.
          1    1    1    2  502    0  0.79447166426E+02 -0.27239379076E+02  0.55889076144E+03  0.56516609881E+03  0.00000000000E+00 0. -1.
         22    1    3    3    0    0  0.83263577968E+02  0.24600791914E+02 -0.12625653923E+03  0.15322772620E+03  0.00000000000E+00 0. -1.
         22    1    3    3    0    0 -0.37730693762E+02  0.11149040603E+02 -0.10126219861E+02  0.40625689985E+02  0.00000000000E+00 0. -1.
</event>
<event>
 7    1  0.5667373E-006  0.1243590E+03  0.7818608E-02  0.1400037E+00
          2   -1    0    0  502    0  0.00000000000E+00  0.00000000000E+00  0.77799339239E+03  0.77799339239E+03  0.00000000000E+00 0. -1.
          1   -1    0    0  501    0 -0.00000000000E+00 -0.00000000000E+00 -0.17637481019E+04  0.17637481019E+04  0.00000000000E+00 0. -1.
         25    2    1    2    0    0 -0.13142424255E+02  0.99326173822E+02 -0.40819401995E+03  0.43850547662E+03  0.12500513181E+03 0.  0.
          2    1    1    2  501    0 -0.19082477558E+02  0.21096581231E+02 -0.13351529854E+04  0.13354559899E+04  0.00000000000E+00 0. -1.
          1    1    1    2  502    0  0.32224901813E+02 -0.12042275505E+03  0.75759229585E+03  0.76778002772E+03  0.00000000000E+00 0. -1.
         22    1    3    3    0    0  0.21064538280E+02 -0.22792570870E+02 -0.11383095516E+03  0.11798602634E+03  0.00000000000E+00 0. -1.
         22    1    3    3    0    0 -0.34206962534E+02  0.12211874469E+03 -0.29436306479E+03  0.32051945027E+03  0.00000000000E+00 0. -1.
</event>
<event>
 7    1  0.5667373E-006  0.5328538E+02  0.7818608E-02  0.1483481E+00
          2   -1    0    0  502    0  0.00000000000E+00  0.00000000000E+00  0.25261521709E+04  0.25261521709E+04  0.00000000000E+00 0. -1.
          1   -1    0    0  501    0 -0.00000000000E+00 -0.00000000000E+00 -0.13900135150E+02  0.13900135150E+02  0.00000000000E+00 0. -1.
         25    2    1    2    0    0  0.95882314176E+01 -0.76467965722E+02  0.16248626880E+04  0.16314849397E+04  0.12500027868E+03 0.  0.
          2    1    1    2  501    0  0.14733480554E+02  0.50439101656E+02  0.57423090269E+02  0.77836943165E+02  0.00000000000E+00 0. -1.
          1    1    1    2  502    0 -0.24321711972E+02  0.26028864066E+02  0.82996625750E+03  0.83073042320E+03  0.00000000000E+00 0. -1.
         22    1    3    3    0    0 -0.48595955538E+02 -0.88682497677E+01  0.34505006309E+03  0.34856815515E+03  0.00000000000E+00 0. -1.
         22    1    3    3    0    0  0.58184186956E+02 -0.67599715954E+02  0.12798126249E+04  0.12829167845E+04  0.00000000000E+00 0. -1.
</event>
<event>
 7    1  0.5667373E-006  0.2922650E+02  0.7818608E-02  0.1622754E+00
          2   -1    0    0  502    0  0.00000000000E+00  0.00000000000E+00  0.67584214384E+03  0.67584214384E+03  0.00000000000E+00 0. -1.
          1   -1    0    0  501    0 -0.00000000000E+00 -0.00000000000E+00 -0.12929822417E+03  0.12929822417E+03  0.00000000000E+00 0. -1.
         25    2    1    2    0    0 -0.24431339821E+02 -0.20315403854E+02  0.12456944259E+03  0.17931094040E+03  0.12500104528E+03 0.  0.
          2    1    1    2  501    0 -0.58677676639E+00  0.29349857564E+02 -0.99467769931E+02  0.10370918812E+03  0.00000000000E+00 0. -1.
          1    1    1    2  502    0  0.25018116587E+02 -0.90344537099E+01  0.52144224701E+03  0.52212023948E+03  0.00000000000E+00 0. -1.
         22    1    3    3    0    0  0.44942687547E+02 -0.34379033115E+02  0.41489618665E+02  0.70165173261E+02  0.00000000000E+00 0.  1.
         22    1    3    3    0    0 -0.69374027368E+02  0.14063629261E+02  0.83079823922E+02  0.10914576714E+03  0.00000000000E+00 0.  1.
</event>
<event>
 7    1  0.5667373E-006  0.4125636E+02  0.7818608E-02  0.1527940E+00
          2   -1    0    0  502    0  0.00000000000E+00  0.00000000000E+00  0.47402623893E+03  0.47402623893E+03  0.00000000000E+00 0. -1.
          1   -1    0    0  501    0 -0.00000000000E+00 -0.00000000000E+00 -0.78000193385E+02  0.78000193385E+02  0.00000000000E+00 0. -1.
         25    2    1    2    0    0  0.38623954578E+01  0.22213020949E+02  0.86655789205E+02  0.15375969532E+03  0.12499792680E+03 0.  0.
          2    1    1    2  501    0  0.33843942467E+02 -0.30053301369E+01 -0.36471374175E+02  0.49845818131E+02  0.00000000000E+00 0. -1.
          1    1    1    2  502    0 -0.37706337925E+02 -0.19207690812E+02  0.34584163051E+03  0.34842091886E+03  0.00000000000E+00 0. -1.
         22    1    3    3    0    0  0.64046484324E+02  0.55038328806E+01  0.38920536899E+02  0.75146873009E+02  0.00000000000E+00 0.  1.
         22    1    3    3    0    0 -0.60184088866E+02  0.16709188068E+02  0.47735252306E+02  0.78612822308E+02  0.00000000000E+00 0.  1.
</event>
<event>
 7    1  0.5667373E-006  0.1154647E+03  0.7818608E-02  0.1389815E+00
          2   -1    0    0  502    0  0.00000000000E+00  0.00000000000E+00  0.15136840925E+04  0.15136840925E+04  0.00000000000E+00 0. -1.
          1   -1    0    0  501    0 -0.00000000000E+00 -0.00000000000E+00 -0.17218459360E+03  0.17218459360E+03  0.00000000000E+00 0. -1.
         25    2    1    2    0    0 -0.12865648147E+03 -0.42142790918E+02  0.18321534584E+03  0.25983979416E+03  0.12498140112E+03 0.  0.
          2    1    1    2  501    0  0.11282633439E+03  0.12913315118E+02 -0.10953162705E+03  0.15777741525E+03  0.00000000000E+00 0. -1.
          1    1    1    2  502    0  0.15830147083E+02  0.29229475799E+02  0.12678157801E+04  0.12682514766E+04  0.00000000000E+00 0. -1.
         22    1    3    3    0    0 -0.68793578413E+02 -0.78335299100E+02  0.14930273788E+03  0.18209965144E+03  0.00000000000E+00 0. -1.
         22    1    3    3    0    0 -0.59862903060E+02  0.36192508182E+02  0.33912607961E+02  0.77740142719E+02  0.00000000000E+00 0. -1.
</event>
<event>
 7    1  0.5667373E-006  0.9740840E+02  0.7818608E-02  0.1294536E+00
          2   -1    0    0  502    0  0.00000000000E+00  0.00000000000E+00  0.29325881704E+04  0.29325881704E+04  0.00000000000E+00 0. -1.
          1   -1    0    0  501    0 -0.00000000000E+00 -0.00000000000E+00 -0.67466409988E+02  0.67466409988E+02  0.00000000000E+00 0. -1.
         25    2    1    2    0    0  0.36027542116E+02  0.85096267786E+02  0.48051930182E+03  0.50503671288E+03  0.12499569336E+03 0.  0.
          2    1    1    2  501    0 -0.89792329721E+02  0.47997947732E+00 -0.16916579921E+02  0.91373210151E+02  0.00000000000E+00 0. -1.
          1    1    1    2  502    0  0.53764787605E+02 -0.85576247264E+02  0.24015190385E+04  0.24036446574E+04  0.00000000000E+00 0. -1.
         22    1    3    3    0    0 -0.24300194184E+02 -0.18021197414E+02  0.16304350030E+03  0.16582655392E+03  0.00000000000E+00 0. -1.
         22    1    3    3    0    0  0.60327736300E+02  0.10311746520E+03  0.31747580151E+03  0.33921015896E+03  0.00000000000E+00 0. -1.
</event>
<event>
 7    1  0.5667373E-006  0.1140916E+03  0.7818608E-02  0.1331127E+00
          2   -1    0    0  502    0  0.00000000000E+00  0.00000000000E+00  0.32236785361E+03  0.32236785361E+03  0.00000000000E+00 0. -1.
          1   -1    0    0  501    0 -0.00000000000E+00 -0.00000000000E+00 -0.72493453786E+03  0.72493453786E+03  0.00000000000E+00 0. -1.
         25    2    1    2    0    0 -0.80787669481E+02 -0.48358427857E+02 -0.29080616002E+02  0.15917619688E+03  0.12500477727E+03 0.  0.
          2    1    1    2  501    0 -0.37294685547E+02  0.40533726249E+02 -0.61590554214E+03  0.61836357701E+03  0.00000000000E+00 0. -1.
          1    1    1    2  502    0  0.11808235503E+03  0.78247016082E+01  0.24241947389E+03  0.26976261758E+03  0.00000000000E+00 0. -1.
         22    1    3    3    0    0 -0.26243323014E+02 -0.82497105389E+02 -0.37380236132E+02  0.94296163515E+02  0.00000000000E+00 0. -1.
         22    1    3    3    0    0 -0.54544346467E+02  0.34138677532E+02  0.82996201299E+01  0.64880033365E+02  0.00000000000E+00 0. -1.
</event>
<event>
 7    1  0.5667373E-006  0.5976414E+02  0.7818608E-02  0.1512530E+00
          2   -1    0    0  502    0  0.00000000000E+00  0.00000000000E+00  0.16499892609E+03  0.16499892609E+03  0.00000000000E+00 0. -1.
          1   -1    0    0  501    0 -0.00000000000E+00 -0.00000000000E+00 -0.10389217532E+04  0.10389217532E+04  0.00000000000E+00 0. -1.
         25    2    1    2    0    0 -0.64255350686E+02 -0.41307023392E+02 -0.11244494742E+03  0.18467228510E+03  0.12499986564E+03 0.  0.
          2    1    1    2  501    0  0.57111401829E+02  0.16307791327E+02 -0.88804974460E+03  0.89003371013E+03  0.00000000000E+00 0. -1.
          1    1    1    2  502    0  0.71439488563E+01  0.24999232065E+02  0.12657186488E+03  0.12921468410E+03  0.00000000000E+00 0. -1.
         22    1    3    3    0    0 -0.14093840338E+02  0.11352507138E+02  0.23998044571E+02  0.30056977510E+02  0.00000000000E+00 0. -1.
         22    1    3    3    0    0 -0.50161510347E+02 -0.52659530530E+02 -0.13644299199E+03  0.15461530759E+03  0.00000000000E+00 0. -1.
</event>
<event>
 7    1  0.5667373E-006  0.6217034E+02  0.7818608E-02  0.1516450E+00
          2   -1    0    0  502    0  0.00000000000E+00  0.00000000000E+00  0.11041993381E+04  0.11041993381E+04  0.00000000000E+00 0. -1.
          1   -1    0    0  501    0 -0.00000000000E+00 -0.00000000000E+00 -0.37302439547E+03  0.37302439547E+03  0.00000000000E+00 0. -1.
         25    2    1    2    0    0 -0.38530924313E+02  0.22228493062E+02 -0.19601050781E+02  0.13411860709E+03  0.12499944617E+03 0.  0.
          2    1    1    2  501    0 -0.22515663264E+02 -0.92518646552E+01 -0.29473224598E+03  0.29573577550E+03  0.00000000000E+00 0. -1.
          1    1    1    2  502    0  0.61046587577E+02 -0.12976628407E+02  0.10455082393E+04  0.10473693509E+04  0.00000000000E+00 0. -1.
         22    1    3    3    0    0 -0.20420790489E+02  0.39589368338E+02 -0.67019177598E+02  0.80472957791E+02  0.00000000000E+00 0. -1.
         22    1    3    3    0    0 -0.18110133823E+02 -0.17360875276E+02  0.47418126817E+02  0.53645649295E+02  0.00000000000E+00 0. -1.
</event>
<event>
 7    1  0.5667373E-006  0.7109810E+02  0.7818608E-02  0.1424181E+00
          2   -1    0    0  502    0  0.00000000000E+00  0.00000000000E+00  0.13496331535E+03  0.13496331535E+03  0.00000000000E+00 0. -1.
          1   -1    0    0  501    0 -0.00000000000E+00 -0.00000000000E+00 -0.67863580013E+03  0.67863580013E+03  0.00000000000E+00 0. -1.
         25    2    1    2    0    0  0.63488651762E+02  0.14614395932E+01 -0.31185218966E+02  0.14363209157E+03  0.12499886055E+03 0.  0.
          2    1    1    2  501    0 -0.23875168179E+01  0.41166682541E+02 -0.57269541692E+03  0.57417805300E+03  0.00000000000E+00 0. -1.
          1    1    1    2  502    0 -0.61101134945E+02 -0.42628122134E+02  0.60208151100E+02  0.95788970906E+02  0.00000000000E+00 0. -1.
         22    1    3    3    0    0  0.42287661381E+02  0.53882589420E+02  0.15590042516E+02  0.70246915757E+02  0.00000000000E+00 0.  1.
         22    1    3    3    0    0  0.21200990381E+02 -0.52421149827E+02 -0.46775261482E+02  0.73385175813E+02  0.00000000000E+00 0.  1.
</event>
<event>
 7    1  0.5667373E-006  0.7533403E+02  0.7818608E-02  0.1404735E+00
          2   -1    0    0  502    0  0.00000000000E+00  0.00000000000E+00  0.14470361906E+04  0.14470361906E+04  0.00000000000E+00 0. -1.
          1   -1    0    0  501    0 -0.00000000000E+00 -0.00000000000E+00 -0.22308119432E+03  0.22308119432E+03  0.00000000000E+00 0. -1.
         25    2    1    2    0    0 -0.78274278242E+02  0.64554294012E+02  0.95507156513E+02  0.18721383433E+03  0.12503312885E+03 0.  0.
          2    1    1    2  501    0  0.33069887098E+02 -0.66584778479E+02 -0.16901938293E+03  0.18464750734E+03  0.00000000000E+00 0. -1.
          1    1    1    2  502    0  0.45204391144E+02  0.20304844664E+01  0.12974672227E+04  0.12982560433E+04  0.00000000000E+00 0. -1.
         22    1    3    3    0    0 -0.42280179426E+02  0.81526117010E+02  0.11138960996E+03  0.14436677781E+03  0.00000000000E+00 0.  1.
         22    1    3    3    0    0 -0.35994098816E+02 -0.16971822998E+02 -0.15882453449E+02  0.42847056527E+02  0.00000000000E+00 0.  1.
</event>
<event>
 7    1  0.5667373E-006  0.2612884E+03  0.7818608E-02  0.1118783E+00
          2   -1    0    0  502    0  0.00000000000E+00  0.00000000000E+00  0.11446422499E+04  0.11446422499E+04  0.00000000000E+00 0. -1.
          1   -1    0    0  501    0 -0.00000000000E+00 -0.00000000000E+00 -0.42446497418E+03  0.42446497418E+03  0.00000000000E+00 0. -1.
         25    2    1    2    0    0 -0.22922562332E+03 -0.10024555068E+03  0.28825381131E+02  0.28115715094E+03  0.12499953644E+03 0.  0.
          2    1    1    2  501    0  0.96585723786E+02  0.27982024310E+03 -0.20768486753E+03  0.36160914630E+03  0.00000000000E+00 0. -1.
          1    1    1    2  502    0  0.13263989953E+03 -0.17957469242E+03  0.89903676213E+03  0.92634092685E+03  0.00000000000E+00 0. -1.
         22    1    3    3    0    0 -0.17727596558E+03 -0.13001579862E+02  0.25419932767E+02  0.17956052471E+03  0.00000000000E+00 0.  1.
         22    1    3    3    0    0 -0.51949657736E+02 -0.87243970815E+02  0.34054483639E+01  0.10159662623E+03  0.00000000000E+00 0.  1.
</event>
<event>
 7    1  0.5667373E-006  0.4703605E+03  0.7818608E-02  0.1170217E+00
          2   -1    0    0  502    0  0.00000000000E+00  0.00000000000E+00  0.57076132802E+03  0.57076132802E+03  0.00000000000E+00 0. -1.
          1   -1    0    0  501    0 -0.00000000000E+00 -0.00000000000E+00 -0.12290210443E+04  0.12290210443E+04  0.00000000000E+00 0. -1.
         25    2    1    2    0    0 -0.93100435408E+01 -0.49049722569E+03  0.26791389744E+03  0.57278015151E+03  0.12500016082E+03 0.  0.
          2    1    1    2  501    0 -0.25180210500E+02  0.62093471508E+02 -0.76508799195E+03  0.76801645662E+03  0.00000000000E+00 0. -1.
          1    1    1    2  502    0  0.34490254041E+02  0.42840375418E+03 -0.16108562181E+03  0.45898576424E+03  0.00000000000E+00 0. -1.
         22    1    3    3    0    0 -0.69253192212E+00 -0.21978972978E+03  0.19110653726E+03  0.29125540939E+03  0.00000000000E+00 0.  1.
         22    1    3    3    0    0 -0.86175116186E+01 -0.27070749591E+03  0.76807360187E+02  0.28152474212E+03  0.00000000000E+00 0.  1.
</event>
<event>
 7    1  0.5667373E-006  0.2844853E+02  0.7818608E-02  0.1642741E+00
          2   -1    0    0  502    0  0.00000000000E+00  0.00000000000E+00  0.71177046053E+03  0.71177046053E+03  0.00000000000E+00 0. -1.
          1   -1    0    0  501    0 -0.00000000000E+00 -0.00000000000E+00 -0.84448569826E+02  0.84448569826E+02  0.00000000000E+00 0. -1.
         25    2    1    2    0    0 -0.14716048911E+02  0.44363680663E+01  0.34499050791E+02  0.13058035508E+03  0.12499920468E+03 0.  0.
          2    1    1    2  501    0  0.23721083619E+02  0.18187324284E+02 -0.29994529165E+02  0.42345487982E+02  0.00000000000E+00 0. -1.
          1    1    1    2  502    0 -0.90050347074E+01 -0.22623692350E+02  0.62281736907E+03  0.62329318729E+03  0.00000000000E+00 0. -1.
         22    1    3    3    0    0 -0.58367710084E+02  0.21366735676E+01 -0.19068832410E+02  0.61440827825E+02  0.00000000000E+00 0. -1.
         22    1    3    3    0    0  0.43651661173E+02  0.22996944987E+01  0.53567883202E+02  0.69139527252E+02  0.00000000000E+00 0. -1.
</event>
<event>
 7    1  0.5667373E-006  0.1120380E+03  0.7818608E-02  0.1280313E+00
          2   -1    0    0  502    0  0.00000000000E+00  0.00000000000E+00  0.17032195554E+04  0.17032195554E+04  0.00000000000E+00 0. -1.
          1   -1    0    0  501    0 -0.00000000000E+00 -0.00000000000E+00 -0.19084495609E+04  0.19084495609E+04  0.00000000000E+00 0. -1.
         25    2    1    2    0    0 -0.73455627401E+02  0.30819799780E+02 -0.17546081583E+02  0.14926109097E+03  0.12500167616E+03 0.  0.
          2    1    1    2  501    0  0.31096772681E+02 -0.10936726766E+03 -0.18220565555E+04  0.18256008052E+04  0.00000000000E+00 0. -1.
          1    1    1    2  502    0  0.42358854719E+02  0.78547467879E+02  0.16343726315E+04  0.16368072201E+04  0.00000000000E+00 0. -1.
         22    1    3    3    0    0 -0.46960673165E+02  0.77874854182E+02  0.42241761781E+01  0.91036483908E+02  0.00000000000E+00 0. -1.
         22    1    3    3    0    0 -0.26494954236E+02 -0.47055054401E+02 -0.21770257761E+02  0.58224607063E+02  0.00000000000E+00 0. -1.
</event>
<event>
 7    1  0.5667373E-006  0.7916428E+02  0.7818608E-02  0.1457012E+00
          2   -1    0    0  502    0  0.00000000000E+00  0.00000000000E+00  0.12890191324E+04  0.12890191324E+04  0.00000000000E+00 0. -1.
          1   -1    0    0  501    0 -0.00000000000E+00 -0.00000000000E+00 -0.96102264549E+02  0.96102264549E+02  0.00000000000E+00 0. -1.
         25    2    1    2    0    0 -0.48702895377E+02 -0.28016015265E+02  0.45916741502E+03  0.47918061253E+03  0.12498990070E+03 0.  0.
          2    1    1    2  501    0 -0.28379069577E+02 -0.58818060043E+01 -0.81424760548E+02  0.86428923760E+02  0.00000000000E+00 0. -1.
          1    1    1    2  502    0  0.77081964953E+02  0.33897821270E+02  0.81517421339E+03  0.81951186068E+03  0.00000000000E+00 0. -1.
         22    1    3    3    0    0 -0.82603717039E+02 -0.25483054190E+02  0.41240198373E+03  0.42136463580E+03  0.00000000000E+00 0.  1.
         22    1    3    3    0    0  0.33900821662E+02 -0.25329610753E+01  0.46765431296E+02  0.57815976732E+02  0.00000000000E+00 0.  1.
</event>
<event>
 7    1  0.5667373E-006  0.8487311E+02  0.7818608E-02  0.1479785E+00
          2   -1    0    0  502    0  0.00000000000E+00  0.00000000000E+00  0.95760198584E+03  0.95760198584E+03  0.00000000000E+00 0. -1.
          1   -1    0    0  501    0 -0.00000000000E+00 -0.00000000000E+00 -0.11900120677E+03  0.11900120677E+03  0.00000000000E+00 0. -1.
         25    2    1    2    0    0 -0.54744746436E+02  0.65153537134E+02  0.70326297124E+02  0.16677102459E+03  0.12499926365E+03 0.  0.
          2    1    1    2  501    0  0.19462028618E+02  0.12173152164E+02 -0.66701599858E+02  0.70541190911E+02  0.00000000000E+00 0. -1.
          1    1    1    2  502    0  0.35282717817E+02 -0.77326689298E+02  0.83497608181E+03  0.83929097710E+03  0.00000000000E+00 0. -1.
         22    1    3    3    0    0 -0.41278177419E+02 -0.11314763658E+02  0.77770174123E+02  0.88769993753E+02  0.00000000000E+00 0. -1.
         22    1    3    3    0    0 -0.13466569017E+02  0.76468300792E+02 -0.74438769995E+01  0.78001030839E+02  0.00000000000E+00 0. -1.
</event>
<event>
 7    1  0.5667373E-006  0.3969621E+02  0.7818608E-02  0.1536219E+00
          2   -1    0    0  502    0  0.00000000000E+00  0.00000000000E+00  0.54279234719E+03  0.54279234719E+03  0.00000000000E+00 0. -1.
          1   -1    0    0  501    0 -0.00000000000E+00 -0.00000000000E+00 -0.25840694982E+03  0.25840694982E+03  0.00000000000E+00 0. -1.
         25    2    1    2    0    0 -0.31535071173E+01 -0.64051977428E+02  0.38981136602E+02  0.14579831732E+03  0.12500007962E+03 0.  0.
          2    1    1    2  501    0 -0.15767852977E+02  0.29490073381E+02 -0.20276442470E+03  0.20550353169E+03  0.00000000000E+00 0. -1.
          1    1    1    2  502    0  0.18921360095E+02  0.34561904047E+02  0.44816868547E+03  0.44989744800E+03  0.00000000000E+00 0. -1.
         22    1    3    3    0    0  0.28809228546E+01  0.20933896262E+02  0.55166154946E+02  0.59074803264E+02  0.00000000000E+00 0.  1.
         22    1    3    3    0    0 -0.60344299719E+01 -0.84985873690E+02 -0.16185018344E+02  0.86723514059E+02  0.00000000000E+00 0.  1.
</event>
<event>
 7    1  0.5667373E-006  0.1381119E+03  0.7818608E-02  0.1395647E+00
          2   -1    0    0  502    0  0.00000000000E+00  0.00000000000E+00  0.35969504507E+04  0.35969504507E+04  0.00000000000E+00 0. -1.
          1   -1    0    0  501    0 -0.00000000000E+00 -0.00000000000E+00 -0.97078828638E+02  0.97078828638E+02  0.00000000000E+00 0. -1.
         25    2    1    2    0    0 -0.71377441317E+02 -0.98827028535E+02  0.16322992756E+04  0.16416113996E+04  0.12500216554E+03 0.  0.
          2    1    1    2  501    0  0.97893383604E+02  0.98221649633E+02 -0.40260613004E+02  0.14440056776E+03  0.00000000000E+00 0. -1.
          1    1    1    2  502    0 -0.26515942288E+02  0.60537890164E+00  0.19078329594E+04  0.19080173119E+04  0.00000000000E+00 0. -1.
         22    1    3    3    0    0 -0.34042003313E+02  0.24807203861E+02  0.55554684585E+03  0.55714141229E+03  0.00000000000E+00 0.  1.
         22    1    3    3    0    0 -0.37335438004E+02 -0.12363423240E+03  0.10767524298E+04  0.10844699873E+04  0.00000000000E+00 0.  1.
</event>
<event>
 7    1  0.5667373E-006  0.1310988E+03  0.7818608E-02  0.1379065E+00
          2   -1    0    0  502    0  0.00000000000E+00  0.00000000000E+00  0.23865738549E+04  0.23865738549E+04  0.00000000000E+00 0. -1.
          1   -1    0    0  501    0 -0.00000000000E+00 -0.00000000000E+00 -0.17113920203E+03  0.17113920203E+03  0.00000000000E+00 0. -1.
         25    2    1    2    0    0  0.15483850568E+03 -0.29991233661E+02  0.10060092117E+03  0.22499494888E+03  0.12501097849E+03 0.  0.
          2    1    1    2  501    0 -0.24911262429E+02  0.19991175883E+02 -0.10464810791E+03  0.10941409689E+03  0.00000000000E+00 0. -1.
          1    1    1    2  502    0 -0.12992724325E+03  0.10000057778E+02  0.22194818396E+04  0.22233040111E+04  0.00000000000E+00 0. -1.
         22    1    3    3    0    0  0.89926981659E+02 -0.78648580556E+02  0.68792621562E+02  0.13785820989E+03  0.00000000000E+00 0. -1.
         22    1    3    3    0    0  0.64911524020E+02  0.48657346894E+02  0.31808299611E+02  0.87136738989E+02  0.00000000000E+00 0. -1.
</event>
<event>
 7    1  0.5667373E-006  0.8566563E+02  0.7818608E-02  0.1439141E+00
          2   -1    0    0  502    0  0.00000000000E+00  0.00000000000E+00  0.26861659194E+03  0.26861659194E+03  0.00000000000E+00 0. -1.
          1   -1    0    0  501    0 -0.00000000000E+00 -0.00000000000E+00 -0.14347747464E+04  0.14347747464E+04  0.00000000000E+00 0. -1.
         25    2    1    2    0    0 -0.58915639328E+02 -0.86978322360E+02  0.14704422950E+03  0.21973448385E+03  0.12499982739E+03 0.  0.
          2    1    1    2  501    0  0.63944457342E+02  0.56832237617E+02 -0.13943358532E+04  0.13969578621E+04  0.00000000000E+00 0. -1.
          1    1    1    2  502    0 -0.50288180133E+01  0.30146084743E+02  0.81133469300E+02  0.86698992362E+02  0.00000000000E+00 0. -1.
         22    1    3    3    0    0 -0.90337649643E+02 -0.61287782322E+02  0.62102193522E+02  0.12559365289E+03  0.00000000000E+00 0.  1.
         22    1    3    3    0    0  0.31422010315E+02 -0.25690540038E+02  0.84942035977E+02  0.94140830969E+02  0.00000000000E+00 0.  1.
</event>
<event>
 7    1  0.5667373E-006  0.7616315E+02  0.7818608E-02  0.1343546E+00
          2   -1    0    0  502    0  0.00000000000E+00  0.00000000000E+00  0.30652644749E+03  0.30652644749E+03  0.00000000000E+00 0. -1.
          1   -1    0    0  501    0 -0.00000000000E+00 -0.00000000000E+00 -0.77410611097E+03  0.77410611097E+03  0.00000000000E+00 0. -1.
         25    2    1    2    0    0 -0.50098892272E+01 -0.14699850892E+03 -0.57219440670E+02  0.20132835462E+03  0.12500152546E+03 0.  0.
          2    1    1    2  501    0 -0.63221221826E+01  0.73808957918E+02 -0.63678254493E+03  0.64107701645E+03  0.00000000000E+00 0. -1.
          1    1    1    2  502    0  0.11332011410E+02  0.73189551005E+02  0.22642232211E+03  0.23822718739E+03  0.00000000000E+00 0. -1.
         22    1    3    3    0    0 -0.33379448792E+02 -0.61412946695E+02  0.29832149888E+02  0.75997992016E+02  0.00000000000E+00 0.  1.
         22    1    3    3    0    0  0.28369559565E+02 -0.85585562228E+02 -0.87051590558E+02  0.12533036260E+03  0.00000000000E+00 0.  1.
</event>
<event>
 7    1  0.5667373E-006  0.9369111E+02  0.7818608E-02  0.1403460E+00
          2   -1    0    0  502    0  0.00000000000E+00  0.00000000000E+00  0.92505017356E+03  0.92505017356E+03  0.00000000000E+00 0. -1.
          1   -1    0    0  501    0 -0.00000000000E+00 -0.00000000000E+00 -0.17459938059E+03  0.17459938059E+03  0.00000000000E+00 0. -1.
         25    2    1    2    0    0 -0.47026629171E+01  0.88467542426E+02  0.22599112485E+03  0.27302390450E+03  0.12498577046E+03 0.  0.
          2    1    1    2  501    0 -0.36657402472E+02 -0.26188053793E+01 -0.14542515392E+03  0.14999699560E+03  0.00000000000E+00 0. -1.
          1    1    1    2  502    0  0.41360065389E+02 -0.85848737047E+02  0.66988482205E+03  0.67662865404E+03  0.00000000000E+00 0. -1.
         22    1    3    3    0    0  0.56625960483E+02  0.21014441194E+02  0.11002851965E+03  0.12551645818E+03  0.00000000000E+00 0. -1.
         22    1    3    3    0    0 -0.61328623400E+02  0.67453101232E+02  0.11596260520E+03  0.14750744631E+03  0.00000000000E+00 0. -1.
</event>
<event>
 7    1  0.5667373E-006  0.9616373E+02  0.7818608E-02  0.1317610E+00
          2   -1    0    0  502    0  0.00000000000E+00  0.00000000000E+00  0.84433937584E+03  0.84433937584E+03  0.00000000000E+00 0. -1.
          1   -1    0    0  501    0 -0.00000000000E+00 -0.00000000000E+00 -0.10193744901E+04  0.10193744901E+04  0.00000000000E+00 0. -1.
         25    2    1    2    0    0  0.15095835842E+03  0.67775700463E+01  0.58242591385E+01  0.19619350087E+03  0.12499442530E+03 0.  0.
          2    1    1    2  501    0 -0.85769127931E+02 -0.41109003331E+02 -0.91990621739E+03  0.92481011145E+03  0.00000000000E+00 0. -1.
          1    1    1    2  502    0 -0.65189230489E+02  0.34331433284E+02  0.73904684403E+03  0.74271025357E+03  0.00000000000E+00 0. -1.
         22    1    3    3    0    0  0.35483516061E+02 -0.27476067357E+02  0.50652828269E+02  0.67673652192E+02  0.00000000000E+00 0.  1.
         22    1    3    3    0    0  0.11547484236E+03  0.34253637403E+02 -0.44828569130E+02  0.12851984868E+03  0.00000000000E+00 0.  1.
</event>
<event>
 7    1  0.5667373E-006  0.1328065E+03  0.7818608E-02  0.1268425E+00
          2   -1    0    0  502    0  0.00000000000E+00  0.00000000000E+00  0.50481556823E+03  0.50481556823E+03  0.00000000000E+00 0. -1.
          1   -1    0    0  501    0 -0.00000000000E+00 -0.00000000000E+00 -0.34312900520E+03  0.34312900520E+03  0.00000000000E+00 0. -1.
         25    2    1    2    0    0  0.15985503994E+03 -0.74615186290E+00 -0.37362868557E+02  0.20633651476E+03  0.12499833134E+03 0.  0.
          2    1    1    2  501    0 -0.11157286329E+03 -0.68465239898E+02 -0.19707783288E+03  0.23659176890E+03  0.00000000000E+00 0. -1.
          1    1    1    2  502    0 -0.48282176660E+02  0.69211391761E+02  0.39612726447E+03  0.40501628978E+03  0.00000000000E+00 0. -1.
         22    1    3    3    0    0  0.44231600649E+01 -0.35996285995E+02 -0.29523919370E+02  0.46764930935E+02  0.00000000000E+00 0.  1.
         22    1    3    3    0    0  0.15543187988E+03  0.35250134132E+02 -0.78389491874E+01  0.15957158382E+03  0.00000000000E+00 0.  1.
</event>
<event>
 7    1  0.5667373E-006  0.9956849E+02  0.7818608E-02  0.1417407E+00
          2   -1    0    0  502    0  0.00000000000E+00  0.00000000000E+00  0.14031349468E+04  0.14031349468E+04  0.00000000000E+00 0. -1.
          1   -1    0    0  501    0 -0.00000000000E+00 -0.00000000000E+00 -0.16940599218E+03  0.16940599218E+03  0.00000000000E+00 0. -1.
         25    2    1    2    0    0 -0.10903550497E+03 -0.25029905244E+02  0.67693389313E+03  0.69741029554E+03  0.12500554846E+03 0.  0.
          2    1    1    2  501    0  0.12564132824E+02  0.28359111110E+02 -0.15436443173E+03  0.15744991077E+03  0.00000000000E+00 0. -1.
          1    1    1    2  502    0  0.96471372143E+02 -0.33292058657E+01  0.71115949326E+03  0.71768073271E+03  0.00000000000E+00 0. -1.
         22    1    3    3    0    0  0.20627638982E+02  0.19893697571E+02  0.82258573046E+02  0.87107585965E+02  0.00000000000E+00 0. -1.
         22    1    3    3    0    0 -0.12966314395E+03 -0.44923602816E+02  0.59467532009E+03  0.61030270957E+03  0.00000000000E+00 0. -1.
</event>
<event>
 7    1  0.5667373E-006  0.1369090E+03  0.7818608E-02  0.1259836E+00
          2   -1    0    0  502    0  0.00000000000E+00  0.00000000000E+00  0.14284115413E+04  0.14284115413E+04  0.00000000000E+00 0. -1.
          1   -1    0    0  501    0 -0.00000000000E+00 -0.00000000000E+00 -0.38229782140E+03  0.38229782140E+03  0.00000000000E+00 0. -1.
         25    2    1    2    0    0 -0.22773543192E+02  0.12600435398E+03  0.10868782401E+03  0.20936492201E+03  0.12499958394E+03 0.  0.
          2    1    1    2  501    0 -0.66211480389E+02 -0.12351880594E+03 -0.31551776581E+03  0.34524240194E+03  0.00000000000E+00 0. -1.
          1    1    1    2  502    0  0.88985023580E+02 -0.24855480424E+01  0.12529436617E+04  0.12561020388E+04  0.00000000000E+00 0. -1.
         22    1    3    3    0    0 -0.44468036390E+02  0.42956947318E+02  0.10692350555E+03  0.12351251605E+03  0.00000000000E+00 0. -1.
         22    1    3    3    0    0  0.21694493198E+02  0.83047406662E+02  0.17643184673E+01  0.85852405954E+02  0.00000000000E+00 0. -1.
</event>
<event>
 7    1  0.5667373E-006  0.3615923E+02  0.7818608E-02  0.1597950E+00
          2   -1    0    0  502    0  0.00000000000E+00  0.00000000000E+00  0.21836403055E+03  0.21836403055E+03  0.00000000000E+00 0. -1.
          1   -1    0    0  501    0 -0.00000000000E+00 -0.00000000000E+00 -0.41609201933E+03  0.41609201933E+03  0.00000000000E+00 0. -1.
         25    2    1    2    0    0  0.12398766040E+02 -0.16860856687E+02  0.88752856252E+01  0.12705384774E+03  0.12500356652E+03 0.  0.
          2    1    1    2  501    0  0.23510906387E+02  0.82331394139E+01 -0.35429158824E+03  0.35516626642E+03  0.00000000000E+00 0. -1.
          1    1    1    2  502    0 -0.35909672426E+02  0.86277172731E+01  0.14768831384E+03  0.15223593572E+03  0.00000000000E+00 0. -1.
         22    1    3    3    0    0  0.49033902506E+02  0.30970183536E+02 -0.18503529311E+02  0.60875746075E+02  0.00000000000E+00 0.  1.
         22    1    3    3    0    0 -0.36635136466E+02 -0.47831040223E+02  0.27378814936E+02  0.66178101665E+02  0.00000000000E+00 0.  1.
</event>
<event>
 7    1  0.5667373E-006  0.3477612E+02  0.7818608E-02  0.1565328E+00
          2   -1    0    0  502    0  0.00000000000E+00  0.00000000000E+00  0.15848514808E+04  0.15848514808E+04  0.00000000000E+00 0. -1.
          1   -1    0    0  501    0 -0.00000000000E+00 -0.00000000000E+00 -0.20430870804E+02  0.20430870804E+02  0.00000000000E+00 0. -1.
         25    2    1    2    0    0  0.77214470115E+00  0.30182609234E+02  0.42849052373E+03  0.44737058464E+03  0.12499889987E+03 0.  0.
          2    1    1    2  501    0  0.29382482588E+02 -0.11812552851E+02  0.12688702540E+02  0.34115536930E+02  0.00000000000E+00 0. -1.
          1    1    1    2  502    0 -0.30154627289E+02 -0.18370056383E+02  0.11232413837E+04  0.11237962300E+04  0.00000000000E+00 0. -1.
         22    1    3    3    0    0 -0.24848943881E+02  0.66116130541E+02  0.35239395557E+03  0.35940271654E+03  0.00000000000E+00 0.  1.
         22    1    3    3    0    0  0.25621088582E+02 -0.35933521307E+02  0.76096568159E+02  0.87967868107E+02  0.00000000000E+00 0.  1.
</event>
<event>
 7    1  0.5667373E-006  0.4451377E+02  0.7818608E-02  0.1549003E+00
          2   -1    0    0  502    0  0.00000000000E+00  0.00000000000E+00  0.11453197171E+03  0.11453197171E+03  0.00000000000E+00 0. -1.
          1   -1    0    0  501    0 -0.00000000000E+00 -0.00000000000E+00 -0.23149625586E+03  0.23149625586E+03  0.00000000000E+00 0. -1.
         25    2    1    2    0    0  0.47724939652E+02  0.47609928068E+02  0.83083980395E+01  0.14225970932E+03  0.12499768119E+03 0.  0.
          2    1    1    2  501    0 -0.37709089543E+02 -0.22054061570E+02 -0.15633066308E+03  0.16231954067E+03  0.00000000000E+00 0. -1.
          1    1    1    2  502    0 -0.10015850109E+02 -0.25555866498E+02  0.31057980890E+02  0.41448977585E+02  0.00000000000E+00 0. -1.
         22    1    3    3    0    0  0.42950749626E+02  0.33349534709E+02 -0.54908884743E+02  0.77278353906E+02  0.00000000000E+00 0. -1.
         22    1    3    3    0    0  0.47741900269E+01  0.14260393358E+02  0.63217282782E+02  0.64981355415E+02  0.00000000000E+00 0. -1.
</event>
<event>
 7    1  0.5667373E-006  0.1028663E+03  0.7818608E-02  0.1409552E+00
          2   -1    0    0  502    0  0.00000000000E+00  0.00000000000E+00  0.73110048017E+03  0.73110048017E+03  0.00000000000E+00 0. -1.
          1   -1    0    0  501    0 -0.00000000000E+00 -0.00000000000E+00 -0.36591980110E+03  0.36591980110E+03  0.00000000000E+00 0. -1.
         25    2    1    2    0    0 -0.26008717628E+02  0.10790229792E+03 -0.13888632409E+03  0.21733173288E+03  0.12499724721E+03 0.  0.
          2    1    1    2  501    0 -0.51598309139E+01 -0.10105801495E+03 -0.17377824057E+03  0.20109257354E+03  0.00000000000E+00 0. -1.
          1    1    1    2  502    0  0.31168548542E+02 -0.68442829717E+01  0.67784524372E+03  0.67859597484E+03  0.00000000000E+00 0. -1.
         22    1    3    3    0    0  0.27415235394E+02  0.69862956260E+02 -0.13140112397E+03  0.15132310851E+03  0.00000000000E+00 0.  1.
         22    1    3    3    0    0 -0.53423953022E+02  0.38039341659E+02 -0.74852001134E+01  0.66008624369E+02  0.00000000000E+00 0.  1.
</event>
<event>
 7    1  0.5667373E-006  0.8325745E+02  0.7818608E-02  0.1373189E+00
          2   -1    0    0  502    0  0.00000000000E+00  0.00000000000E+00  0.12076981649E+04  0.12076981649E+04  0.00000000000E+00 0. -1.
          1   -1    0    0  501    0 -0.00000000000E+00 -0.00000000000E+00 -0.12805058975E+03  0.12805058975E+03  0.00000000000E+00 0. -1.
         25    2    1    2    0    0  0.51380907381E+02 -0.11343179105E+02  0.50834901790E+03  0.52613065309E+03  0.12500429902E+03 0.  0.
          2    1    1    2  501    0 -0.76932603896E+02 -0.34837495180E+02 -0.10303434582E+03  0.13322294484E+03  0.00000000000E+00 0. -1.
          1    1    1    2  502    0  0.25551696515E+02  0.46180674284E+02  0.67433290309E+03  0.67639515674E+03  0.00000000000E+00 0. -1.
         22    1    3    3    0    0 -0.30120167125E+02  0.12604384248E+02  0.29012123181E+03  0.29195277720E+03  0.00000000000E+00 0. -1.
         22    1    3    3    0    0  0.81501074507E+02 -0.23947563352E+02  0.21822778609E+03  0.23417787589E+03  0.00000000000E+00 0. -1.
</event>
<event>
 7    1  0.5667373E-006  0.4814734E+02  0.7818608E-02  0.1456613E+00
          2   -1    0    0  502    0  0.00000000000E+00  0.00000000000E+00  0.80459598496E+03  0.80459598496E+03  0.00000000000E+00 0. -1.
          1   -1    0    0  501    0 -0.00000000000E+00 -0.00000000000E+00 -0.10903203776E+03  0.10903203776E+03  0.00000000000E+00 0. -1.
         25    2    1    2    0    0 -0.54975466216E+02 -0.24305515023E+02 -0.40436207562E+00  0.13869998852E+03  0.12499785342E+03 0.  0.
          2    1    1    2  501    0  0.13275223681E+02  0.47654287137E+02 -0.22872266580E+02  0.54500488299E+02  0.00000000000E+00 0. -1.
          1    1    1    2  502    0  0.41700242535E+02 -0.23348772114E+02  0.71884057586E+03  0.72042754590E+03  0.00000000000E+00 0. -1.
         22    1    3    3    0    0  0.28316610864E+02 -0.32299006832E+02 -0.27197125970E+02  0.50840337865E+02  0.00000000000E+00 0. -1.
         22    1    3    3    0    0 -0.83292077080E+02  0.79934918095E+01  0.26792763894E+02  0.87859650652E+02  0.00000000000E+00 0. -1.
</event>
<event>
 7    1  0.5667373E-006  0.2974775E+02  0.7818608E-02  0.1655049E+00
          2   -1    0    0  502    0  0.00000000000E+00  0.00000000000E+00  0.37976429250E+03  0.37976429250E+03  0.00000000000E+00 0. -1.
          1   -1    0    0  501    0 -0.00000000000E+00 -0.00000000000E+00 -0.10985046119E+04  0.10985046119E+04  0.00000000000E+00 0. -1.
         25    2    1    2    0    0  0.13695286833E+01  0.41421981554E+02 -0.51721014917E+03  0.53371258153E+03  0.12500050049E+03 0.  0.
          2    1    1    2  501    0  0.13894439248E+02 -0.25968456019E+02 -0.57234680179E+03  0.57310407229E+03  0.00000000000E+00 0. -1.
          1    1    1    2  502    0 -0.15263967931E+02 -0.15453525535E+02  0.37081663159E+03  0.37145225055E+03  0.00000000000E+00 0. -1.
         22    1    3    3    0    0  0.46096302288E+02  0.38445531811E+02 -0.44275389037E+03  0.44680413543E+03  0.00000000000E+00 0.  1.
         22    1    3    3    0    0 -0.44726773605E+02  0.29764497424E+01 -0.74456258796E+02  0.86908446103E+02  0.00000000000E+00 0.  1.
</event>
<event>
 7    1  0.5667373E-006  0.1404428E+03  0.7818608E-02  0.1332694E+00
          2   -1    0    0  502    0  0.00000000000E+00  0.00000000000E+00  0.27717243080E+03  0.27717243080E+03  0.00000000000E+00 0. -1.
          1   -1    0    0  501    0 -0.00000000000E+00 -0.00000000000E+00 -0.61050084784E+03  0.61050084784E+03  0.00000000000E+00 0. -1.
         25    2    1    2    0    0 -0.79587563815E+02 -0.15933651400E+03 -0.83139627016E+02  0.23293661015E+03  0.12499984705E+03 0.  0.
          2    1    1    2  501    0  0.27001428080E+02  0.34911656818E+02 -0.42865046975E+03  0.43091661156E+03  0.00000000000E+00 0. -1.
          1    1    1    2  502    0  0.52586135735E+02  0.12442485718E+03  0.17846167973E+03  0.22382005694E+03  0.00000000000E+00 0. -1.
         22    1    3    3    0    0 -0.20254942976E+02 -0.10669561843E+03  0.11780624874E+02  0.10923827548E+03  0.00000000000E+00 0. -1.
         22    1    3    3    0    0 -0.59332620839E+02 -0.52640895568E+02 -0.94920251890E+02  0.12369833467E+03  0.00000000000E+00 0. -1.
</event>
<event>
 7    1  0.5667373E-006  0.6644525E+02  0.7818608E-02  0.1374176E+00
          2   -1    0    0  502    0  0.00000000000E+00  0.00000000000E+00  0.12509071659E+04  0.12509071659E+04  0.00000000000E+00 0. -1.
          1   -1    0    0  501    0 -0.00000000000E+00 -0.00000000000E+00 -0.60449550115E+03  0.60449550115E+03  0.00000000000E+00 0. -1.
         25    2    1    2    0    0  0.32218920223E+02  0.55746874810E+02  0.58093995120E+03  0.59771704151E+03  0.12501464692E+03 0.  0.
          2    1    1    2  501    0  0.33352106967E+02 -0.57593552696E+02 -0.59261361783E+03  0.59633906495E+03  0.00000000000E+00 0. -1.
          1    1    1    2  502    0 -0.65571027190E+02  0.18466778861E+01  0.65808533133E+03  0.66134656054E+03  0.00000000000E+00 0. -1.
         22    1    3    3    0    0 -0.48030785617E+01 -0.37729552281E+02  0.11772572160E+03  0.12371715404E+03  0.00000000000E+00 0.  1.
         22    1    3    3    0    0  0.37021998785E+02  0.93476427091E+02  0.46321422960E+03  0.47399988747E+03  0.00000000000E+00 0.  1.
</event>
<event>
 7    1  0.5667373E-006  0.2344686E+03  0.7818608E-02  0.1193102E+00
          2   -1    0    0  502    0  0.00000000000E+00  0.00000000000E+00  0.17443649151E+04  0.17443649151E+04  0.00000000000E+00 0. -1.
          1   -1    0    0  501    0 -0.00000000000E+00 -0.00000000000E+00 -0.44880262277E+03  0.44880262277E+03  0.00000000000E+00 0. -1.
         25    2    1    2    0    0  0.12594983648E+03 -0.30512310123E+03  0.11966898098E+04  0.12476597703E+04  0.12499973312E+03 0.  0.
          2    1    1    2  501    0 -0.61076279446E+02  0.22383049134E+03 -0.38558775536E+03  0.45000924195E+03  0.00000000000E+00 0. -1.
          1    1    1    2  502    0 -0.64873557036E+02  0.81292609890E+02  0.48446023792E+03  0.49549852568E+03  0.00000000000E+00 0. -1.
         22    1    3    3    0    0  0.34589362729E+02 -0.18442240087E+03  0.48462699203E+03  0.51968391101E+03  0.00000000000E+00 0. -1.
         22    1    3    3    0    0  0.91360473754E+02 -0.12070070036E+03  0.71206281776E+03  0.72797585926E+03  0.00000000000E+00 0. -1.
</event>
<event>
 7    1  0.5667373E-006  0.6161353E+02  0.7818608E-02  0.1496149E+00
          2   -1    0    0  502    0  0.00000000000E+00  0.00000000000E+00  0.22417335103E+04  0.22417335103E+04  0.00000000000E+00 0. -1.
          1   -1    0    0  501    0 -0.00000000000E+00 -0.00000000000E+00 -0.33882643805E+02  0.33882643805E+02  0.00000000000E+00 0. -1.
         25    2    1    2    0    0  0.53005365014E+00  0.35996714847E+02  0.15332293123E+03  0.20106966908E+03  0.12500018458E+03 0.  0.
          2    1    1    2  501    0 -0.13476651528E+02  0.24777556009E+02  0.11317394900E+02  0.30391295555E+02  0.00000000000E+00 0. -1.
          1    1    1    2  502    0  0.12946597877E+02 -0.60774270856E+02  0.20432105404E+04  0.20441551895E+04  0.00000000000E+00 0. -1.
         22    1    3    3    0    0 -0.97730999129E+01 -0.23571080383E+02 -0.96232188671E+01  0.27271150575E+02  0.00000000000E+00 0. -1.
         22    1    3    3    0    0  0.10303153563E+02  0.59567795230E+02  0.16294615010E+03  0.17379851851E+03  0.00000000000E+00 0. -1.
</event>
<event>
 7    1  0.5667373E-006  0.6573646E+02  0.7818608E-02  0.1512230E+00
          2   -1    0    0  502    0  0.00000000000E+00  0.00000000000E+00  0.87482993819E+03  0.87482993819E+03  0.00000000000E+00 0. -1.
          1   -1    0    0  501    0 -0.00000000000E+00 -0.00000000000E+00 -0.23667137734E+03  0.23667137734E+03  0.00000000000E+00 0. -1.
         25    2    1    2    0    0 -0.11235517525E+02  0.69220477255E+02  0.22019937847E+03  0.26273773812E+03  0.12500256568E+03 0.  0.
          2    1    1    2  501    0 -0.20569320213E+02 -0.11743893258E+02 -0.21304085381E+03  0.21435349625E+03  0.00000000000E+00 0. -1.
          1    1    1    2  502    0  0.31804837737E+02 -0.57476583996E+02  0.63100003618E+03  0.63441008116E+03  0.00000000000E+00 0. -1.
         22    1    3    3    0    0 -0.36605102271E+02  0.14140747916E+02  0.54835190548E+01  0.39622761705E+02  0.00000000000E+00 0.  1.
         22    1    3    3    0    0  0.25369584746E+02  0.55079729339E+02  0.21471585942E+03  0.22311497641E+03  0.00000000000E+00 0.  1.
</event>
<event>
 7    1  0.5667373E-006  0.1048922E+03  0.7818608E-02  0.1448257E+00
          2   -1    0    0  502    0  0.00000000000E+00  0.00000000000E+00  0.47522401251E+02  0.47522401251E+02  0.00000000000E+00 0. -1.
          1   -1    0    0  501    0 -0.00000000000E+00 -0.00000000000E+00 -0.28306941635E+04  0.28306941635E+04  0.00000000000E+00 0. -1.
         25    2    1    2    0    0  0.95966641496E+02  0.30804967640E+02 -0.41665899184E+03  0.44652768764E+03  0.12499487204E+03 0.  0.
          2    1    1    2  501    0 -0.90774532376E+02 -0.53544974498E+02 -0.23936135097E+04  0.23959325353E+04  0.00000000000E+00 0. -1.
          1    1    1    2  502    0 -0.51921091200E+01  0.22740006858E+02  0.27100739280E+02  0.35756341794E+02  0.00000000000E+00 0. -1.
         22    1    3    3    0    0  0.12177135416E+03  0.59592430325E+01 -0.35329017267E+03  0.37373482762E+03  0.00000000000E+00 0. -1.
         22    1    3    3    0    0 -0.25804712663E+02  0.24845724608E+02 -0.63368819171E+02  0.72792860021E+02  0.00000000000E+00 0. -1.
</event>
<event>
 7    1  0.5667373E-006  0.1308932E+03  0.7818608E-02  0.1347310E+00
          2   -1    0    0  502    0  0.00000000000E+00  0.00000000000E+00  0.48104338497E+03  0.48104338497E+03  0.00000000000E+00 0. -1.
          1   -1    0    0  501    0 -0.00000000000E+00 -0.00000000000E+00 -0.69616104034E+03  0.69616104034E+03  0.00000000000E+00 0. -1.
         25    2    1    2    0    0 -0.17112912521E+01  0.11200280528E+03  0.19165660186E+03  0.25476313127E+03  0.12499777241E+03 0.  0.
          2    1    1    2  501    0 -0.30618502371E+02  0.28343340601E+02 -0.64376756916E+03  0.64511822230E+03  0.00000000000E+00 0. -1.
          1    1    1    2  502    0  0.32329793623E+02 -0.14034614588E+03  0.23699331193E+03  0.27732307174E+03  0.00000000000E+00 0. -1.
         22    1    3    3    0    0  0.27638250033E+02  0.66118818608E+02  0.18680565428E+03  0.20007979286E+03  0.00000000000E+00 0.  1.
         22    1    3    3    0    0 -0.29349541285E+02  0.45883986676E+02  0.48509475731E+01  0.54683338406E+02  0.00000000000E+00 0.  1.
</event>
<event>
 7    1  0.5667373E-006  0.8163655E+02  0.7818608E-02  0.1363834E+00
          2   -1    0    0  502    0  0.00000000000E+00  0.00000000000E+00  0.42259222414E+03  0.42259222414E+03  0.00000000000E+00 0. -1.
          1   -1    0    0  501    0 -0.00000000000E+00 -0.00000000000E+00 -0.31041178773E+03  0.31041178773E+03  0.00000000000E+00 0. -1.
         25    2    1    2    0    0 -0.79245719412E+02  0.85271729448E+02  0.95090859981E+01  0.17107310779E+03  0.12499773439E+03 0.  0.
          2    1    1    2  501    0  0.57618798639E+02 -0.79894163975E+01 -0.22096478582E+03  0.22849331129E+03  0.00000000000E+00 0. -1.
          1    1    1    2  502    0  0.21626920773E+02 -0.77282313050E+02  0.32363613623E+03  0.33343759280E+03  0.00000000000E+00 0. -1.
         22    1    3    3    0    0  0.28991158219E+02  0.13642320382E+02 -0.20262839908E+02  0.37910194426E+02  0.00000000000E+00 0. -1.
         22    1    3    3    0    0 -0.10823687763E+03  0.71629409066E+02  0.29771925906E+02  0.13316291336E+03  0.00000000000E+00 0. -1.
</event>
<event>
 7    1  0.5667373E-006  0.6102817E+02  0.7818608E-02  0.1452684E+00
          2   -1    0    0  502    0  0.00000000000E+00  0.00000000000E+00  0.31309495229E+04  0.31309495229E+04  0.00000000000E+00 0. -1.
          1   -1    0    0  501    0 -0.00000000000E+00 -0.00000000000E+00 -0.21614194805E+03  0.21614194805E+03  0.00000000000E+00 0. -1.
         25    2    1    2    0    0 -0.63468087801E+02 -0.30240641466E+02  0.10648145600E+04  0.10744285764E+04  0.12499609581E+03 0.  0.
          2    1    1    2  501    0  0.31882446181E+02 -0.22120303874E+02 -0.20909591043E+03  0.21266616557E+03  0.00000000000E+00 0. -1.
          1    1    1    2  502    0  0.31585641621E+02  0.52360945340E+02  0.20590889253E+04  0.20599967290E+04  0.00000000000E+00 0. -1.
         22    1    3    3    0    0 -0.74945570190E+02  0.25329711133E+02  0.44108134113E+03  0.44811960708E+03  0.00000000000E+00 0. -1.
         22    1    3    3    0    0  0.11477482389E+02 -0.55570352600E+02  0.62373321885E+03  0.62630896927E+03  0.00000000000E+00 0. -1.
</event>
<event>
 7    1  0.5667373E-006  0.1366683E+03  0.7818608E-02  0.1327818E+00
          2   -1    0    0  502    0  0.00000000000E+00  0.00000000000E+00  0.60304249243E+03  0.60304249243E+03  0.00000000000E+00 0. -1.
          1   -1    0    0  501    0 -0.00000000000E+00 -0.00000000000E+00 -0.62731876534E+03  0.62731876534E+03  0.00000000000E+00 0. -1.
         25    2    1    2    0    0  0.10628235636E+03  0.50863105203E+02  0.11033231416E+03  0.20416171113E+03  0.12500315997E+03 0.  0.
          2    1    1    2  501    0 -0.30509193097E+01  0.47242352683E+02 -0.56802049140E+03  0.56998984785E+03  0.00000000000E+00 0. -1.
          1    1    1    2  502    0 -0.10323143705E+03 -0.98105457885E+02  0.43341190433E+03  0.45620969880E+03  0.00000000000E+00 0. -1.
         22    1    3    3    0    0  0.14943691694E+02 -0.36914943537E+02  0.64692818260E+01  0.40346977398E+02  0.00000000000E+00 0.  1.
         22    1    3    3    0    0  0.91338664663E+02  0.87778048740E+02  0.10386303234E+03  0.16381473374E+03  0.00000000000E+00 0.  1.
</event>
<event>
 7    1  0.5667373E-006  0.1257473E+03  0.7818608E-02  0.1443825E+00
          2   -1    0    0  502    0  0.00000000000E+00  0.00000000000E+00  0.51317082703E+03  0.51317082703E+03  0.00000000000E+00 0. -1.
          1   -1    0    0  501    0 -0.00000000000E+00 -0.00000000000E+00 -0.31638890269E+03  0.31638890269E+03  0.00000000000E+00 0. -1.
         25    2    1    2    0    0  0.12594247771E+03 -0.26577465872E+02 -0.15055754876E+03  0.23421919093E+03  0.12499273790E+03 0.  0.
          2    1    1    2  501    0 -0.12401304085E+03  0.65640347081E+01 -0.92620005167E+02  0.15492187131E+03  0.00000000000E+00 0. -1.
          1    1    1    2  502    0 -0.19294368608E+01  0.20013431164E+02  0.43995947826E+03  0.44041866748E+03  0.00000000000E+00 0. -1.
         22    1    3    3    0    0  0.71883930841E+02  0.38922459973E+02 -0.11738485877E+03  0.14304356844E+03  0.00000000000E+00 0. -1.
         22    1    3    3    0    0  0.54058546869E+02 -0.65499925845E+02 -0.33172689988E+02  0.91175622489E+02  0.00000000000E+00 0. -1.
</event>
<event>
 7    1  0.5667373E-006  0.1182534E+03  0.7818608E-02  0.1295250E+00
          2   -1    0    0  502    0  0.00000000000E+00  0.00000000000E+00  0.14628940017E+04  0.14628940017E+04  0.00000000000E+00 0. -1.
          1   -1    0    0  501    0 -0.00000000000E+00 -0.00000000000E+00 -0.27050966555E+03  0.27050966555E+03  0.00000000000E+00 0. -1.
         25    2    1    2    0    0  0.16221888411E+03 -0.29736820296E+02  0.25301454196E+03  0.32686913510E+03  0.12501131225E+03 0.  0.
          2    1    1    2  501    0 -0.65452192834E+02 -0.33388270915E+02 -0.22487319439E+03  0.23657286349E+03  0.00000000000E+00 0. -1.
          1    1    1    2  502    0 -0.96766691275E+02  0.63125091211E+02  0.11642429885E+04  0.11699616686E+04  0.00000000000E+00 0. -1.
         22    1    3    3    0    0  0.13202458696E+03 -0.73630198456E+02  0.20795158647E+03  0.25709095668E+03  0.00000000000E+00 0. -1.
         22    1    3    3    0    0  0.30194297145E+02  0.43893378160E+02  0.45062955488E+02  0.69778178420E+02  0.00000000000E+00 0. -1.
</event>
<event>
 7    1  0.5667373E-006  0.5863946E+02  0.7818608E-02  0.1469111E+00
          2   -1    0    0  502    0  0.00000000000E+00  0.00000000000E+00  0.24997875442E+03  0.24997875442E+03  0.00000000000E+00 0. -1.
          1   -1    0    0  501    0 -0.00000000000E+00 -0.00000000000E+00 -0.77630107262E+02  0.77630107262E+02  0.00000000000E+00 0. -1.
         25    2    1    2    0    0  0.36007653346E+02 -0.22447314700E+02  0.59417649964E+01  0.13213925791E+03  0.12500018349E+03 0.  0.
          2    1    1    2  501    0 -0.12040244151E+02 -0.33765588085E+02  0.32964978626E+02  0.48700844282E+02  0.00000000000E+00 0. -1.
          1    1    1    2  502    0 -0.23967409195E+02  0.56212902786E+02  0.13344190354E+03  0.14676875949E+03  0.00000000000E+00 0. -1.
         22    1    3    3    0    0 -0.27729619494E+02 -0.24446627926E+02  0.44319415354E+02  0.57712910094E+02  0.00000000000E+00 0. -1.
         22    1    3    3    0    0  0.63737272840E+02  0.19993132256E+01 -0.38377650357E+02  0.74426347817E+02  0.00000000000E+00 0. -1.
</event>
<event>
 7    1  0.5667373E-006  0.3509570E+02  0.7818608E-02  0.1559800E+00
          2   -1    0    0  502    0  0.00000000000E+00  0.00000000000E+00  0.28206530093E+04  0.28206530093E+04  0.00000000000E+00 0. -1.
          1   -1    0    0  501    0 -0.00000000000E+00 -0.00000000000E+00 -0.78372711338E+01  0.78372711338E+01  0.00000000000E+00 0. -1.
         25    2    1    2    0    0  0.42668025280E+02 -0.11962379375E+02  0.88761789492E+03  0.89747099868E+03  0.12500002878E+03 0.  0.
          2    1    1    2  501    0 -0.30466169667E+02 -0.18154703293E+02  0.11094884711E+03  0.11647930040E+03  0.00000000000E+00 0. -1.
          1    1    1    2  502    0 -0.12201855612E+02  0.30117082668E+02  0.18142489961E+04  0.18145399813E+04  0.00000000000E+00 0. -1.
         22    1    3    3    0    0  0.44298665841E+02  0.52092790192E+02  0.48055373256E+03  0.48539460284E+03  0.00000000000E+00 0. -1.
         22    1    3    3    0    0 -0.16306405611E+01 -0.64055169566E+02  0.40706416235E+03  0.41207639584E+03  0.00000000000E+00 0. -1.
</event>
<event>
 7    1  0.5667373E-006  0.2170841E+03  0.7818608E-02  0.1281406E+00
          2   -1    0    0  502    0  0.00000000000E+00  0.00000000000E+00  0.14082229840E+04  0.14082229840E+04  0.00000000000E+00 0. -1.
          1   -1    0    0  501    0 -0.00000000000E+00 -0.00000000000E+00 -0.53164062122E+03  0.53164062122E+03  0.00000000000E+00 0. -1.
         25    2    1    2    0    0  0.11180989158E+03 -0.17425193364E+03  0.12379437876E+03  0.27169209983E+03  0.12500544253E+03 0.  0.
          2    1    1    2  501    0 -0.33964473950E+02 -0.30399334818E+02 -0.44662080523E+03  0.44894080758E+03  0.00000000000E+00 0. -1.
          1    1    1    2  502    0 -0.77845417627E+02  0.20465126846E+03  0.11994087892E+04  0.12192306978E+04  0.00000000000E+00 0. -1.
         22    1    3    3    0    0  0.10707164263E+03 -0.54646386102E+02  0.44853401242E+02  0.12830585245E+03  0.00000000000E+00 0. -1.
         22    1    3    3    0    0  0.47382489473E+01 -0.11960554754E+03  0.78940977523E+02  0.14338624738E+03  0.00000000000E+00 0. -1.
</event>
<event>
 7    1  0.5667373E-006  0.1050405E+03  0.7818608E-02  0.1287300E+00
          2   -1    0    0  502    0  0.00000000000E+00  0.00000000000E+00  0.26942490478E+04  0.26942490478E+04  0.00000000000E+00 0. -1.
          1   -1    0    0  501    0 -0.00000000000E+00 -0.00000000000E+00 -0.12038406396E+03  0.12038406396E+03  0.00000000000E+00 0. -1.
         25    2    1    2    0    0 -0.85475097829E+02  0.14378244286E+03  0.90930222634E+03  0.93297069532E+03  0.12499758504E+03 0.  0.
          2    1    1    2  501    0  0.25938222584E+01 -0.89061114622E+02 -0.88621256183E+02  0.12566756582E+03  0.00000000000E+00 0. -1.
          1    1    1    2  502    0  0.82881275570E+02 -0.54721328240E+02  0.17531840136E+04  0.17559948506E+04  0.00000000000E+00 0. -1.
         22    1    3    3    0    0 -0.21386747448E+01  0.17475380309E+02  0.85061575177E+01  0.19552942549E+02  0.00000000000E+00 0. -1.
         22    1    3    3    0    0 -0.83336423084E+02  0.12630706255E+03  0.90079606883E+03  0.91341775277E+03  0.00000000000E+00 0. -1.
</event>
<event>
 7    1  0.5667373E-006  0.1817248E+03  0.7818608E-02  0.1303757E+00
          2   -1    0    0  502    0  0.00000000000E+00  0.00000000000E+00  0.16848197402E+04  0.16848197402E+04  0.00000000000E+00 0. -1.
          1   -1    0    0  501    0 -0.00000000000E+00 -0.00000000000E+00 -0.23443480409E+04  0.23443480409E+04  0.00000000000E+00 0. -1.
         25    2    1    2    0    0  0.72069227603E+01 -0.16256535181E+03 -0.73035324157E+03  0.75863077194E+03  0.12500142924E+03 0.  0.
          2    1    1    2  501    0 -0.45434589952E+02  0.18476199985E+03 -0.15939046385E+04  0.16052206375E+04  0.00000000000E+00 0. -1.
          1    1    1    2  502    0  0.38227667192E+02 -0.22196648047E+02  0.16647295793E+04  0.16653163717E+04  0.00000000000E+00 0. -1.
         22    1    3    3    0    0 -0.37929596568E+02 -0.74053647758E+02 -0.16695019652E+03  0.18653408579E+03  0.00000000000E+00 0. -1.
         22    1    3    3    0    0  0.45136519329E+02 -0.88511704047E+02 -0.56340304505E+03  0.57209668615E+03  0.00000000000E+00 0. -1.
</event>
<event>
 7    1  0.5667373E-006  0.8870458E+02  0.7818608E-02  0.1401796E+00
          2   -1    0    0  502    0  0.00000000000E+00  0.00000000000E+00  0.38640558429E+02  0.38640558429E+02  0.00000000000E+00 0. -1.
          1   -1    0    0  501    0 -0.00000000000E+00 -0.00000000000E+00 -0.13322785934E+04  0.13322785934E+04  0.00000000000E+00 0. -1.
         25    2    1    2    0    0 -0.63591162047E+02  0.41913212670E+02 -0.52884343403E+03  0.54872702130E+03  0.12500165162E+03 0.  0.
          2    1    1    2  501    0  0.15906797901E+02  0.35969569189E+02 -0.71892220600E+03  0.71999720444E+03  0.00000000000E+00 0. -1.
          1    1    1    2  502    0  0.47684364147E+02 -0.77882781859E+02 -0.45872394900E+02  0.10219492604E+03  0.00000000000E+00 0. -1.
         22    1    3    3    0    0 -0.33575180063E+02  0.44689280871E+02 -0.73268157789E+02  0.92155561345E+02  0.00000000000E+00 0.  1.
         22    1    3    3    0    0 -0.30015981985E+02 -0.27760682006E+01 -0.45557527624E+03  0.45657145996E+03  0.00000000000E+00 0.  1.
</event>
<event>
 7    1  0.6629578E-006  0.5641539E+02  0.7818608E-02  0.1425947E+00
          2   -1    0    0  502    0  0.00000000000E+00  0.00000000000E+00  0.33966784409E+04  0.33966784409E+04  0.00000000000E+00 0. -1.
          1   -1    0    0  501    0 -0.00000000000E+00 -0.00000000000E+00 -0.63721633179E+03  0.63721633179E+03  0.00000000000E+00 0. -1.
         25    2    1    2    0    0  0.15550837244E+02 -0.64984295920E+01 -0.38426526372E+03  0.40443621991E+03  0.12499921978E+03 0.  0.
          2    1    1    2  501    0 -0.12045295432E+02 -0.49837223718E+02 -0.23992152213E+03  0.24533889783E+03  0.00000000000E+00 0. -1.
          1    1    1    2  502    0 -0.35055418118E+01  0.56335653310E+02  0.33836488950E+04  0.33841196550E+04  0.00000000000E+00 0. -1.
         22    1    3    3    0    0  0.30922173019E+01 -0.53227159048E+02 -0.78651550776E+02  0.95019780612E+02  0.00000000000E+00 0.  1.
         22    1    3    3    0    0  0.12458619942E+02  0.46728729456E+02 -0.30561371295E+03  0.30941643930E+03  0.00000000000E+00 0.  1.
</event>
<event>
 7    1  0.5667373E-006  0.3889010E+02  0.7818608E-02  0.1557564E+00
          2   -1    0    0  502    0  0.00000000000E+00  0.00000000000E+00  0.86183483167E+03  0.86183483167E+03  0.00000000000E+00 0. -1.
          1   -1    0    0  501    0 -0.00000000000E+00 -0.00000000000E+00 -0.13239699359E+04  0.13239699359E+04  0.00000000000E+00 0. -1.
         25    2    1    2    0    0 -0.49445061027E+02  0.44786610173E+02 -0.39120106044E+03  0.41606859016E+03  0.12499659005E+03 0.  0.
          2    1    1    2  501    0  0.31831224377E+02 -0.20819114121E+02 -0.91968152132E+03  0.92046768711E+03  0.00000000000E+00 0. -1.
          1    1    1    2  502    0  0.17613836649E+02 -0.23967496052E+02  0.84874747749E+03  0.84926849033E+03  0.00000000000E+00 0. -1.
         22    1    3    3    0    0 -0.11647737434E+02  0.48122185124E+02 -0.42330137805E+02  0.65140272144E+02  0.00000000000E+00 0.  1.
         22    1    3    3    0    0 -0.37797323593E+02 -0.33355749519E+01 -0.34887092263E+03  0.35092831802E+03  0.00000000000E+00 0.  1.
</event>
<event>
 7    1  0.5667373E-006  0.1033938E+03  0.7818608E-02  0.1299250E+00
          2   -1    0    0  502    0  0.00000000000E+00  0.00000000000E+00  0.12918140863E+04  0.12918140863E+04  0.00000000000E+00 0. -1.
          1   -1    0    0  501    0 -0.00000000000E+00 -0.00000000000E+00 -0.31845545043E+03  0.31845545043E+03  0.00000000000E+00 0. -1.
         25    2    1    2    0    0  0.58672374505E+02 -0.14270537586E+03  0.14347453252E+03  0.24498421913E+03  0.12500021726E+03 0.  0.
          2    1    1    2  501    0 -0.78837112364E+02  0.64274594120E+02 -0.25647643207E+03  0.27591062673E+03  0.00000000000E+00 0. -1.
          1    1    1    2  502    0  0.20164737859E+02  0.78430781739E+02  0.10863605354E+04  0.10893746909E+04  0.00000000000E+00 0. -1.
         22    1    3    3    0    0  0.31410425088E+02 -0.13195282740E+03  0.16124724395E+03  0.21071031571E+03  0.00000000000E+00 0.  1.
         22    1    3    3    0    0  0.27261949417E+02 -0.10752548455E+02 -0.17772711434E+02  0.34273903425E+02  0.00000000000E+00 0.  1.
</event>
<event>
 7    1  0.5667373E-006  0.9161362E+02  0.7818608E-02  0.1404119E+00
          2   -1    0    0  502    0  0.00000000000E+00  0.00000000000E+00  0.19407631334E+04  0.19407631334E+04  0.00000000000E+00 0. -1.
          1   -1    0    0  501    0 -0.00000000000E+00 -0.00000000000E+00 -0.82392352398E+02  0.82392352398E+02  0.00000000000E+00 0. -1.
         25    2    1    2    0    0 -0.45953247487E+02 -0.73684362410E+02  0.20903256405E+03  0.25857351590E+03  0.12499825628E+03 0.  0.
          2    1    1    2  501    0 -0.30326162051E+02  0.21870744291E+02 -0.50172049906E+02  0.62571879885E+02  0.00000000000E+00 0. -1.
          1    1    1    2  502    0  0.76279409538E+02  0.51813618120E+02  0.16995102668E+04  0.17020100900E+04  0.00000000000E+00 0. -1.
         22    1    3    3    0    0 -0.54374823902E+02 -0.98246164260E+01  0.17931636229E+03  0.18763662315E+03  0.00000000000E+00 0.  1.
         22    1    3    3    0    0  0.84215764155E+01 -0.63859745984E+02  0.29716201765E+02  0.70936892756E+02  0.00000000000E+00 0.  1.
</event>
<event>
 7    1  0.5667373E-006  0.6849174E+02  0.7818608E-02  0.1428525E+00
          2   -1    0    0  502    0  0.00000000000E+00  0.00000000000E+00  0.68368951237E+02  0.68368951237E+02  0.00000000000E+00 0. -1.
          1   -1    0    0  501    0 -0.00000000000E+00 -0.00000000000E+00 -0.24504367900E+03  0.24504367900E+03  0.00000000000E+00 0. -1.
         25    2    1    2    0    0 -0.60572124639E+01 -0.44298554871E+02 -0.12520756200E+03  0.18248543070E+03  0.12499978819E+03 0.  0.
          2    1    1    2  501    0  0.28073560875E+02 -0.30443103865E+02 -0.26254354259E+02  0.49032627002E+02  0.00000000000E+00 0. -1.
          1    1    1    2  502    0 -0.22016348411E+02  0.74741658736E+02 -0.25212811502E+02  0.81894572542E+02  0.00000000000E+00 0. -1.
         22    1    3    3    0    0  0.16675553362E+01  0.37464486117E+02 -0.80898243310E+02  0.89167786960E+02  0.00000000000E+00 0.  1.
         22    1    3    3    0    0 -0.77247678001E+01 -0.81763040988E+02 -0.44309318694E+02  0.93317643735E+02  0.00000000000E+00 0.  1.
</event>
<event>
 7    1  0.5667373E-006  0.7628244E+02  0.7818608E-02  0.1403704E+00
          2   -1    0    0  502    0  0.00000000000E+00  0.00000000000E+00  0.85740117372E+02  0.85740117372E+02  0.00000000000E+00 0. -1.
          1   -1    0    0  501    0 -0.00000000000E+00 -0.00000000000E+00 -0.33308032738E+03  0.33308032738E+03  0.00000000000E+00 0. -1.
         25    2    1    2    0    0  0.42945498924E+02  0.24679072377E+02 -0.58876697176E+02  0.14678290456E+03  0.12500153243E+03 0.  0.
          2    1    1    2  501    0  0.44999157616E+02 -0.21671156699E+01 -0.17446072092E+03  0.18018369438E+03  0.00000000000E+00 0. -1.
          1    1    1    2  502    0 -0.87944656539E+02 -0.22511956707E+02 -0.14002791911E+02  0.91853845809E+02  0.00000000000E+00 0. -1.
         22    1    3    3    0    0 -0.16344140617E+02 -0.77762629701E+01  0.30052653829E+02  0.35082234827E+02  0.00000000000E+00 0. -1.
         22    1    3    3    0    0  0.59289639540E+02  0.32455335347E+02 -0.88929351005E+02  0.11170066974E+03  0.00000000000E+00 0. -1.
</event>
<event>
 7    1  0.5667373E-006  0.1486130E+03  0.7818608E-02  0.1350787E+00
          2   -1    0    0  502    0  0.00000000000E+00  0.00000000000E+00  0.75437523190E+03  0.75437523190E+03  0.00000000000E+00 0. -1.
          1   -1    0    0  501    0 -0.00000000000E+00 -0.00000000000E+00 -0.34486719508E+03  0.34486719508E+03  0.00000000000E+00 0. -1.
         25    2    1    2    0    0 -0.12794329141E+03  0.10294624729E+03  0.22279626513E+02  0.20757889528E+03  0.12500080143E+03 0.  0.
          2    1    1    2  501    0  0.93543653416E+02 -0.11239143338E+03 -0.23046536676E+03  0.27294053321E+03  0.00000000000E+00 0. -1.
          1    1    1    2  502    0  0.34399637994E+02  0.94451860899E+01  0.61769377707E+03  0.61872299849E+03  0.00000000000E+00 0. -1.
         22    1    3    3    0    0 -0.57997067913E+02  0.91370405120E+02 -0.37814542759E+02  0.11463921869E+03  0.00000000000E+00 0.  1.
         22    1    3    3    0    0 -0.69946223497E+02  0.11575842174E+02  0.60094169272E+02  0.92939676586E+02  0.00000000000E+00 0.  1.
</event>
<event>
 7    1  0.5667373E-006  0.9029777E+02  0.7818608E-02  0.1443837E+00
          2   -1    0    0  502    0  0.00000000000E+00  0.00000000000E+00  0.14336062973E+04  0.14336062973E+04  0.00000000000E+00 0. -1.
          1   -1    0    0  501    0 -0.00000000000E+00 -0.00000000000E+00 -0.14691707927E+04  0.14691707927E+04  0.00000000000E+00 0. -1.
         25    2    1    2    0    0  0.81453502947E+02 -0.53585912731E+02  0.15493678652E+02  0.15928198794E+03  0.12499829766E+03 0.  0.
          2    1    1    2  501    0 -0.86408273824E+02  0.26030774274E+02 -0.13956736473E+04  0.13985881885E+04  0.00000000000E+00 0. -1.
          1    1    1    2  502    0  0.49547708769E+01  0.27555138457E+02  0.13446154733E+04  0.13449069136E+04  0.00000000000E+00 0. -1.
         22    1    3    3    0    0  0.51966170996E+02  0.33666226347E+02  0.24826420224E+02  0.66710185621E+02  0.00000000000E+00 0.  1.
         22    1    3    3    0    0  0.29487331951E+02 -0.87252139078E+02 -0.93327415718E+01  0.92571802319E+02  0.00000000000E+00 0.  1.
</event>
<event>
 7    1  0.5667373E-006  0.4036849E+02  0.7818608E-02  0.1538172E+00
          2   -1    0    0  502    0  0.00000000000E+00  0.00000000000E+00  0.58225168680E+03  0.58225168680E+03  0.00000000000E+00 0. -1.
          1   -1    0    0  501    0 -0.00000000000E+00 -0.00000000000E+00 -0.92517434728E+02  0.92517434728E+02  0.00000000000E+00 0. -1.
         25    2    1    2    0    0 -0.11770390322E+02 -0.32141393487E+02  0.19329393627E+03  0.23271971376E+03  0.12499723240E+03 0.  0.
          2    1    1    2  501    0  0.32234673637E+02 -0.38770045251E+01 -0.67952001154E+02  0.75309891843E+02  0.00000000000E+00 0. -1.
          1    1    1    2  502    0 -0.20464283315E+02  0.36018398012E+02  0.36439231696E+03  0.36673951593E+03  0.00000000000E+00 0. -1.
         22    1    3    3    0    0 -0.53907183228E+02  0.13956811931E+01  0.16130839795E+03  0.17008330776E+03  0.00000000000E+00 0.  1.
         22    1    3    3    0    0  0.42136792906E+02 -0.33537074680E+02  0.31985538321E+02  0.62636405997E+02  0.00000000000E+00 0.  1.
</event>
<event>
 7    1  0.5667373E-006  0.4765347E+02  0.7818608E-02  0.1466157E+00
          2   -1    0    0  502    0  0.00000000000E+00  0.00000000000E+00  0.11482208851E+04  0.11482208851E+04  0.00000000000E+00 0. -1.
          1   -1    0    0  501    0 -0.00000000000E+00 -0.00000000000E+00 -0.17020903470E+03  0.17020903470E+03  0.00000000000E+00 0. -1.
         25    2    1    2    0    0 -0.23063189565E+02  0.55992187946E+01  0.40544586373E+03  0.42494028695E+03  0.12499854835E+03 0.  0.
          2    1    1    2  501    0  0.65853904744E+01 -0.47537142533E+02 -0.15616202395E+03  0.16336990241E+03  0.00000000000E+00 0. -1.
          1    1    1    2  502    0  0.16477799090E+02  0.41937923738E+02  0.72872801067E+03  0.73011973049E+03  0.00000000000E+00 0. -1.
         22    1    3    3    0    0 -0.12535236779E+02 -0.54204772061E+02  0.10943572722E+03  0.12276590678E+03  0.00000000000E+00 0.  1.
         22    1    3    3    0    0 -0.10527952785E+02  0.59803990855E+02  0.29601013652E+03  0.30217438017E+03  0.00000000000E+00 0.  1.
</event>
<event>
 7    1  0.5667373E-006  0.5457363E+02  0.7818608E-02  0.1480288E+00
          2   -1    0    0  502    0  0.00000000000E+00  0.00000000000E+00  0.14707185792E+04  0.14707185792E+04  0.00000000000E+00 0. -1.
          1   -1    0    0  501    0 -0.00000000000E+00 -0.00000000000E+00 -0.29604474112E+02  0.29604474112E+02  0.00000000000E+00 0. -1.
         25    2    1    2    0    0  0.22537038684E+02 -0.54637703407E+01  0.51633157268E+03  0.53175286287E+03  0.12500017330E+03 0.  0.
          2    1    1    2  501    0  0.31391915869E+02 -0.16734766683E+02 -0.59020306732E+01  0.36060210259E+02  0.00000000000E+00 0. -1.
          1    1    1    2  502    0 -0.53928954553E+02  0.22198537024E+02  0.93068456305E+03  0.93250998015E+03  0.00000000000E+00 0. -1.
         22    1    3    3    0    0 -0.20800447345E+02 -0.35018341547E+02  0.42080454383E+03  0.42277110469E+03  0.00000000000E+00 0. -1.
         22    1    3    3    0    0  0.43337486030E+02  0.29554571207E+02  0.95527028857E+02  0.10898175818E+03  0.00000000000E+00 0. -1.
</event>
<event>
 7    1  0.5667373E-006  0.2894722E+02  0.7818608E-02  0.1626157E+00
          2   -1    0    0  502    0  0.00000000000E+00  0.00000000000E+00  0.30917928404E+03  0.30917928404E+03  0.00000000000E+00 0. -1.
          1   -1    0    0  501    0 -0.00000000000E+00 -0.00000000000E+00 -0.42385365399E+02  0.42385365399E+02  0.00000000000E+00 0. -1.
         25    2    1    2    0    0  0.17844421586E+02  0.40743595957E+02  0.89716626346E+02  0.16015603024E+03  0.12498966752E+03 0.  0.
          2    1    1    2  501    0 -0.23120008734E+02 -0.12595538794E+02  0.23839239994E+02  0.35517485339E+02  0.00000000000E+00 0. -1.
          1    1    1    2  502    0  0.52755871481E+01 -0.28148057163E+02  0.15323805230E+03  0.15589113385E+03  0.00000000000E+00 0. -1.
         22    1    3    3    0    0 -0.46969979578E+02  0.47151819604E+02  0.35603715662E+02  0.75479120573E+02  0.00000000000E+00 0. -1.
         22    1    3    3    0    0  0.64814401164E+02 -0.64082236464E+01  0.54112910684E+02  0.84676909670E+02  0.00000000000E+00 0. -1.
</event>
<event>
 7    1  0.8324449E-006  0.8916537E+02  0.7818608E-02  0.1322078E+00
          2   -1    0    0  502    0  0.00000000000E+00  0.00000000000E+00  0.10939806897E+04  0.10939806897E+04  0.00000000000E+00 0. -1.
          1   -1    0    0  501    0 -0.00000000000E+00 -0.00000000000E+00 -0.12289848946E+04  0.12289848946E+04  0.00000000000E+00 0. -1.
         25    2    1    2    0    0 -0.64980407099E+02  0.12902746611E+02 -0.56997054698E+03  0.58726537015E+03  0.12500102550E+03 0.  0.
          2    1    1    2  501    0  0.20651977805E+01 -0.76321804341E+02 -0.64627777652E+03  0.65077203941E+03  0.00000000000E+00 0. -1.
          1    1    1    2  502    0  0.62915209319E+02  0.63419057731E+02  0.10812441186E+04  0.10849281748E+04  0.00000000000E+00 0. -1.
         22    1    3    3    0    0  0.30448004343E+02 -0.24065088202E+02 -0.17501993138E+03  0.17927126323E+03  0.00000000000E+00 0. -1.
         22    1    3    3    0    0 -0.95428411442E+02  0.36967834813E+02 -0.39495061559E+03  0.40799410692E+03  0.00000000000E+00 0. -1.
</event>
<event>
 7    1  0.6247084E-006  0.6175248E+02  0.7818608E-02  0.1411113E+00
          2   -1    0    0  502    0  0.00000000000E+00  0.00000000000E+00  0.58779314531E+03  0.58779314531E+03  0.00000000000E+00 0. -1.
          1   -1    0    0  501    0 -0.00000000000E+00 -0.00000000000E+00 -0.17884196542E+04  0.17884196542E+04  0.00000000000E+00 0. -1.
         25    2    1    2    0    0  0.56430657936E+02 -0.89159884693E+02 -0.10506871720E+04  0.10633450004E+04  0.12500060878E+03 0.  0.
          2    1    1    2  501    0 -0.20484166075E+02  0.50877185833E+02 -0.72918592408E+03  0.73124565023E+03  0.00000000000E+00 0. -1.
          1    1    1    2  502    0 -0.35946491861E+02  0.38282698860E+02  0.57924658721E+03  0.58162214891E+03  0.00000000000E+00 0. -1.
         22    1    3    3    0    0  0.13830744582E+02  0.66156790078E+01 -0.12233074878E+02  0.19613893683E+02  0.00000000000E+00 0. -1.
         22    1    3    3    0    0  0.42599913355E+02 -0.95775563701E+02 -0.10384540971E+04  0.10437311067E+04  0.00000000000E+00 0. -1.
</event>
