<LesHouchesEvents version="3.0">
<header>
<!--
#*********************************************************************
#                                                                    *
#                        MadGraph5_aMC@NLO                           *
#                                                                    *
#                           Going Beyond                             *
#                                                                    *
#                   http://madgraph.hep.uiuc.edu                     *
#                   http://madgraph.phys.ucl.ac.be                   *
#                   http://amcatnlo.cern.ch                          *
#                                                                    *
#                     The MadGraph5_aMC@NLO team                     *
#                                                                    *
#....................................................................*
#                                                                    *
# This file contains all the information necessary to reproduce      *
# the events generated:                                              *
#                                                                    *
# 1. software version                                                *
# 2. proc_card          : code generation info including model       *
# 3. param_card         : model primary parameters in the LH format  *
# 4. run_card           : running parameters (collider and cuts)     *
# 5. pythia_card        : present only if pythia has been run        *
# 6. pgs_card           : present only if pgs has been run           *
# 7. delphes_cards      : present only if delphes has been run       *
#                                                                    *
#                                                                    *
#*********************************************************************
-->
<MGVersion>
3.5.3
</MGVersion>
<MG5ProcCard>
<![CDATA[
#************************************************************
#*                     MadGraph5_aMC@NLO                    *
#*                                                          *
#*                *                       *                 *
#*                  *        * *        *                   *
#*                    * * * * 5 * * * *                     *
#*                  *        * *        *                   *
#*                *                       *                 *
#*                                                          *
#*                                                          *
#*         VERSION 3.5.3                 2023-12-23         *
#*                                                          *
#*    The MadGraph5_aMC@NLO Development Team - Find us at   *
#*    https://server06.fynu.ucl.ac.be/projects/madgraph     *
#*                                                          *
#************************************************************
#*                                                          *
#*               Command File for MadGraph5_aMC@NLO         *
#*                                                          *
#*     run as ./bin/mg5_aMC  filename                       *
#*                                                          *
#************************************************************
set group_subprocesses Auto
set ignore_six_quark_processes False
set low_mem_multicore_nlo_generation False
set complex_mass_scheme False
set include_lepton_initiated_processes False
set gauge unitary
set loop_optimized_output True
set loop_color_flows False
set max_npoint_for_channel 0
set default_unset_couplings 99
set max_t_for_channel 99
set zerowidth_tchannel True
set nlo_mixed_expansion True
import model EWdim6-full
define p = g u c d s u~ c~ d~ s~
define j = g u c d s u~ c~ d~ s~
define l+ = e+ mu+
define l- = e- mu-
define vl = ve vm vt
define vl~ = ve~ vm~ vt~
generate u d > u d h / a z QCD=0 QED=99 NP=2, h > a a QCD=0 QED=99 NP=\
0
output ./mg_processes/signal_0
]]>
</MG5ProcCard>
<MGProcCard>
#*********************************************************************
#                        MadGraph/MadEvent                           *
#                   http://madgraph.hep.uiuc.edu                     *
#                                                                    *
#                          proc_card.dat                             *
#*********************************************************************
#                                                                    *
#            This Files is generated by MADGRAPH 5                   *
#                                                                    *
# WARNING: This Files is generated for MADEVENT (compatibility issue)*
#          This files is NOT a valid MG4 proc_card.dat               *
#          Running this in MG4 will NEVER reproduce the result of MG5*
#                                                                    *
#*********************************************************************
#*********************************************************************
# Process(es) requested : mg2 input                                  *
#*********************************************************************
# Begin PROCESS # This is TAG. Do not modify this line
u d > u d h / a z , h > a a           #Process
# Be carefull the coupling are here in MG5 convention
QCD=0
QED=99
NP=2
QCD=0
QED=99
NP=0
          
end_coup           # End the couplings input

done               # this tells MG there are no more procs
# End PROCESS  # This is TAG. Do not modify this line
#*********************************************************************
# Model information                                                  *
#*********************************************************************
# Begin MODEL  # This is TAG. Do not modify this line
EWdim6-full
# End   MODEL  # This is TAG. Do not modify this line
#*********************************************************************
# Start multiparticle definitions                                    *
#*********************************************************************
# Begin MULTIPARTICLES # This is TAG. Do not modify this line

# End  MULTIPARTICLES # This is TAG. Do not modify this line
</MGProcCard>
<MGRunCard>
<![CDATA[
#*********************************************************************
#                       MadGraph5_aMC@NLO                            *
#                                                                    *
#                     run_card.dat MadEvent                          *
#                                                                    *
#  This file is used to set the parameters of the run.               *
#                                                                    *
#  Some notation/conventions:                                        *
#                                                                    *
#   Lines starting with a '# ' are info or comments                  *
#                                                                    *
#   mind the format:   value    = variable     ! comment             *
#                                                                    *
#   To display more options, you can type the command:               *
#      update full_run_card                                          *
#*********************************************************************


#*******************************
# Running parameters           *
#*******************************

#*********************************************************************
# Tag name for the run (one word)                                    *
#*********************************************************************
  tag_1    = run_tag         ! name of the run

#*********************************************************************
# Number of events and rnd seed                                      *
# Warning: Do not generate more than 1M events in a single run       *
# If you want to run Pythia, avoid more than 50k events in a run.    *
#*********************************************************************
  100  = nevents          ! Number of unweighted events requested
 21 = iseed            ! rnd seed (0=assigned automatically=default)

#*********************************************************************
# Collider type and energy                                           *
# lpp: 0=No PDF, 1=proton, -1=antiproton, 2=photon from proton,      *
#                                         3=photon from electron     *
#*********************************************************************
     1    = lpp1             ! beam 1 type
     1    = lpp2             ! beam 2 type
  6500.0  = ebeam1           ! beam 1 total energy in GeV
  6500.0  = ebeam2           ! beam 2 total energy in GeV

#*********************************************************************
# PDF CHOICE: this automatically fixes also alpha_s and its evol.    *
#*********************************************************************
  nn23lo1 = pdlabel          ! PDF set
  230000  = lhaid            ! if pdlabel=lhapdf, this is the lhapdf number

#*********************************************************************
# Renormalization and factorization scales                           *
#*********************************************************************
   False  = fixed_ren_scale  ! if .true. use fixed ren scale
   False  = fixed_fac_scale  ! if .true. use fixed fac scale
  91.188  = scale            ! fixed ren scale
  91.188  = dsqrt_q2fact1    ! fixed fact scale for pdf1
  91.188  = dsqrt_q2fact2    ! fixed fact scale for pdf2
  -1      = dynamical_scale_choice ! Choose one of the preselected dynamical choices
   1.0    = scalefact        ! scale factor for event-by-event scales

#*********************************************************************
# Type and output format                                             *
#*********************************************************************
  False   = gridpack         ! True = setting up the grid pack
  -1.0    = time_of_flight   ! threshold (in mm) below which the invariant lifetime is not written (-1 means not written)
   3.0    = lhe_version      ! Change the way clustering information pass to shower.
  True    = clusinfo         ! include clustering tag in output
   sum    = event_norm       ! average/sum. Normalization of the weight in the LHEF

#*********************************************************************
# Matching parameter (MLM only)                                      *
#*********************************************************************
  0       = ickkw            ! 0 no matching, 1 MLM
  1.0     = alpsfact         ! scale factor for QCD emission vx
  False   = chcluster        ! cluster only according to channel diag
  4       = asrwgtflavor     ! highest quark flavor for a_s reweight
  False   = auto_ptj_mjj     ! Automatic setting of ptj and mjj if xqcut >0 (turn off for VBF and single top processes)
  0.0     = xqcut            ! minimum kt jet measure between partons

#*********************************************************************
# handling of the helicities:                                        *
#  0: sum over all helicities                                        *
#  1: importance sampling over helicities                            *
#*********************************************************************
  0       = nhel             ! using helicities importance sampling or not.

#*********************************************************************
# Generation bias, check the wiki page below for more information:   *
#  'cp3.irmp.ucl.ac.be/projects/madgraph/wiki/LOEventGenerationBias' *
#*********************************************************************
  None    = bias_module      ! Bias type of bias, [None, ptj_bias, -custom_folder-]
  {}      = bias_parameters  ! Specifies the parameters of the module.


#*******************************
# Parton level cuts definition *
#*******************************

#*********************************************************************
# BW cutoff. Define on/off-shell for "$" and decay                   *
#*********************************************************************
  15.0    = bwcutoff         ! (M+/-bwcutoff*Gamma)

#*********************************************************************
# Apply pt/E/eta/dr/mij/kt_durham cuts on decay products or not
# (note that etmiss/ptll/ptheavy/ht/sorted cuts always apply)
#*********************************************************************
   False  = cut_decays       ! Cut decay products

#*********************************************************************
# Standard Cuts                                                      *
#*********************************************************************
# Minimum and maximum pt's (for max, -1 means no cut)                *
#*********************************************************************
  20.0    = ptj              ! minimum pt for the jets
   0.0    = ptb              ! minimum pt for the b
  10.0    = pta              ! minimum pt for the photons
  10.0    = ptl              ! minimum pt for the charged leptons
   0.0    = misset           ! minimum missing Et (sum of neutrino's momenta)
  -1.0    = ptjmax           ! maximum pt for the jets
  -1.0    = ptbmax           ! maximum pt for the b
  -1.0    = ptamax           ! maximum pt for the photons
  -1.0    = ptlmax           ! maximum pt for the charged leptons
  -1.0    = missetmax        ! maximum missing Et (sum of neutrino's momenta)
   {}     = pt_min_pdg       ! pt cut for other particles (use pdg code). Applied on particle and anti-particle
   {}	  = pt_max_pdg       ! pt cut for other particles (syntax e.g. {6: 100, 25: 50})

#*********************************************************************
# Minimum and maximum E's (in the center of mass frame)              *
#*********************************************************************
   0.0    = ej               ! minimum E for the jets
   0.0    = eb               ! minimum E for the b
   0.0    = ea               ! minimum E for the photons
   0.0    = el               ! minimum E for the charged leptons
  -1.0    = ejmax            ! maximum E for the jets
  -1.0    = ebmax            ! maximum E for the b
  -1.0    = eamax            ! maximum E for the photons
  -1.0    = elmax            ! maximum E for the charged leptons
    {}    = e_min_pdg        ! E cut for other particles (use pdg code). Applied on particle and anti-particle
    {}    = e_max_pdg        ! E cut for other particles (syntax e.g. {6: 100, 25: 50})

#*********************************************************************
# Maximum and minimum absolute rapidity (for max, -1 means no cut)   *
#*********************************************************************
   5.0    = etaj             ! max rap for the jets
  -1.0    = etab             ! max rap for the b
   2.5    = etaa             ! max rap for the photons
   2.5    = etal             ! max rap for the charged leptons
   0.0    = etajmin          ! min rap for the jets
   0.0    = etabmin          ! min rap for the b
   0.0    = etaamin          ! min rap for the photons
   0.0    = etalmin          ! main rap for the charged leptons
    {}    = eta_min_pdg      ! rap cut for other particles (use pdg code). Applied on particle and anti-particle
    {}    = eta_max_pdg      ! rap cut for other particles (syntax e.g. {6: 2.5, 23: 5})

#*********************************************************************
# Minimum and maximum DeltaR distance                                *
#*********************************************************************
   0.4    = drjj             ! min distance between jets
   0.0    = drbb             ! min distance between b's
   0.4    = drll             ! min distance between leptons
   0.4    = draa             ! min distance between gammas
   0.0    = drbj             ! min distance between b and jet
   0.4    = draj             ! min distance between gamma and jet
   0.4    = drjl             ! min distance between jet and lepton
   0.0    = drab             ! min distance between gamma and b
   0.0    = drbl             ! min distance between b and lepton
   0.4    = dral             ! min distance between gamma and lepton
  -1.0    = drjjmax          ! max distance between jets
  -1.0    = drbbmax          ! max distance between b's
  -1.0    = drllmax          ! max distance between leptons
  -1.0    = draamax          ! max distance between gammas
  -1.0    = drbjmax          ! max distance between b and jet
  -1.0    = drajmax          ! max distance between gamma and jet
  -1.0    = drjlmax          ! max distance between jet and lepton
  -1.0    = drabmax          ! max distance between gamma and b
  -1.0    = drblmax          ! max distance between b and lepton
  -1.0    = dralmax          ! max distance between gamma and lepton

#*********************************************************************
# Minimum and maximum invariant mass for pairs                       *
# WARNING: for four lepton final state mmll cut require to have      *
#          different lepton masses for each flavor!                  *
#*********************************************************************
    0.0   = mmjj             ! min invariant mass of a jet pair
    0.0   = mmbb             ! min invariant mass of a b pair
  120.0   = mmaa             ! min invariant mass of gamma gamma pair
    0.0   = mmll             ! min invariant mass of l+l- (same flavour) lepton pair
   -1.0   = mmjjmax          ! max invariant mass of a jet pair
   -1.0   = mmbbmax          ! max invariant mass of a b pair
  130.0   = mmaamax          ! max invariant mass of gamma gamma pair
   -1.0   = mmllmax          ! max invariant mass of l+l- (same flavour) lepton pair
     {}   = mxx_min_pdg      ! min invariant mass of a pair of particles X/X~ (e.g. {6:250})
  {'default': False} = mxx_only_part_antipart ! if True the invariant mass is applied only
                                              ! to pairs of particle/antiparticle and not to pairs of the same pdg codes.

#*********************************************************************
# Minimum and maximum invariant mass for all leptons                 *
#*********************************************************************
   0.0    = mmnl             ! min invariant mass for all leptons (l+- and vl)
  -1.0    = mmnlmax          ! max invariant mass for all leptons (l+- and vl)

#*********************************************************************
# Minimum and maximum pt for 4-momenta sum of leptons                *
#*********************************************************************
   0.0    = ptllmin          ! Minimum pt for 4-momenta sum of leptons(l and vl)
  -1.0    = ptllmax          ! Maximum pt for 4-momenta sum of leptons(l and vl)

#*********************************************************************
# Inclusive cuts                                                     *
#*********************************************************************
   0.0    = ptheavy          ! minimum pt for at least one heavy final state
   0.0    = xptj             ! minimum pt for at least one jet
   0.0    = xptb             ! minimum pt for at least one b
   0.0    = xpta             ! minimum pt for at least one photon
   0.0    = xptl             ! minimum pt for at least one charged lepton

#*********************************************************************
# Control the pt's of the jets sorted by pt                          *
#*********************************************************************
   0.0    = ptj1min          ! minimum pt for the leading jet in pt
   0.0    = ptj2min          ! minimum pt for the second jet in pt
   0.0    = ptj3min          ! minimum pt for the third jet in pt
   0.0    = ptj4min          ! minimum pt for the fourth jet in pt
  -1.0    = ptj1max          ! maximum pt for the leading jet in pt
  -1.0    = ptj2max          ! maximum pt for the second jet in pt
  -1.0    = ptj3max          ! maximum pt for the third jet in pt
  -1.0    = ptj4max          ! maximum pt for the fourth jet in pt
   0      = cutuse           ! reject event if fails any (0) / all (1) jet pt cuts

#*********************************************************************
# Control the pt's of leptons sorted by pt                           *
#*********************************************************************
   0.0    = ptl1min          ! minimum pt for the leading lepton in pt
   0.0    = ptl2min          ! minimum pt for the second lepton in pt
   0.0    = ptl3min          ! minimum pt for the third lepton in pt
   0.0    = ptl4min          ! minimum pt for the fourth lepton in pt
  -1.0    = ptl1max          ! maximum pt for the leading lepton in pt
  -1.0    = ptl2max          ! maximum pt for the second lepton in pt
  -1.0    = ptl3max          ! maximum pt for the third lepton in pt
  -1.0    = ptl4max          ! maximum pt for the fourth lepton in pt

#*********************************************************************
# Control the Ht(k)=Sum of k leading jets                            *
#*********************************************************************
   0.0    = htjmin           ! minimum jet HT=Sum(jet pt)
  -1.0    = htjmax           ! maximum jet HT=Sum(jet pt)
   0.0    = ihtmin           ! inclusive Ht for all partons (including b)
  -1.0    = ihtmax           ! inclusive Ht for all partons (including b)
   0.0    = ht2min           ! minimum Ht for the two leading jets
   0.0    = ht3min           ! minimum Ht for the three leading jets
   0.0    = ht4min           ! minimum Ht for the four leading jets
  -1.0    = ht2max           ! maximum Ht for the two leading jets
  -1.0    = ht3max           ! maximum Ht for the three leading jets
  -1.0    = ht4max           ! maximum Ht for the four leading jets

#*********************************************************************
# Photon-isolation cuts, according to hep-ph/9801442                 *
# When ptgmin=0, all the other parameters are ignored                *
# When ptgmin>0, pta and draj are not going to be used               *
#*********************************************************************
   0.0    = ptgmin           ! Min photon transverse momentum
   0.4    = R0gamma          ! Radius of isolation code
   1.0    = xn               ! n parameter of eq.(3.4) in hep-ph/9801442
   1.0    = epsgamma         ! epsilon_gamma parameter of eq.(3.4) in hep-ph/9801442
  True    = isoEM            ! isolate photons from EM energy (photons and leptons)

#*********************************************************************
# WBF cuts                                                           *
#*********************************************************************
   0.0    = xetamin          ! minimum rapidity for two jets in the WBF case
   0.0    = deltaeta         ! minimum rapidity for two jets in the WBF case

#*********************************************************************
# Turn on either the ktdurham or ptlund cut to activate              *
# CKKW(L) merging with Pythia8 [arXiv:1410.3012, arXiv:1109.4829]    *
#*********************************************************************
  -1.0    = ktdurham
   0.4    = dparameter
  -1.0    = ptlund
   1, 2, 3, 4, 5, 6, 21 = pdgs_for_merging_cut ! PDGs for two cuts above

#*********************************************************************
# maximal pdg code for quark to be considered as a light jet         *
# (otherwise b cuts are applied)                                     *
#*********************************************************************
  4       = maxjetflavor     ! Maximum jet pdg code

#*********************************************************************
# Store info for systematics studies                                 *
# WARNING: Do not use for interference type of computation           *
#*********************************************************************
#         False = use_syst              ! Enable systematics studies # Commented out by MadMiner
#   systematics = systematics_program   ! none, systematics [python], SysCalc [deprecated, C++] # Commented out by MadMiner
#   ['--mur=0.5,1,2', '--muf=0.5,1,2', '--pdf=errorset'] = systematics_arguments ! see: https://cp3.irmp.ucl.ac.be/projects/madgraph/wiki/Systematics#Systematicspythonmodule # Commented out by MadMiner


#*********************************************************************
# MadMiner systematics setup                                         *
#*********************************************************************
False = use_syst
]]>
</MGRunCard>
<slha>
######################################################################
## PARAM_CARD AUTOMATICALY GENERATED BY MG5                       ####
######################################################################
###################################
## INFORMATION FOR DIM6
###################################
BLOCK DIM6 # 
      1 0.000000e+00 # cwwwl2
      2 0.000000e+00 # madminer
      3 0.000000e+00 # cbl2
      4 0.000000e+00 # cpwwwl2
      5 0.000000e+00 # madminer
      6 0.000000e+00 # cphidl2
      7 0.000000e+00 # cphiwl2
      8 0.000000e+00 # cphibl2
###################################
## INFORMATION FOR MASS
###################################
BLOCK MASS # 
      4 1.270000e+00 # mc
      5 4.700000e+00 # mb
      6 1.720000e+02 # mt
      13 1.056600e-01 # mm
      15 1.777000e+00 # mta
      23 9.118760e+01 # mz
      25 1.250000e+02 # mh
      9000006 1.250000e+02 # mp
      1 0.000000e+00 # d : 0.0
      2 0.000000e+00 # u : 0.0
      3 0.000000e+00 # s : 0.0
      11 0.000000e+00 # e- : 0.0
      12 0.000000e+00 # ve : 0.0
      14 0.000000e+00 # vm : 0.0
      16 0.000000e+00 # vt : 0.0
      21 0.000000e+00 # g : 0.0
      22 0.000000e+00 # a : 0.0
      24 7.982436e+01 # w+ : cmath.sqrt(mz__exp__2/2. + cmath.sqrt(mz__exp__4/4. - (aew*cmath.pi*mz__exp__2)/(gf*sqrt__2)))
###################################
## INFORMATION FOR SMINPUTS
###################################
BLOCK SMINPUTS # 
      1 1.279000e+02 # aewm1
      2 1.166370e-05 # gf
      3 1.300000e-01 # as
###################################
## INFORMATION FOR WOLFENSTEIN
###################################
BLOCK WOLFENSTEIN # 
      1 0.000000e+00 # lamws
      2 0.000000e+00 # aws
      3 0.000000e+00 # rhows
      4 0.000000e+00 # etaws
###################################
## INFORMATION FOR YUKAWA
###################################
BLOCK YUKAWA # 
      4 1.270000e+00 # ymc
      5 4.700000e+00 # ymb
      6 1.720000e+02 # ymt
      13 1.056600e-01 # ymm
      15 1.777000e+00 # ymtau
###################################
## INFORMATION FOR DECAY
###################################
DECAY 6 1.508336e+00 # wt
DECAY 15 2.270000e-12 # wtau
DECAY 23 2.495200e+00 # wz
DECAY 24 2.085000e+00 # ww
DECAY 25 4.070000e-03 # wh
DECAY 9000006 4.070000e-03 # wh1
DECAY 1 0.000000e+00 # d : 0.0
DECAY 2 0.000000e+00 # u : 0.0
DECAY 3 0.000000e+00 # s : 0.0
DECAY 4 0.000000e+00 # c : 0.0
DECAY 5 0.000000e+00 # b : 0.0
DECAY 11 0.000000e+00 # e- : 0.0
DECAY 12 0.000000e+00 # ve : 0.0
DECAY 13 0.000000e+00 # mu- : 0.0
DECAY 14 0.000000e+00 # vm : 0.0
DECAY 16 0.000000e+00 # vt : 0.0
DECAY 21 0.000000e+00 # g : 0.0
DECAY 22 0.000000e+00 # a : 0.0
###################################
## INFORMATION FOR QNUMBERS 9000006
###################################
BLOCK QNUMBERS 9000006 #  h1
      1 0 # 3 times electric charge
      2 1 # number of spin states (2s+1)
      3 1 # colour rep (1: singlet, 3: triplet, 8: octet)
      4 0 # particle/antiparticle distinction (0=own anti)
</slha>
<initrwgt>
<weightgroup name='mg_reweighting' weight_name_strategy='includeIdInWeightName'>
<weight id='morphing_basis_vector_1'>set param_card dim6 2 1.617186 # orig: 0.0
set param_card dim6 5 -0.2203044 # orig: 0.0
</weight>
<weight id='morphing_basis_vector_2'>set param_card dim6 2 -1.412419 # orig: 0.0
set param_card dim6 5 -1.041613 # orig: 0.0
</weight>
<weight id='morphing_basis_vector_3'>set param_card dim6 2 -1.30746 # orig: 0.0
set param_card dim6 5 1.197328 # orig: 0.0
</weight>
<weight id='morphing_basis_vector_4'>set param_card dim6 2 0.5652848 # orig: 0.0
set param_card dim6 5 -1.575672 # orig: 0.0
</weight>
<weight id='morphing_basis_vector_5'>set param_card dim6 2 0.8622004 # orig: 0.0
set param_card dim6 5 1.494319 # orig: 0.0
</weight>
</weightgroup>
</initrwgt>
<MGGenerationInfo>
#  Number of Events        :       100
#  Integrated weight (pb)  :       0.0010321
</MGGenerationInfo>
</header>
<init>
2212 2212 6.500000e+03 6.500000e+03 0 0 247000 247000 -3 1
1.032100e-03 2.308000e-05 1.032100e-05 1
<generator name='MadGraph5_aMC@NLO' version='3.5.3'>please cite 1405.0301 </generator>
</init>
<event>
 7      1 +1.0321000e-05 1.40742400e+02 7.81860800e-03 1.33275000e-01
        2 -1    0    0  502    0 +0.0000000000e+00 +0.0000000000e+00 +9.8912474713e+02 9.8912474713e+02 0.0000000000e+00 0.0000e+00 -1.0000e+00
        1 -1    0    0  501    0 -0.0000000000e+00 -0.0000000000e+00 -6.2801748111e+02 6.2801748111e+02 0.0000000000e+00 0.0000e+00 -1.0000e+00
       25  2    1    2    0    0 +1.1531095968e+01 -1.0045595068e+02 +1.1187431956e+02 1.9584675567e+02 1.2496289100e+02 0.0000e+00 0.0000e+00
        2  1    1    2  501    0 -3.3000882075e-01 +1.4302640002e+02 -5.7670965002e+02 5.9418067995e+02 0.0000000000e+00 0.0000e+00 -1.0000e+00
        1  1    1    2  502    0 -1.1201087148e+01 -4.2570449341e+01 +8.2594259647e+02 8.2711479262e+02 0.0000000000e+00 0.0000e+00 -1.0000e+00
       22  1    3    3    0    0 -2.9690875569e+01 +8.1019875399e+00 +6.2496255805e+01 6.9663277871e+01 0.0000000000e+00 0.0000e+00 1.0000e+00
       22  1    3    3    0    0 +4.1221971537e+01 -1.0855793822e+02 +4.9378063759e+01 1.2618347780e+02 0.0000000000e+00 0.0000e+00 1.0000e+00
<rwgt>
<wgt id='morphing_basis_vector_1'> +1.0165251e-05 </wgt>
<wgt id='morphing_basis_vector_2'> +1.0552556e-05 </wgt>
<wgt id='morphing_basis_vector_3'> +1.0370112e-05 </wgt>
<wgt id='morphing_basis_vector_4'> +1.0380275e-05 </wgt>
<wgt id='morphing_basis_vector_5'> +1.0116387e-05 </wgt>
</rwgt>
</event>
<event>
 7      1 +1.0321000e-05 8.16152200e+01 7.81860800e-03 1.49757200e-01
        2 -1    0    0  502    0 +0.0000000000e+00 +0.0000000000e+00 +8.0873910698e+02 8.0873910698e+02 0.0000000000e+00 0.0000e+00 -1.0000e+00
        1 -1    0    0  501    0 -0.0000000000e+00 -0.0000000000e+00 -1.1414482197e+03 1.1414482197e+03 0.0000000000e+00 0.0000e+00 -1.0000e+00
       25  2    1    2    0    0 +5.2915670772e+01 -2.9561767709e+01 -8.3630056892e+02 8.4776066462e+02 1.2500214629e+02 0.0000e+00 0.0000e+00
        2  1    1    2  501    0 +1.7721923043e+01 -1.1424065266e+01 -2.9696643078e+02 2.9771401854e+02 0.0000000000e+00 0.0000e+00 -1.0000e+00
        1  1    1    2  502    0 -7.0637593814e+01 +4.0985832975e+01 +8.0055788701e+02 8.0471264350e+02 0.0000000000e+00 0.0000e+00 -1.0000e+00
       22  1    3    3    0    0 +1.5141613919e+01 +1.1662821099e+01 -7.0233270186e+02 7.0259270845e+02 0.0000000000e+00 0.0000e+00 -1.0000e+00
       22  1    3    3    0    0 +3.7774056852e+01 -4.1224588808e+01 -1.3396786707e+02 1.4516795618e+02 0.0000000000e+00 0.0000e+00 -1.0000e+00
<rwgt>
<wgt id='morphing_basis_vector_1'> +1.0318196e-05 </wgt>
<wgt id='morphing_basis_vector_2'> +1.0313750e-05 </wgt>
<wgt id='morphing_basis_vector_3'> +1.0331893e-05 </wgt>
<wgt id='morphing_basis_vector_4'> +1.0308542e-05 </wgt>
<wgt id='morphing_basis_vector_5'> +1.0333062e-05 </wgt>
</rwgt>
</event>
<event>
 7      1 +1.0321000e-05 1.71939700e+02 7.81860800e-03 1.18269900e-01
        2 -1    0    0  502    0 +0.0000000000e+00 +0.0000000000e+00 +1.6163812591e+03 1.6163812591e+03 0.0000000000e+00 0.0000e+00 -1.0000e+00
        1 -1    0    0  501    0 -0.0000000000e+00 -0.0000000000e+00 -1.9323643470e+03 1.9323643470e+03 0.0000000000e+00 0.0000e+00 -1.0000e+00
       25  2    1    2    0    0 +1.5426395237e+01 -2.7086360046e+01 -7.8569876502e+02 7.9619060272e+02 1.2500112772e+02 0.0000e+00 0.0000e+00
        2  1    1    2  501    0 +1.5739695261e+02 +2.3669518532e+01 -1.1311956448e+03 1.1423386686e+03 0.0000000000e+00 0.0000e+00 -1.0000e+00
        1  1    1    2  502    0 -1.7282334784e+02 +3.4168415144e+00 +1.6009113220e+03 1.6102163349e+03 0.0000000000e+00 0.0000e+00 -1.0000e+00
       22  1    3    3    0    0 +4.9604230269e+01 +1.9222851729e+01 -1.7819699560e+02 1.8596845682e+02 0.0000000000e+00 0.0000e+00 1.0000e+00
       22  1    3    3    0    0 -3.4177835032e+01 -4.6309211775e+01 -6.0750176942e+02 6.1022214590e+02 0.0000000000e+00 0.0000e+00 1.0000e+00
<rwgt>
<wgt id='morphing_basis_vector_1'> +1.0383349e-05 </wgt>
<wgt id='morphing_basis_vector_2'> +1.0591548e-05 </wgt>
<wgt id='morphing_basis_vector_3'> +1.0014681e-05 </wgt>
<wgt id='morphing_basis_vector_4'> +1.0741908e-05 </wgt>
<wgt id='morphing_basis_vector_5'> +9.9513269e-06 </wgt>
</rwgt>
</event>
<event>
 7      1 +1.0321000e-05 4.21527500e+01 7.81860800e-03 1.54977400e-01
        2 -1    0    0  502    0 +0.0000000000e+00 +0.0000000000e+00 +1.3717719956e+03 1.3717719956e+03 0.0000000000e+00 0.0000e+00 -1.0000e+00
        1 -1    0    0  501    0 -0.0000000000e+00 -0.0000000000e+00 -1.6074896330e+03 1.6074896330e+03 0.0000000000e+00 0.0000e+00 -1.0000e+00
       25  2    1    2    0    0 +5.8260209548e+01 -3.1867491580e+00 +4.6256252808e+02 4.8269352396e+02 1.2499815318e+02 0.0000e+00 0.0000e+00
        2  1    1    2  501    0 -2.2441790310e+01 -1.8117898580e+01 -1.5968109161e+03 1.5970713804e+03 0.0000000000e+00 0.0000e+00 -1.0000e+00
        1  1    1    2  502    0 -3.5818419239e+01 +2.1304647738e+01 +8.9853075064e+02 8.9949672430e+02 0.0000000000e+00 0.0000e+00 -1.0000e+00
       22  1    3    3    0    0 +7.6183529167e+01 -7.1956792086e+00 +1.3950441407e+02 1.5911376264e+02 0.0000000000e+00 0.0000e+00 -1.0000e+00
       22  1    3    3    0    0 -1.7923319618e+01 +4.0089300505e+00 +3.2305811401e+02 3.2357976132e+02 0.0000000000e+00 0.0000e+00 -1.0000e+00
<rwgt>
<wgt id='morphing_basis_vector_1'> +1.0232307e-05 </wgt>
<wgt id='morphing_basis_vector_2'> +1.0325825e-05 </wgt>
<wgt id='morphing_basis_vector_3'> +1.0453423e-05 </wgt>
<wgt id='morphing_basis_vector_4'> +1.0201849e-05 </wgt>
<wgt id='morphing_basis_vector_5'> +1.0368770e-05 </wgt>
</rwgt>
</event>
<event>
 7      1 +1.0321000e-05 8.21571900e+01 7.81860800e-03 1.43560300e-01
        2 -1    0    0  502    0 +0.0000000000e+00 +0.0000000000e+00 +7.3627820124e+02 7.3627820124e+02 0.0000000000e+00 0.0000e+00 -1.0000e+00
        1 -1    0    0  501    0 -0.0000000000e+00 -0.0000000000e+00 -6.8854181865e+01 6.8854181865e+01 0.0000000000e+00 0.0000e+00 -1.0000e+00
       25  2    1    2    0    0 +7.0667160087e+01 -5.2508645506e+01 +1.2052960748e+02 1.9468811446e+02 1.2500028107e+02 0.0000e+00 0.0000e+00
        2  1    1    2  501    0 -4.2788809532e+01 +6.9646610560e+01 +2.2161057475e+01 8.4691469771e+01 0.0000000000e+00 0.0000e+00 -1.0000e+00
        1  1    1    2  502    0 -2.7878350555e+01 -1.7137965053e+01 +5.2473335442e+02 5.2575279887e+02 0.0000000000e+00 0.0000e+00 -1.0000e+00
       22  1    3    3    0    0 +2.3014808281e+01 +3.2865614104e+01 +8.2866497518e-01 4.0131243144e+01 0.0000000000e+00 0.0000e+00 1.0000e+00
       22  1    3    3    0    0 +4.7652351806e+01 -8.5374259610e+01 +1.1970094250e+02 1.5455687132e+02 0.0000000000e+00 0.0000e+00 1.0000e+00
<rwgt>
<wgt id='morphing_basis_vector_1'> +1.0108778e-05 </wgt>
<wgt id='morphing_basis_vector_2'> +1.0791037e-05 </wgt>
<wgt id='morphing_basis_vector_3'> +1.0264112e-05 </wgt>
<wgt id='morphing_basis_vector_4'> +1.0585835e-05 </wgt>
<wgt id='morphing_basis_vector_5'> +9.8494730e-06 </wgt>
</rwgt>
</event>
<event>
 7      1 +1.0321000e-05 1.35494100e+02 7.81860800e-03 1.28563300e-01
        2 -1    0    0  502    0 +0.0000000000e+00 +0.0000000000e+00 +1.0391120413e+03 1.0391120413e+03 0.0000000000e+00 0.0000e+00 -1.0000e+00
        1 -1    0    0  501    0 -0.0000000000e+00 -0.0000000000e+00 -4.7683711616e+02 4.7683711616e+02 0.0000000000e+00 0.0000e+00 -1.0000e+00
       25  2    1    2    0    0 -1.4061205851e+02 +1.5453236480e+01 +3.1794046968e+01 1.9143280296e+02 1.2500041244e+02 0.0000e+00 0.0000e+00
        2  1    1    2  501    0 +1.5186209336e+01 -6.8503136448e+01 -3.8886200071e+02 3.9514169136e+02 0.0000000000e+00 0.0000e+00 -1.0000e+00
        1  1    1    2  502    0 +1.2542584918e+02 +5.3049899968e+01 +9.1934287890e+02 9.2937466316e+02 0.0000000000e+00 0.0000e+00 -1.0000e+00
       22  1    3    3    0    0 -1.3096334783e+02 +5.3226139635e+01 +3.8199708932e-01 1.4136677947e+02 0.0000000000e+00 0.0000e+00 1.0000e+00
       22  1    3    3    0    0 -9.6487106795e+00 -3.7772903155e+01 +3.1412049879e+01 5.0066023490e+01 0.0000000000e+00 0.0000e+00 1.0000e+00
<rwgt>
<wgt id='morphing_basis_vector_1'> +1.0046739e-05 </wgt>
<wgt id='morphing_basis_vector_2'> +1.1144021e-05 </wgt>
<wgt id='morphing_basis_vector_3'> +1.0078331e-05 </wgt>
<wgt id='morphing_basis_vector_4'> +1.0920214e-05 </wgt>
<wgt id='morphing_basis_vector_5'> +9.4536786e-06 </wgt>
</rwgt>
</event>
<event>
 7      1 +1.0321000e-05 1.33189500e+02 7.81860800e-03 1.42963000e-01
        2 -1    0    0  502    0 +0.0000000000e+00 +0.0000000000e+00 +2.9048210119e+03 2.9048210119e+03 0.0000000000e+00 0.0000e+00 -1.0000e+00
        1 -1    0    0  501    0 -0.0000000000e+00 -0.0000000000e+00 -7.7315980808e+02 7.7315980808e+02 0.0000000000e+00 0.0000e+00 -1.0000e+00
       25  2    1    2    0    0 -1.4420002948e+02 -4.7064826251e+01 +1.4146935397e+03 1.4282824399e+03 1.2499668147e+02 0.0000e+00 0.0000e+00
        2  1    1    2  501    0 +1.2914984725e+02 +3.2251057389e+01 -7.6050886172e+02 7.7207094395e+02 0.0000000000e+00 0.0000e+00 -1.0000e+00
        1  1    1    2  502    0 +1.5050182227e+01 +1.4813768862e+01 +1.4774765258e+03 1.4776274361e+03 0.0000000000e+00 0.0000e+00 -1.0000e+00
       22  1    3    3    0    0 -1.1272592202e+02 +2.7116566407e+01 +8.2255487986e+02 8.3068584438e+02 0.0000000000e+00 0.0000e+00 1.0000e+00
       22  1    3    3    0    0 -3.1474107463e+01 -7.4181392658e+01 +5.9213865983e+02 5.9759659547e+02 0.0000000000e+00 0.0000e+00 1.0000e+00
<rwgt>
<wgt id='morphing_basis_vector_1'> +9.9109385e-06 </wgt>
<wgt id='morphing_basis_vector_2'> +1.0796769e-05 </wgt>
<wgt id='morphing_basis_vector_3'> +1.0567824e-05 </wgt>
<wgt id='morphing_basis_vector_4'> +1.0308262e-05 </wgt>
<wgt id='morphing_basis_vector_5'> +9.9615892e-06 </wgt>
</rwgt>
</event>
<event>
 7      1 +1.0321000e-05 1.55094500e+02 7.81860800e-03 1.31542500e-01
        2 -1    0    0  502    0 +0.0000000000e+00 +0.0000000000e+00 +1.1226841761e+03 1.1226841761e+03 0.0000000000e+00 0.0000e+00 -1.0000e+00
        1 -1    0    0  501    0 -0.0000000000e+00 -0.0000000000e+00 -2.2419826015e+02 2.2419826015e+02 0.0000000000e+00 0.0000e+00 -1.0000e+00
       25  2    1    2    0    0 -1.5894136097e+02 +4.1502954036e+01 +2.2035954506e+02 3.0194108734e+02 1.2500095881e+02 0.0000e+00 0.0000e+00
        2  1    1    2  501    0 +1.5461201193e+02 +4.8829234624e+00 -1.5001908986e+02 2.1548652974e+02 0.0000000000e+00 0.0000e+00 -1.0000e+00
        1  1    1    2  502    0 +4.3293490397e+00 -4.6385877498e+01 +8.2814546078e+02 8.2945481921e+02 0.0000000000e+00 0.0000e+00 -1.0000e+00
       22  1    3    3    0    0 -9.1478807446e+01 -2.1408946200e+01 +1.7617419193e+02 1.9965986350e+02 0.0000000000e+00 0.0000e+00 -1.0000e+00
       22  1    3    3    0    0 -6.7462553526e+01 +6.2911900236e+01 +4.4185353133e+01 1.0228122384e+02 0.0000000000e+00 0.0000e+00 -1.0000e+00
<rwgt>
<wgt id='morphing_basis_vector_1'> +9.6890743e-06 </wgt>
<wgt id='morphing_basis_vector_2'> +1.0393921e-05 </wgt>
<wgt id='morphing_basis_vector_3'> +1.1263919e-05 </wgt>
<wgt id='morphing_basis_vector_4'> +9.5199723e-06 </wgt>
<wgt id='morphing_basis_vector_5'> +1.0618379e-05 </wgt>
</rwgt>
</event>
<event>
 7      1 +1.0321000e-05 6.16466400e+01 7.81860800e-03 1.45344800e-01
        2 -1    0    0  502    0 +0.0000000000e+00 +0.0000000000e+00 +1.1102731809e+03 1.1102731809e+03 0.0000000000e+00 0.0000e+00 -1.0000e+00
        1 -1    0    0  501    0 -0.0000000000e+00 -0.0000000000e+00 -2.9012749571e+02 2.9012749571e+02 0.0000000000e+00 0.0000e+00 -1.0000e+00
       25  2    1    2    0    0 +6.4215767457e+01 +6.5022634576e+01 +2.1027173080e+02 2.6113218013e+02 1.2499682767e+02 0.0000e+00 0.0000e+00
        2  1    1    2  501    0 -5.4444448091e+01 -2.8092814733e+01 -2.6072781075e+02 2.6782904149e+02 0.0000000000e+00 0.0000e+00 -1.0000e+00
        1  1    1    2  502    0 -9.7713193658e+00 -3.6929819844e+01 +8.7060176515e+02 8.7143945502e+02 0.0000000000e+00 0.0000e+00 -1.0000e+00
       22  1    3    3    0    0 +8.2053529396e+01 +6.8212061966e+01 +9.0256242708e+01 1.3975641821e+02 0.0000000000e+00 0.0000e+00 1.0000e+00
       22  1    3    3    0    0 -1.7837761939e+01 -3.1894273902e+00 +1.2001548810e+02 1.2137576192e+02 0.0000000000e+00 0.0000e+00 1.0000e+00
<rwgt>
<wgt id='morphing_basis_vector_1'> +1.0177923e-05 </wgt>
<wgt id='morphing_basis_vector_2'> +1.0554022e-05 </wgt>
<wgt id='morphing_basis_vector_3'> +1.0349305e-05 </wgt>
<wgt id='morphing_basis_vector_4'> +1.0400097e-05 </wgt>
<wgt id='morphing_basis_vector_5'> +1.0106712e-05 </wgt>
</rwgt>
</event>
<event>
 7      1 +1.0321000e-05 8.95347400e+01 7.81860800e-03 1.40592700e-01
        2 -1    0    0  502    0 +0.0000000000e+00 +0.0000000000e+00 +9.6611522369e+02 9.6611522369e+02 0.0000000000e+00 0.0000e+00 -1.0000e+00
        1 -1    0    0  501    0 -0.0000000000e+00 -0.0000000000e+00 -5.2205261531e+01 5.2205261531e+01 0.0000000000e+00 0.0000e+00 -1.0000e+00
       25  2    1    2    0    0 +1.1822957607e+02 -3.4858694531e+01 +7.5454311892e+02 7.7469606359e+02 1.2500124557e+02 0.0000e+00 0.0000e+00
        2  1    1    2  501    0 -8.6168172020e+01 +1.4990771548e+01 +8.2262143065e+00 8.7848435972e+01 0.0000000000e+00 0.0000e+00 -1.0000e+00
        1  1    1    2  502    0 -3.2061404045e+01 +1.9867922983e+01 +1.5114062893e+02 1.5577598565e+02 0.0000000000e+00 0.0000e+00 -1.0000e+00
       22  1    3    3    0    0 +2.9138178599e+00 -5.3486221453e+01 +1.5826338022e+02 1.6708250578e+02 0.0000000000e+00 0.0000e+00 -1.0000e+00
       22  1    3    3    0    0 +1.1531575821e+02 +1.8627526922e+01 +5.9627973870e+02 6.0761355781e+02 0.0000000000e+00 0.0000e+00 -1.0000e+00
<rwgt>
<wgt id='morphing_basis_vector_1'> +9.4448548e-06 </wgt>
<wgt id='morphing_basis_vector_2'> +1.0751512e-05 </wgt>
<wgt id='morphing_basis_vector_3'> +1.1380617e-05 </wgt>
<wgt id='morphing_basis_vector_4'> +9.5881812e-06 </wgt>
<wgt id='morphing_basis_vector_5'> +1.0344266e-05 </wgt>
</rwgt>
</event>
<event>
 7      1 +1.0321000e-05 1.45251700e+02 7.81860800e-03 1.20682800e-01
        2 -1    0    0  502    0 +0.0000000000e+00 +0.0000000000e+00 +1.8813280933e+03 1.8813280933e+03 0.0000000000e+00 0.0000e+00 -1.0000e+00
        1 -1    0    0  501    0 -0.0000000000e+00 -0.0000000000e+00 -3.6802418326e+01 3.6802418326e+01 0.0000000000e+00 0.0000e+00 -1.0000e+00
       25  2    1    2    0    0 +3.7694527083e+01 +1.5386100396e+02 +5.0421177792e+02 5.4309167966e+02 1.2499987845e+02 0.0000e+00 0.0000e+00
        2  1    1    2  501    0 +1.1031723123e+02 -9.3538559671e+01 +5.4809848512e+02 5.6686092037e+02 0.0000000000e+00 0.0000e+00 -1.0000e+00
        1  1    1    2  502    0 -1.4801175831e+02 -6.0322444291e+01 +7.9221541196e+02 8.0817791162e+02 0.0000000000e+00 0.0000e+00 -1.0000e+00
       22  1    3    3    0    0 +2.2024846248e+01 +1.7246648294e+02 +4.6987923416e+02 5.0101524556e+02 0.0000000000e+00 0.0000e+00 -1.0000e+00
       22  1    3    3    0    0 +1.5669680835e+01 -1.8605478979e+01 +3.4332543760e+01 4.2076434100e+01 0.0000000000e+00 0.0000e+00 -1.0000e+00
<rwgt>
<wgt id='morphing_basis_vector_1'> +9.9143321e-06 </wgt>
<wgt id='morphing_basis_vector_2'> +8.2507516e-06 </wgt>
<wgt id='morphing_basis_vector_3'> +1.3215591e-05 </wgt>
<wgt id='morphing_basis_vector_4'> +7.4958044e-06 </wgt>
<wgt id='morphing_basis_vector_5'> +1.3835928e-05 </wgt>
</rwgt>
</event>
<event>
 7      1 +1.0321000e-05 8.62958400e+01 7.81860800e-03 1.33201800e-01
        2 -1    0    0  502    0 +0.0000000000e+00 +0.0000000000e+00 +1.9642244925e+03 1.9642244925e+03 0.0000000000e+00 0.0000e+00 -1.0000e+00
        1 -1    0    0  501    0 -0.0000000000e+00 -0.0000000000e+00 -3.9371529980e+01 3.9371529980e+01 0.0000000000e+00 0.0000e+00 -1.0000e+00
       25  2    1    2    0    0 -3.0806624509e+01 -1.7504408475e+00 +1.4889800489e+02 1.9684435503e+02 1.2499988835e+02 0.0000e+00 0.0000e+00
        2  1    1    2  501    0 -2.6000491986e+01 -6.7414279835e+01 +7.7564676220e+01 1.0600466832e+02 0.0000000000e+00 0.0000e+00 -1.0000e+00
        1  1    1    2  502    0 +5.6807116495e+01 +6.9164720682e+01 +1.6983902814e+03 1.7007469991e+03 0.0000000000e+00 0.0000e+00 -1.0000e+00
       22  1    3    3    0    0 +1.3398065140e+01 -5.4296838464e+00 -1.8608554137e+01 2.3564123222e+01 0.0000000000e+00 0.0000e+00 1.0000e+00
       22  1    3    3    0    0 -4.4204689649e+01 +3.6792429990e+00 +1.6750655903e+02 1.7328023180e+02 0.0000000000e+00 0.0000e+00 1.0000e+00
<rwgt>
<wgt id='morphing_basis_vector_1'> +1.0380581e-05 </wgt>
<wgt id='morphing_basis_vector_2'> +1.0469992e-05 </wgt>
<wgt id='morphing_basis_vector_3'> +1.0111868e-05 </wgt>
<wgt id='morphing_basis_vector_4'> +1.0587299e-05 </wgt>
<wgt id='morphing_basis_vector_5'> +1.0099210e-05 </wgt>
</rwgt>
</event>
<event>
 7      1 +1.0321000e-05 1.03423700e+02 7.81860800e-03 1.32527000e-01
        2 -1    0    0  502    0 +0.0000000000e+00 +0.0000000000e+00 +4.3104738245e+02 4.3104738245e+02 0.0000000000e+00 0.0000e+00 -1.0000e+00
        1 -1    0    0  501    0 -0.0000000000e+00 -0.0000000000e+00 -3.8018358197e+02 3.8018358197e+02 0.0000000000e+00 0.0000e+00 -1.0000e+00
       25  2    1    2    0    0 -6.5051333577e+01 +6.5595833661e+00 +6.8655563356e+01 1.5688704967e+02 1.2500102335e+02 0.0000e+00 0.0000e+00
        2  1    1    2  501    0 -2.9635149482e+01 +5.6706867733e+01 -3.2263840643e+02 3.2892165061e+02 0.0000000000e+00 0.0000e+00 -1.0000e+00
        1  1    1    2  502    0 +9.4686483060e+01 -6.3266451099e+01 +3.0484664356e+02 3.2542226414e+02 0.0000000000e+00 0.0000e+00 -1.0000e+00
       22  1    3    3    0    0 +1.1798338070e+01 -1.3521125551e+01 -2.7082973908e+01 3.2488599432e+01 0.0000000000e+00 0.0000e+00 1.0000e+00
       22  1    3    3    0    0 -7.6849671647e+01 +2.0080708917e+01 +9.5738537264e+01 1.2439845023e+02 0.0000000000e+00 0.0000e+00 1.0000e+00
<rwgt>
<wgt id='morphing_basis_vector_1'> +1.0182596e-05 </wgt>
<wgt id='morphing_basis_vector_2'> +1.0215897e-05 </wgt>
<wgt id='morphing_basis_vector_3'> +1.0623104e-05 </wgt>
<wgt id='morphing_basis_vector_4'> +9.9999744e-06 </wgt>
<wgt id='morphing_basis_vector_5'> +1.0544520e-05 </wgt>
</rwgt>
</event>
<event>
 7      1 +1.0321000e-05 1.58289800e+02 7.81860800e-03 1.33665000e-01
        2 -1    0    0  502    0 +0.0000000000e+00 +0.0000000000e+00 +2.3463541471e+03 2.3463541471e+03 0.0000000000e+00 0.0000e+00 -1.0000e+00
        1 -1    0    0  501    0 -0.0000000000e+00 -0.0000000000e+00 -8.4007581066e+01 8.4007581066e+01 0.0000000000e+00 0.0000e+00 -1.0000e+00
       25  2    1    2    0    0 -1.0578450276e+01 +1.6706897018e+02 +1.4608566953e+03 1.4757206146e+03 1.2500041515e+02 0.0000e+00 0.0000e+00
        2  1    1    2  501    0 +3.3838573038e+01 -1.6910756658e+01 -6.4849957362e+01 7.5076891823e+01 0.0000000000e+00 0.0000e+00 -1.0000e+00
        1  1    1    2  502    0 -2.3260122762e+01 -1.5015821353e+02 +8.6633982812e+02 8.7956422175e+02 0.0000000000e+00 0.0000e+00 -1.0000e+00
       22  1    3    3    0    0 -1.7441538898e+01 +1.3116618222e+02 +1.3871619959e+03 1.3934587104e+03 0.0000000000e+00 0.0000e+00 1.0000e+00
       22  1    3    3    0    0 +6.8630886221e+00 +3.5902787963e+01 +7.3694699322e+01 8.2261904166e+01 0.0000000000e+00 0.0000e+00 1.0000e+00
<rwgt>
<wgt id='morphing_basis_vector_1'> +9.0757856e-06 </wgt>
<wgt id='morphing_basis_vector_2'> +1.0856894e-05 </wgt>
<wgt id='morphing_basis_vector_3'> +1.1909918e-05 </wgt>
<wgt id='morphing_basis_vector_4'> +9.1812382e-06 </wgt>
<wgt id='morphing_basis_vector_5'> +1.0414890e-05 </wgt>
</rwgt>
</event>
<event>
 7      1 +1.0321000e-05 7.28831400e+01 7.81860800e-03 1.40809300e-01
        2 -1    0    0  502    0 +0.0000000000e+00 +0.0000000000e+00 +1.8730008877e+03 1.8730008877e+03 0.0000000000e+00 0.0000e+00 -1.0000e+00
        1 -1    0    0  501    0 -0.0000000000e+00 -0.0000000000e+00 -4.4076986004e+01 4.4076986004e+01 0.0000000000e+00 0.0000e+00 -1.0000e+00
       25  2    1    2    0    0 -3.1719894409e+01 -5.6688810107e+01 +1.6093653959e+03 1.6155190867e+03 1.2500067609e+02 0.0000e+00 0.0000e+00
        2  1    1    2  501    0 -4.2137732897e+01 -1.7313266516e+01 -1.2325655957e+01 4.7193850510e+01 0.0000000000e+00 0.0000e+00 -1.0000e+00
        1  1    1    2  502    0 +7.3857627306e+01 +7.4002076622e+01 +2.3188416177e+02 2.5436493653e+02 0.0000000000e+00 0.0000e+00 -1.0000e+00
       22  1    3    3    0    0 +4.0455053602e+00 +3.7397454862e+01 +3.1305523838e+02 3.1530702184e+02 0.0000000000e+00 0.0000e+00 1.0000e+00
       22  1    3    3    0    0 -3.5765399769e+01 -9.4086264969e+01 +1.2963101575e+03 1.3002120648e+03 0.0000000000e+00 0.0000e+00 1.0000e+00
<rwgt>
<wgt id='morphing_basis_vector_1'> +9.6276669e-06 </wgt>
<wgt id='morphing_basis_vector_2'> +1.0502749e-05 </wgt>
<wgt id='morphing_basis_vector_3'> +1.1319306e-05 </wgt>
<wgt id='morphing_basis_vector_4'> +9.5879045e-06 </wgt>
<wgt id='morphing_basis_vector_5'> +1.0558252e-05 </wgt>
</rwgt>
</event>
<event>
 7      1 +1.0321000e-05 5.05588000e+01 7.81860800e-03 1.46541900e-01
        2 -1    0    0  502    0 +0.0000000000e+00 +0.0000000000e+00 +1.6504789726e+03 1.6504789726e+03 0.0000000000e+00 0.0000e+00 -1.0000e+00
        1 -1    0    0  501    0 -0.0000000000e+00 -0.0000000000e+00 -2.2527017441e+02 2.2527017441e+02 0.0000000000e+00 0.0000e+00 -1.0000e+00
       25  2    1    2    0    0 -3.7135586326e+01 +6.9431168714e+01 -4.8175897142e+01 1.5538537132e+02 1.2499583031e+02 0.0000e+00 0.0000e+00
        2  1    1    2  501    0 -2.2919665468e-01 -4.8771379480e+01 -1.1837650192e+02 1.2803005973e+02 0.0000000000e+00 0.0000e+00 -1.0000e+00
        1  1    1    2  502    0 +3.7364782980e+01 -2.0659789233e+01 +1.5917611973e+03 1.5923337160e+03 0.0000000000e+00 0.0000e+00 -1.0000e+00
       22  1    3    3    0    0 +3.9723441639e+00 -1.6668846323e+01 +2.8316849399e+01 3.3097944284e+01 0.0000000000e+00 0.0000e+00 1.0000e+00
       22  1    3    3    0    0 -4.1107930489e+01 +8.6100015037e+01 -7.6492746542e+01 1.2228742704e+02 0.0000000000e+00 0.0000e+00 1.0000e+00
<rwgt>
<wgt id='morphing_basis_vector_1'> +1.0193286e-05 </wgt>
<wgt id='morphing_basis_vector_2'> +1.0569373e-05 </wgt>
<wgt id='morphing_basis_vector_3'> +1.0313156e-05 </wgt>
<wgt id='morphing_basis_vector_4'> +1.0440523e-05 </wgt>
<wgt id='morphing_basis_vector_5'> +1.0077833e-05 </wgt>
</rwgt>
</event>
<event>
 7      1 +1.0321000e-05 6.59000200e+01 7.81860800e-03 1.48234400e-01
        2 -1    0    0  502    0 +0.0000000000e+00 +0.0000000000e+00 +1.0078863906e+03 1.0078863906e+03 0.0000000000e+00 0.0000e+00 -1.0000e+00
        1 -1    0    0  501    0 -0.0000000000e+00 -0.0000000000e+00 -6.0808884346e+02 6.0808884346e+02 0.0000000000e+00 0.0000e+00 -1.0000e+00
       25  2    1    2    0    0 +4.1189560573e+01 +2.1256875564e+01 -1.4344580129e+02 1.9583127651e+02 1.2499902517e+02 0.0000e+00 0.0000e+00
        2  1    1    2  501    0 +2.4602662880e+01 -1.5420512543e+01 -4.3685681094e+02 4.3782068988e+02 0.0000000000e+00 0.0000e+00 -1.0000e+00
        1  1    1    2  502    0 -6.5792223453e+01 -5.8363630203e+00 +9.8010015933e+02 9.8232326763e+02 0.0000000000e+00 0.0000e+00 -1.0000e+00
       22  1    3    3    0    0 +2.4180183205e+01 +6.7357750041e+01 -1.2362499420e+02 1.4284567527e+02 0.0000000000e+00 0.0000e+00 1.0000e+00
       22  1    3    3    0    0 +1.7009377368e+01 -4.6100874478e+01 -1.9820807088e+01 5.2985601248e+01 0.0000000000e+00 0.0000e+00 1.0000e+00
<rwgt>
<wgt id='morphing_basis_vector_1'> +1.0275892e-05 </wgt>
<wgt id='morphing_basis_vector_2'> +1.0288908e-05 </wgt>
<wgt id='morphing_basis_vector_3'> +1.0416849e-05 </wgt>
<wgt id='morphing_basis_vector_4'> +1.0218577e-05 </wgt>
<wgt id='morphing_basis_vector_5'> +1.0390511e-05 </wgt>
</rwgt>
</event>
<event>
 7      1 +1.0321000e-05 4.83163800e+01 7.81860800e-03 1.47230200e-01
        2 -1    0    0  502    0 +0.0000000000e+00 +0.0000000000e+00 +7.3766786124e+02 7.3766786124e+02 0.0000000000e+00 0.0000e+00 -1.0000e+00
        1 -1    0    0  501    0 -0.0000000000e+00 -0.0000000000e+00 -9.3383035812e+02 9.3383035812e+02 0.0000000000e+00 0.0000e+00 -1.0000e+00
       25  2    1    2    0    0 +4.8939987454e+01 -6.6887403919e+01 -3.5954832695e+02 3.8957494358e+02 1.2499836032e+02 0.0000e+00 0.0000e+00
        2  1    1    2  501    0 -7.7056069361e+00 +4.1821093685e+01 -5.5765271428e+02 5.5927178545e+02 0.0000000000e+00 0.0000e+00 -1.0000e+00
        1  1    1    2  502    0 -4.1234380518e+01 +2.5066310234e+01 +7.2103854435e+02 7.2265149033e+02 0.0000000000e+00 0.0000e+00 -1.0000e+00
       22  1    3    3    0    0 +5.7000659277e+01 -5.5854288016e+01 -3.6590361254e+02 3.7450531414e+02 0.0000000000e+00 0.0000e+00 -1.0000e+00
       22  1    3    3    0    0 -8.0606718226e+00 -1.1033115903e+01 +6.3552855899e+00 1.5069629447e+01 0.0000000000e+00 0.0000e+00 -1.0000e+00
<rwgt>
<wgt id='morphing_basis_vector_1'> +1.0188425e-05 </wgt>
<wgt id='morphing_basis_vector_2'> +1.0544142e-05 </wgt>
<wgt id='morphing_basis_vector_3'> +1.0341225e-05 </wgt>
<wgt id='morphing_basis_vector_4'> +1.0403160e-05 </wgt>
<wgt id='morphing_basis_vector_5'> +1.0112998e-05 </wgt>
</rwgt>
</event>
<event>
 7      1 +1.0321000e-05 1.45094400e+02 7.81860800e-03 1.26144200e-01
        2 -1    0    0  502    0 +0.0000000000e+00 +0.0000000000e+00 +2.1603131233e+02 2.1603131233e+02 0.0000000000e+00 0.0000e+00 -1.0000e+00
        1 -1    0    0  501    0 -0.0000000000e+00 -0.0000000000e+00 -1.9110935684e+03 1.9110935684e+03 0.0000000000e+00 0.0000e+00 -1.0000e+00
       25  2    1    2    0    0 +3.6967719339e+01 -7.3596853214e+01 -1.1575731164e+03 1.1672174552e+03 1.2505182410e+02 0.0000e+00 0.0000e+00
        2  1    1    2  501    0 -3.8677805232e+01 -7.3079178995e+01 -7.2057726239e+02 7.2530554258e+02 0.0000000000e+00 0.0000e+00 -1.0000e+00
        1  1    1    2  502    0 +1.7100858925e+00 +1.4667603221e+02 +1.8308812273e+02 2.3460188299e+02 0.0000000000e+00 0.0000e+00 -1.0000e+00
       22  1    3    3    0    0 -4.5555371629e+00 +3.3188347827e+01 -3.4180419264e+02 3.4344188075e+02 0.0000000000e+00 0.0000e+00 -1.0000e+00
       22  1    3    3    0    0 +4.1523256502e+01 -1.0678520104e+02 -8.1576892378e+02 8.2377557441e+02 0.0000000000e+00 0.0000e+00 -1.0000e+00
<rwgt>
<wgt id='morphing_basis_vector_1'> +1.0227479e-05 </wgt>
<wgt id='morphing_basis_vector_2'> +9.8958189e-06 </wgt>
<wgt id='morphing_basis_vector_3'> +1.0836590e-05 </wgt>
<wgt id='morphing_basis_vector_4'> +9.6836060e-06 </wgt>
<wgt id='morphing_basis_vector_5'> +1.0956902e-05 </wgt>
</rwgt>
</event>
<event>
 7      1 +1.0321000e-05 6.51948900e+01 7.81860800e-03 1.44634000e-01
        2 -1    0    0  502    0 +0.0000000000e+00 +0.0000000000e+00 +2.3884095220e+03 2.3884095220e+03 0.0000000000e+00 0.0000e+00 -1.0000e+00
        1 -1    0    0  501    0 -0.0000000000e+00 -0.0000000000e+00 -1.7662903207e+02 1.7662903207e+02 0.0000000000e+00 0.0000e+00 -1.0000e+00
       25  2    1    2    0    0 -5.1885185130e+01 -1.9325146550e+01 +6.3777728774e+01 1.5085260599e+02 1.2499350512e+02 0.0000e+00 0.0000e+00
        2  1    1    2  501    0 +3.8034993281e+01 +5.4779733890e+01 -1.2456803220e+02 1.4129640690e+02 0.0000000000e+00 0.0000e+00 -1.0000e+00
        1  1    1    2  502    0 +1.3850191849e+01 -3.5454587340e+01 +2.2725707933e+03 2.2728895412e+03 0.0000000000e+00 0.0000e+00 -1.0000e+00
       22  1    3    3    0    0 +4.0148169741e+01 -1.3216083870e+01 +7.8649882654e+00 4.2993004626e+01 0.0000000000e+00 0.0000e+00 -1.0000e+00
       22  1    3    3    0    0 -9.2033354871e+01 -6.1090626799e+00 +5.5912740509e+01 1.0785960137e+02 0.0000000000e+00 0.0000e+00 -1.0000e+00
<rwgt>
<wgt id='morphing_basis_vector_1'> +1.0230972e-05 </wgt>
<wgt id='morphing_basis_vector_2'> +1.0271414e-05 </wgt>
<wgt id='morphing_basis_vector_3'> +1.0500835e-05 </wgt>
<wgt id='morphing_basis_vector_4'> +1.0134325e-05 </wgt>
<wgt id='morphing_basis_vector_5'> +1.0441016e-05 </wgt>
</rwgt>
</event>
<event>
 7      1 +1.0321000e-05 1.62843600e+02 7.81860800e-03 1.24502000e-01
        2 -1    0    0  502    0 +0.0000000000e+00 +0.0000000000e+00 +2.7259761544e+03 2.7259761544e+03 0.0000000000e+00 0.0000e+00 -1.0000e+00
        1 -1    0    0  501    0 -0.0000000000e+00 -0.0000000000e+00 -2.1022467149e+02 2.1022467149e+02 0.0000000000e+00 0.0000e+00 -1.0000e+00
       25  2    1    2    0    0 -1.9044473337e+02 +1.3588450002e+02 +2.9820136479e+02 3.9910314463e+02 1.2500188910e+02 0.0000e+00 0.0000e+00
        2  1    1    2  501    0 +4.3050108102e+01 -7.5290619629e+01 -1.4511866849e+02 1.6906039500e+02 0.0000000000e+00 0.0000e+00 -1.0000e+00
        1  1    1    2  502    0 +1.4739462526e+02 -6.0593880389e+01 +2.3626687866e+03 2.3680372863e+03 0.0000000000e+00 0.0000e+00 -1.0000e+00
       22  1    3    3    0    0 -1.5934011199e+01 -2.2389390744e+00 +9.9368706921e+01 1.0066302934e+02 0.0000000000e+00 0.0000e+00 -1.0000e+00
       22  1    3    3    0    0 -1.7451072217e+02 +1.3812343909e+02 +1.9883265787e+02 2.9844011529e+02 0.0000000000e+00 0.0000e+00 -1.0000e+00
<rwgt>
<wgt id='morphing_basis_vector_1'> +9.3274206e-06 </wgt>
<wgt id='morphing_basis_vector_2'> +1.1816294e-05 </wgt>
<wgt id='morphing_basis_vector_3'> +1.0691098e-05 </wgt>
<wgt id='morphing_basis_vector_4'> +1.0642101e-05 </wgt>
<wgt id='morphing_basis_vector_5'> +9.0926991e-06 </wgt>
</rwgt>
</event>
<event>
 7      1 +1.0321000e-05 9.05134100e+01 7.81860800e-03 1.38430000e-01
        2 -1    0    0  502    0 +0.0000000000e+00 +0.0000000000e+00 +3.8441002151e+02 3.8441002151e+02 0.0000000000e+00 0.0000e+00 -1.0000e+00
        1 -1    0    0  501    0 -0.0000000000e+00 -0.0000000000e+00 -1.1613833219e+03 1.1613833219e+03 0.0000000000e+00 0.0000e+00 -1.0000e+00
       25  2    1    2    0    0 +1.0349973691e+02 +8.2250934492e+01 -2.3199409418e+01 1.8341209038e+02 1.2499748212e+02 0.0000e+00 0.0000e+00
        2  1    1    2  501    0 -3.6011742390e+01 -2.5858439779e+01 -1.0512461252e+03 1.0521805550e+03 0.0000000000e+00 0.0000e+00 -1.0000e+00
        1  1    1    2  502    0 -6.7487994522e+01 -5.6392494712e+01 +2.9747223429e+02 3.1020069800e+02 0.0000000000e+00 0.0000e+00 -1.0000e+00
       22  1    3    3    0    0 +1.0626551082e+02 +3.4597961755e+01 -5.6484892239e+01 1.2521949049e+02 0.0000000000e+00 0.0000e+00 1.0000e+00
       22  1    3    3    0    0 -2.7657739066e+00 +4.7652972737e+01 +3.3285482821e+01 5.8192599896e+01 0.0000000000e+00 0.0000e+00 1.0000e+00
<rwgt>
<wgt id='morphing_basis_vector_1'> +9.9719069e-06 </wgt>
<wgt id='morphing_basis_vector_2'> +1.0648604e-05 </wgt>
<wgt id='morphing_basis_vector_3'> +1.0593014e-05 </wgt>
<wgt id='morphing_basis_vector_4'> +1.0219500e-05 </wgt>
<wgt id='morphing_basis_vector_5'> +1.0111545e-05 </wgt>
</rwgt>
</event>
<event>
 7      1 +1.0321000e-05 5.23756700e+01 7.81860800e-03 1.55852500e-01
        2 -1    0    0  502    0 +0.0000000000e+00 +0.0000000000e+00 +2.1974855670e+02 2.1974855670e+02 0.0000000000e+00 0.0000e+00 -1.0000e+00
        1 -1    0    0  501    0 -0.0000000000e+00 -0.0000000000e+00 -1.0266920196e+03 1.0266920196e+03 0.0000000000e+00 0.0000e+00 -1.0000e+00
       25  2    1    2    0    0 -5.3962048100e+01 +5.0079983868e+01 +5.5614410801e+01 1.5536259974e+02 1.2499866915e+02 0.0000e+00 0.0000e+00
        2  1    1    2  501    0 +4.1004808515e+01 -3.2361229038e+01 -9.7505805432e+02 9.7645627284e+02 0.0000000000e+00 0.0000e+00 -1.0000e+00
        1  1    1    2  502    0 +1.2957239585e+01 -1.7718754830e+01 +1.1250018060e+02 1.1462170373e+02 0.0000000000e+00 0.0000e+00 -1.0000e+00
       22  1    3    3    0    0 -4.7939038562e+01 +5.5793486513e+01 +9.2142044088e+01 1.1790343865e+02 0.0000000000e+00 0.0000e+00 -1.0000e+00
       22  1    3    3    0    0 -6.0230095374e+00 -5.7135026456e+00 -3.6527633288e+01 3.7459161095e+01 0.0000000000e+00 0.0000e+00 -1.0000e+00
<rwgt>
<wgt id='morphing_basis_vector_1'> +1.0197613e-05 </wgt>
<wgt id='morphing_basis_vector_2'> +1.0405440e-05 </wgt>
<wgt id='morphing_basis_vector_3'> +1.0441108e-05 </wgt>
<wgt id='morphing_basis_vector_4'> +1.0248944e-05 </wgt>
<wgt id='morphing_basis_vector_5'> +1.0286223e-05 </wgt>
</rwgt>
</event>
<event>
 7      1 +1.0321000e-05 4.43314600e+01 7.81860800e-03 1.52358400e-01
        2 -1    0    0  502    0 +0.0000000000e+00 +0.0000000000e+00 +5.8098913617e+02 5.8098913617e+02 0.0000000000e+00 0.0000e+00 -1.0000e+00
        1 -1    0    0  501    0 -0.0000000000e+00 -0.0000000000e+00 -1.0330272714e+03 1.0330272714e+03 0.0000000000e+00 0.0000e+00 -1.0000e+00
       25  2    1    2    0    0 -1.7378933364e+01 +7.3368425016e+00 +6.1888556375e+01 1.4075497373e+02 1.2500365049e+02 0.0000e+00 0.0000e+00
        2  1    1    2  501    0 -2.6088279449e+01 -1.9461302710e+01 -9.9226528312e+02 9.9279893871e+02 0.0000000000e+00 0.0000e+00 -1.0000e+00
        1  1    1    2  502    0 +4.3467212812e+01 +1.2124460208e+01 +4.7833859150e+02 4.8046249515e+02 0.0000000000e+00 0.0000e+00 -1.0000e+00
       22  1    3    3    0    0 +3.8089092306e+01 -1.9875107425e+00 +7.3971325612e+01 8.3225513903e+01 0.0000000000e+00 0.0000e+00 1.0000e+00
       22  1    3    3    0    0 -5.5468025669e+01 +9.3243532441e+00 -1.2082769237e+01 5.7529459823e+01 0.0000000000e+00 0.0000e+00 1.0000e+00
<rwgt>
<wgt id='morphing_basis_vector_1'> +1.0318556e-05 </wgt>
<wgt id='morphing_basis_vector_2'> +1.0353646e-05 </wgt>
<wgt id='morphing_basis_vector_3'> +1.0297813e-05 </wgt>
<wgt id='morphing_basis_vector_4'> +1.0357201e-05 </wgt>
<wgt id='morphing_basis_vector_5'> +1.0279927e-05 </wgt>
</rwgt>
</event>
<event>
 7      1 +1.0321000e-05 5.20255300e+01 7.81860800e-03 1.45875600e-01
        2 -1    0    0  502    0 +0.0000000000e+00 +0.0000000000e+00 +1.7585518269e+02 1.7585518269e+02 0.0000000000e+00 0.0000e+00 -1.0000e+00
        1 -1    0    0  501    0 -0.0000000000e+00 -0.0000000000e+00 -1.3295361377e+03 1.3295361377e+03 0.0000000000e+00 0.0000e+00 -1.0000e+00
       25  2    1    2    0    0 +2.9137124021e+00 +8.9326091545e+01 -4.1376381573e+01 1.5913813921e+02 1.2500120818e+02 0.0000e+00 0.0000e+00
        2  1    1    2  501    0 +1.2738678968e+01 -4.1638951122e+01 -1.2234898919e+03 1.2242645106e+03 0.0000000000e+00 0.0000e+00 -1.0000e+00
        1  1    1    2  502    0 -1.5652391370e+01 -4.7687140423e+01 +1.1118531848e+02 1.2198867063e+02 0.0000000000e+00 0.0000e+00 -1.0000e+00
       22  1    3    3    0    0 -5.6340307442e+01 +2.7792467683e+01 -3.8466583934e+01 7.3663624551e+01 0.0000000000e+00 0.0000e+00 -1.0000e+00
       22  1    3    3    0    0 +5.9254019844e+01 +6.1533623863e+01 -2.9097976392e+00 8.5474514655e+01 0.0000000000e+00 0.0000e+00 -1.0000e+00
<rwgt>
<wgt id='morphing_basis_vector_1'> +1.0130319e-05 </wgt>
<wgt id='morphing_basis_vector_2'> +1.0403548e-05 </wgt>
<wgt id='morphing_basis_vector_3'> +1.0547291e-05 </wgt>
<wgt id='morphing_basis_vector_4'> +1.0151578e-05 </wgt>
<wgt id='morphing_basis_vector_5'> +1.0329883e-05 </wgt>
</rwgt>
</event>
<event>
 7      1 +1.0321000e-05 6.28656300e+01 7.81860800e-03 1.45713900e-01
        2 -1    0    0  502    0 +0.0000000000e+00 +0.0000000000e+00 +2.1443922985e+02 2.1443922985e+02 0.0000000000e+00 0.0000e+00 -1.0000e+00
        1 -1    0    0  501    0 -0.0000000000e+00 -0.0000000000e+00 -4.1491645546e+02 4.1491645546e+02 0.0000000000e+00 0.0000e+00 -1.0000e+00
       25  2    1    2    0    0 +3.3146053605e+01 -7.9597728572e+01 -1.3524854505e+02 2.0335155868e+02 1.2500091287e+02 0.0000e+00 0.0000e+00
        2  1    1    2  501    0 +1.0329185362e+01 +3.4968926910e+01 -2.3881118724e+02 2.4157876784e+02 0.0000000000e+00 0.0000e+00 -1.0000e+00
        1  1    1    2  502    0 -4.3475238967e+01 +4.4628801662e+01 +1.7358250668e+02 1.8442535879e+02 0.0000000000e+00 0.0000e+00 -1.0000e+00
       22  1    3    3    0    0 +7.3385566927e+00 +2.8500573997e+01 -1.5183983789e+00 2.9469351302e+01 0.0000000000e+00 0.0000e+00 1.0000e+00
       22  1    3    3    0    0 +2.5807496912e+01 -1.0809830257e+02 -1.3373014667e+02 1.7388220738e+02 0.0000000000e+00 0.0000e+00 1.0000e+00
<rwgt>
<wgt id='morphing_basis_vector_1'> +1.0177598e-05 </wgt>
<wgt id='morphing_basis_vector_2'> +1.0604901e-05 </wgt>
<wgt id='morphing_basis_vector_3'> +1.0308409e-05 </wgt>
<wgt id='morphing_basis_vector_4'> +1.0460982e-05 </wgt>
<wgt id='morphing_basis_vector_5'> +1.0042087e-05 </wgt>
</rwgt>
</event>
<event>
 7      1 +1.0321000e-05 7.41299900e+01 7.81860800e-03 1.43829900e-01
        2 -1    0    0  502    0 +0.0000000000e+00 +0.0000000000e+00 +5.3684642486e+02 5.3684642486e+02 0.0000000000e+00 0.0000e+00 -1.0000e+00
        1 -1    0    0  501    0 -0.0000000000e+00 -0.0000000000e+00 -5.1701753044e+02 5.1701753044e+02 0.0000000000e+00 0.0000e+00 -1.0000e+00
       25  2    1    2    0    0 +5.5602421224e+01 +6.7502739038e+01 +1.9860869987e+01 1.5383282669e+02 1.2498734091e+02 0.0000e+00 0.0000e+00
        2  1    1    2  501    0 -3.5368055512e+01 +3.5116780973e+00 -4.4629112312e+02 4.4770414094e+02 0.0000000000e+00 0.0000e+00 -1.0000e+00
        1  1    1    2  502    0 -2.0234365712e+01 -7.1014417135e+01 +4.4625914756e+02 4.5232698767e+02 0.0000000000e+00 0.0000e+00 -1.0000e+00
       22  1    3    3    0    0 +7.2949422779e+01 +4.2718277112e+01 +5.9930975016e+01 1.0362524427e+02 0.0000000000e+00 0.0000e+00 1.0000e+00
       22  1    3    3    0    0 -1.7347001555e+01 +2.4784461926e+01 -4.0070105029e+01 5.0207582425e+01 0.0000000000e+00 0.0000e+00 1.0000e+00
<rwgt>
<wgt id='morphing_basis_vector_1'> +1.0198033e-05 </wgt>
<wgt id='morphing_basis_vector_2'> +1.0587238e-05 </wgt>
<wgt id='morphing_basis_vector_3'> +1.0291231e-05 </wgt>
<wgt id='morphing_basis_vector_4'> +1.0468859e-05 </wgt>
<wgt id='morphing_basis_vector_5'> +1.0052195e-05 </wgt>
</rwgt>
</event>
<event>
 7      1 +1.0321000e-05 4.80177600e+01 7.81860800e-03 1.47504000e-01
        2 -1    0    0  502    0 +0.0000000000e+00 +0.0000000000e+00 +1.3957677717e+02 1.3957677717e+02 0.0000000000e+00 0.0000e+00 -1.0000e+00
        1 -1    0    0  501    0 -0.0000000000e+00 -0.0000000000e+00 -7.0101262982e+02 7.0101262982e+02 0.0000000000e+00 0.0000e+00 -1.0000e+00
       25  2    1    2    0    0 +5.0268136588e+01 +2.5734769321e+01 -3.7151459981e+02 3.9602705272e+02 1.2500065883e+02 0.0000e+00 0.0000e+00
        2  1    1    2  501    0 -4.6349332052e+01 +1.6044607624e+01 -3.1181439173e+02 3.1564838809e+02 0.0000000000e+00 0.0000e+00 -1.0000e+00
        1  1    1    2  502    0 -3.9188045365e+00 -4.1779376945e+01 +1.2189313888e+02 1.2891396617e+02 0.0000000000e+00 0.0000e+00 -1.0000e+00
       22  1    3    3    0    0 -1.5520222870e+01 -8.5465761263e+00 -5.5924173808e-01 1.7726647532e+01 0.0000000000e+00 0.0000e+00 1.0000e+00
       22  1    3    3    0    0 +6.5788359458e+01 +3.4281345447e+01 -3.7095535807e+02 3.7830040519e+02 0.0000000000e+00 0.0000e+00 1.0000e+00
<rwgt>
<wgt id='morphing_basis_vector_1'> +1.0260142e-05 </wgt>
<wgt id='morphing_basis_vector_2'> +1.0552424e-05 </wgt>
<wgt id='morphing_basis_vector_3'> +1.0224544e-05 </wgt>
<wgt id='morphing_basis_vector_4'> +1.0515279e-05 </wgt>
<wgt id='morphing_basis_vector_5'> +1.0059322e-05 </wgt>
</rwgt>
</event>
<event>
 7      1 +1.0321000e-05 9.70068600e+01 7.81860800e-03 1.30995100e-01
        2 -1    0    0  502    0 +0.0000000000e+00 +0.0000000000e+00 +7.4488698998e+02 7.4488698998e+02 0.0000000000e+00 0.0000e+00 -1.0000e+00
        1 -1    0    0  501    0 -0.0000000000e+00 -0.0000000000e+00 -4.2414390267e+02 4.2414390267e+02 0.0000000000e+00 0.0000e+00 -1.0000e+00
       25  2    1    2    0    0 +4.3216974723e-01 -1.3672532799e+02 -1.5571196686e+02 2.4200377214e+02 1.2500242806e+02 0.0000e+00 0.0000e+00
        2  1    1    2  501    0 +5.0266791065e+01 +7.7106030261e+01 -2.1357938308e+02 2.3256879211e+02 0.0000000000e+00 0.0000e+00 -1.0000e+00
        1  1    1    2  502    0 -5.0698960813e+01 +5.9619297727e+01 +6.9003443725e+02 6.9445832840e+02 0.0000000000e+00 0.0000e+00 -1.0000e+00
       22  1    3    3    0    0 -4.2095799075e+01 -1.6599660340e-01 -3.9285340473e+01 5.7579699815e+01 0.0000000000e+00 0.0000e+00 1.0000e+00
       22  1    3    3    0    0 +4.2527968822e+01 -1.3655933138e+02 -1.1642662638e+02 1.8442407232e+02 0.0000000000e+00 0.0000e+00 1.0000e+00
<rwgt>
<wgt id='morphing_basis_vector_1'> +9.9418694e-06 </wgt>
<wgt id='morphing_basis_vector_2'> +1.1212325e-05 </wgt>
<wgt id='morphing_basis_vector_3'> +1.0187216e-05 </wgt>
<wgt id='morphing_basis_vector_4'> +1.0847524e-05 </wgt>
<wgt id='morphing_basis_vector_5'> +9.4337527e-06 </wgt>
</rwgt>
</event>
<event>
 7      1 +1.0321000e-05 7.75923300e+01 7.81860800e-03 1.42846800e-01
        2 -1    0    0  502    0 +0.0000000000e+00 +0.0000000000e+00 +1.2620366026e+03 1.2620366026e+03 0.0000000000e+00 0.0000e+00 -1.0000e+00
        1 -1    0    0  501    0 -0.0000000000e+00 -0.0000000000e+00 -8.3427949895e+02 8.3427949895e+02 0.0000000000e+00 0.0000e+00 -1.0000e+00
       25  2    1    2    0    0 -1.1201277673e+02 -4.0257286549e-01 -1.2225682523e+02 2.0764906341e+02 1.2499751200e+02 0.0000e+00 0.0000e+00
        2  1    1    2  501    0 +7.5746065853e+01 -4.2984819017e+00 -6.6690108608e+02 6.7120265349e+02 0.0000000000e+00 0.0000e+00 -1.0000e+00
        1  1    1    2  502    0 +3.6266710880e+01 +4.7010547672e+00 +1.2169150150e+03 1.2174643847e+03 0.0000000000e+00 0.0000e+00 -1.0000e+00
       22  1    3    3    0    0 +5.6526407309e+00 +3.9416626941e+01 -1.2090559438e+01 4.1614954693e+01 0.0000000000e+00 0.0000e+00 1.0000e+00
       22  1    3    3    0    0 -1.1766541746e+02 -3.9819199806e+01 -1.1016626579e+02 1.6603410872e+02 0.0000000000e+00 0.0000e+00 1.0000e+00
<rwgt>
<wgt id='morphing_basis_vector_1'> +1.0080453e-05 </wgt>
<wgt id='morphing_basis_vector_2'> +1.0563675e-05 </wgt>
<wgt id='morphing_basis_vector_3'> +1.0492623e-05 </wgt>
<wgt id='morphing_basis_vector_4'> +1.0272845e-05 </wgt>
<wgt id='morphing_basis_vector_5'> +1.0153601e-05 </wgt>
</rwgt>
</event>
<event>
 7      1 +1.0321000e-05 8.48050100e+01 7.81860800e-03 1.33792300e-01
        2 -1    0    0  502    0 +0.0000000000e+00 +0.0000000000e+00 +2.6457805587e+02 2.6457805587e+02 0.0000000000e+00 0.0000e+00 -1.0000e+00
        1 -1    0    0  501    0 -0.0000000000e+00 -0.0000000000e+00 -8.2645866218e+02 8.2645866218e+02 0.0000000000e+00 0.0000e+00 -1.0000e+00
       25  2    1    2    0    0 -6.6265349085e+01 -6.2294259319e+01 +7.9162403233e+01 1.7367584271e+02 1.2499976408e+02 0.0000e+00 0.0000e+00
        2  1    1    2  501    0 -2.3171352401e+01 +6.5874586569e+01 -7.6294078464e+02 7.6612989342e+02 0.0000000000e+00 0.0000e+00 -1.0000e+00
        1  1    1    2  502    0 +8.9436701486e+01 -3.5803272503e+00 +1.2189777511e+02 1.5123098192e+02 0.0000000000e+00 0.0000e+00 -1.0000e+00
       22  1    3    3    0    0 -6.5914909285e+01 +2.1995308255e+01 +2.6989549836e+01 7.4545319448e+01 0.0000000000e+00 0.0000e+00 -1.0000e+00
       22  1    3    3    0    0 -3.5043980048e-01 -8.4289567574e+01 +5.2172853398e+01 9.9130523259e+01 0.0000000000e+00 0.0000e+00 -1.0000e+00
<rwgt>
<wgt id='morphing_basis_vector_1'> +1.0018508e-05 </wgt>
<wgt id='morphing_basis_vector_2'> +1.0133945e-05 </wgt>
<wgt id='morphing_basis_vector_3'> +1.0952827e-05 </wgt>
<wgt id='morphing_basis_vector_4'> +9.6733861e-06 </wgt>
<wgt id='morphing_basis_vector_5'> +1.0756339e-05 </wgt>
</rwgt>
</event>
<event>
 7      1 +1.0321000e-05 3.08119000e+01 7.81860800e-03 1.60074100e-01
        2 -1    0    0  502    0 +0.0000000000e+00 +0.0000000000e+00 +9.5833191729e+02 9.5833191729e+02 0.0000000000e+00 0.0000e+00 -1.0000e+00
        1 -1    0    0  501    0 -0.0000000000e+00 -0.0000000000e+00 -6.6568827651e+02 6.6568827651e+02 0.0000000000e+00 0.0000e+00 -1.0000e+00
       25  2    1    2    0    0 +1.0191364355e+01 -1.6721533800e+01 +6.7550225302e+02 6.8724954980e+02 1.2500070504e+02 0.0000e+00 0.0000e+00
        2  1    1    2  501    0 +2.1362455960e+01 +2.2204028025e+01 -6.5852733381e+02 6.5924777039e+02 0.0000000000e+00 0.0000e+00 -1.0000e+00
        1  1    1    2  502    0 -3.1553820315e+01 -5.4824942249e+00 +2.7566872158e+02 2.7752287361e+02 0.0000000000e+00 0.0000e+00 -1.0000e+00
       22  1    3    3    0    0 +2.7064076397e+00 -3.7414782267e+00 +6.7179937654e+02 6.7181524664e+02 0.0000000000e+00 0.0000e+00 -1.0000e+00
       22  1    3    3    0    0 +7.4849567155e+00 -1.2980055574e+01 +3.7028764833e+00 1.5434303158e+01 0.0000000000e+00 0.0000e+00 -1.0000e+00
<rwgt>
<wgt id='morphing_basis_vector_1'> +1.0317380e-05 </wgt>
<wgt id='morphing_basis_vector_2'> +1.0391164e-05 </wgt>
<wgt id='morphing_basis_vector_3'> +1.0268864e-05 </wgt>
<wgt id='morphing_basis_vector_4'> +1.0401063e-05 </wgt>
<wgt id='morphing_basis_vector_5'> +1.0232171e-05 </wgt>
</rwgt>
</event>
<event>
 7      1 +1.0321000e-05 1.54399900e+02 7.81860800e-03 1.20308500e-01
        2 -1    0    0  502    0 +0.0000000000e+00 +0.0000000000e+00 +3.2371014619e+02 3.2371014619e+02 0.0000000000e+00 0.0000e+00 -1.0000e+00
        1 -1    0    0  501    0 -0.0000000000e+00 -0.0000000000e+00 -1.7958585090e+03 1.7958585090e+03 0.0000000000e+00 0.0000e+00 -1.0000e+00
       25  2    1    2    0    0 -2.7076611893e+02 +1.0395176889e+02 -6.8385454236e+02 7.5326122798e+02 1.2500072422e+02 0.0000e+00 0.0000e+00
        2  1    1    2  501    0 +1.2456024860e+02 -6.7475423317e+01 -1.0525857452e+03 1.0620757690e+03 0.0000000000e+00 0.0000e+00 -1.0000e+00
        1  1    1    2  502    0 +1.4620587033e+02 -3.6476345576e+01 +2.6429192476e+02 3.0423165811e+02 0.0000000000e+00 0.0000e+00 -1.0000e+00
       22  1    3    3    0    0 -2.3238355722e+02 +5.9287632873e+01 -6.2742578638e+02 6.7169952992e+02 0.0000000000e+00 0.0000e+00 -1.0000e+00
       22  1    3    3    0    0 -3.8382561705e+01 +4.4664136019e+01 -5.6428755988e+01 8.1561698068e+01 0.0000000000e+00 0.0000e+00 -1.0000e+00
<rwgt>
<wgt id='morphing_basis_vector_1'> +8.4685828e-06 </wgt>
<wgt id='morphing_basis_vector_2'> +1.2537114e-05 </wgt>
<wgt id='morphing_basis_vector_3'> +1.1602213e-05 </wgt>
<wgt id='morphing_basis_vector_4'> +1.0147941e-05 </wgt>
<wgt id='morphing_basis_vector_5'> +8.8202527e-06 </wgt>
</rwgt>
</event>
<event>
 7      1 +1.0321000e-05 8.38920600e+01 7.81860800e-03 1.37849200e-01
        2 -1    0    0  502    0 +0.0000000000e+00 +0.0000000000e+00 +7.2840248654e+02 7.2840248654e+02 0.0000000000e+00 0.0000e+00 -1.0000e+00
        1 -1    0    0  501    0 -0.0000000000e+00 -0.0000000000e+00 -6.4538311318e+02 6.4538311318e+02 0.0000000000e+00 0.0000e+00 -1.0000e+00
       25  2    1    2    0    0 -4.3157258148e+01 +6.6858169502e+01 -1.4719752645e+02 2.0886545066e+02 1.2500040371e+02 0.0000e+00 0.0000e+00
        2  1    1    2  501    0 -3.5079913523e+01 -3.5836831709e+01 -4.6345545297e+02 4.6616074022e+02 0.0000000000e+00 0.0000e+00 -1.0000e+00
        1  1    1    2  502    0 +7.8237171671e+01 -3.1021337793e+01 +6.9367235277e+02 6.9875940883e+02 0.0000000000e+00 0.0000e+00 -1.0000e+00
       22  1    3    3    0    0 -8.3382427148e+01 +6.1924803990e+01 -8.3027280218e+01 1.3296931889e+02 0.0000000000e+00 0.0000e+00 -1.0000e+00
       22  1    3    3    0    0 +4.0225169000e+01 +4.9333655124e+00 -6.4170246232e+01 7.5896131771e+01 0.0000000000e+00 0.0000e+00 -1.0000e+00
<rwgt>
<wgt id='morphing_basis_vector_1'> +1.0249814e-05 </wgt>
<wgt id='morphing_basis_vector_2'> +1.0628384e-05 </wgt>
<wgt id='morphing_basis_vector_3'> +1.0178628e-05 </wgt>
<wgt id='morphing_basis_vector_4'> +1.0592701e-05 </wgt>
<wgt id='morphing_basis_vector_5'> +9.9689468e-06 </wgt>
</rwgt>
</event>
<event>
 7      1 +1.0321000e-05 1.44649000e+02 7.81860800e-03 1.31685200e-01
        2 -1    0    0  502    0 +0.0000000000e+00 +0.0000000000e+00 +8.2249154184e+02 8.2249154184e+02 0.0000000000e+00 0.0000e+00 -1.0000e+00
        1 -1    0    0  501    0 -0.0000000000e+00 -0.0000000000e+00 -8.1842481696e+02 8.1842481696e+02 0.0000000000e+00 0.0000e+00 -1.0000e+00
       25  2    1    2    0    0 -6.8066177448e+01 -1.7937543386e+02 +7.1614934684e+01 2.3992224485e+02 1.2500173565e+02 0.0000e+00 0.0000e+00
        2  1    1    2  501    0 +5.1361860686e+01 +1.3297516694e+02 -7.2642239023e+02 7.4027692438e+02 0.0000000000e+00 0.0000e+00 -1.0000e+00
        1  1    1    2  502    0 +1.6704316761e+01 +4.6400266928e+01 +6.5887418042e+02 6.6071718957e+02 0.0000000000e+00 0.0000e+00 -1.0000e+00
       22  1    3    3    0    0 -5.0387665437e+01 -1.0475464849e+01 +4.4323330517e+01 6.7920614103e+01 0.0000000000e+00 0.0000e+00 -1.0000e+00
       22  1    3    3    0    0 -1.7678512011e+01 -1.6889996901e+02 +2.7291604166e+01 1.7200163074e+02 0.0000000000e+00 0.0000e+00 -1.0000e+00
<rwgt>
<wgt id='morphing_basis_vector_1'> +9.6251308e-06 </wgt>
<wgt id='morphing_basis_vector_2'> +1.0958921e-05 </wgt>
<wgt id='morphing_basis_vector_3'> +1.0893066e-05 </wgt>
<wgt id='morphing_basis_vector_4'> +1.0087091e-05 </wgt>
<wgt id='morphing_basis_vector_5'> +9.9344555e-06 </wgt>
</rwgt>
</event>
<event>
 7      1 +1.0321000e-05 8.18505000e+01 7.81860800e-03 1.50190900e-01
        2 -1    0    0  502    0 +0.0000000000e+00 +0.0000000000e+00 +1.2884775006e+02 1.2884775006e+02 0.0000000000e+00 0.0000e+00 -1.0000e+00
        1 -1    0    0  501    0 -0.0000000000e+00 -0.0000000000e+00 -2.3341497056e+02 2.3341497056e+02 0.0000000000e+00 0.0000e+00 -1.0000e+00
       25  2    1    2    0    0 +2.8433538641e+01 -9.0057652904e+01 -1.3257461245e+02 2.0522994185e+02 1.2499781678e+02 0.0000e+00 0.0000e+00
        2  1    1    2  501    0 -1.9621529183e+01 +7.1651478252e+01 -4.1151649169e+01 8.4925832186e+01 0.0000000000e+00 0.0000e+00 -1.0000e+00
        1  1    1    2  502    0 -8.8120094577e+00 +1.8406174653e+01 +6.9159041118e+01 7.2106946576e+01 0.0000000000e+00 0.0000e+00 -1.0000e+00
       22  1    3    3    0    0 +1.6958854019e+01 -1.1826946371e+02 -1.2681593836e+02 1.7423418435e+02 0.0000000000e+00 0.0000e+00 -1.0000e+00
       22  1    3    3    0    0 +1.1474684622e+01 +2.8211810801e+01 -5.7586740932e+00 3.0995757502e+01 0.0000000000e+00 0.0000e+00 -1.0000e+00
<rwgt>
<wgt id='morphing_basis_vector_1'> +9.7800802e-06 </wgt>
<wgt id='morphing_basis_vector_2'> +1.0870030e-05 </wgt>
<wgt id='morphing_basis_vector_3'> +1.0718300e-05 </wgt>
<wgt id='morphing_basis_vector_4'> +1.0207789e-05 </wgt>
<wgt id='morphing_basis_vector_5'> +9.9526129e-06 </wgt>
</rwgt>
</event>
<event>
 7      1 +1.0321000e-05 1.66127900e+02 7.81860800e-03 1.29936800e-01
        2 -1    0    0  502    0 +0.0000000000e+00 +0.0000000000e+00 +3.3441606924e+02 3.3441606924e+02 0.0000000000e+00 0.0000e+00 -1.0000e+00
        1 -1    0    0  501    0 -0.0000000000e+00 -0.0000000000e+00 -7.0037746604e+02 7.0037746604e+02 0.0000000000e+00 0.0000e+00 -1.0000e+00
       25  2    1    2    0    0 +1.0577702480e+02 +5.8995195275e+01 +4.4820498874e+01 1.7972931551e+02 1.2499815076e+02 0.0000e+00 0.0000e+00
        2  1    1    2  501    0 -1.4416487470e+02 -9.1569655615e+01 -6.1833723055e+02 6.4149001832e+02 0.0000000000e+00 0.0000e+00 -1.0000e+00
        1  1    1    2  502    0 +3.8387849896e+01 +3.2574460340e+01 +2.0755533487e+02 2.1357420144e+02 0.0000000000e+00 0.0000e+00 -1.0000e+00
       22  1    3    3    0    0 +1.1540120369e+02 +8.5127859544e+01 +4.9055395090e+01 1.5156062177e+02 0.0000000000e+00 0.0000e+00 -1.0000e+00
       22  1    3    3    0    0 -9.6241788900e+00 -2.6132664270e+01 -4.2348962157e+00 2.8168693741e+01 0.0000000000e+00 0.0000e+00 -1.0000e+00
<rwgt>
<wgt id='morphing_basis_vector_1'> +1.0090900e-05 </wgt>
<wgt id='morphing_basis_vector_2'> +1.0442301e-05 </wgt>
<wgt id='morphing_basis_vector_3'> +1.0577671e-05 </wgt>
<wgt id='morphing_basis_vector_4'> +1.0142881e-05 </wgt>
<wgt id='morphing_basis_vector_5'> +1.0304914e-05 </wgt>
</rwgt>
</event>
<event>
 7      1 +1.0321000e-05 6.89097000e+01 7.81860800e-03 1.37089700e-01
        2 -1    0    0  502    0 +0.0000000000e+00 +0.0000000000e+00 +4.7702167045e+02 4.7702167045e+02 0.0000000000e+00 0.0000e+00 -1.0000e+00
        1 -1    0    0  501    0 -0.0000000000e+00 -0.0000000000e+00 -6.4822595107e+01 6.4822595107e+01 0.0000000000e+00 0.0000e+00 -1.0000e+00
       25  2    1    2    0    0 -4.1867674509e+01 +3.7948093025e+00 +5.5558905980e+01 1.4309746301e+02 1.2499115625e+02 0.0000e+00 0.0000e+00
        2  1    1    2  501    0 +2.5886221525e+01 +6.3862740488e+01 +5.2142617540e+01 8.6414111414e+01 0.0000000000e+00 0.0000e+00 -1.0000e+00
        1  1    1    2  502    0 +1.5981452984e+01 -6.7657549790e+01 +3.0449755182e+02 3.1233269113e+02 0.0000000000e+00 0.0000e+00 -1.0000e+00
       22  1    3    3    0    0 -4.5435433992e+01 -2.6375491429e+01 -2.4130877014e+01 5.7813012685e+01 0.0000000000e+00 0.0000e+00 -1.0000e+00
       22  1    3    3    0    0 +3.5677594834e+00 +3.0170300732e+01 +7.9689782994e+01 8.5284450327e+01 0.0000000000e+00 0.0000e+00 -1.0000e+00
<rwgt>
<wgt id='morphing_basis_vector_1'> +1.0259571e-05 </wgt>
<wgt id='morphing_basis_vector_2'> +1.0017695e-05 </wgt>
<wgt id='morphing_basis_vector_3'> +1.0679134e-05 </wgt>
<wgt id='morphing_basis_vector_4'> +9.8729083e-06 </wgt>
<wgt id='morphing_basis_vector_5'> +1.0768162e-05 </wgt>
</rwgt>
</event>
<event>
 7      1 +1.0321000e-05 1.14659300e+02 7.81860800e-03 1.33756300e-01
        2 -1    0    0  502    0 +0.0000000000e+00 +0.0000000000e+00 +2.1127055625e+03 2.1127055625e+03 0.0000000000e+00 0.0000e+00 -1.0000e+00
        1 -1    0    0  501    0 -0.0000000000e+00 -0.0000000000e+00 -1.4710686750e+02 1.4710686750e+02 0.0000000000e+00 0.0000e+00 -1.0000e+00
       25  2    1    2    0    0 -6.4915476989e+01 +5.4278362690e+01 +6.7442124166e+01 1.6532661347e+02 1.2499715678e+02 0.0000e+00 0.0000e+00
        2  1    1    2  501    0 +6.8639474100e+01 -1.0595497681e+02 -5.7089512229e+01 1.3855340819e+02 0.0000000000e+00 0.0000e+00 -1.0000e+00
        1  1    1    2  502    0 -3.7239971110e+00 +5.1676614117e+01 +1.9552460831e+03 1.9559324084e+03 0.0000000000e+00 0.0000e+00 -1.0000e+00
       22  1    3    3    0    0 +9.3872919351e+00 -8.1014901540e+00 -2.7137952674e+01 2.9836619579e+01 0.0000000000e+00 0.0000e+00 -1.0000e+00
       22  1    3    3    0    0 -7.4302768924e+01 +6.2379852844e+01 +9.4580076840e+01 1.3548999389e+02 0.0000000000e+00 0.0000e+00 -1.0000e+00
<rwgt>
<wgt id='morphing_basis_vector_1'> +1.0161644e-05 </wgt>
<wgt id='morphing_basis_vector_2'> +1.0672752e-05 </wgt>
<wgt id='morphing_basis_vector_3'> +1.0277996e-05 </wgt>
<wgt id='morphing_basis_vector_4'> +1.0519892e-05 </wgt>
<wgt id='morphing_basis_vector_5'> +9.9664274e-06 </wgt>
</rwgt>
</event>
<event>
 7      1 +1.0321000e-05 6.07758100e+01 7.81860800e-03 1.41679600e-01
        2 -1    0    0  502    0 +0.0000000000e+00 +0.0000000000e+00 +1.2955263054e+03 1.2955263054e+03 0.0000000000e+00 0.0000e+00 -1.0000e+00
        1 -1    0    0  501    0 -0.0000000000e+00 -0.0000000000e+00 -1.0658867878e+03 1.0658867878e+03 0.0000000000e+00 0.0000e+00 -1.0000e+00
       25  2    1    2    0    0 +2.3156061295e+01 +4.1139281155e+01 -1.1076393958e+02 1.7355661298e+02 1.2499841587e+02 0.0000e+00 0.0000e+00
        2  1    1    2  501    0 -4.9095772257e+01 +1.4013370456e+01 -9.2228540311e+02 9.2369753393e+02 0.0000000000e+00 0.0000e+00 -1.0000e+00
        1  1    1    2  502    0 +2.5939710963e+01 -5.5152651611e+01 +1.2626888602e+03 1.2641589462e+03 0.0000000000e+00 0.0000e+00 -1.0000e+00
       22  1    3    3    0    0 +3.3988447252e+01 -3.5928230531e+01 -1.8383038938e+01 5.2763514063e+01 0.0000000000e+00 0.0000e+00 1.0000e+00
       22  1    3    3    0    0 -1.0832385957e+01 +7.7067511686e+01 -9.2380900639e+01 1.2079309892e+02 0.0000000000e+00 0.0000e+00 1.0000e+00
<rwgt>
<wgt id='morphing_basis_vector_1'> +1.0305101e-05 </wgt>
<wgt id='morphing_basis_vector_2'> +1.0465765e-05 </wgt>
<wgt id='morphing_basis_vector_3'> +1.0226406e-05 </wgt>
<wgt id='morphing_basis_vector_4'> +1.0474329e-05 </wgt>
<wgt id='morphing_basis_vector_5'> +1.0143029e-05 </wgt>
</rwgt>
</event>
<event>
 7      1 +1.0321000e-05 1.01293400e+02 7.81860800e-03 1.32918600e-01
        2 -1    0    0  502    0 +0.0000000000e+00 +0.0000000000e+00 +2.0364726828e+02 2.0364726828e+02 0.0000000000e+00 0.0000e+00 -1.0000e+00
        1 -1    0    0  501    0 -0.0000000000e+00 -0.0000000000e+00 -1.4205926321e+03 1.4205926321e+03 0.0000000000e+00 0.0000e+00 -1.0000e+00
       25  2    1    2    0    0 +6.1745425548e+01 +7.8060091752e+01 +9.8154206180e+01 1.8752456548e+02 1.2500135586e+02 0.0000e+00 0.0000e+00
        2  1    1    2  501    0 +4.6107503949e+01 -4.3089259928e+01 -1.3216401781e+03 1.3231460035e+03 0.0000000000e+00 0.0000e+00 -1.0000e+00
        1  1    1    2  502    0 -1.0785292950e+02 -3.4970831824e+01 +6.5406080913e+00 1.1356933140e+02 0.0000000000e+00 0.0000e+00 -1.0000e+00
       22  1    3    3    0    0 +1.6002845801e+01 -3.4481868374e+01 +2.8282341826e+01 4.7381232355e+01 0.0000000000e+00 0.0000e+00 1.0000e+00
       22  1    3    3    0    0 +4.5742579746e+01 +1.1254196013e+02 +6.9871864353e+01 1.4014333312e+02 0.0000000000e+00 0.0000e+00 1.0000e+00
<rwgt>
<wgt id='morphing_basis_vector_1'> +9.6810030e-06 </wgt>
<wgt id='morphing_basis_vector_2'> +1.0164015e-05 </wgt>
<wgt id='morphing_basis_vector_3'> +1.1485291e-05 </wgt>
<wgt id='morphing_basis_vector_4'> +9.2429457e-06 </wgt>
<wgt id='morphing_basis_vector_5'> +1.0932693e-05 </wgt>
</rwgt>
</event>
<event>
 7      1 +1.0321000e-05 7.66333500e+01 7.81860800e-03 1.35418100e-01
        2 -1    0    0  502    0 +0.0000000000e+00 +0.0000000000e+00 +1.3554169206e+03 1.3554169206e+03 0.0000000000e+00 0.0000e+00 -1.0000e+00
        1 -1    0    0  501    0 -0.0000000000e+00 -0.0000000000e+00 -3.8209689533e+02 3.8209689533e+02 0.0000000000e+00 0.0000e+00 -1.0000e+00
       25  2    1    2    0    0 -1.0125138541e+02 +8.9746802996e+01 -8.7815931434e+01 2.0406649704e+02 1.2500066281e+02 0.0000e+00 0.0000e+00
        2  1    1    2  501    0 +4.2240035716e+01 -5.7573242412e+01 -2.2986359956e+02 2.4069934205e+02 0.0000000000e+00 0.0000e+00 -1.0000e+00
        1  1    1    2  502    0 +5.9011349695e+01 -3.2173560584e+01 +1.2909995562e+03 1.2927479768e+03 0.0000000000e+00 0.0000e+00 -1.0000e+00
       22  1    3    3    0    0 -9.7099192577e+01 +1.1778382702e+02 -5.9014655134e+01 1.6365821894e+02 0.0000000000e+00 0.0000e+00 -1.0000e+00
       22  1    3    3    0    0 -4.1521928340e+00 -2.8037024028e+01 -2.8801276301e+01 4.0408278091e+01 0.0000000000e+00 0.0000e+00 -1.0000e+00
<rwgt>
<wgt id='morphing_basis_vector_1'> +9.9364251e-06 </wgt>
<wgt id='morphing_basis_vector_2'> +1.0806769e-05 </wgt>
<wgt id='morphing_basis_vector_3'> +1.0519585e-05 </wgt>
<wgt id='morphing_basis_vector_4'> +1.0356884e-05 </wgt>
<wgt id='morphing_basis_vector_5'> +9.9336634e-06 </wgt>
</rwgt>
</event>
<event>
 7      1 +1.0321000e-05 1.28293300e+02 7.81860800e-03 1.41443700e-01
        2 -1    0    0  502    0 +0.0000000000e+00 +0.0000000000e+00 +4.4773437578e+02 4.4773437578e+02 0.0000000000e+00 0.0000e+00 -1.0000e+00
        1 -1    0    0  501    0 -0.0000000000e+00 -0.0000000000e+00 -6.4356470245e+02 6.4356470245e+02 0.0000000000e+00 0.0000e+00 -1.0000e+00
       25  2    1    2    0    0 -1.2236264449e+02 -3.3437146525e+01 -2.4971574895e+02 3.0671511379e+02 1.2500218486e+02 0.0000e+00 0.0000e+00
        2  1    1    2  501    0 -5.7121027781e+00 +2.3960992391e+01 -3.5507741651e+02 3.5593079241e+02 0.0000000000e+00 0.0000e+00 -1.0000e+00
        1  1    1    2  502    0 +1.2807474727e+02 +9.4761541341e+00 +4.0896283878e+02 4.2865317203e+02 0.0000000000e+00 0.0000e+00 -1.0000e+00
       22  1    3    3    0    0 -9.0842781002e+01 +2.6459195028e+01 -7.9663433806e+01 1.2368816656e+02 0.0000000000e+00 0.0000e+00 1.0000e+00
       22  1    3    3    0    0 -3.1519863487e+01 -5.9896341553e+01 -1.7005231514e+02 1.8302694722e+02 0.0000000000e+00 0.0000e+00 1.0000e+00
<rwgt>
<wgt id='morphing_basis_vector_1'> +9.9949238e-06 </wgt>
<wgt id='morphing_basis_vector_2'> +1.0374987e-05 </wgt>
<wgt id='morphing_basis_vector_3'> +1.0784585e-05 </wgt>
<wgt id='morphing_basis_vector_4'> +9.9266926e-06 </wgt>
<wgt id='morphing_basis_vector_5'> +1.0450768e-05 </wgt>
</rwgt>
</event>
<event>
 7      1 +1.0321000e-05 3.92797200e+01 7.81860800e-03 1.54857700e-01
        2 -1    0    0  502    0 +0.0000000000e+00 +0.0000000000e+00 +2.0696451239e+03 2.0696451239e+03 0.0000000000e+00 0.0000e+00 -1.0000e+00
        1 -1    0    0  501    0 -0.0000000000e+00 -0.0000000000e+00 -1.6550447886e+01 1.6550447886e+01 0.0000000000e+00 0.0000e+00 -1.0000e+00
       25  2    1    2    0    0 +2.4987545788e+01 +9.6853050577e+00 +1.7490352051e+03 1.7537023598e+03 1.2501853995e+02 0.0000e+00 0.0000e+00
        2  1    1    2  501    0 -2.2724512794e+01 +3.2038930445e+01 +1.7669529308e+01 4.3070974121e+01 0.0000000000e+00 0.0000e+00 -1.0000e+00
        1  1    1    2  502    0 -2.2630329939e+00 -4.1724235503e+01 +2.8638994154e+02 2.8942223785e+02 0.0000000000e+00 0.0000e+00 -1.0000e+00
       22  1    3    3    0    0 -1.8525498535e+01 +1.5903692606e+01 +7.0800599489e+01 7.4892232057e+01 0.0000000000e+00 0.0000e+00 -1.0000e+00
       22  1    3    3    0    0 +4.3513044323e+01 -6.2183875481e+00 +1.6782346056e+03 1.6788101277e+03 0.0000000000e+00 0.0000e+00 -1.0000e+00
<rwgt>
<wgt id='morphing_basis_vector_1'> +1.0337183e-05 </wgt>
<wgt id='morphing_basis_vector_2'> +1.0541543e-05 </wgt>
<wgt id='morphing_basis_vector_3'> +1.0118864e-05 </wgt>
<wgt id='morphing_basis_vector_4'> +1.0611076e-05 </wgt>
<wgt id='morphing_basis_vector_5'> +1.0033396e-05 </wgt>
</rwgt>
</event>
<event>
 7      1 +1.0321000e-05 8.05370200e+01 7.81860800e-03 1.50525500e-01
        2 -1    0    0  502    0 +0.0000000000e+00 +0.0000000000e+00 +7.4175199374e+01 7.4175199374e+01 0.0000000000e+00 0.0000e+00 -1.0000e+00
        1 -1    0    0  501    0 -0.0000000000e+00 -0.0000000000e+00 -1.2251287407e+03 1.2251287407e+03 0.0000000000e+00 0.0000e+00 -1.0000e+00
       25  2    1    2    0    0 -9.3945150350e+01 +2.3872637673e+01 -3.3694870018e+02 3.7223015528e+02 1.2500107138e+02 0.0000e+00 0.0000e+00
        2  1    1    2  501    0 +1.5370737345e+01 -1.3214933630e+01 -8.4255338647e+02 8.4279718977e+02 0.0000000000e+00 0.0000e+00 -1.0000e+00
        1  1    1    2  502    0 +7.8574413005e+01 -1.0657704044e+01 +2.8548545293e+01 8.4276595048e+01 0.0000000000e+00 0.0000e+00 -1.0000e+00
       22  1    3    3    0    0 -3.8371621485e+01 +1.6403380245e+00 -2.9878450467e+02 3.0124284601e+02 0.0000000000e+00 0.0000e+00 -1.0000e+00
       22  1    3    3    0    0 -5.5573528865e+01 +2.2232299649e+01 -3.8164195509e+01 7.0987309267e+01 0.0000000000e+00 0.0000e+00 -1.0000e+00
<rwgt>
<wgt id='morphing_basis_vector_1'> +1.0120236e-05 </wgt>
<wgt id='morphing_basis_vector_2'> +1.0564105e-05 </wgt>
<wgt id='morphing_basis_vector_3'> +1.0430374e-05 </wgt>
<wgt id='morphing_basis_vector_4'> +1.0330040e-05 </wgt>
<wgt id='morphing_basis_vector_5'> +1.0128846e-05 </wgt>
</rwgt>
</event>
<event>
 7      1 +1.0321000e-05 1.73799800e+02 7.81860800e-03 1.26260900e-01
        2 -1    0    0  502    0 +0.0000000000e+00 +0.0000000000e+00 +1.7577994999e+03 1.7577994999e+03 0.0000000000e+00 0.0000e+00 -1.0000e+00
        1 -1    0    0  501    0 -0.0000000000e+00 -0.0000000000e+00 -2.6854809434e+02 2.6854809434e+02 0.0000000000e+00 0.0000e+00 -1.0000e+00
       25  2    1    2    0    0 -1.3491689615e+02 -8.3045495480e+01 +1.4749849758e+02 2.4996133264e+02 1.2500295132e+02 0.0000e+00 0.0000e+00
        2  1    1    2  501    0 +1.7622375480e+02 +2.8724409466e+01 -1.7974785063e+02 2.5335586289e+02 0.0000000000e+00 0.0000e+00 -1.0000e+00
        1  1    1    2  502    0 -4.1306858644e+01 +5.4321086015e+01 +1.5215007586e+03 1.5230303987e+03 0.0000000000e+00 0.0000e+00 -1.0000e+00
       22  1    3    3    0    0 -1.0410585964e+02 -1.1016517153e+02 +1.4349071238e+02 2.0871985907e+02 0.0000000000e+00 0.0000e+00 1.0000e+00
       22  1    3    3    0    0 -3.0811036518e+01 +2.7119676050e+01 +4.0077852010e+00 4.1241473574e+01 0.0000000000e+00 0.0000e+00 1.0000e+00
<rwgt>
<wgt id='morphing_basis_vector_1'> +9.9291516e-06 </wgt>
<wgt id='morphing_basis_vector_2'> +1.1354736e-05 </wgt>
<wgt id='morphing_basis_vector_3'> +1.0094518e-05 </wgt>
<wgt id='morphing_basis_vector_4'> +1.0998838e-05 </wgt>
<wgt id='morphing_basis_vector_5'> +9.2723317e-06 </wgt>
</rwgt>
</event>
<event>
 7      1 +1.0321000e-05 4.90582700e+01 7.81860800e-03 1.45904400e-01
        2 -1    0    0  502    0 +0.0000000000e+00 +0.0000000000e+00 +4.9244426873e+01 4.9244426873e+01 0.0000000000e+00 0.0000e+00 -1.0000e+00
        1 -1    0    0  501    0 -0.0000000000e+00 -0.0000000000e+00 -1.8094951988e+03 1.8094951988e+03 0.0000000000e+00 0.0000e+00 -1.0000e+00
       25  2    1    2    0    0 +6.3870667485e+01 +3.7860818954e+01 -2.9210101958e+02 3.2628140469e+02 1.2499458240e+02 0.0000e+00 0.0000e+00
        2  1    1    2  501    0 -1.5791341175e+01 -4.3290589509e+01 -1.4815385374e+03 1.4822549981e+03 0.0000000000e+00 0.0000e+00 -1.0000e+00
        1  1    1    2  502    0 -4.8079326310e+01 +5.4297705553e+00 +1.3388785020e+01 5.0203222914e+01 0.0000000000e+00 0.0000e+00 -1.0000e+00
       22  1    3    3    0    0 +8.2252682868e+01 +6.5141182508e+01 -2.5976142268e+02 2.8015152009e+02 0.0000000000e+00 0.0000e+00 -1.0000e+00
       22  1    3    3    0    0 -1.8382015383e+01 -2.7280363554e+01 -3.2339596900e+01 4.6129884596e+01 0.0000000000e+00 0.0000e+00 -1.0000e+00
<rwgt>
<wgt id='morphing_basis_vector_1'> +1.0165118e-05 </wgt>
<wgt id='morphing_basis_vector_2'> +1.0297563e-05 </wgt>
<wgt id='morphing_basis_vector_3'> +1.0581440e-05 </wgt>
<wgt id='morphing_basis_vector_4'> +1.0073285e-05 </wgt>
<wgt id='morphing_basis_vector_5'> +1.0447167e-05 </wgt>
</rwgt>
</event>
<event>
 7      1 +1.0321000e-05 5.07127200e+01 7.81860800e-03 1.48229400e-01
        2 -1    0    0  502    0 +0.0000000000e+00 +0.0000000000e+00 +1.6951493622e+03 1.6951493622e+03 0.0000000000e+00 0.0000e+00 -1.0000e+00
        1 -1    0    0  501    0 -0.0000000000e+00 -0.0000000000e+00 -6.4205956676e+01 6.4205956676e+01 0.0000000000e+00 0.0000e+00 -1.0000e+00
       25  2    1    2    0    0 -1.8031749102e+01 -1.3208371047e+01 +4.8508320626e+02 5.0142864881e+02 1.2500147122e+02 0.0000e+00 0.0000e+00
        2  1    1    2  501    0 -3.5036451902e+01 +1.4039389397e+01 -4.9020312280e+01 6.1867991987e+01 0.0000000000e+00 0.0000e+00 -1.0000e+00
        1  1    1    2  502    0 +5.3068201003e+01 -8.3101834933e-01 +1.1948805116e+03 1.1960586781e+03 0.0000000000e+00 0.0000e+00 -1.0000e+00
       22  1    3    3    0    0 -4.7183529044e+01 -4.8438226938e+01 +3.9120319172e+02 3.9700438845e+02 0.0000000000e+00 0.0000e+00 1.0000e+00
       22  1    3    3    0    0 +2.9151779942e+01 +3.5229855890e+01 +9.3880014542e+01 1.0442426035e+02 0.0000000000e+00 0.0000e+00 1.0000e+00
<rwgt>
<wgt id='morphing_basis_vector_1'> +1.0300734e-05 </wgt>
<wgt id='morphing_basis_vector_2'> +1.0290979e-05 </wgt>
<wgt id='morphing_basis_vector_3'> +1.0376951e-05 </wgt>
<wgt id='morphing_basis_vector_4'> +1.0256047e-05 </wgt>
<wgt id='morphing_basis_vector_5'> +1.0372662e-05 </wgt>
</rwgt>
</event>
<event>
 7      1 +1.0321000e-05 1.00296500e+02 7.81860800e-03 1.35824700e-01
        2 -1    0    0  502    0 +0.0000000000e+00 +0.0000000000e+00 +1.0037271144e+03 1.0037271144e+03 0.0000000000e+00 0.0000e+00 -1.0000e+00
        1 -1    0    0  501    0 -0.0000000000e+00 -0.0000000000e+00 -3.2236844116e+02 3.2236844116e+02 0.0000000000e+00 0.0000e+00 -1.0000e+00
       25  2    1    2    0    0 +1.3605710177e+02 -3.6126086093e+01 -1.3281062252e+02 2.3039143979e+02 1.2499970015e+02 0.0000e+00 0.0000e+00
        2  1    1    2  501    0 -3.6315583811e+01 +3.3812811359e+01 -1.3369378058e+02 1.4260489054e+02 0.0000000000e+00 0.0000e+00 -1.0000e+00
        1  1    1    2  502    0 -9.9741517963e+01 +2.3132747342e+00 +9.4786307634e+02 9.5309922523e+02 0.0000000000e+00 0.0000e+00 -1.0000e+00
       22  1    3    3    0    0 +3.1780706224e+01 -1.3155278060e+01 -1.1761232497e+02 1.2253870251e+02 0.0000000000e+00 0.0000e+00 -1.0000e+00
       22  1    3    3    0    0 +1.0427639555e+02 -2.2970808032e+01 -1.5198297551e+01 1.0785273728e+02 0.0000000000e+00 0.0000e+00 -1.0000e+00
<rwgt>
<wgt id='morphing_basis_vector_1'> +9.8934014e-06 </wgt>
<wgt id='morphing_basis_vector_2'> +1.1002724e-05 </wgt>
<wgt id='morphing_basis_vector_3'> +1.0429762e-05 </wgt>
<wgt id='morphing_basis_vector_4'> +1.0527887e-05 </wgt>
<wgt id='morphing_basis_vector_5'> +9.7171083e-06 </wgt>
</rwgt>
</event>
<event>
 7      1 +1.0321000e-05 8.47642300e+01 7.81860800e-03 1.31962600e-01
        2 -1    0    0  502    0 +0.0000000000e+00 +0.0000000000e+00 +1.4016444876e+03 1.4016444876e+03 0.0000000000e+00 0.0000e+00 -1.0000e+00
        1 -1    0    0  501    0 -0.0000000000e+00 -0.0000000000e+00 -9.7684431324e+01 9.7684431324e+01 0.0000000000e+00 0.0000e+00 -1.0000e+00
       25  2    1    2    0    0 +5.2411138669e+01 +1.5281614421e+01 +3.3494406142e+01 1.4045707550e+02 1.2500343843e+02 0.0000e+00 0.0000e+00
        2  1    1    2  501    0 -6.0698809898e+01 -9.9639716793e+01 +3.6858448925e+01 1.2235589051e+02 0.0000000000e+00 0.0000e+00 -1.0000e+00
        1  1    1    2  502    0 +8.2876712289e+00 +8.4358102372e+01 +1.2336072012e+03 1.2365159529e+03 0.0000000000e+00 0.0000e+00 -1.0000e+00
       22  1    3    3    0    0 +7.1608975023e+01 +5.6289743501e+01 +2.3993062719e+01 9.4191547316e+01 0.0000000000e+00 0.0000e+00 1.0000e+00
       22  1    3    3    0    0 -1.9197836354e+01 -4.1008129080e+01 +9.5013434227e+00 4.6265528184e+01 0.0000000000e+00 0.0000e+00 1.0000e+00
<rwgt>
<wgt id='morphing_basis_vector_1'> +1.0130826e-05 </wgt>
<wgt id='morphing_basis_vector_2'> +1.0119807e-05 </wgt>
<wgt id='morphing_basis_vector_3'> +1.0791017e-05 </wgt>
<wgt id='morphing_basis_vector_4'> +9.8155951e-06 </wgt>
<wgt id='morphing_basis_vector_5'> +1.0709177e-05 </wgt>
</rwgt>
</event>
<event>
 7      1 +1.0321000e-05 5.22319800e+01 7.81860800e-03 1.52509800e-01
        2 -1    0    0  502    0 +0.0000000000e+00 +0.0000000000e+00 +2.1876706124e+03 2.1876706124e+03 0.0000000000e+00 0.0000e+00 -1.0000e+00
        1 -1    0    0  501    0 -0.0000000000e+00 -0.0000000000e+00 -3.6061728241e+02 3.6061728241e+02 0.0000000000e+00 0.0000e+00 -1.0000e+00
       25  2    1    2    0    0 +1.9369337799e+01 +1.8780826995e+01 +1.5629640594e+02 2.0194714536e+02 1.2500476912e+02 0.0000e+00 0.0000e+00
        2  1    1    2  501    0 -2.7057431323e+01 -4.5025785861e+01 -3.3565591136e+02 3.3974154413e+02 0.0000000000e+00 0.0000e+00 -1.0000e+00
        1  1    1    2  502    0 +7.6880935239e+00 +2.6244958866e+01 +2.0064128354e+03 2.0065992053e+03 0.0000000000e+00 0.0000e+00 -1.0000e+00
       22  1    3    3    0    0 +6.7749977611e+00 +6.5880311355e+01 +4.3966705317e+01 7.9493315413e+01 0.0000000000e+00 0.0000e+00 -1.0000e+00
       22  1    3    3    0    0 +1.2594340038e+01 -4.7099484360e+01 +1.1232970062e+02 1.2245382995e+02 0.0000000000e+00 0.0000e+00 -1.0000e+00
<rwgt>
<wgt id='morphing_basis_vector_1'> +1.0304835e-05 </wgt>
<wgt id='morphing_basis_vector_2'> +1.0315071e-05 </wgt>
<wgt id='morphing_basis_vector_3'> +1.0350660e-05 </wgt>
<wgt id='morphing_basis_vector_4'> +1.0291016e-05 </wgt>
<wgt id='morphing_basis_vector_5'> +1.0338579e-05 </wgt>
</rwgt>
</event>
<event>
 7      1 +1.0321000e-05 4.31841900e+01 7.81860800e-03 1.51489500e-01
        2 -1    0    0  502    0 +0.0000000000e+00 +0.0000000000e+00 +1.8198723961e+03 1.8198723961e+03 0.0000000000e+00 0.0000e+00 -1.0000e+00
        1 -1    0    0  501    0 -0.0000000000e+00 -0.0000000000e+00 -3.5509130160e+01 3.5509130160e+01 0.0000000000e+00 0.0000e+00 -1.0000e+00
       25  2    1    2    0    0 -4.8425632396e+01 +6.0632327279e+01 +3.8985385090e+02 4.1669276870e+02 1.2500206974e+02 0.0000e+00 0.0000e+00
        2  1    1    2  501    0 +2.4111855208e+01 -2.5936472226e+01 -7.3679148588e+00 3.6171374351e+01 0.0000000000e+00 0.0000e+00 -1.0000e+00
        1  1    1    2  502    0 +2.4313777188e+01 -3.4695855054e+01 +1.4018773299e+03 1.4025173832e+03 0.0000000000e+00 0.0000e+00 -1.0000e+00
       22  1    3    3    0    0 -6.3667406419e+01 +1.2001459123e+01 +8.1297734058e+01 1.0395621782e+02 0.0000000000e+00 0.0000e+00 1.0000e+00
       22  1    3    3    0    0 +1.5241774023e+01 +4.8630868156e+01 +3.0855611685e+02 3.1273655088e+02 0.0000000000e+00 0.0000e+00 1.0000e+00
<rwgt>
<wgt id='morphing_basis_vector_1'> +1.0167933e-05 </wgt>
<wgt id='morphing_basis_vector_2'> +1.0438931e-05 </wgt>
<wgt id='morphing_basis_vector_3'> +1.0459446e-05 </wgt>
<wgt id='morphing_basis_vector_4'> +1.0247305e-05 </wgt>
<wgt id='morphing_basis_vector_5'> +1.0260968e-05 </wgt>
</rwgt>
</event>
<event>
 7      1 +1.0321000e-05 5.33139300e+01 7.81860800e-03 1.49683600e-01
        2 -1    0    0  502    0 +0.0000000000e+00 +0.0000000000e+00 +2.0156740683e+03 2.0156740683e+03 0.0000000000e+00 0.0000e+00 -1.0000e+00
        1 -1    0    0  501    0 -0.0000000000e+00 -0.0000000000e+00 -2.9921555373e+02 2.9921555373e+02 0.0000000000e+00 0.0000e+00 -1.0000e+00
       25  2    1    2    0    0 -4.0363244234e+01 -6.2628618763e+01 +1.4362428387e+02 2.0446268898e+02 1.2500208355e+02 0.0000e+00 0.0000e+00
        2  1    1    2  501    0 +9.6452430617e+00 +5.2193438552e+01 -2.6603169150e+02 2.7127485439e+02 0.0000000000e+00 0.0000e+00 -1.0000e+00
        1  1    1    2  502    0 +3.0718001173e+01 +1.0435180211e+01 +1.8388659222e+03 1.8391520787e+03 0.0000000000e+00 0.0000e+00 -1.0000e+00
       22  1    3    3    0    0 -5.7071845755e+01 +1.5614208394e+01 +9.1533075354e+01 1.0899221516e+02 0.0000000000e+00 0.0000e+00 1.0000e+00
       22  1    3    3    0    0 +1.6708601520e+01 -7.8242827156e+01 +5.2091208519e+01 9.5470473819e+01 0.0000000000e+00 0.0000e+00 1.0000e+00
<rwgt>
<wgt id='morphing_basis_vector_1'> +1.0203401e-05 </wgt>
<wgt id='morphing_basis_vector_2'> +1.0338972e-05 </wgt>
<wgt id='morphing_basis_vector_3'> +1.0487252e-05 </wgt>
<wgt id='morphing_basis_vector_4'> +1.0177003e-05 </wgt>
<wgt id='morphing_basis_vector_5'> +1.0369254e-05 </wgt>
</rwgt>
</event>
<event>
 7      1 +1.0321000e-05 8.45587000e+01 7.81860800e-03 1.31928300e-01
        2 -1    0    0  502    0 +0.0000000000e+00 +0.0000000000e+00 +8.8685004904e+02 8.8685004904e+02 0.0000000000e+00 0.0000e+00 -1.0000e+00
        1 -1    0    0  501    0 -0.0000000000e+00 -0.0000000000e+00 -4.2203921313e+02 4.2203921313e+02 0.0000000000e+00 0.0000e+00 -1.0000e+00
       25  2    1    2    0    0 -6.4781742775e+01 +3.5510680839e+01 -1.6954293783e+02 2.2322028796e+02 1.2499922616e+02 0.0000e+00 0.0000e+00
        2  1    1    2  501    0 +8.9103417845e+01 +4.3367542222e+01 -2.1267431788e+02 2.3462848990e+02 0.0000000000e+00 0.0000e+00 -1.0000e+00
        1  1    1    2  502    0 -2.4321675070e+01 -7.8878223061e+01 +8.4702809161e+02 8.5104048430e+02 0.0000000000e+00 0.0000e+00 -1.0000e+00
       22  1    3    3    0    0 -2.8795861785e+01 -3.0877571049e+01 -5.4318245055e+00 4.2569129275e+01 0.0000000000e+00 0.0000e+00 1.0000e+00
       22  1    3    3    0    0 -3.5985880990e+01 +6.6388251888e+01 -1.6411111332e+02 1.8065115869e+02 0.0000000000e+00 0.0000e+00 1.0000e+00
<rwgt>
<wgt id='morphing_basis_vector_1'> +1.0093344e-05 </wgt>
<wgt id='morphing_basis_vector_2'> +1.0075043e-05 </wgt>
<wgt id='morphing_basis_vector_3'> +1.0884646e-05 </wgt>
<wgt id='morphing_basis_vector_4'> +9.7076052e-06 </wgt>
<wgt id='morphing_basis_vector_5'> +1.0789021e-05 </wgt>
</rwgt>
</event>
<event>
 7      1 +1.0321000e-05 1.24047800e+02 7.81860800e-03 1.25938900e-01
        2 -1    0    0  502    0 +0.0000000000e+00 +0.0000000000e+00 +8.4740860132e+02 8.4740860132e+02 0.0000000000e+00 0.0000e+00 -1.0000e+00
        1 -1    0    0  501    0 -0.0000000000e+00 -0.0000000000e+00 -3.4588143184e+03 3.4588143184e+03 0.0000000000e+00 0.0000e+00 -1.0000e+00
       25  2    1    2    0    0 -1.5876366756e+02 -1.5024939859e+02 -2.5242156639e+02 3.5654185258e+02 1.2499864617e+02 0.0000e+00 0.0000e+00
        2  1    1    2  501    0 +7.7691553170e+01 +9.3987493738e+01 -3.1500874569e+03 3.1524467660e+03 0.0000000000e+00 0.0000e+00 -1.0000e+00
        1  1    1    2  502    0 +8.1072114391e+01 +5.6261904850e+01 +7.9110330625e+02 7.9723430109e+02 0.0000000000e+00 0.0000e+00 -1.0000e+00
       22  1    3    3    0    0 -7.7336250949e+01 -1.0172843361e+02 -2.2347830825e+02 2.5743372773e+02 0.0000000000e+00 0.0000e+00 -1.0000e+00
       22  1    3    3    0    0 -8.1427416612e+01 -4.8520964977e+01 -2.8943258144e+01 9.9108124846e+01 0.0000000000e+00 0.0000e+00 -1.0000e+00
<rwgt>
<wgt id='morphing_basis_vector_1'> +9.4426801e-06 </wgt>
<wgt id='morphing_basis_vector_2'> +1.0934175e-05 </wgt>
<wgt id='morphing_basis_vector_3'> +1.1214037e-05 </wgt>
<wgt id='morphing_basis_vector_4'> +9.7956412e-06 </wgt>
<wgt id='morphing_basis_vector_5'> +1.0078827e-05 </wgt>
</rwgt>
</event>
<event>
 7      1 +1.0321000e-05 3.99938700e+01 7.81860800e-03 1.53254100e-01
        2 -1    0    0  502    0 +0.0000000000e+00 +0.0000000000e+00 +1.2282297405e+03 1.2282297405e+03 0.0000000000e+00 0.0000e+00 -1.0000e+00
        1 -1    0    0  501    0 -0.0000000000e+00 -0.0000000000e+00 -2.2343916350e+02 2.2343916350e+02 0.0000000000e+00 0.0000e+00 -1.0000e+00
       25  2    1    2    0    0 +5.5256811068e+01 +1.5274127394e+01 +7.1349566621e+00 1.3770184720e+02 1.2499710788e+02 0.0000e+00 0.0000e+00
        2  1    1    2  501    0 -2.5040849680e+01 -3.0867363717e+01 -1.5540385546e+02 1.6040634834e+02 0.0000000000e+00 0.0000e+00 -1.0000e+00
        1  1    1    2  502    0 -3.0215961388e+01 +1.5593236323e+01 +1.1530594758e+03 1.1535607084e+03 0.0000000000e+00 0.0000e+00 -1.0000e+00
       22  1    3    3    0    0 +7.4619613843e+01 -3.8319029029e+00 -3.8894665837e+01 8.4235178403e+01 0.0000000000e+00 0.0000e+00 -1.0000e+00
       22  1    3    3    0    0 -1.9362802775e+01 +1.9106030297e+01 +4.6029622500e+01 5.3466668799e+01 0.0000000000e+00 0.0000e+00 -1.0000e+00
<rwgt>
<wgt id='morphing_basis_vector_1'> +1.0236800e-05 </wgt>
<wgt id='morphing_basis_vector_2'> +1.0310165e-05 </wgt>
<wgt id='morphing_basis_vector_3'> +1.0459496e-05 </wgt>
<wgt id='morphing_basis_vector_4'> +1.0189268e-05 </wgt>
<wgt id='morphing_basis_vector_5'> +1.0386532e-05 </wgt>
</rwgt>
</event>
<event>
 7      1 +1.0321000e-05 3.32587800e+01 7.81860800e-03 1.58725300e-01
        2 -1    0    0  502    0 +0.0000000000e+00 +0.0000000000e+00 +2.3356971536e+02 2.3356971536e+02 0.0000000000e+00 0.0000e+00 -1.0000e+00
        1 -1    0    0  501    0 -0.0000000000e+00 -0.0000000000e+00 -2.2035679631e+02 2.2035679631e+02 0.0000000000e+00 0.0000e+00 -1.0000e+00
       25  2    1    2    0    0 +1.1318984360e+01 +1.9378993947e+01 -4.9129397396e+01 1.3617078026e+02 1.2500047558e+02 0.0000e+00 0.0000e+00
        2  1    1    2  501    0 -2.6984710443e+01 +1.0349263358e+01 -1.2455370635e+02 1.2786284689e+02 0.0000000000e+00 0.0000e+00 -1.0000e+00
        1  1    1    2  502    0 +1.5665726084e+01 -2.9728257306e+01 +1.8689602280e+02 1.8989288453e+02 0.0000000000e+00 0.0000e+00 -1.0000e+00
       22  1    3    3    0    0 -3.5627315912e+01 -3.0379889158e+01 +7.4306791254e+00 4.7407365425e+01 0.0000000000e+00 0.0000e+00 -1.0000e+00
       22  1    3    3    0    0 +4.6946300271e+01 +4.9758883105e+01 -5.6560076521e+01 8.8763414835e+01 0.0000000000e+00 0.0000e+00 -1.0000e+00
<rwgt>
<wgt id='morphing_basis_vector_1'> +1.0321106e-05 </wgt>
<wgt id='morphing_basis_vector_2'> +1.0372052e-05 </wgt>
<wgt id='morphing_basis_vector_3'> +1.0278789e-05 </wgt>
<wgt id='morphing_basis_vector_4'> +1.0383153e-05 </wgt>
<wgt id='morphing_basis_vector_5'> +1.0254497e-05 </wgt>
</rwgt>
</event>
<event>
 7      1 +1.0321000e-05 8.16250400e+01 7.81860800e-03 1.37406600e-01
        2 -1    0    0  502    0 +0.0000000000e+00 +0.0000000000e+00 +8.4322691482e+02 8.4322691482e+02 0.0000000000e+00 0.0000e+00 -1.0000e+00
        1 -1    0    0  501    0 -0.0000000000e+00 -0.0000000000e+00 -1.4762499197e+02 1.4762499197e+02 0.0000000000e+00 0.0000e+00 -1.0000e+00
       25  2    1    2    0    0 -1.0031670190e+02 +5.4885753031e+00 +5.3112481968e+02 5.5480843587e+02 1.2500104518e+02 0.0000e+00 0.0000e+00
        2  1    1    2  501    0 +3.2098334853e+01 -4.2733879366e+01 -1.2519467360e+02 1.3612565461e+02 0.0000000000e+00 0.0000e+00 -1.0000e+00
        1  1    1    2  502    0 +6.8218367042e+01 +3.7245304063e+01 +2.8967177678e+02 2.9991781631e+02 0.0000000000e+00 0.0000e+00 -1.0000e+00
       22  1    3    3    0    0 -1.4470836107e+01 +1.6343396213e+00 -2.0913934063e+00 1.4712242862e+01 0.0000000000e+00 0.0000e+00 1.0000e+00
       22  1    3    3    0    0 -8.5845865788e+01 +3.8542356818e+00 +5.3321621308e+02 5.4009619301e+02 0.0000000000e+00 0.0000e+00 1.0000e+00
<rwgt>
<wgt id='morphing_basis_vector_1'> +1.0026497e-05 </wgt>
<wgt id='morphing_basis_vector_2'> +1.1038482e-05 </wgt>
<wgt id='morphing_basis_vector_3'> +1.0194320e-05 </wgt>
<wgt id='morphing_basis_vector_4'> +1.0762975e-05 </wgt>
<wgt id='morphing_basis_vector_5'> +9.5939575e-06 </wgt>
</rwgt>
</event>
<event>
 7      1 +1.0321000e-05 8.59792500e+01 7.81860800e-03 1.34484700e-01
        2 -1    0    0  502    0 +0.0000000000e+00 +0.0000000000e+00 +4.1888608505e+03 4.1888608505e+03 0.0000000000e+00 0.0000e+00 -1.0000e+00
        1 -1    0    0  501    0 -0.0000000000e+00 -0.0000000000e+00 -9.1199324451e+02 9.1199324451e+02 0.0000000000e+00 0.0000e+00 -1.0000e+00
       25  2    1    2    0    0 +1.3498122563e+02 +5.3673386251e+01 +3.5285766801e+02 4.0153984622e+02 1.2499980226e+02 0.0000e+00 0.0000e+00
        2  1    1    2  501    0 -8.4739111237e+01 -1.2629676836e+01 -8.8530799606e+02 8.8944391257e+02 0.0000000000e+00 0.0000e+00 -1.0000e+00
        1  1    1    2  502    0 -5.0242114398e+01 -4.1043709415e+01 +3.8093179340e+03 3.8098703362e+03 0.0000000000e+00 0.0000e+00 -1.0000e+00
       22  1    3    3    0    0 -1.8605091946e+01 +3.3278526061e+00 +9.7607307225e+01 9.9420372525e+01 0.0000000000e+00 0.0000e+00 1.0000e+00
       22  1    3    3    0    0 +1.5358631758e+02 +5.0345533644e+01 +2.5525036078e+02 3.0211947370e+02 0.0000000000e+00 0.0000e+00 1.0000e+00
<rwgt>
<wgt id='morphing_basis_vector_1'> +9.9785102e-06 </wgt>
<wgt id='morphing_basis_vector_2'> +1.0782027e-05 </wgt>
<wgt id='morphing_basis_vector_3'> +1.0473328e-05 </wgt>
<wgt id='morphing_basis_vector_4'> +1.0387831e-05 </wgt>
<wgt id='morphing_basis_vector_5'> +9.9388855e-06 </wgt>
</rwgt>
</event>
<event>
 7      1 +1.0321000e-05 1.26160700e+02 7.81860800e-03 1.29893400e-01
        2 -1    0    0  502    0 +0.0000000000e+00 +0.0000000000e+00 +1.2227699468e+03 1.2227699468e+03 0.0000000000e+00 0.0000e+00 -1.0000e+00
        1 -1    0    0  501    0 -0.0000000000e+00 -0.0000000000e+00 -1.0864056405e+03 1.0864056405e+03 0.0000000000e+00 0.0000e+00 -1.0000e+00
       25  2    1    2    0    0 +1.3786518398e+02 -4.5285475028e+01 +6.7552241471e+01 2.0309232519e+02 1.2500241606e+02 0.0000e+00 0.0000e+00
        2  1    1    2  501    0 -4.9509613754e+01 -4.4488255829e+01 -1.0138931461e+03 1.0160756460e+03 0.0000000000e+00 0.0000e+00 -1.0000e+00
        1  1    1    2  502    0 -8.8355570223e+01 +8.9773730857e+01 +1.0827052109e+03 1.0900076161e+03 0.0000000000e+00 0.0000e+00 -1.0000e+00
       22  1    3    3    0    0 +4.2912890355e+01 -5.1288028952e+01 -2.4005968017e+01 7.1051140546e+01 0.0000000000e+00 0.0000e+00 -1.0000e+00
       22  1    3    3    0    0 +9.4952293622e+01 +6.0025539241e+00 +9.1558209487e+01 1.3204118464e+02 0.0000000000e+00 0.0000e+00 -1.0000e+00
<rwgt>
<wgt id='morphing_basis_vector_1'> +9.8518500e-06 </wgt>
<wgt id='morphing_basis_vector_2'> +1.0265201e-05 </wgt>
<wgt id='morphing_basis_vector_3'> +1.1107717e-05 </wgt>
<wgt id='morphing_basis_vector_4'> +9.5969557e-06 </wgt>
<wgt id='morphing_basis_vector_5'> +1.0685548e-05 </wgt>
</rwgt>
</event>
<event>
 7      1 +1.0321000e-05 7.93192200e+01 7.81860800e-03 1.36808900e-01
        2 -1    0    0  502    0 +0.0000000000e+00 +0.0000000000e+00 +4.6451415100e+02 4.6451415100e+02 0.0000000000e+00 0.0000e+00 -1.0000e+00
        1 -1    0    0  501    0 -0.0000000000e+00 -0.0000000000e+00 -5.7446201373e+02 5.7446201373e+02 0.0000000000e+00 0.0000e+00 -1.0000e+00
       25  2    1    2    0    0 +1.2482859798e+02 +3.4630096246e+00 -2.6072629461e+02 3.1495545584e+02 1.2499826860e+02 0.0000e+00 0.0000e+00
        2  1    1    2  501    0 -6.9388187145e+01 -1.9756926570e+01 -2.8012170001e+02 2.8926324253e+02 0.0000000000e+00 0.0000e+00 -1.0000e+00
        1  1    1    2  502    0 -5.5440410837e+01 +1.6293916945e+01 +4.3090013190e+02 4.3475746636e+02 0.0000000000e+00 0.0000e+00 -1.0000e+00
       22  1    3    3    0    0 +5.6302194983e+01 +5.5179934444e+01 -1.8254361515e+02 1.9883896438e+02 0.0000000000e+00 0.0000e+00 1.0000e+00
       22  1    3    3    0    0 +6.8526403000e+01 -5.1716924820e+01 -7.8182679458e+01 1.1611649146e+02 0.0000000000e+00 0.0000e+00 1.0000e+00
<rwgt>
<wgt id='morphing_basis_vector_1'> +9.8723192e-06 </wgt>
<wgt id='morphing_basis_vector_2'> +1.0537496e-05 </wgt>
<wgt id='morphing_basis_vector_3'> +1.0844073e-05 </wgt>
<wgt id='morphing_basis_vector_4'> +9.9461070e-06 </wgt>
<wgt id='morphing_basis_vector_5'> +1.0316432e-05 </wgt>
</rwgt>
</event>
<event>
 7      1 +1.0321000e-05 5.48945800e+01 7.81860800e-03 1.44049300e-01
        2 -1    0    0  502    0 +0.0000000000e+00 +0.0000000000e+00 +2.3484561438e+03 2.3484561438e+03 0.0000000000e+00 0.0000e+00 -1.0000e+00
        1 -1    0    0  501    0 -0.0000000000e+00 -0.0000000000e+00 -2.5628915736e+02 2.5628915736e+02 0.0000000000e+00 0.0000e+00 -1.0000e+00
       25  2    1    2    0    0 -5.2853891322e+01 -4.1900275795e+01 +2.7388205568e+02 3.0852024973e+02 1.2499678847e+02 0.0000e+00 0.0000e+00
        2  1    1    2  501    0 +4.5495759303e+01 -1.2625248028e+01 -2.3626602159e+02 2.4093753124e+02 0.0000000000e+00 0.0000e+00 -1.0000e+00
        1  1    1    2  502    0 +7.3581320192e+00 +5.4525523824e+01 +2.0545509523e+03 2.0552875201e+03 0.0000000000e+00 0.0000e+00 -1.0000e+00
       22  1    3    3    0    0 +3.1194191275e+01 -4.8054130193e+01 +9.8718094584e+01 1.1413824598e+02 0.0000000000e+00 0.0000e+00 1.0000e+00
       22  1    3    3    0    0 -8.4048082597e+01 +6.1538543976e+00 +1.7516396110e+02 1.9438200375e+02 0.0000000000e+00 0.0000e+00 1.0000e+00
<rwgt>
<wgt id='morphing_basis_vector_1'> +1.0262712e-05 </wgt>
<wgt id='morphing_basis_vector_2'> +1.0518925e-05 </wgt>
<wgt id='morphing_basis_vector_3'> +1.0247738e-05 </wgt>
<wgt id='morphing_basis_vector_4'> +1.0478504e-05 </wgt>
<wgt id='morphing_basis_vector_5'> +1.0100378e-05 </wgt>
</rwgt>
</event>
<event>
 7      1 +1.0321000e-05 4.38862300e+01 7.81860800e-03 1.50650300e-01
        2 -1    0    0  502    0 +0.0000000000e+00 +0.0000000000e+00 +1.0498462458e+02 1.0498462458e+02 0.0000000000e+00 0.0000e+00 -1.0000e+00
        1 -1    0    0  501    0 -0.0000000000e+00 -0.0000000000e+00 -2.9664095184e+03 2.9664095184e+03 0.0000000000e+00 0.0000e+00 -1.0000e+00
       25  2    1    2    0    0 -3.1061589569e+00 -6.7598514352e+01 -1.1818813979e+03 1.1903980945e+03 1.2499910948e+02 0.0000e+00 0.0000e+00
        2  1    1    2  501    0 +2.2765729976e+01 +3.6390510317e+01 -1.7766252486e+03 1.7771437256e+03 0.0000000000e+00 0.0000e+00 -1.0000e+00
        1  1    1    2  502    0 -1.9659571019e+01 +3.1208004035e+01 +9.7081752670e+01 1.0385232280e+02 0.0000000000e+00 0.0000e+00 -1.0000e+00
       22  1    3    3    0    0 -5.1557062908e+01 -6.9542710938e+01 -9.2010677655e+02 9.2417033043e+02 0.0000000000e+00 0.0000e+00 -1.0000e+00
       22  1    3    3    0    0 +4.8450903951e+01 +1.9441965855e+00 -2.6177462138e+02 2.6622776412e+02 0.0000000000e+00 0.0000e+00 -1.0000e+00
<rwgt>
<wgt id='morphing_basis_vector_1'> +1.0232549e-05 </wgt>
<wgt id='morphing_basis_vector_2'> +1.0498994e-05 </wgt>
<wgt id='morphing_basis_vector_3'> +1.0310260e-05 </wgt>
<wgt id='morphing_basis_vector_4'> +1.0411433e-05 </wgt>
<wgt id='morphing_basis_vector_5'> +1.0144142e-05 </wgt>
</rwgt>
</event>
<event>
 7      1 +1.0321000e-05 2.30597400e+02 7.81860800e-03 1.20764300e-01
        2 -1    0    0  502    0 +0.0000000000e+00 +0.0000000000e+00 +1.4686347930e+03 1.4686347930e+03 0.0000000000e+00 0.0000e+00 -1.0000e+00
        1 -1    0    0  501    0 -0.0000000000e+00 -0.0000000000e+00 -1.3987777688e+03 1.3987777688e+03 0.0000000000e+00 0.0000e+00 -1.0000e+00
       25  2    1    2    0    0 +8.0213354755e+01 -2.9637952576e+02 -5.1634776378e+00 3.3155167989e+02 1.2499939744e+02 0.0000e+00 0.0000e+00
        2  1    1    2  501    0 -5.5269655187e+01 +7.1424768001e+01 -1.2189268226e+03 1.2222679048e+03 0.0000000000e+00 0.0000e+00 -1.0000e+00
        1  1    1    2  502    0 -2.4943699568e+01 +2.2495475776e+02 +1.2939473244e+03 1.3135929771e+03 0.0000000000e+00 0.0000e+00 -1.0000e+00
       22  1    3    3    0    0 +3.2116087718e+01 -2.8460913945e+01 +3.6304757638e+01 5.6209448850e+01 0.0000000000e+00 0.0000e+00 1.0000e+00
       22  1    3    3    0    0 +4.8097267036e+01 -2.6791861182e+02 -4.1468235276e+01 2.7534223103e+02 0.0000000000e+00 0.0000e+00 1.0000e+00
<rwgt>
<wgt id='morphing_basis_vector_1'> +8.5110975e-06 </wgt>
<wgt id='morphing_basis_vector_2'> +1.1380858e-05 </wgt>
<wgt id='morphing_basis_vector_3'> +1.2471577e-05 </wgt>
<wgt id='morphing_basis_vector_4'> +8.9500683e-06 </wgt>
<wgt id='morphing_basis_vector_5'> +1.0125724e-05 </wgt>
</rwgt>
</event>
<event>
 7      1 +1.0321000e-05 8.41894400e+01 7.81860800e-03 1.34294200e-01
        2 -1    0    0  502    0 +0.0000000000e+00 +0.0000000000e+00 +6.6879700550e+02 6.6879700550e+02 0.0000000000e+00 0.0000e+00 -1.0000e+00
        1 -1    0    0  501    0 -0.0000000000e+00 -0.0000000000e+00 -2.9148065081e+02 2.9148065081e+02 0.0000000000e+00 0.0000e+00 -1.0000e+00
       25  2    1    2    0    0 +1.9891831090e+01 -1.0134151444e+02 -8.2095527431e+01 1.8174114658e+02 1.2499752494e+02 0.0000e+00 0.0000e+00
        2  1    1    2  501    0 -6.1296423901e+01 +2.7908108612e+01 -1.4941906822e+02 1.6389683358e+02 0.0000000000e+00 0.0000e+00 -1.0000e+00
        1  1    1    2  502    0 +4.1404592812e+01 +7.3433405832e+01 +6.0883095034e+02 6.1463967615e+02 0.0000000000e+00 0.0000e+00 -1.0000e+00
       22  1    3    3    0    0 -1.5375558790e+01 -1.0126172461e+02 -9.9162868198e+01 1.4256093121e+02 0.0000000000e+00 0.0000e+00 1.0000e+00
       22  1    3    3    0    0 +3.5267389880e+01 -7.9789833389e-02 +1.7067340767e+01 3.9180215367e+01 0.0000000000e+00 0.0000e+00 1.0000e+00
<rwgt>
<wgt id='morphing_basis_vector_1'> +1.0004199e-05 </wgt>
<wgt id='morphing_basis_vector_2'> +1.0164392e-05 </wgt>
<wgt id='morphing_basis_vector_3'> +1.0949233e-05 </wgt>
<wgt id='morphing_basis_vector_4'> +9.6893779e-06 </wgt>
<wgt id='morphing_basis_vector_5'> +1.0724524e-05 </wgt>
</rwgt>
</event>
<event>
 7      1 +1.0321000e-05 4.93930300e+01 7.81860800e-03 1.52862800e-01
        2 -1    0    0  502    0 +0.0000000000e+00 +0.0000000000e+00 +1.6094528393e+03 1.6094528393e+03 0.0000000000e+00 0.0000e+00 -1.0000e+00
        1 -1    0    0  501    0 -0.0000000000e+00 -0.0000000000e+00 -1.3442970048e+03 1.3442970048e+03 0.0000000000e+00 0.0000e+00 -1.0000e+00
       25  2    1    2    0    0 +6.8101311098e+00 +4.1973053685e+01 +3.8097979762e+02 4.0321072441e+02 1.2500066784e+02 0.0000e+00 0.0000e+00
        2  1    1    2  501    0 +2.7669118396e+01 -5.7049798970e+00 -1.3325174866e+03 1.3328169338e+03 0.0000000000e+00 0.0000e+00 -1.0000e+00
        1  1    1    2  502    0 -3.4479249506e+01 -3.6268073788e+01 +1.2166935235e+03 1.2177221859e+03 0.0000000000e+00 0.0000e+00 -1.0000e+00
       22  1    3    3    0    0 -2.1908037771e+01 -9.8062579953e+00 +7.6170932987e+00 2.5182234316e+01 0.0000000000e+00 0.0000e+00 -1.0000e+00
       22  1    3    3    0    0 +2.8718168881e+01 +5.1779311680e+01 +3.7336270432e+02 3.7802849009e+02 0.0000000000e+00 0.0000e+00 -1.0000e+00
<rwgt>
<wgt id='morphing_basis_vector_1'> +1.0268738e-05 </wgt>
<wgt id='morphing_basis_vector_2'> +1.0295380e-05 </wgt>
<wgt id='morphing_basis_vector_3'> +1.0422482e-05 </wgt>
<wgt id='morphing_basis_vector_4'> +1.0216338e-05 </wgt>
<wgt id='morphing_basis_vector_5'> +1.0386383e-05 </wgt>
</rwgt>
</event>
<event>
 7      1 +1.0321000e-05 1.23477900e+02 7.81860800e-03 1.31147600e-01
        2 -1    0    0  502    0 +0.0000000000e+00 +0.0000000000e+00 +2.6971593961e+03 2.6971593961e+03 0.0000000000e+00 0.0000e+00 -1.0000e+00
        1 -1    0    0  501    0 -0.0000000000e+00 -0.0000000000e+00 -4.5877554480e+02 4.5877554480e+02 0.0000000000e+00 0.0000e+00 -1.0000e+00
       25  2    1    2    0    0 -6.5217504108e+01 -3.5134459126e+01 +3.0381560678e+02 3.3677143739e+02 1.2499330004e+02 0.0000e+00 0.0000e+00
        2  1    1    2  501    0 +8.3520622667e+01 +9.2945879848e+01 -4.3307580549e+02 4.5074303577e+02 0.0000000000e+00 0.0000e+00 -1.0000e+00
        1  1    1    2  502    0 -1.8303118559e+01 -5.7811420722e+01 +2.3676440500e+03 2.3684204677e+03 0.0000000000e+00 0.0000e+00 -1.0000e+00
       22  1    3    3    0    0 -4.9726199527e+01 -1.2239426131e+01 +2.5721933055e+01 5.7307209944e+01 0.0000000000e+00 0.0000e+00 -1.0000e+00
       22  1    3    3    0    0 -1.5491304581e+01 -2.2895032995e+01 +2.7809367373e+02 2.7946422745e+02 0.0000000000e+00 0.0000e+00 -1.0000e+00
<rwgt>
<wgt id='morphing_basis_vector_1'> +1.0201369e-05 </wgt>
<wgt id='morphing_basis_vector_2'> +1.0252372e-05 </wgt>
<wgt id='morphing_basis_vector_3'> +1.0562775e-05 </wgt>
<wgt id='morphing_basis_vector_4'> +1.0069891e-05 </wgt>
<wgt id='morphing_basis_vector_5'> +1.0484365e-05 </wgt>
</rwgt>
</event>
<event>
 7      1 +1.0321000e-05 3.94051300e+01 7.81860800e-03 1.51701900e-01
        2 -1    0    0  502    0 +0.0000000000e+00 +0.0000000000e+00 +3.2614504315e+03 3.2614504315e+03 0.0000000000e+00 0.0000e+00 -1.0000e+00
        1 -1    0    0  501    0 -0.0000000000e+00 -0.0000000000e+00 -4.8517420439e+02 4.8517420439e+02 0.0000000000e+00 0.0000e+00 -1.0000e+00
       25  2    1    2    0    0 -2.0787336312e+01 +1.5716668758e+00 +2.1055345672e+03 2.1093450669e+03 1.2500485531e+02 0.0000e+00 0.0000e+00
        2  1    1    2  501    0 -2.8300557622e+00 -3.9303368573e+01 -4.8203542421e+02 4.8364337501e+02 0.0000000000e+00 0.0000e+00 -1.0000e+00
        1  1    1    2  502    0 +2.3617392074e+01 +3.7731701697e+01 +1.1527770841e+03 1.1536361940e+03 0.0000000000e+00 0.0000e+00 -1.0000e+00
       22  1    3    3    0    0 +4.2400850891e+01 -2.4817433256e+01 +5.1528360306e+02 5.1762044853e+02 0.0000000000e+00 0.0000e+00 -1.0000e+00
       22  1    3    3    0    0 -6.3188187202e+01 +2.6389100131e+01 +1.5902509642e+03 1.5917246184e+03 0.0000000000e+00 0.0000e+00 -1.0000e+00
<rwgt>
<wgt id='morphing_basis_vector_1'> +1.0315131e-05 </wgt>
<wgt id='morphing_basis_vector_2'> +1.0406781e-05 </wgt>
<wgt id='morphing_basis_vector_3'> +1.0259573e-05 </wgt>
<wgt id='morphing_basis_vector_4'> +1.0416868e-05 </wgt>
<wgt id='morphing_basis_vector_5'> +1.0213510e-05 </wgt>
</rwgt>
</event>
<event>
 7      1 +1.0321000e-05 6.94710900e+01 7.81860800e-03 1.38090400e-01
        2 -1    0    0  502    0 +0.0000000000e+00 +0.0000000000e+00 +4.3413784234e+02 4.3413784234e+02 0.0000000000e+00 0.0000e+00 -1.0000e+00
        1 -1    0    0  501    0 -0.0000000000e+00 -0.0000000000e+00 -3.4810266232e+03 3.4810266232e+03 0.0000000000e+00 0.0000e+00 -1.0000e+00
       25  2    1    2    0    0 -1.1778012303e+02 -4.2180266433e+01 -1.5845289984e+02 2.3745280880e+02 1.2500073073e+02 0.0000e+00 0.0000e+00
        2  1    1    2  501    0 +4.9828002578e+01 +3.2294406180e+01 -3.2798159535e+03 3.2803534028e+03 0.0000000000e+00 0.0000e+00 -1.0000e+00
        1  1    1    2  502    0 +6.7952120454e+01 +9.8858602533e+00 +3.9138007243e+02 3.9735825397e+02 0.0000000000e+00 0.0000e+00 -1.0000e+00
       22  1    3    3    0    0 +7.5685395468e+00 +2.1285047254e+01 +3.7071362304e+00 2.2892769307e+01 0.0000000000e+00 0.0000e+00 -1.0000e+00
       22  1    3    3    0    0 -1.2534866258e+02 -6.3465313687e+01 -1.6216003607e+02 2.1456003950e+02 0.0000000000e+00 0.0000e+00 -1.0000e+00
<rwgt>
<wgt id='morphing_basis_vector_1'> +1.0023214e-05 </wgt>
<wgt id='morphing_basis_vector_2'> +1.0489604e-05 </wgt>
<wgt id='morphing_basis_vector_3'> +1.0643699e-05 </wgt>
<wgt id='morphing_basis_vector_4'> +1.0103074e-05 </wgt>
<wgt id='morphing_basis_vector_5'> +1.0283986e-05 </wgt>
</rwgt>
</event>
<event>
 7      1 +1.0321000e-05 2.67632800e+02 7.81860800e-03 1.23514200e-01
        2 -1    0    0  502    0 +0.0000000000e+00 +0.0000000000e+00 +2.9484127282e+03 2.9484127282e+03 0.0000000000e+00 0.0000e+00 -1.0000e+00
        1 -1    0    0  501    0 -0.0000000000e+00 -0.0000000000e+00 -1.1820578836e+03 1.1820578836e+03 0.0000000000e+00 0.0000e+00 -1.0000e+00
       25  2    1    2    0    0 -2.6910004690e+02 -4.5585928297e+01 -1.7044490438e+02 3.4521033754e+02 1.2500319842e+02 0.0000e+00 0.0000e+00
        2  1    1    2  501    0 +2.4819277518e+02 +1.0004959536e+02 -9.0455450619e+02 9.4330717683e+02 0.0000000000e+00 0.0000e+00 -1.0000e+00
        1  1    1    2  502    0 +2.0907271718e+01 -5.4463667064e+01 +2.8413542551e+03 2.8419530975e+03 0.0000000000e+00 0.0000e+00 -1.0000e+00
       22  1    3    3    0    0 +1.8179542560e+00 +5.6534351983e+00 +1.2827261185e+01 1.4135236706e+01 0.0000000000e+00 0.0000e+00 1.0000e+00
       22  1    3    3    0    0 -2.7091800116e+02 -5.1239363496e+01 -1.8327216557e+02 3.3107510084e+02 0.0000000000e+00 0.0000e+00 1.0000e+00
<rwgt>
<wgt id='morphing_basis_vector_1'> +8.6524080e-06 </wgt>
<wgt id='morphing_basis_vector_2'> +1.0926044e-05 </wgt>
<wgt id='morphing_basis_vector_3'> +1.2608408e-05 </wgt>
<wgt id='morphing_basis_vector_4'> +8.6609019e-06 </wgt>
<wgt id='morphing_basis_vector_5'> +1.0602696e-05 </wgt>
</rwgt>
</event>
<event>
 7      1 +1.0321000e-05 1.22816700e+02 7.81860800e-03 1.35210200e-01
        2 -1    0    0  502    0 +0.0000000000e+00 +0.0000000000e+00 +6.1819811884e+02 6.1819811884e+02 0.0000000000e+00 0.0000e+00 -1.0000e+00
        1 -1    0    0  501    0 -0.0000000000e+00 -0.0000000000e+00 -2.7264167312e+03 2.7264167312e+03 0.0000000000e+00 0.0000e+00 -1.0000e+00
       25  2    1    2    0    0 -4.6231929742e+01 +8.9588541105e+01 -1.1063061869e+02 1.9500695919e+02 1.2500032926e+02 0.0000e+00 0.0000e+00
        2  1    1    2  501    0 +2.7156575043e+01 +3.2931932794e+01 -2.5667453161e+03 2.5671002142e+03 0.0000000000e+00 0.0000e+00 -1.0000e+00
        1  1    1    2  502    0 +1.9075354699e+01 -1.2252047390e+02 +5.6915732246e+02 5.8250767668e+02 0.0000000000e+00 0.0000e+00 -1.0000e+00
       22  1    3    3    0    0 -5.1640249517e+01 +1.0322113255e+02 -1.2794793021e+02 1.7231363968e+02 0.0000000000e+00 0.0000e+00 1.0000e+00
       22  1    3    3    0    0 +5.4083197752e+00 -1.3632591440e+01 +1.7317311520e+01 2.2693319512e+01 0.0000000000e+00 0.0000e+00 1.0000e+00
<rwgt>
<wgt id='morphing_basis_vector_1'> +1.0101623e-05 </wgt>
<wgt id='morphing_basis_vector_2'> +1.0298137e-05 </wgt>
<wgt id='morphing_basis_vector_3'> +1.0680396e-05 </wgt>
<wgt id='morphing_basis_vector_4'> +9.9849690e-06 </wgt>
<wgt id='morphing_basis_vector_5'> +1.0485540e-05 </wgt>
</rwgt>
</event>
<event>
 7      1 +1.0321000e-05 1.08534600e+02 7.81860800e-03 1.30007000e-01
        2 -1    0    0  502    0 +0.0000000000e+00 +0.0000000000e+00 +9.8924949892e+02 9.8924949892e+02 0.0000000000e+00 0.0000e+00 -1.0000e+00
        1 -1    0    0  501    0 -0.0000000000e+00 -0.0000000000e+00 -3.2781150025e+02 3.2781150025e+02 0.0000000000e+00 0.0000e+00 -1.0000e+00
       25  2    1    2    0    0 -1.4422535010e+02 +2.3136604216e+01 +1.1554881193e+02 2.2430615119e+02 1.2500186980e+02 0.0000e+00 0.0000e+00
        2  1    1    2  501    0 +6.1650577149e+01 +4.5402141069e+01 -2.6446544203e+02 2.7532547667e+02 0.0000000000e+00 0.0000e+00 -1.0000e+00
        1  1    1    2  502    0 +8.2574772954e+01 -6.8538745284e+01 +8.1035462877e+02 8.1742937132e+02 0.0000000000e+00 0.0000e+00 -1.0000e+00
       22  1    3    3    0    0 -9.9455926438e+01 +5.5813600084e+01 +1.2373720484e+02 1.6827814807e+02 0.0000000000e+00 0.0000e+00 1.0000e+00
       22  1    3    3    0    0 -4.4769423665e+01 -3.2676995869e+01 -8.1883929052e+00 5.6028003111e+01 0.0000000000e+00 0.0000e+00 1.0000e+00
<rwgt>
<wgt id='morphing_basis_vector_1'> +9.8063354e-06 </wgt>
<wgt id='morphing_basis_vector_2'> +1.0272179e-05 </wgt>
<wgt id='morphing_basis_vector_3'> +1.1176073e-05 </wgt>
<wgt id='morphing_basis_vector_4'> +9.5415664e-06 </wgt>
<wgt id='morphing_basis_vector_5'> +1.0705387e-05 </wgt>
</rwgt>
</event>
<event>
 7      1 +1.0321000e-05 5.15789700e+01 7.81860800e-03 1.54344000e-01
        2 -1    0    0  502    0 +0.0000000000e+00 +0.0000000000e+00 +2.0016848988e+01 2.0016848988e+01 0.0000000000e+00 0.0000e+00 -1.0000e+00
        1 -1    0    0  501    0 -0.0000000000e+00 -0.0000000000e+00 -8.9687856051e+02 8.9687856051e+02 0.0000000000e+00 0.0000e+00 -1.0000e+00
       25  2    1    2    0    0 +4.9768968520e+01 -4.9966995191e+01 -4.3034454166e+02 4.5364655749e+02 1.2500049501e+02 0.0000e+00 0.0000e+00
        2  1    1    2  501    0 -4.1536971765e+01 +2.6833274957e+01 -4.3179806562e+02 4.3462042536e+02 0.0000000000e+00 0.0000e+00 -1.0000e+00
        1  1    1    2  502    0 -8.2319967551e+00 +2.3133720234e+01 -1.4719104240e+01 2.8628426643e+01 0.0000000000e+00 0.0000e+00 -1.0000e+00
       22  1    3    3    0    0 -4.1151466844e+01 -9.9422668227e+00 -1.6409682617e+02 1.6946993908e+02 0.0000000000e+00 0.0000e+00 -1.0000e+00
       22  1    3    3    0    0 +9.0920435364e+01 -4.0024728368e+01 -2.6624771549e+02 2.8417661841e+02 0.0000000000e+00 0.0000e+00 -1.0000e+00
<rwgt>
<wgt id='morphing_basis_vector_1'> +1.0069891e-05 </wgt>
<wgt id='morphing_basis_vector_2'> +1.0391631e-05 </wgt>
<wgt id='morphing_basis_vector_3'> +1.0652704e-05 </wgt>
<wgt id='morphing_basis_vector_4'> +1.0051609e-05 </wgt>
<wgt id='morphing_basis_vector_5'> +1.0384419e-05 </wgt>
</rwgt>
</event>
<event>
 7      1 +1.0321000e-05 6.25657400e+01 7.81860800e-03 1.47039900e-01
        2 -1    0    0  502    0 +0.0000000000e+00 +0.0000000000e+00 +2.7193605518e+03 2.7193605518e+03 0.0000000000e+00 0.0000e+00 -1.0000e+00
        1 -1    0    0  501    0 -0.0000000000e+00 -0.0000000000e+00 -5.6317863385e+01 5.6317863385e+01 0.0000000000e+00 0.0000e+00 -1.0000e+00
       25  2    1    2    0    0 -4.4268404313e+01 +4.3295627933e+01 +2.1713329337e+02 2.5808130813e+02 1.2499956601e+02 0.0000e+00 0.0000e+00
        2  1    1    2  501    0 +6.1784320669e+01 -1.4986485282e+01 -7.4508357553e+00 6.4011030105e+01 0.0000000000e+00 0.0000e+00 -1.0000e+00
        1  1    1    2  502    0 -1.7515916356e+01 -2.8309142651e+01 +2.4533602308e+03 2.4535860769e+03 0.0000000000e+00 0.0000e+00 -1.0000e+00
       22  1    3    3    0    0 -1.1065724396e+01 +4.4134201238e+01 +7.8421466099e+00 4.6171173244e+01 0.0000000000e+00 0.0000e+00 -1.0000e+00
       22  1    3    3    0    0 -3.3202679918e+01 -8.3857330438e-01 +2.0929114676e+02 2.1191013489e+02 0.0000000000e+00 0.0000e+00 -1.0000e+00
<rwgt>
<wgt id='morphing_basis_vector_1'> +1.0200150e-05 </wgt>
<wgt id='morphing_basis_vector_2'> +1.0286490e-05 </wgt>
<wgt id='morphing_basis_vector_3'> +1.0536116e-05 </wgt>
<wgt id='morphing_basis_vector_4'> +1.0109209e-05 </wgt>
<wgt id='morphing_basis_vector_5'> +1.0440112e-05 </wgt>
</rwgt>
</event>
<event>
 7      1 +1.0321000e-05 1.13194600e+02 7.81860800e-03 1.31800600e-01
        2 -1    0    0  502    0 +0.0000000000e+00 +0.0000000000e+00 +6.7939587589e+02 6.7939587589e+02 0.0000000000e+00 0.0000e+00 -1.0000e+00
        1 -1    0    0  501    0 -0.0000000000e+00 -0.0000000000e+00 -1.7469409583e+02 1.7469409583e+02 0.0000000000e+00 0.0000e+00 -1.0000e+00
       25  2    1    2    0    0 -7.8687664301e+01 +1.0760255591e+02 +3.2228858711e+02 3.7049293465e+02 1.2500009078e+02 0.0000e+00 0.0000e+00
        2  1    1    2  501    0 +1.0139443327e+02 -4.9512437169e+01 -1.2588437156e+02 1.6905380072e+02 0.0000000000e+00 0.0000e+00 -1.0000e+00
        1  1    1    2  502    0 -2.2706768968e+01 -5.8090118743e+01 +3.0829756451e+02 3.1454323635e+02 0.0000000000e+00 0.0000e+00 -1.0000e+00
       22  1    3    3    0    0 +2.2617110851e+00 +9.0439017313e+01 +2.2657472954e+02 2.4396811114e+02 0.0000000000e+00 0.0000e+00 1.0000e+00
       22  1    3    3    0    0 -8.0949375386e+01 +1.7163538599e+01 +9.5713857573e+01 1.2652482351e+02 0.0000000000e+00 0.0000e+00 1.0000e+00
<rwgt>
<wgt id='morphing_basis_vector_1'> +9.8021491e-06 </wgt>
<wgt id='morphing_basis_vector_2'> +1.0139635e-05 </wgt>
<wgt id='morphing_basis_vector_3'> +1.1299977e-05 </wgt>
<wgt id='morphing_basis_vector_4'> +9.3791289e-06 </wgt>
<wgt id='morphing_basis_vector_5'> +1.0887604e-05 </wgt>
</rwgt>
</event>
<event>
 7      1 +1.0321000e-05 1.14378700e+02 7.81860800e-03 1.25723800e-01
        2 -1    0    0  502    0 +0.0000000000e+00 +0.0000000000e+00 +1.6134452021e+02 1.6134452021e+02 0.0000000000e+00 0.0000e+00 -1.0000e+00
        1 -1    0    0  501    0 -0.0000000000e+00 -0.0000000000e+00 -2.0386113887e+03 2.0386113887e+03 0.0000000000e+00 0.0000e+00 -1.0000e+00
       25  2    1    2    0    0 +1.3860089552e+01 -3.8283107108e+00 -4.5582772257e+02 4.7287495412e+02 1.2500020610e+02 0.0000e+00 0.0000e+00
        2  1    1    2  501    0 +5.1444380067e+01 -9.6454613425e+01 -1.5486058311e+03 1.5524593511e+03 0.0000000000e+00 0.0000e+00 -1.0000e+00
        1  1    1    2  502    0 -6.5304469619e+01 +1.0028292414e+02 +1.2716668524e+02 1.7462160364e+02 0.0000000000e+00 0.0000e+00 -1.0000e+00
       22  1    3    3    0    0 +1.6956839322e+01 -3.7869469339e+01 -4.2445561549e+02 4.2647883960e+02 0.0000000000e+00 0.0000e+00 -1.0000e+00
       22  1    3    3    0    0 -3.0967497703e+00 +3.4041158629e+01 -3.1372107087e+01 4.6396114524e+01 0.0000000000e+00 0.0000e+00 -1.0000e+00
<rwgt>
<wgt id='morphing_basis_vector_1'> +1.0313120e-05 </wgt>
<wgt id='morphing_basis_vector_2'> +1.0259483e-05 </wgt>
<wgt id='morphing_basis_vector_3'> +1.0384646e-05 </wgt>
<wgt id='morphing_basis_vector_4'> +1.0235554e-05 </wgt>
<wgt id='morphing_basis_vector_5'> +1.0407270e-05 </wgt>
</rwgt>
</event>
<event>
 7      1 +1.0321000e-05 1.09516200e+02 7.81860800e-03 1.36043900e-01
        2 -1    0    0  502    0 +0.0000000000e+00 +0.0000000000e+00 +4.7171006152e+02 4.7171006152e+02 0.0000000000e+00 0.0000e+00 -1.0000e+00
        1 -1    0    0  501    0 -0.0000000000e+00 -0.0000000000e+00 -2.0770114644e+03 2.0770114644e+03 0.0000000000e+00 0.0000e+00 -1.0000e+00
       25  2    1    2    0    0 +2.5258623914e+01 +1.4971491135e+02 -1.0852215397e+02 2.2462140625e+02 1.2500066193e+02 0.0000e+00 0.0000e+00
        2  1    1    2  501    0 -1.7031217436e+00 -4.4579914041e+01 -1.9031582865e+03 1.9036811006e+03 0.0000000000e+00 0.0000e+00 -1.0000e+00
        1  1    1    2  502    0 -2.3555502171e+01 -1.0513499731e+02 +4.0637903762e+02 4.2041901902e+02 0.0000000000e+00 0.0000e+00 -1.0000e+00
       22  1    3    3    0    0 +1.4374060909e+01 +1.2697708357e+02 -1.3648672540e+02 1.8697170799e+02 0.0000000000e+00 0.0000e+00 -1.0000e+00
       22  1    3    3    0    0 +1.0884563005e+01 +2.2737827779e+01 +2.7964571432e+01 3.7649698263e+01 0.0000000000e+00 0.0000e+00 -1.0000e+00
<rwgt>
<wgt id='morphing_basis_vector_1'> +9.8823661e-06 </wgt>
<wgt id='morphing_basis_vector_2'> +1.0661132e-05 </wgt>
<wgt id='morphing_basis_vector_3'> +1.0724574e-05 </wgt>
<wgt id='morphing_basis_vector_4'> +1.0106572e-05 </wgt>
<wgt id='morphing_basis_vector_5'> +1.0150521e-05 </wgt>
</rwgt>
</event>
<event>
 7      1 +1.0321000e-05 8.11918300e+01 7.81860800e-03 1.40245700e-01
        2 -1    0    0  502    0 +0.0000000000e+00 +0.0000000000e+00 +1.2675800081e+03 1.2675800081e+03 0.0000000000e+00 0.0000e+00 -1.0000e+00
        1 -1    0    0  501    0 -0.0000000000e+00 -0.0000000000e+00 -1.7194972780e+02 1.7194972780e+02 0.0000000000e+00 0.0000e+00 -1.0000e+00
       25  2    1    2    0    0 +6.7975706423e+00 -1.1240668534e+02 +1.9605341080e+02 2.5834670976e+02 1.2499845072e+02 0.0000e+00 0.0000e+00
        2  1    1    2  501    0 -2.5023839276e+01 +3.4655152248e+01 -1.3598572900e+02 1.4254574915e+02 0.0000000000e+00 0.0000e+00 -1.0000e+00
        1  1    1    2  502    0 +1.8226268634e+01 +7.7751533093e+01 +1.0355625985e+03 1.0386372770e+03 0.0000000000e+00 0.0000e+00 -1.0000e+00
       22  1    3    3    0    0 -5.9164474613e+00 +2.6924956089e+01 +4.2035355808e+01 5.0268566211e+01 0.0000000000e+00 0.0000e+00 1.0000e+00
       22  1    3    3    0    0 +1.2714018104e+01 -1.3933164143e+02 +1.5401805499e+02 2.0807814355e+02 0.0000000000e+00 0.0000e+00 1.0000e+00
<rwgt>
<wgt id='morphing_basis_vector_1'> +1.0032420e-05 </wgt>
<wgt id='morphing_basis_vector_2'> +1.0409579e-05 </wgt>
<wgt id='morphing_basis_vector_3'> +1.0696004e-05 </wgt>
<wgt id='morphing_basis_vector_4'> +1.0020666e-05 </wgt>
<wgt id='morphing_basis_vector_5'> +1.0382346e-05 </wgt>
</rwgt>
</event>
<event>
 7      1 +1.0321000e-05 1.34863300e+02 7.81860800e-03 1.32884700e-01
        2 -1    0    0  502    0 +0.0000000000e+00 +0.0000000000e+00 +1.0256857861e+03 1.0256857861e+03 0.0000000000e+00 0.0000e+00 -1.0000e+00
        1 -1    0    0  501    0 -0.0000000000e+00 -0.0000000000e+00 -5.8061245272e+02 5.8061245272e+02 0.0000000000e+00 0.0000e+00 -1.0000e+00
       25  2    1    2    0    0 +1.6233826111e+02 -3.7669473422e+01 +2.6021988367e+02 3.3333628444e+02 1.2500396161e+02 0.0000e+00 0.0000e+00
        2  1    1    2  501    0 -1.3409639422e+02 -5.7378357527e-01 -5.3499519955e+02 5.5154513479e+02 0.0000000000e+00 0.0000e+00 -1.0000e+00
        1  1    1    2  502    0 -2.8241866887e+01 +3.8243256997e+01 +7.1984864925e+02 7.2141681958e+02 0.0000000000e+00 0.0000e+00 -1.0000e+00
       22  1    3    3    0    0 +1.2216533829e+02 -3.5491775153e+00 +8.1234196148e+01 1.4675135831e+02 0.0000000000e+00 0.0000e+00 -1.0000e+00
       22  1    3    3    0    0 +4.0172922812e+01 -3.4120295906e+01 +1.7898568753e+02 1.8658492613e+02 0.0000000000e+00 0.0000e+00 -1.0000e+00
<rwgt>
<wgt id='morphing_basis_vector_1'> +9.7380825e-06 </wgt>
<wgt id='morphing_basis_vector_2'> +1.0507190e-05 </wgt>
<wgt id='morphing_basis_vector_3'> +1.1086511e-05 </wgt>
<wgt id='morphing_basis_vector_4'> +9.7209151e-06 </wgt>
<wgt id='morphing_basis_vector_5'> +1.0438963e-05 </wgt>
</rwgt>
</event>
<event>
 7      1 +1.0321000e-05 6.44519400e+01 7.81860800e-03 1.41902500e-01
        2 -1    0    0  502    0 +0.0000000000e+00 +0.0000000000e+00 +2.0755149501e+03 2.0755149501e+03 0.0000000000e+00 0.0000e+00 -1.0000e+00
        1 -1    0    0  501    0 -0.0000000000e+00 -0.0000000000e+00 -1.2846885291e+03 1.2846885291e+03 0.0000000000e+00 0.0000e+00 -1.0000e+00
       25  2    1    2    0    0 -4.5335826119e+00 +5.9768800011e+01 +6.8193641909e+02 6.9588397078e+02 1.2499743312e+02 0.0000e+00 0.0000e+00
        2  1    1    2  501    0 -4.1607589936e+01 -4.9256121818e+01 -1.2764970444e+03 1.2781244312e+03 0.0000000000e+00 0.0000e+00 -1.0000e+00
        1  1    1    2  502    0 +4.6141172548e+01 -1.0512678193e+01 +1.3853870463e+03 1.3861950773e+03 0.0000000000e+00 0.0000e+00 -1.0000e+00
       22  1    3    3    0    0 +3.0580285942e+01 -7.1370699182e-02 +5.0358203960e+02 5.0450969227e+02 0.0000000000e+00 0.0000e+00 1.0000e+00
       22  1    3    3    0    0 -3.5113868554e+01 +5.9840170710e+01 +1.7835437949e+02 1.9137427852e+02 0.0000000000e+00 0.0000e+00 1.0000e+00
<rwgt>
<wgt id='morphing_basis_vector_1'> +1.0284840e-05 </wgt>
<wgt id='morphing_basis_vector_2'> +1.0526646e-05 </wgt>
<wgt id='morphing_basis_vector_3'> +1.0207707e-05 </wgt>
<wgt id='morphing_basis_vector_4'> +1.0519378e-05 </wgt>
<wgt id='morphing_basis_vector_5'> +1.0077247e-05 </wgt>
</rwgt>
</event>
<event>
 7      1 +1.0321000e-05 1.19921800e+02 7.81860800e-03 1.30922100e-01
        2 -1    0    0  502    0 +0.0000000000e+00 +0.0000000000e+00 +1.1392170795e+03 1.1392170795e+03 0.0000000000e+00 0.0000e+00 -1.0000e+00
        1 -1    0    0  501    0 -0.0000000000e+00 -0.0000000000e+00 -1.9155306760e+02 1.9155306760e+02 0.0000000000e+00 0.0000e+00 -1.0000e+00
       25  2    1    2    0    0 -4.2205291503e+01 +6.9390191831e+01 +7.3690690816e+02 7.5183351825e+02 1.2500225005e+02 0.0000e+00 0.0000e+00
        2  1    1    2  501    0 +5.0177623356e+00 -1.2114284820e+02 -1.6111678809e+02 2.0164172935e+02 0.0000000000e+00 0.0000e+00 -1.0000e+00
        1  1    1    2  502    0 +3.7187529168e+01 +5.1752656374e+01 +3.7187389186e+02 3.7729489954e+02 0.0000000000e+00 0.0000e+00 -1.0000e+00
       22  1    3    3    0    0 -4.9081952713e+01 -2.2960525887e+01 +3.3817944669e+02 3.4249315613e+02 0.0000000000e+00 0.0000e+00 1.0000e+00
       22  1    3    3    0    0 +6.8766612099e+00 +9.2350717718e+01 +3.9872746147e+02 4.0934036212e+02 0.0000000000e+00 0.0000e+00 1.0000e+00
<rwgt>
<wgt id='morphing_basis_vector_1'> +1.0372614e-05 </wgt>
<wgt id='morphing_basis_vector_2'> +1.0779674e-05 </wgt>
<wgt id='morphing_basis_vector_3'> +9.8771318e-06 </wgt>
<wgt id='morphing_basis_vector_4'> +1.0951629e-05 </wgt>
<wgt id='morphing_basis_vector_5'> +9.7179439e-06 </wgt>
</rwgt>
</event>
<event>
 7      1 +1.0321000e-05 4.16984300e+01 7.81860800e-03 1.51217900e-01
        2 -1    0    0  502    0 +0.0000000000e+00 +0.0000000000e+00 +1.0347481037e+03 1.0347481037e+03 0.0000000000e+00 0.0000e+00 -1.0000e+00
        1 -1    0    0  501    0 -0.0000000000e+00 -0.0000000000e+00 -3.1291455490e+01 3.1291455490e+01 0.0000000000e+00 0.0000e+00 -1.0000e+00
       25  2    1    2    0    0 +2.1384475413e+01 -5.4962336889e+01 +1.7821612220e+02 2.2552900761e+02 1.2499677115e+02 0.0000e+00 0.0000e+00
        2  1    1    2  501    0 -3.4214141032e+01 +1.9881942511e+01 +4.7283651246e+01 6.1657463131e+01 0.0000000000e+00 0.0000e+00 -1.0000e+00
        1  1    1    2  502    0 +1.2829665619e+01 +3.5080394378e+01 +7.7795687477e+02 7.7885308846e+02 0.0000000000e+00 0.0000e+00 -1.0000e+00
       22  1    3    3    0    0 +3.9944500172e+01 -8.9846448149e+01 +1.3439807408e+02 1.6652564263e+02 0.0000000000e+00 0.0000e+00 1.0000e+00
       22  1    3    3    0    0 -1.8560024759e+01 +3.4884111259e+01 +4.3818048119e+01 5.9003364975e+01 0.0000000000e+00 0.0000e+00 1.0000e+00
<rwgt>
<wgt id='morphing_basis_vector_1'> +1.0113449e-05 </wgt>
<wgt id='morphing_basis_vector_2'> +1.0248232e-05 </wgt>
<wgt id='morphing_basis_vector_3'> +1.0704773e-05 </wgt>
<wgt id='morphing_basis_vector_4'> +9.9409685e-06 </wgt>
<wgt id='morphing_basis_vector_5'> +1.0545006e-05 </wgt>
</rwgt>
</event>
<event>
 7      1 +1.0321000e-05 7.63752100e+01 7.81860800e-03 1.39789000e-01
        2 -1    0    0  502    0 +0.0000000000e+00 +0.0000000000e+00 +6.3632288174e+02 6.3632288174e+02 0.0000000000e+00 0.0000e+00 -1.0000e+00
        1 -1    0    0  501    0 -0.0000000000e+00 -0.0000000000e+00 -7.3794014470e+02 7.3794014470e+02 0.0000000000e+00 0.0000e+00 -1.0000e+00
       25  2    1    2    0    0 +4.7248648361e+01 -8.7092080990e+01 +2.8674209962e+01 1.6204424488e+02 1.2497464398e+02 0.0000e+00 0.0000e+00
        2  1    1    2  501    0 -6.3004637000e+01 +4.2690704148e+01 -6.6806469223e+02 6.7238568806e+02 0.0000000000e+00 0.0000e+00 -1.0000e+00
        1  1    1    2  502    0 +1.5755988639e+01 +4.4401376842e+01 +5.3777321931e+02 5.3983309351e+02 0.0000000000e+00 0.0000e+00 -1.0000e+00
       22  1    3    3    0    0 +8.2364338669e+01 -2.2222571779e+01 +2.1185655741e+01 8.7900847493e+01 0.0000000000e+00 0.0000e+00 -1.0000e+00
       22  1    3    3    0    0 -3.5115690308e+01 -6.4869509211e+01 +7.4885542217e+00 7.4143397382e+01 0.0000000000e+00 0.0000e+00 -1.0000e+00
<rwgt>
<wgt id='morphing_basis_vector_1'> +1.0101318e-05 </wgt>
<wgt id='morphing_basis_vector_2'> +1.0310441e-05 </wgt>
<wgt id='morphing_basis_vector_3'> +1.0670537e-05 </wgt>
<wgt id='morphing_basis_vector_4'> +9.9992311e-06 </wgt>
<wgt id='morphing_basis_vector_5'> +1.0469544e-05 </wgt>
</rwgt>
</event>
<event>
 7      1 +1.0321000e-05 1.04618300e+02 7.81860800e-03 1.46263300e-01
        2 -1    0    0  502    0 +0.0000000000e+00 +0.0000000000e+00 +9.4474598861e+02 9.4474598861e+02 0.0000000000e+00 0.0000e+00 -1.0000e+00
        1 -1    0    0  501    0 -0.0000000000e+00 -0.0000000000e+00 -8.7986041796e+02 8.7986041796e+02 0.0000000000e+00 0.0000e+00 -1.0000e+00
       25  2    1    2    0    0 +5.1300964803e+01 +7.7221588363e+01 +1.6372482878e+02 2.2589353962e+02 1.2500843566e+02 0.0000e+00 0.0000e+00
        2  1    1    2  501    0 -7.2313062826e+01 -7.5908649057e+01 -8.4538970171e+02 8.5186562897e+02 0.0000000000e+00 0.0000e+00 -1.0000e+00
        1  1    1    2  502    0 +2.1012098023e+01 -1.3129393058e+00 +7.4655044359e+02 7.4684723799e+02 0.0000000000e+00 0.0000e+00 -1.0000e+00
       22  1    3    3    0    0 +1.4292001377e+01 -3.3537116782e+01 +2.3338412723e+01 4.3286037169e+01 0.0000000000e+00 0.0000e+00 -1.0000e+00
       22  1    3    3    0    0 +3.7008963426e+01 +1.1075870514e+02 +1.4038641605e+02 1.8260750245e+02 0.0000000000e+00 0.0000e+00 -1.0000e+00
<rwgt>
<wgt id='morphing_basis_vector_1'> +1.0194402e-05 </wgt>
<wgt id='morphing_basis_vector_2'> +1.0532443e-05 </wgt>
<wgt id='morphing_basis_vector_3'> +1.0341537e-05 </wgt>
<wgt id='morphing_basis_vector_4'> +1.0397537e-05 </wgt>
<wgt id='morphing_basis_vector_5'> +1.0124352e-05 </wgt>
</rwgt>
</event>
<event>
 7      1 +1.0321000e-05 8.84259500e+01 7.81860800e-03 1.35423100e-01
        2 -1    0    0  502    0 +0.0000000000e+00 +0.0000000000e+00 +1.9414506448e+01 1.9414506448e+01 0.0000000000e+00 0.0000e+00 -1.0000e+00
        1 -1    0    0  501    0 -0.0000000000e+00 -0.0000000000e+00 -4.3724324188e+03 4.3724324188e+03 0.0000000000e+00 0.0000e+00 -1.0000e+00
       25  2    1    2    0    0 -1.3061914165e+00 -4.5682860965e+01 -1.5009343176e+03 1.5068238552e+03 1.2500269944e+02 0.0000e+00 0.0000e+00
        2  1    1    2  501    0 -1.8345824087e+01 +1.0049025179e+02 -2.8130982438e+03 2.8149523245e+03 0.0000000000e+00 0.0000e+00 -1.0000e+00
        1  1    1    2  502    0 +1.9652015504e+01 -5.4807390824e+01 -3.8985351070e+01 7.0070745681e+01 0.0000000000e+00 0.0000e+00 -1.0000e+00
       22  1    3    3    0    0 -1.4457199540e+01 +3.3160478050e+01 -8.8306204252e+02 8.8380269227e+02 0.0000000000e+00 0.0000e+00 1.0000e+00
       22  1    3    3    0    0 +1.3151008124e+01 -7.8843339015e+01 -6.1787227506e+02 6.2302116289e+02 0.0000000000e+00 0.0000e+00 1.0000e+00
<rwgt>
<wgt id='morphing_basis_vector_1'> +1.0252832e-05 </wgt>
<wgt id='morphing_basis_vector_2'> +1.0311329e-05 </wgt>
<wgt id='morphing_basis_vector_3'> +1.0434413e-05 </wgt>
<wgt id='morphing_basis_vector_4'> +1.0213602e-05 </wgt>
<wgt id='morphing_basis_vector_5'> +1.0376013e-05 </wgt>
</rwgt>
</event>
<event>
 7      1 +1.0321000e-05 1.76733100e+02 7.81860800e-03 1.22080800e-01
        2 -1    0    0  502    0 +0.0000000000e+00 +0.0000000000e+00 +4.1539580071e+03 4.1539580071e+03 0.0000000000e+00 0.0000e+00 -1.0000e+00
        1 -1    0    0  501    0 -0.0000000000e+00 -0.0000000000e+00 -4.2719463561e+02 4.2719463561e+02 0.0000000000e+00 0.0000e+00 -1.0000e+00
       25  2    1    2    0    0 +1.1901861855e+02 +2.4658141085e+02 +4.9159145375e+02 5.7641569139e+02 1.2500027256e+02 0.0000e+00 0.0000e+00
        2  1    1    2  501    0 -6.0911542983e+01 -1.6215854893e+02 -3.6452098415e+02 4.0358537999e+02 0.0000000000e+00 0.0000e+00 -1.0000e+00
        1  1    1    2  502    0 -5.8107075569e+01 -8.4422861925e+01 +3.5996929019e+03 3.6011515714e+03 0.0000000000e+00 0.0000e+00 -1.0000e+00
       22  1    3    3    0    0 +9.0718740260e+00 +6.7003285075e+01 +4.1053879756e+01 7.9102213321e+01 0.0000000000e+00 0.0000e+00 -1.0000e+00
       22  1    3    3    0    0 +1.0994674453e+02 +1.7957812578e+02 +4.5053757399e+02 4.9731347807e+02 0.0000000000e+00 0.0000e+00 -1.0000e+00
<rwgt>
<wgt id='morphing_basis_vector_1'> +8.9119718e-06 </wgt>
<wgt id='morphing_basis_vector_2'> +1.1372808e-05 </wgt>
<wgt id='morphing_basis_vector_3'> +1.1755187e-05 </wgt>
<wgt id='morphing_basis_vector_4'> +9.5236425e-06 </wgt>
<wgt id='morphing_basis_vector_5'> +9.8741479e-06 </wgt>
</rwgt>
</event>
<event>
 7      1 +1.0321000e-05 3.46427900e+01 7.81860800e-03 1.58567100e-01
        2 -1    0    0  502    0 +0.0000000000e+00 +0.0000000000e+00 +1.6823064424e+03 1.6823064424e+03 0.0000000000e+00 0.0000e+00 -1.0000e+00
        1 -1    0    0  501    0 -0.0000000000e+00 -0.0000000000e+00 -1.9809212309e+03 1.9809212309e+03 0.0000000000e+00 0.0000e+00 -1.0000e+00
       25  2    1    2    0    0 +9.0804526745e+00 -5.9611392525e+01 +1.9616744642e+02 2.4029641858e+02 1.2499891602e+02 0.0000e+00 0.0000e+00
        2  1    1    2  501    0 +3.2829334453e+00 +3.4470088668e+01 -1.9585696687e+03 1.9588757265e+03 0.0000000000e+00 0.0000e+00 -1.0000e+00
        1  1    1    2  502    0 -1.2363386120e+01 +2.5141303857e+01 +1.4637874338e+03 1.4640555283e+03 0.0000000000e+00 0.0000e+00 -1.0000e+00
       22  1    3    3    0    0 -1.8315795413e+01 -5.3643055429e+01 +2.0355559084e+02 2.1130055448e+02 0.0000000000e+00 0.0000e+00 1.0000e+00
       22  1    3    3    0    0 +2.7396248087e+01 -5.9683370962e+00 -7.3881444231e+00 2.8995864101e+01 0.0000000000e+00 0.0000e+00 1.0000e+00
<rwgt>
<wgt id='morphing_basis_vector_1'> +1.0260985e-05 </wgt>
<wgt id='morphing_basis_vector_2'> +1.0401670e-05 </wgt>
<wgt id='morphing_basis_vector_3'> +1.0346465e-05 </wgt>
<wgt id='morphing_basis_vector_4'> +1.0334025e-05 </wgt>
<wgt id='morphing_basis_vector_5'> +1.0252473e-05 </wgt>
</rwgt>
</event>
<event>
 7      1 +1.0321000e-05 3.90400500e+01 7.81860800e-03 1.52687200e-01
        2 -1    0    0  502    0 +0.0000000000e+00 +0.0000000000e+00 +1.7406963292e+03 1.7406963292e+03 0.0000000000e+00 0.0000e+00 -1.0000e+00
        1 -1    0    0  501    0 -0.0000000000e+00 -0.0000000000e+00 -1.3954338659e+02 1.3954338659e+02 0.0000000000e+00 0.0000e+00 -1.0000e+00
       25  2    1    2    0    0 -3.1132740982e+01 +5.5685423669e+01 +7.1376008655e+02 7.2742620930e+02 1.2500125938e+02 0.0000e+00 0.0000e+00
        2  1    1    2  501    0 -9.3045742873e-01 -3.8965488211e+01 -1.2952019043e+02 1.3525773453e+02 0.0000000000e+00 0.0000e+00 -1.0000e+00
        1  1    1    2  502    0 +3.2063198410e+01 -1.6719935458e+01 +1.0169130465e+03 1.0175557720e+03 0.0000000000e+00 0.0000e+00 -1.0000e+00
       22  1    3    3    0    0 -3.3259289874e+01 +7.1541368279e+01 +7.0457637136e+02 7.0897969704e+02 0.0000000000e+00 0.0000e+00 1.0000e+00
       22  1    3    3    0    0 +2.1265488928e+00 -1.5855944610e+01 +9.1837151930e+00 1.8446512256e+01 0.0000000000e+00 0.0000e+00 1.0000e+00
<rwgt>
<wgt id='morphing_basis_vector_1'> +1.0244267e-05 </wgt>
<wgt id='morphing_basis_vector_2'> +1.0479223e-05 </wgt>
<wgt id='morphing_basis_vector_3'> +1.0308457e-05 </wgt>
<wgt id='morphing_basis_vector_4'> +1.0404177e-05 </wgt>
<wgt id='morphing_basis_vector_5'> +1.0162458e-05 </wgt>
</rwgt>
</event>
<event>
 7      1 +1.0321000e-05 6.00764400e+01 7.81860800e-03 1.40000400e-01
        2 -1    0    0  502    0 +0.0000000000e+00 +0.0000000000e+00 +1.5156552629e+02 1.5156552629e+02 0.0000000000e+00 0.0000e+00 -1.0000e+00
        1 -1    0    0  501    0 -0.0000000000e+00 -0.0000000000e+00 -3.1988972461e+03 3.1988972461e+03 0.0000000000e+00 0.0000e+00 -1.0000e+00
       25  2    1    2    0    0 +3.0844299651e+01 -2.6946477538e+01 -7.6279774066e+02 7.7405623335e+02 1.2500070301e+02 0.0000e+00 0.0000e+00
        2  1    1    2  501    0 +1.7438205530e+01 +6.0681304186e+01 -2.4240993584e+03 2.4249214443e+03 0.0000000000e+00 0.0000e+00 -1.0000e+00
        1  1    1    2  502    0 -4.8282505181e+01 -3.3734826648e+01 +1.3956537925e+02 1.5148509472e+02 0.0000000000e+00 0.0000e+00 -1.0000e+00
       22  1    3    3    0    0 +6.5766638266e+01 -1.6682959423e+00 -2.2199628815e+02 2.3153916704e+02 0.0000000000e+00 0.0000e+00 -1.0000e+00
       22  1    3    3    0    0 -3.4922338615e+01 -2.5278181596e+01 -5.4080145251e+02 5.4251706631e+02 0.0000000000e+00 0.0000e+00 -1.0000e+00
<rwgt>
<wgt id='morphing_basis_vector_1'> +1.0312731e-05 </wgt>
<wgt id='morphing_basis_vector_2'> +1.0470065e-05 </wgt>
<wgt id='morphing_basis_vector_3'> +1.0211304e-05 </wgt>
<wgt id='morphing_basis_vector_4'> +1.0490391e-05 </wgt>
<wgt id='morphing_basis_vector_5'> +1.0132973e-05 </wgt>
</rwgt>
</event>
<event>
 7      1 +1.0321000e-05 1.19803800e+02 7.81860800e-03 1.25617500e-01
        2 -1    0    0  502    0 +0.0000000000e+00 +0.0000000000e+00 +1.1735438918e+03 1.1735438918e+03 0.0000000000e+00 0.0000e+00 -1.0000e+00
        1 -1    0    0  501    0 -0.0000000000e+00 -0.0000000000e+00 -4.3789175594e+01 4.3789175594e+01 0.0000000000e+00 0.0000e+00 -1.0000e+00
       25  2    1    2    0    0 +1.7583381432e+01 -1.0043390523e+02 +4.2903036389e+02 4.5835399960e+02 1.2500076473e+02 0.0000e+00 0.0000e+00
        2  1    1    2  501    0 -1.1775500434e+02 +2.2061490201e+01 +1.4117898351e+02 1.8516062157e+02 0.0000000000e+00 0.0000e+00 -1.0000e+00
        1  1    1    2  502    0 +1.0017162291e+02 +7.8372415034e+01 +5.5954536878e+02 5.7381844620e+02 0.0000000000e+00 0.0000e+00 -1.0000e+00
       22  1    3    3    0    0 +2.5826153200e+01 +1.6831869514e+01 +3.2625391764e+01 4.4885612486e+01 0.0000000000e+00 0.0000e+00 1.0000e+00
       22  1    3    3    0    0 -8.2427717680e+00 -1.1726577475e+02 +3.9640497213e+02 4.1346838711e+02 0.0000000000e+00 0.0000e+00 1.0000e+00
<rwgt>
<wgt id='morphing_basis_vector_1'> +1.0019419e-05 </wgt>
<wgt id='morphing_basis_vector_2'> +9.5150471e-06 </wgt>
<wgt id='morphing_basis_vector_3'> +1.1526338e-05 </wgt>
<wgt id='morphing_basis_vector_4'> +8.9568122e-06 </wgt>
<wgt id='morphing_basis_vector_5'> +1.1632942e-05 </wgt>
</rwgt>
</event>
<event>
 7      1 +1.0321000e-05 5.69459300e+01 7.81860800e-03 1.49800200e-01
        2 -1    0    0  502    0 +0.0000000000e+00 +0.0000000000e+00 +2.2743870894e+03 2.2743870894e+03 0.0000000000e+00 0.0000e+00 -1.0000e+00
        1 -1    0    0  501    0 -0.0000000000e+00 -0.0000000000e+00 -1.7518990186e+03 1.7518990186e+03 0.0000000000e+00 0.0000e+00 -1.0000e+00
       25  2    1    2    0    0 -2.7514805546e+01 +5.4882724442e+00 -1.3242884206e+03 1.3304705799e+03 1.2499982934e+02 0.0000e+00 0.0000e+00
        2  1    1    2  501    0 -2.9430923110e+01 -6.4516624152e+00 -4.2362734121e+02 4.2469745397e+02 0.0000000000e+00 0.0000e+00 -1.0000e+00
        1  1    1    2  502    0 +5.6945728656e+01 +9.6338997102e-01 +2.2704038325e+03 2.2711180742e+03 0.0000000000e+00 0.0000e+00 -1.0000e+00
       22  1    3    3    0    0 -6.5093640462e+00 +6.4698686514e+01 -6.3124771169e+02 6.3458802807e+02 0.0000000000e+00 0.0000e+00 -1.0000e+00
       22  1    3    3    0    0 -2.1005441500e+01 -5.9210414070e+01 -6.9304070888e+02 6.9588255178e+02 0.0000000000e+00 0.0000e+00 -1.0000e+00
<rwgt>
<wgt id='morphing_basis_vector_1'> +1.0356328e-05 </wgt>
<wgt id='morphing_basis_vector_2'> +1.0334911e-05 </wgt>
<wgt id='morphing_basis_vector_3'> +1.0256276e-05 </wgt>
<wgt id='morphing_basis_vector_4'> +1.0387946e-05 </wgt>
<wgt id='morphing_basis_vector_5'> +1.0282670e-05 </wgt>
</rwgt>
</event>
<event>
 7      1 +1.0321000e-05 1.59897700e+02 7.81860800e-03 1.30156100e-01
        2 -1    0    0  502    0 +0.0000000000e+00 +0.0000000000e+00 +1.0552279011e+03 1.0552279011e+03 0.0000000000e+00 0.0000e+00 -1.0000e+00
        1 -1    0    0  501    0 -0.0000000000e+00 -0.0000000000e+00 -1.0244401565e+03 1.0244401565e+03 0.0000000000e+00 0.0000e+00 -1.0000e+00
       25  2    1    2    0    0 +1.9036135537e+02 -5.5116130415e+01 +2.0099556794e+02 3.0870760976e+02 1.2500374611e+02 0.0000e+00 0.0000e+00
        2  1    1    2  501    0 -3.6719123379e+01 +3.5769214655e+01 -9.6240533432e+02 9.6376955662e+02 0.0000000000e+00 0.0000e+00 -1.0000e+00
        1  1    1    2  502    0 -1.5364223199e+02 +1.9346915760e+01 +7.9219751095e+02 8.0719089128e+02 0.0000000000e+00 0.0000e+00 -1.0000e+00
       22  1    3    3    0    0 +7.3817426493e+01 -1.7700231060e+01 +1.6419395054e+02 1.8089213368e+02 0.0000000000e+00 0.0000e+00 1.0000e+00
       22  1    3    3    0    0 +1.1654392888e+02 -3.7415899355e+01 +3.6801617404e+01 1.2781547608e+02 0.0000000000e+00 0.0000e+00 1.0000e+00
<rwgt>
<wgt id='morphing_basis_vector_1'> +9.5593864e-06 </wgt>
<wgt id='morphing_basis_vector_2'> +1.1315543e-05 </wgt>
<wgt id='morphing_basis_vector_3'> +1.0709810e-05 </wgt>
<wgt id='morphing_basis_vector_4'> +1.0406729e-05 </wgt>
<wgt id='morphing_basis_vector_5'> +9.5390468e-06 </wgt>
</rwgt>
</event>
<event>
 7      1 +1.0321000e-05 7.27608300e+01 7.81860800e-03 1.40511700e-01
        2 -1    0    0  502    0 +0.0000000000e+00 +0.0000000000e+00 +2.2504290957e+01 2.2504290957e+01 0.0000000000e+00 0.0000e+00 -1.0000e+00
        1 -1    0    0  501    0 -0.0000000000e+00 -0.0000000000e+00 -1.5516183076e+03 1.5516183076e+03 0.0000000000e+00 0.0000e+00 -1.0000e+00
       25  2    1    2    0    0 -2.3784256154e+01 +1.7539913526e+01 -1.0413292309e+03 1.0492180388e+03 1.2497434248e+02 0.0000e+00 0.0000e+00
        2  1    1    2  501    0 -3.6191571802e+01 +2.9529355166e+01 -4.2089937342e+02 4.2348328802e+02 0.0000000000e+00 0.0000e+00 -1.0000e+00
        1  1    1    2  502    0 +5.9975827956e+01 -4.7069268691e+01 -6.6885412353e+01 1.0142127183e+02 0.0000000000e+00 0.0000e+00 -1.0000e+00
       22  1    3    3    0    0 +1.8680571250e+01 +6.1464428910e+01 -4.1884353751e+02 4.2374137003e+02 0.0000000000e+00 0.0000e+00 1.0000e+00
       22  1    3    3    0    0 -4.2464827404e+01 -4.3924515384e+01 -6.2248569341e+02 6.2547666873e+02 0.0000000000e+00 0.0000e+00 1.0000e+00
<rwgt>
<wgt id='morphing_basis_vector_1'> +1.0379770e-05 </wgt>
<wgt id='morphing_basis_vector_2'> +1.0263001e-05 </wgt>
<wgt id='morphing_basis_vector_3'> +1.0282368e-05 </wgt>
<wgt id='morphing_basis_vector_4'> +1.0334691e-05 </wgt>
<wgt id='morphing_basis_vector_5'> +1.0365953e-05 </wgt>
</rwgt>
</event>
<event>
 7      1 +1.0321000e-05 7.16781100e+01 7.81860800e-03 1.46386500e-01
        2 -1    0    0  502    0 +0.0000000000e+00 +0.0000000000e+00 +1.0562414298e+02 1.0562414298e+02 0.0000000000e+00 0.0000e+00 -1.0000e+00
        1 -1    0    0  501    0 -0.0000000000e+00 -0.0000000000e+00 -9.8805339000e+02 9.8805339000e+02 0.0000000000e+00 0.0000e+00 -1.0000e+00
       25  2    1    2    0    0 -8.4514597750e+01 -5.2513437667e+01 -2.3535478977e+02 2.8445971000e+02 1.2500028471e+02 0.0000e+00 0.0000e+00
        2  1    1    2  501    0 +2.1783795769e+01 +2.1284156401e+01 -7.1261767079e+02 7.1326817803e+02 0.0000000000e+00 0.0000e+00 -1.0000e+00
        1  1    1    2  502    0 +6.2730801981e+01 +3.1229281266e+01 +6.5543213541e+01 9.5949644954e+01 0.0000000000e+00 0.0000e+00 -1.0000e+00
       22  1    3    3    0    0 -3.6698276741e+01 -1.2625080712e+00 +2.1940821285e+00 3.6785478640e+01 0.0000000000e+00 0.0000e+00 -1.0000e+00
       22  1    3    3    0    0 -4.7816321009e+01 -5.1250929596e+01 -2.3754887190e+02 2.4767423136e+02 0.0000000000e+00 0.0000e+00 -1.0000e+00
<rwgt>
<wgt id='morphing_basis_vector_1'> +1.0089648e-05 </wgt>
<wgt id='morphing_basis_vector_2'> +1.0477376e-05 </wgt>
<wgt id='morphing_basis_vector_3'> +1.0549585e-05 </wgt>
<wgt id='morphing_basis_vector_4'> +1.0182564e-05 </wgt>
<wgt id='morphing_basis_vector_5'> +1.0259121e-05 </wgt>
</rwgt>
</event>
<event>
 7      1 +1.0321000e-05 6.41383700e+01 7.81860800e-03 1.49147800e-01
        2 -1    0    0  502    0 +0.0000000000e+00 +0.0000000000e+00 +5.9512818249e+02 5.9512818249e+02 0.0000000000e+00 0.0000e+00 -1.0000e+00
        1 -1    0    0  501    0 -0.0000000000e+00 -0.0000000000e+00 -2.6044686703e+02 2.6044686703e+02 0.0000000000e+00 0.0000e+00 -1.0000e+00
       25  2    1    2    0    0 -1.8836948696e+01 -4.1600002035e+01 +2.4450472225e+01 1.3530768064e+02 1.2499980817e+02 0.0000e+00 0.0000e+00
        2  1    1    2  501    0 +4.6434393023e+01 +4.6250483775e+01 -1.9938683740e+02 2.0988180253e+02 0.0000000000e+00 0.0000e+00 -1.0000e+00
        1  1    1    2  502    0 -2.7597444327e+01 -4.6504817396e+00 +5.0961768064e+02 5.1038556634e+02 0.0000000000e+00 0.0000e+00 -1.0000e+00
       22  1    3    3    0    0 +3.4138140924e+01 +2.8703454940e+01 +2.9913805477e+00 4.4701782390e+01 0.0000000000e+00 0.0000e+00 -1.0000e+00
       22  1    3    3    0    0 -5.2975089620e+01 -7.0303456975e+01 +2.1459091677e+01 9.0605898254e+01 0.0000000000e+00 0.0000e+00 -1.0000e+00
<rwgt>
<wgt id='morphing_basis_vector_1'> +1.0288604e-05 </wgt>
<wgt id='morphing_basis_vector_2'> +1.0416393e-05 </wgt>
<wgt id='morphing_basis_vector_3'> +1.0292026e-05 </wgt>
<wgt id='morphing_basis_vector_4'> +1.0390975e-05 </wgt>
<wgt id='morphing_basis_vector_5'> +1.0216689e-05 </wgt>
</rwgt>
</event>
<event>
 7      1 +1.0321000e-05 9.22729600e+01 7.81860800e-03 1.41119600e-01
        2 -1    0    0  502    0 +0.0000000000e+00 +0.0000000000e+00 +1.2963663124e+02 1.2963663124e+02 0.0000000000e+00 0.0000e+00 -1.0000e+00
        1 -1    0    0  501    0 -0.0000000000e+00 -0.0000000000e+00 -6.7651601871e+02 6.7651601871e+02 0.0000000000e+00 0.0000e+00 -1.0000e+00
       25  2    1    2    0    0 +1.1461171807e+01 -1.2108729444e+02 -2.9605389291e+02 3.4360902610e+02 1.2500305585e+02 0.0000e+00 0.0000e+00
        2  1    1    2  501    0 -1.7064540977e+01 +3.0697435507e+01 -3.3623160893e+02 3.3806097963e+02 0.0000000000e+00 0.0000e+00 -1.0000e+00
        1  1    1    2  502    0 +5.6033691704e+00 +9.0389858928e+01 +8.5406114365e+01 1.2448264423e+02 0.0000000000e+00 0.0000e+00 -1.0000e+00
       22  1    3    3    0    0 -4.8215526038e+01 -4.9483554463e+01 -1.9127271455e+02 2.0336816478e+02 0.0000000000e+00 0.0000e+00 -1.0000e+00
       22  1    3    3    0    0 +5.9676697845e+01 -7.1603739972e+01 -1.0478117836e+02 1.4024086131e+02 0.0000000000e+00 0.0000e+00 -1.0000e+00
<rwgt>
<wgt id='morphing_basis_vector_1'> +9.9308905e-06 </wgt>
<wgt id='morphing_basis_vector_2'> +1.0510137e-05 </wgt>
<wgt id='morphing_basis_vector_3'> +1.0773346e-05 </wgt>
<wgt id='morphing_basis_vector_4'> +9.9966435e-06 </wgt>
<wgt id='morphing_basis_vector_5'> +1.0315468e-05 </wgt>
</rwgt>
</event>
<event>
 7      1 +1.0321000e-05 2.61346700e+02 7.81860800e-03 1.34997900e-01
        2 -1    0    0  502    0 +0.0000000000e+00 +0.0000000000e+00 +1.7771434102e+03 1.7771434102e+03 0.0000000000e+00 0.0000e+00 -1.0000e+00
        1 -1    0    0  501    0 -0.0000000000e+00 -0.0000000000e+00 -3.5476246550e+02 3.5476246550e+02 0.0000000000e+00 0.0000e+00 -1.0000e+00
       25  2    1    2    0    0 -2.6298034014e+02 +7.4851951634e+01 +8.1986366848e+02 8.7324877758e+02 1.2500207476e+02 0.0000e+00 0.0000e+00
        2  1    1    2  501    0 +2.0395065477e+01 -1.1110677281e+00 -3.1045799421e+02 3.1112916825e+02 0.0000000000e+00 0.0000e+00 -1.0000e+00
        1  1    1    2  502    0 +2.4258527467e+02 -7.3740883906e+01 +9.1297527043e+02 9.4752792985e+02 0.0000000000e+00 0.0000e+00 -1.0000e+00
       22  1    3    3    0    0 -1.0737189273e+02 +2.7955506541e+01 +5.2467053465e+02 5.3627362757e+02 0.0000000000e+00 0.0000e+00 1.0000e+00
       22  1    3    3    0    0 -1.5560844741e+02 +4.6896445093e+01 +2.9519313383e+02 3.3697515001e+02 0.0000000000e+00 0.0000e+00 1.0000e+00
<rwgt>
<wgt id='morphing_basis_vector_1'> +8.1108839e-06 </wgt>
<wgt id='morphing_basis_vector_2'> +1.2359066e-05 </wgt>
<wgt id='morphing_basis_vector_3'> +1.2393562e-05 </wgt>
<wgt id='morphing_basis_vector_4'> +9.4020858e-06 </wgt>
<wgt id='morphing_basis_vector_5'> +9.2344111e-06 </wgt>
</rwgt>
</event>
<event>
 7      1 +1.0321000e-05 1.48147800e+02 7.81860800e-03 1.29675300e-01
        2 -1    0    0  502    0 +0.0000000000e+00 +0.0000000000e+00 +7.4903511668e+02 7.4903511668e+02 0.0000000000e+00 0.0000e+00 -1.0000e+00
        1 -1    0    0  501    0 -0.0000000000e+00 -0.0000000000e+00 -2.3198351255e+02 2.3198351255e+02 0.0000000000e+00 0.0000e+00 -1.0000e+00
       25  2    1    2    0    0 -1.8152336395e+01 +1.1641432538e+02 -1.5411740356e+02 2.3078017909e+02 1.2500205803e+02 0.0000e+00 0.0000e+00
        2  1    1    2  501    0 +4.9422435037e+01 +3.0044428208e+01 -4.6503705514e+00 5.8024742115e+01 0.0000000000e+00 0.0000e+00 -1.0000e+00
        1  1    1    2  502    0 -3.1270098641e+01 -1.4645875359e+02 +6.7581937825e+02 6.9221370803e+02 0.0000000000e+00 0.0000e+00 -1.0000e+00
       22  1    3    3    0    0 -2.3204519178e+01 +5.1827416334e+01 +6.9152984388e+00 5.7204476631e+01 0.0000000000e+00 0.0000e+00 -1.0000e+00
       22  1    3    3    0    0 +5.0521827829e+00 +6.4586909043e+01 -1.6103270200e+02 1.7357570246e+02 0.0000000000e+00 0.0000e+00 -1.0000e+00
<rwgt>
<wgt id='morphing_basis_vector_1'> +1.0201020e-05 </wgt>
<wgt id='morphing_basis_vector_2'> +9.1840174e-06 </wgt>
<wgt id='morphing_basis_vector_3'> +1.1589979e-05 </wgt>
<wgt id='morphing_basis_vector_4'> +8.8261898e-06 </wgt>
<wgt id='morphing_basis_vector_5'> +1.2020580e-05 </wgt>
</rwgt>
</event>
<event>
 7      1 +1.0321000e-05 6.39433400e+01 7.81860800e-03 1.51863600e-01
        2 -1    0    0  502    0 +0.0000000000e+00 +0.0000000000e+00 +2.3134065774e+03 2.3134065774e+03 0.0000000000e+00 0.0000e+00 -1.0000e+00
        1 -1    0    0  501    0 -0.0000000000e+00 -0.0000000000e+00 -1.5952772128e+01 1.5952772128e+01 0.0000000000e+00 0.0000e+00 -1.0000e+00
       25  2    1    2    0    0 +6.2427762245e+01 -2.7660357790e+01 +1.1657186827e+03 1.1743860914e+03 1.2498129285e+02 0.0000e+00 0.0000e+00
        2  1    1    2  501    0 -4.6069958094e+01 +4.4284820832e+01 +7.7359927526e+01 1.0034014541e+02 0.0000000000e+00 0.0000e+00 -1.0000e+00
        1  1    1    2  502    0 -1.6357804151e+01 -1.6624463043e+01 +1.0543751950e+03 1.0546331127e+03 0.0000000000e+00 0.0000e+00 -1.0000e+00
       22  1    3    3    0    0 +5.8787999418e+01 -5.1069150411e+01 +3.6030916688e+02 3.6862824462e+02 0.0000000000e+00 0.0000e+00 -1.0000e+00
       22  1    3    3    0    0 +3.6397628271e+00 +2.3408792621e+01 +8.0540951583e+02 8.0575784677e+02 0.0000000000e+00 0.0000e+00 -1.0000e+00
<rwgt>
<wgt id='morphing_basis_vector_1'> +1.0236024e-05 </wgt>
<wgt id='morphing_basis_vector_2'> +1.0550297e-05 </wgt>
<wgt id='morphing_basis_vector_3'> +1.0263181e-05 </wgt>
<wgt id='morphing_basis_vector_4'> +1.0478310e-05 </wgt>
<wgt id='morphing_basis_vector_5'> +1.0076484e-05 </wgt>
</rwgt>
</event>
<event>
 7      1 +1.0321000e-05 1.15445400e+02 7.81860800e-03 1.37266000e-01
        2 -1    0    0  502    0 +0.0000000000e+00 +0.0000000000e+00 +5.0440237460e+02 5.0440237460e+02 0.0000000000e+00 0.0000e+00 -1.0000e+00
        1 -1    0    0  501    0 -0.0000000000e+00 -0.0000000000e+00 -6.1320255049e+02 6.1320255049e+02 0.0000000000e+00 0.0000e+00 -1.0000e+00
       25  2    1    2    0    0 +4.8672725705e+01 +8.6889431545e+01 -8.4704634807e+01 1.8087981996e+02 1.2499530618e+02 0.0000e+00 0.0000e+00
        2  1    1    2  501    0 -2.3944198520e+01 -1.1604370044e+02 -4.7227820754e+02 4.8691495189e+02 0.0000000000e+00 0.0000e+00 -1.0000e+00
        1  1    1    2  502    0 -2.4728527185e+01 +2.9154268897e+01 +4.4818266646e+02 4.4981015325e+02 0.0000000000e+00 0.0000e+00 -1.0000e+00
       22  1    3    3    0    0 +3.3011351718e+00 +1.0351451915e+02 -2.9862442207e+01 1.0778644916e+02 0.0000000000e+00 0.0000e+00 -1.0000e+00
       22  1    3    3    0    0 +4.5371590534e+01 -1.6625087602e+01 -5.4842192601e+01 7.3093370798e+01 0.0000000000e+00 0.0000e+00 -1.0000e+00
<rwgt>
<wgt id='morphing_basis_vector_1'> +1.0070204e-05 </wgt>
<wgt id='morphing_basis_vector_2'> +1.0320841e-05 </wgt>
<wgt id='morphing_basis_vector_3'> +1.0710876e-05 </wgt>
<wgt id='morphing_basis_vector_4'> +9.9680455e-06 </wgt>
<wgt id='morphing_basis_vector_5'> +1.0475124e-05 </wgt>
</rwgt>
</event>
</LesHouchesEvents>
