<event>
 7    1  0.7802682E-006  0.1287061E+03  0.7818608E-02  0.1261917E+00
          2   -1    0    0  502    0  0.00000000000E+00  0.00000000000E+00  0.37970568600E+04  0.37970568600E+04  0.00000000000E+00 0. -1.
          1   -1    0    0  501    0 -0.00000000000E+00 -0.00000000000E+00 -0.69237276882E+02  0.69237276882E+02  0.00000000000E+00 0. -1.
         25    2    1    2    0    0 -0.19130782879E+03 -0.51057899032E+02  0.17773501442E+04  0.17927086221E+04  0.12500029639E+03 0.  0.
          2    1    1    2  501    0  0.76495978437E+02  0.52500554832E+02 -0.23957890427E+02  0.95822353803E+02  0.00000000000E+00 0. -1.
          1    1    1    2  502    0  0.11481185035E+03 -0.14426557999E+01  0.19744273293E+04  0.19777631610E+04  0.00000000000E+00 0. -1.
         22    1    3    3    0    0 -0.90920687463E+02  0.36442240660E+02  0.61445355310E+03  0.62221200345E+03  0.00000000000E+00 0. -1.
         22    1    3    3    0    0 -0.10038714132E+03 -0.87500139692E+02  0.11628965911E+04  0.11704966186E+04  0.00000000000E+00 0. -1.
</event>
<event>
 7    1  0.7802682E-006  0.3224111E+02  0.7818608E-02  0.1581929E+00
          2   -1    0    0  502    0  0.00000000000E+00  0.00000000000E+00  0.79593882218E+03  0.79593882218E+03  0.00000000000E+00 0. -1.
          1   -1    0    0  501    0 -0.00000000000E+00 -0.00000000000E+00 -0.26947873551E+03  0.26947873551E+03  0.00000000000E+00 0. -1.
         25    2    1    2    0    0 -0.59066804593E+01  0.56323289519E+02 -0.12563856228E+03  0.18605408037E+03  0.12499548261E+03 0.  0.
          2    1    1    2  501    0 -0.91417199655E+01 -0.29445317157E+02 -0.11122464725E+03  0.11541888884E+03  0.00000000000E+00 0. -1.
          1    1    1    2  502    0  0.15048400425E+02 -0.26877972362E+02  0.76332329620E+03  0.76394458848E+03  0.00000000000E+00 0. -1.
         22    1    3    3    0    0  0.44531671249E+02 -0.15895294903E+02 -0.29839317147E+02  0.55911671340E+02  0.00000000000E+00 0.  1.
         22    1    3    3    0    0 -0.50438351709E+02  0.72218584422E+02 -0.95799245134E+02  0.13014240903E+03  0.00000000000E+00 0.  1.
</event>
<event>
 7    1  0.7802682E-006  0.9286142E+02  0.7818608E-02  0.1296647E+00
          2   -1    0    0  502    0  0.00000000000E+00  0.00000000000E+00  0.15251375374E+04  0.15251375374E+04  0.00000000000E+00 0. -1.
          1   -1    0    0  501    0 -0.00000000000E+00 -0.00000000000E+00 -0.33656848793E+03  0.33656848793E+03  0.00000000000E+00 0. -1.
         25    2    1    2    0    0  0.21232196200E+01  0.18532971294E+02  0.45521902945E+02  0.13431899812E+03  0.12498548124E+03 0.  0.
          2    1    1    2  501    0 -0.91007964665E+02 -0.43640789304E+02 -0.28191333692E+03  0.29943629983E+03  0.00000000000E+00 0. -1.
          1    1    1    2  502    0  0.88884745045E+02  0.25107818010E+02  0.14249604835E+04  0.14279507274E+04  0.00000000000E+00 0. -1.
         22    1    3    3    0    0 -0.10351553713E+02  0.10892215080E+02  0.88061510255E+02  0.89334341673E+02  0.00000000000E+00 0.  1.
         22    1    3    3    0    0  0.12474773333E+02  0.76407562145E+01 -0.42539607311E+02  0.44984656444E+02  0.00000000000E+00 0.  1.
</event>
<event>
 7    1  0.7802682E-006  0.1075469E+03  0.7818608E-02  0.1363020E+00
          2   -1    0    0  502    0  0.00000000000E+00  0.00000000000E+00  0.68219894082E+03  0.68219894082E+03  0.00000000000E+00 0. -1.
          1   -1    0    0  501    0 -0.00000000000E+00 -0.00000000000E+00 -0.35747567008E+03  0.35747567008E+03  0.00000000000E+00 0. -1.
         25    2    1    2    0    0  0.12414345230E+02  0.13720100611E+03  0.44282052751E+03  0.48030500005E+03  0.12499856577E+03 0.  0.
          2    1    1    2  501    0 -0.37307414727E+02 -0.10036676810E+03 -0.32788350649E+03  0.34492452097E+03  0.00000000000E+00 0. -1.
          1    1    1    2  502    0  0.24893069498E+02 -0.36834238009E+02  0.20978624973E+03  0.21444508988E+03  0.00000000000E+00 0. -1.
         22    1    3    3    0    0  0.45363756537E+02  0.46907206922E+02  0.71740038305E+02  0.96978294296E+02  0.00000000000E+00 0. -1.
         22    1    3    3    0    0 -0.32949411308E+02  0.90293799185E+02  0.37108048920E+03  0.38332670575E+03  0.00000000000E+00 0. -1.
</event>
<event>
 7    1  0.7802682E-006  0.5752989E+02  0.7818608E-02  0.1446501E+00
          2   -1    0    0  502    0  0.00000000000E+00  0.00000000000E+00  0.14859258531E+04  0.14859258531E+04  0.00000000000E+00 0. -1.
          1   -1    0    0  501    0 -0.00000000000E+00 -0.00000000000E+00 -0.85044935884E+03  0.85044935884E+03  0.00000000000E+00 0. -1.
         25    2    1    2    0    0 -0.92921278686E+02 -0.20888812316E+02  0.41632588493E+03  0.44499756273E+03  0.12499952744E+03 0.  0.
          2    1    1    2  501    0  0.50368767264E+02  0.27635359323E+02 -0.83468590775E+03  0.83666079770E+03  0.00000000000E+00 0. -1.
          1    1    1    2  502    0  0.42552511422E+02 -0.67465470077E+01  0.10538365171E+04  0.10547168516E+04  0.00000000000E+00 0. -1.
         22    1    3    3    0    0 -0.67326620896E+01  0.25065946587E+02  0.25564095538E+03  0.25695510986E+03  0.00000000000E+00 0. -1.
         22    1    3    3    0    0 -0.86188616596E+02 -0.45954758903E+02  0.16068492956E+03  0.18804245288E+03  0.00000000000E+00 0. -1.
</event>
<event>
 7    1  0.7802682E-006  0.9387372E+02  0.7818608E-02  0.1328427E+00
          2   -1    0    0  502    0  0.00000000000E+00  0.00000000000E+00  0.13659728057E+04  0.13659728057E+04  0.00000000000E+00 0. -1.
          1   -1    0    0  501    0 -0.00000000000E+00 -0.00000000000E+00 -0.21823830983E+03  0.21823830983E+03  0.00000000000E+00 0. -1.
         25    2    1    2    0    0  0.16550006357E+02  0.96816902970E+02  0.12499027083E+03  0.20222427333E+03  0.12499869403E+03 0.  0.
          2    1    1    2  501    0 -0.74241591098E+02 -0.59786943092E+02 -0.16591734624E+03  0.19135009327E+03  0.00000000000E+00 0. -1.
          1    1    1    2  502    0  0.57691584742E+02 -0.37029959878E+02  0.11886615713E+04  0.11906367489E+04  0.00000000000E+00 0. -1.
         22    1    3    3    0    0  0.32631772315E+02  0.12135014419E+03  0.81537395774E+02  0.14979665206E+03  0.00000000000E+00 0. -1.
         22    1    3    3    0    0 -0.16081765958E+02 -0.24533241216E+02  0.43452875060E+02  0.52427621268E+02  0.00000000000E+00 0. -1.
</event>
<event>
 7    1  0.7802682E-006  0.1268057E+03  0.7818608E-02  0.1302375E+00
          2   -1    0    0  502    0  0.00000000000E+00  0.00000000000E+00  0.23367457601E+03  0.23367457601E+03  0.00000000000E+00 0. -1.
          1   -1    0    0  501    0 -0.00000000000E+00 -0.00000000000E+00 -0.32561902458E+04  0.32561902458E+04  0.00000000000E+00 0. -1.
         25    2    1    2    0    0 -0.11949682961E+03  0.76407866484E+02 -0.17324726561E+04  0.17427572733E+04  0.12499502068E+03 0.  0.
          2    1    1    2  501    0  0.63123824318E+02 -0.10703875739E+03 -0.15114718282E+04  0.15165714623E+04  0.00000000000E+00 0. -1.
          1    1    1    2  502    0  0.56373005291E+02  0.30630890906E+02  0.22142881445E+03  0.23053608627E+03  0.00000000000E+00 0. -1.
         22    1    3    3    0    0 -0.12993465408E+03  0.24091454984E+02 -0.10675775828E+04  0.10757254798E+04  0.00000000000E+00 0.  1.
         22    1    3    3    0    0  0.10437824473E+02  0.52316411500E+02 -0.66489507333E+03  0.66703179357E+03  0.00000000000E+00 0.  1.
</event>
<event>
 7    1  0.7802682E-006  0.1322733E+03  0.7818608E-02  0.1291184E+00
          2   -1    0    0  502    0  0.00000000000E+00  0.00000000000E+00  0.89794706061E+03  0.89794706061E+03  0.00000000000E+00 0. -1.
          1   -1    0    0  501    0 -0.00000000000E+00 -0.00000000000E+00 -0.25906105288E+03  0.25906105288E+03  0.00000000000E+00 0. -1.
         25    2    1    2    0    0 -0.76284193050E+02 -0.17240617598E+03  0.32883990877E+03  0.39912864592E+03  0.12499929108E+03 0.  0.
          2    1    1    2  501    0  0.35557167612E+02  0.58226426001E+02 -0.21160307486E+03  0.22232968795E+03  0.00000000000E+00 0. -1.
          1    1    1    2  502    0  0.40727025437E+02  0.11417974998E+03  0.52164917381E+03  0.53554977962E+03  0.00000000000E+00 0. -1.
         22    1    3    3    0    0 -0.81977536861E+01 -0.13351495356E+03  0.13508512359E+03  0.19010901242E+03  0.00000000000E+00 0.  1.
         22    1    3    3    0    0 -0.68086439364E+02 -0.38891222417E+02  0.19375478518E+03  0.20901963350E+03  0.00000000000E+00 0.  1.
</event>
<event>
 7    1  0.7802682E-006  0.8159655E+02  0.7818608E-02  0.1371579E+00
          2   -1    0    0  502    0  0.00000000000E+00  0.00000000000E+00  0.15024900526E+04  0.15024900526E+04  0.00000000000E+00 0. -1.
          1   -1    0    0  501    0 -0.00000000000E+00 -0.00000000000E+00 -0.24332034827E+03  0.24332034827E+03  0.00000000000E+00 0. -1.
         25    2    1    2    0    0  0.59182814667E+02 -0.11538338519E+03 -0.49080013347E+02  0.18668303850E+03  0.12500311205E+03 0.  0.
          2    1    1    2  501    0 -0.40701937892E+02  0.36352288004E+02 -0.11829478808E+03  0.13027583612E+03  0.00000000000E+00 0. -1.
          1    1    1    2  502    0 -0.18480876775E+02  0.79031097191E+02  0.14265445057E+04  0.14288515262E+04  0.00000000000E+00 0. -1.
         22    1    3    3    0    0  0.48562074349E+02  0.74013856669E+01  0.98097147858E+01  0.50092774719E+02  0.00000000000E+00 0. -1.
         22    1    3    3    0    0  0.10620740318E+02 -0.12278477086E+03 -0.58889728132E+02  0.13659026378E+03  0.00000000000E+00 0. -1.
</event>
<event>
 7    1  0.7802682E-006  0.3311418E+02  0.7818608E-02  0.1578977E+00
          2   -1    0    0  502    0  0.00000000000E+00  0.00000000000E+00  0.20637343620E+04  0.20637343620E+04  0.00000000000E+00 0. -1.
          1   -1    0    0  501    0 -0.00000000000E+00 -0.00000000000E+00 -0.28639321753E+03  0.28639321753E+03  0.00000000000E+00 0. -1.
         25    2    1    2    0    0  0.21977016608E+02  0.71592945794E+01  0.38665424616E+03  0.40701453335E+03  0.12500031810E+03 0.  0.
          2    1    1    2  501    0 -0.23567672429E+02  0.23342272978E+02 -0.27507669656E+03  0.27706946039E+03  0.00000000000E+00 0. -1.
          1    1    1    2  502    0  0.15906558207E+01 -0.30501567557E+02  0.16657635948E+04  0.16660435858E+04  0.00000000000E+00 0. -1.
         22    1    3    3    0    0  0.46831766460E+02 -0.32559056794E+02  0.89092052893E+02  0.10578610692E+03  0.00000000000E+00 0.  1.
         22    1    3    3    0    0 -0.24854749851E+02  0.39718351373E+02  0.29756219327E+03  0.30122842643E+03  0.00000000000E+00 0.  1.
</event>
<event>
 7    1  0.7802682E-006  0.1006613E+03  0.7818608E-02  0.1338592E+00
          2   -1    0    0  502    0  0.00000000000E+00  0.00000000000E+00  0.35815595815E+04  0.35815595815E+04  0.00000000000E+00 0. -1.
          1   -1    0    0  501    0 -0.00000000000E+00 -0.00000000000E+00 -0.20025127423E+03  0.20025127423E+03  0.00000000000E+00 0. -1.
         25    2    1    2    0    0 -0.11072183521E+03  0.40868935518E+02  0.82044252977E+02  0.19048721464E+03  0.12499809924E+03 0.  0.
          2    1    1    2  501    0  0.45969872439E+02  0.36164511230E+02 -0.13940716800E+03  0.15118022203E+03  0.00000000000E+00 0. -1.
          1    1    1    2  502    0  0.64751962775E+02 -0.77033446748E+02  0.34386712223E+04  0.34401434191E+04  0.00000000000E+00 0. -1.
         22    1    3    3    0    0 -0.46947738199E+02  0.28767385205E+02  0.10748550439E+03  0.12076748829E+03  0.00000000000E+00 0. -1.
         22    1    3    3    0    0 -0.63774097015E+02  0.12101550313E+02 -0.25441251410E+02  0.69719726358E+02  0.00000000000E+00 0. -1.
</event>
<event>
 7    1  0.7802682E-006  0.1344850E+03  0.7818608E-02  0.1379941E+00
          2   -1    0    0  502    0  0.00000000000E+00  0.00000000000E+00  0.18365847717E+04  0.18365847717E+04  0.00000000000E+00 0. -1.
          1   -1    0    0  501    0 -0.00000000000E+00 -0.00000000000E+00 -0.32653622416E+02  0.32653622416E+02  0.00000000000E+00 0. -1.
         25    2    1    2    0    0 -0.10721425049E+03 -0.17102014447E+02  0.10306552224E+04  0.10438686047E+04  0.12499640756E+03 0.  0.
          2    1    1    2  501    0  0.13666954574E+03  0.26488959944E+02  0.16319478088E+03  0.21450586528E+03  0.00000000000E+00 0. -1.
          1    1    1    2  502    0 -0.29455295254E+02 -0.93869454964E+01  0.61008114602E+03  0.61086392421E+03  0.00000000000E+00 0. -1.
         22    1    3    3    0    0 -0.26274948843E+02 -0.30552311331E+02  0.79008611283E+02  0.88691472652E+02  0.00000000000E+00 0.  1.
         22    1    3    3    0    0 -0.80939301646E+02  0.13450296883E+02  0.95164661115E+03  0.95517713203E+03  0.00000000000E+00 0.  1.
</event>
<event>
 7    1  0.7802682E-006  0.2416583E+02  0.7818608E-02  0.1685755E+00
          2   -1    0    0  502    0  0.00000000000E+00  0.00000000000E+00  0.41093859065E+03  0.41093859065E+03  0.00000000000E+00 0. -1.
          1   -1    0    0  501    0 -0.00000000000E+00 -0.00000000000E+00 -0.42019413983E+03  0.42019413983E+03  0.00000000000E+00 0. -1.
         25    2    1    2    0    0  0.99718980054E+01 -0.11048180465E+02  0.34394869891E+03  0.36626116912E+03  0.12500014192E+03 0.  0.
          2    1    1    2  501    0 -0.14238995774E+02 -0.17523517696E+02 -0.40496548019E+03  0.40559445610E+03  0.00000000000E+00 0. -1.
          1    1    1    2  502    0  0.42670977688E+01  0.28571698162E+02  0.51761232100E+02  0.59277105258E+02  0.00000000000E+00 0. -1.
         22    1    3    3    0    0  0.17579951118E+02  0.55221706803E+02  0.13470533746E+03  0.14664248881E+03  0.00000000000E+00 0.  1.
         22    1    3    3    0    0 -0.76080531131E+01 -0.66269887268E+02  0.20924336145E+03  0.21961868031E+03  0.00000000000E+00 0.  1.
</event>
<event>
 7    1  0.7802682E-006  0.1097532E+03  0.7818608E-02  0.1384612E+00
          2   -1    0    0  502    0  0.00000000000E+00  0.00000000000E+00  0.12046582290E+04  0.12046582290E+04  0.00000000000E+00 0. -1.
          1   -1    0    0  501    0 -0.00000000000E+00 -0.00000000000E+00 -0.26916469500E+03  0.26916469500E+03  0.00000000000E+00 0. -1.
         25    2    1    2    0    0 -0.82981574089E+02 -0.86890533152E+02 -0.12777696491E+03  0.21537654142E+03  0.12499678172E+03 0.  0.
          2    1    1    2  501    0 -0.13117863185E+02  0.34029215029E+02 -0.91488914766E+02  0.98490036730E+02  0.00000000000E+00 0. -1.
          1    1    1    2  502    0  0.96099437274E+02  0.52861318122E+02  0.11547594137E+04  0.11599563458E+04  0.00000000000E+00 0. -1.
         22    1    3    3    0    0  0.27402420139E+02 -0.45930494572E+02 -0.24780004176E+02  0.58945326940E+02  0.00000000000E+00 0. -1.
         22    1    3    3    0    0 -0.11038399423E+03 -0.40960038579E+02 -0.10299696073E+03  0.15643121448E+03  0.00000000000E+00 0. -1.
</event>
<event>
 7    1  0.7802682E-006  0.6499842E+02  0.7818608E-02  0.1487454E+00
          2   -1    0    0  502    0  0.00000000000E+00  0.00000000000E+00  0.33535780790E+04  0.33535780790E+04  0.00000000000E+00 0. -1.
          1   -1    0    0  501    0 -0.00000000000E+00 -0.00000000000E+00 -0.48911213157E+03  0.48911213157E+03  0.00000000000E+00 0. -1.
         25    2    1    2    0    0 -0.43654105652E+02  0.62509932879E+02 -0.50694824901E+01  0.14650526041E+03  0.12499967610E+03 0.  0.
          2    1    1    2  501    0  0.28394615047E+02  0.64552270113E+00 -0.41251493900E+03  0.41349153046E+03  0.00000000000E+00 0. -1.
          1    1    1    2  502    0  0.15259490605E+02 -0.63155455580E+02  0.32820503689E+04  0.32826934197E+04  0.00000000000E+00 0. -1.
         22    1    3    3    0    0 -0.72699150623E+02 -0.54382821278E+00 -0.20196675274E+02  0.75454409696E+02  0.00000000000E+00 0.  1.
         22    1    3    3    0    0  0.29045044971E+02  0.63053761092E+02  0.15127192784E+02  0.71050850710E+02  0.00000000000E+00 0.  1.
</event>
<event>
 7    1  0.7802682E-006  0.3605045E+02  0.7818608E-02  0.1591991E+00
          2   -1    0    0  502    0  0.00000000000E+00  0.00000000000E+00  0.69887413290E+03  0.69887413290E+03  0.00000000000E+00 0. -1.
          1   -1    0    0  501    0 -0.00000000000E+00 -0.00000000000E+00 -0.22924703820E+02  0.22924703820E+02  0.00000000000E+00 0. -1.
         25    2    1    2    0    0 -0.24278433339E+02  0.25054616727E+02  0.34809562909E+03  0.37150061946E+03  0.12499986847E+03 0.  0.
          2    1    1    2  501    0  0.12306348074E+01 -0.36878841104E+02  0.21207251093E+02  0.42559498142E+02  0.00000000000E+00 0. -1.
          1    1    1    2  502    0  0.23047798532E+02  0.11824224378E+02  0.30664654889E+03  0.30773871912E+03  0.00000000000E+00 0. -1.
         22    1    3    3    0    0 -0.17919816542E+02  0.73667164577E+02  0.15896354930E+03  0.17611752033E+03  0.00000000000E+00 0.  1.
         22    1    3    3    0    0 -0.63586167972E+01 -0.48612547850E+02  0.18913207980E+03  0.19538309913E+03  0.00000000000E+00 0.  1.
</event>
<event>
 7    1  0.7802682E-006  0.6471045E+02  0.7818608E-02  0.1461782E+00
          2   -1    0    0  502    0  0.00000000000E+00  0.00000000000E+00  0.76285446563E+03  0.76285446563E+03  0.00000000000E+00 0. -1.
          1   -1    0    0  501    0 -0.00000000000E+00 -0.00000000000E+00 -0.61536926173E+02  0.61536926173E+02  0.00000000000E+00 0. -1.
         25    2    1    2    0    0  0.64323801643E+01 -0.54119125011E+02  0.12847695939E+03  0.18735473532E+03  0.12500085018E+03 0.  0.
          2    1    1    2  501    0 -0.33761597460E+02 -0.57474980458E+01 -0.20595214523E+02  0.39963008622E+02  0.00000000000E+00 0. -1.
          1    1    1    2  502    0  0.27329217296E+02  0.59866623057E+02  0.59343579459E+03  0.59707364786E+03  0.00000000000E+00 0. -1.
         22    1    3    3    0    0 -0.42534339942E+02  0.20383334441E+02  0.42164982433E+02  0.63265599980E+02  0.00000000000E+00 0.  1.
         22    1    3    3    0    0  0.48966720107E+02 -0.74502459452E+02  0.86311976957E+02  0.12408913534E+03  0.00000000000E+00 0.  1.
</event>
<event>
 7    1  0.7802682E-006  0.6426890E+02  0.7818608E-02  0.1406919E+00
          2   -1    0    0  502    0  0.00000000000E+00  0.00000000000E+00  0.37300522686E+03  0.37300522686E+03  0.00000000000E+00 0. -1.
          1   -1    0    0  501    0 -0.00000000000E+00 -0.00000000000E+00 -0.45133013351E+03  0.45133013351E+03  0.00000000000E+00 0. -1.
         25    2    1    2    0    0 -0.72898338996E+02 -0.20512413025E+02 -0.19708280674E+03  0.24536210759E+03  0.12500401678E+03 0.  0.
          2    1    1    2  501    0  0.39217650394E+02 -0.34357416733E+02 -0.22411914921E+03  0.23010399655E+03  0.00000000000E+00 0. -1.
          1    1    1    2  502    0  0.33680688602E+02  0.54869829758E+02  0.34287704930E+03  0.34886925623E+03  0.00000000000E+00 0. -1.
         22    1    3    3    0    0  0.31451507420E+02  0.89589818324E+00 -0.85456412503E+02  0.91064803247E+02  0.00000000000E+00 0.  1.
         22    1    3    3    0    0 -0.10434984642E+03 -0.21408311208E+02 -0.11162639424E+03  0.15429730434E+03  0.00000000000E+00 0.  1.
</event>
<event>
 7    1  0.7802682E-006  0.5580057E+02  0.7818608E-02  0.1418816E+00
          2   -1    0    0  502    0  0.00000000000E+00  0.00000000000E+00  0.27848448168E+03  0.27848448168E+03  0.00000000000E+00 0. -1.
          1   -1    0    0  501    0 -0.00000000000E+00 -0.00000000000E+00 -0.81236466930E+02  0.81236466930E+02  0.00000000000E+00 0. -1.
         25    2    1    2    0    0 -0.62569032065E+02 -0.89170633500E+01  0.87000102025E+02  0.16489191314E+03  0.12500370984E+03 0.  0.
          2    1    1    2  501    0  0.34780138382E+02 -0.42281984837E+02 -0.14940254894E+02  0.56750643026E+02  0.00000000000E+00 0. -1.
          1    1    1    2  502    0  0.27788893683E+02  0.51199048187E+02  0.12518816762E+03  0.13807839244E+03  0.00000000000E+00 0. -1.
         22    1    3    3    0    0 -0.25300683757E+02 -0.45677603112E+02 -0.11388676903E+02  0.53444082799E+02  0.00000000000E+00 0. -1.
         22    1    3    3    0    0 -0.37268348307E+02  0.36760539762E+02  0.98388778929E+02  0.11144783034E+03  0.00000000000E+00 0. -1.
</event>
<event>
 7    1  0.7802682E-006  0.9174837E+02  0.7818608E-02  0.1303231E+00
          2   -1    0    0  502    0  0.00000000000E+00  0.00000000000E+00  0.85330504690E+03  0.85330504690E+03  0.00000000000E+00 0. -1.
          1   -1    0    0  501    0 -0.00000000000E+00 -0.00000000000E+00 -0.27539146960E+03  0.27539146960E+03  0.00000000000E+00 0. -1.
         25    2    1    2    0    0 -0.24429095743E+02 -0.31230212117E+02 -0.66559378186E+02  0.14706289133E+03  0.12500094525E+03 0.  0.
          2    1    1    2  501    0  0.10836251978E+03  0.57600613085E+02 -0.14346902013E+03  0.18879519607E+03  0.00000000000E+00 0. -1.
          1    1    1    2  502    0 -0.83933424037E+02 -0.26370400969E+02  0.78794197562E+03  0.79283842911E+03  0.00000000000E+00 0. -1.
         22    1    3    3    0    0 -0.34879634727E+02 -0.11233693084E+02  0.30338267185E+02  0.47573051561E+02  0.00000000000E+00 0. -1.
         22    1    3    3    0    0  0.10450538984E+02 -0.19996519033E+02 -0.96897645371E+02  0.99489839768E+02  0.00000000000E+00 0. -1.
</event>
<event>
 7    1  0.7802682E-006  0.2797050E+03  0.7818608E-02  0.1225671E+00
          2   -1    0    0  502    0  0.00000000000E+00  0.00000000000E+00  0.10834799558E+04  0.10834799558E+04  0.00000000000E+00 0. -1.
          1   -1    0    0  501    0 -0.00000000000E+00 -0.00000000000E+00 -0.43949299567E+03  0.43949299567E+03  0.00000000000E+00 0. -1.
         25    2    1    2    0    0 -0.25003906066E+03 -0.43484999716E+02 -0.11480719161E+03  0.30531370653E+03  0.12500116437E+03 0.  0.
          2    1    1    2  501    0  0.30798125138E+03  0.22719882156E+02 -0.12395531749E+03  0.33276653224E+03  0.00000000000E+00 0. -1.
          1    1    1    2  502    0 -0.57942190723E+02  0.20765117560E+02  0.88274946925E+03  0.88489271272E+03  0.00000000000E+00 0. -1.
         22    1    3    3    0    0 -0.22205350670E+03 -0.42241898218E-01 -0.60066612099E+02  0.23003425726E+03  0.00000000000E+00 0.  1.
         22    1    3    3    0    0 -0.27985553955E+02 -0.43442757818E+02 -0.54740579516E+02  0.75279449272E+02  0.00000000000E+00 0.  1.
</event>
<event>
 7    1  0.7802682E-006  0.9680568E+02  0.7818608E-02  0.1290517E+00
          2   -1    0    0  502    0  0.00000000000E+00  0.00000000000E+00  0.76529787703E+03  0.76529787703E+03  0.00000000000E+00 0. -1.
          1   -1    0    0  501    0 -0.00000000000E+00 -0.00000000000E+00 -0.67071780834E+03  0.67071780834E+03  0.00000000000E+00 0. -1.
         25    2    1    2    0    0 -0.90056004494E+02  0.45668830786E+02  0.12163393687E+03  0.20153505328E+03  0.12500334815E+03 0.  0.
          2    1    1    2  501    0  0.16879516193E+01 -0.93789002113E+02 -0.62303916379E+03  0.63006112856E+03  0.00000000000E+00 0. -1.
          1    1    1    2  502    0  0.88368052875E+02  0.48120171327E+02  0.59598529562E+03  0.60441950353E+03  0.00000000000E+00 0. -1.
         22    1    3    3    0    0 -0.77548983977E+02 -0.23551321961E+02  0.30919329829E+02  0.86743960245E+02  0.00000000000E+00 0.  1.
         22    1    3    3    0    0 -0.12507020517E+02  0.69220152748E+02  0.90714607041E+02  0.11479109303E+03  0.00000000000E+00 0.  1.
</event>
<event>
 7    1  0.7802682E-006  0.8705581E+02  0.7818608E-02  0.1364990E+00
          2   -1    0    0  502    0  0.00000000000E+00  0.00000000000E+00  0.13082714685E+03  0.13082714685E+03  0.00000000000E+00 0. -1.
          1   -1    0    0  501    0 -0.00000000000E+00 -0.00000000000E+00 -0.50540250700E+03  0.50540250700E+03  0.00000000000E+00 0. -1.
         25    2    1    2    0    0 -0.53198342116E+02 -0.52672574791E+02 -0.25645906077E+02  0.14793806526E+03  0.12499397952E+03 0.  0.
          2    1    1    2  501    0  0.34841066602E+02 -0.41289281197E+02 -0.38290947539E+03  0.38670191493E+03  0.00000000000E+00 0. -1.
          1    1    1    2  502    0  0.18357275514E+02  0.93961855988E+02  0.33980021327E+02  0.10158967366E+03  0.00000000000E+00 0. -1.
         22    1    3    3    0    0  0.18703303032E+02 -0.69088780923E+02 -0.73596044716E+01  0.71953019198E+02  0.00000000000E+00 0. -1.
         22    1    3    3    0    0 -0.71901645147E+02  0.16416206131E+02 -0.18286301605E+02  0.75985046062E+02  0.00000000000E+00 0. -1.
</event>
<event>
 7    1  0.7802682E-006  0.5739314E+02  0.7818608E-02  0.1494138E+00
          2   -1    0    0  502    0  0.00000000000E+00  0.00000000000E+00  0.60942793622E+02  0.60942793622E+02  0.00000000000E+00 0. -1.
          1   -1    0    0  501    0 -0.00000000000E+00 -0.00000000000E+00 -0.86142736456E+03  0.86142736456E+03  0.00000000000E+00 0. -1.
         25    2    1    2    0    0  0.14547801827E+02  0.23773905095E+02 -0.46979065893E+03  0.48693591396E+03  0.12500593580E+03 0.  0.
          2    1    1    2  501    0  0.19732496127E+02  0.23523304069E+02 -0.36593001107E+03  0.36721586327E+03  0.00000000000E+00 0. -1.
          1    1    1    2  502    0 -0.34280297954E+02 -0.47297209163E+02  0.35236099059E+02  0.68218380950E+02  0.00000000000E+00 0. -1.
         22    1    3    3    0    0  0.45409449271E+02  0.62005548711E+02 -0.32764355964E+03  0.33653678600E+03  0.00000000000E+00 0.  1.
         22    1    3    3    0    0 -0.30861647443E+02 -0.38231643617E+02 -0.14214709929E+03  0.15039912796E+03  0.00000000000E+00 0.  1.
</event>
<event>
 7    1  0.7802682E-006  0.1667619E+03  0.7818608E-02  0.1347493E+00
          2   -1    0    0  502    0  0.00000000000E+00  0.00000000000E+00  0.88351640890E+03  0.88351640890E+03  0.00000000000E+00 0. -1.
          1   -1    0    0  501    0 -0.00000000000E+00 -0.00000000000E+00 -0.15352244658E+04  0.15352244658E+04  0.00000000000E+00 0. -1.
         25    2    1    2    0    0  0.16587369141E+02  0.15990438151E+03 -0.19587270662E+03  0.28255212751E+03  0.12500014208E+03 0.  0.
          2    1    1    2  501    0 -0.49280443339E+02 -0.16045750905E+03 -0.12902555279E+04  0.13011281650E+04  0.00000000000E+00 0. -1.
          1    1    1    2  502    0  0.32693074198E+02  0.55312754693E+00  0.83442017768E+03  0.83506058221E+03  0.00000000000E+00 0. -1.
         22    1    3    3    0    0 -0.49630535451E+02  0.10961611652E+03 -0.12137285561E+03  0.17091007323E+03  0.00000000000E+00 0.  1.
         22    1    3    3    0    0  0.66217904592E+02  0.50288264983E+02 -0.74499851009E+02  0.11164205428E+03  0.00000000000E+00 0.  1.
</event>
<event>
 7    1  0.7802682E-006  0.4246972E+02  0.7818608E-02  0.1559004E+00
          2   -1    0    0  502    0  0.00000000000E+00  0.00000000000E+00  0.42639095840E+03  0.42639095840E+03  0.00000000000E+00 0. -1.
          1   -1    0    0  501    0 -0.00000000000E+00 -0.00000000000E+00 -0.16463582908E+04  0.16463582908E+04  0.00000000000E+00 0. -1.
         25    2    1    2    0    0 -0.12592646469E+02 -0.13278958114E+02 -0.44002542225E+02  0.13376536360E+03  0.12498817265E+03 0.  0.
          2    1    1    2  501    0  0.39416695424E+02  0.16256083623E+02 -0.15567047648E+04  0.15572885606E+04  0.00000000000E+00 0. -1.
          1    1    1    2  502    0 -0.26824048956E+02 -0.29771255091E+01  0.38073997462E+03  0.38169532503E+03  0.00000000000E+00 0. -1.
         22    1    3    3    0    0 -0.46339597997E+02 -0.29069196043E+02  0.21201109186E+02  0.58667397521E+02  0.00000000000E+00 0.  1.
         22    1    3    3    0    0  0.33746951528E+02  0.15790237929E+02 -0.65203651411E+02  0.75097966075E+02  0.00000000000E+00 0.  1.
</event>
<event>
 7    1  0.7802682E-006  0.7746497E+02  0.7818608E-02  0.1339899E+00
          2   -1    0    0  502    0  0.00000000000E+00  0.00000000000E+00  0.24529020746E+04  0.24529020746E+04  0.00000000000E+00 0. -1.
          1   -1    0    0  501    0 -0.00000000000E+00 -0.00000000000E+00 -0.14480930524E+04  0.14480930524E+04  0.00000000000E+00 0. -1.
         25    2    1    2    0    0  0.13644829773E+03 -0.65512290593E+02  0.18823376830E+03  0.27196827716E+03  0.12499917631E+03 0.  0.
          2    1    1    2  501    0 -0.65512172651E+02  0.40707147215E+02 -0.14045322661E+04  0.14066484291E+04  0.00000000000E+00 0. -1.
          1    1    1    2  502    0 -0.70936125074E+02  0.24805143378E+02  0.22211075201E+04  0.22223784207E+04  0.00000000000E+00 0. -1.
         22    1    3    3    0    0  0.80942280795E+02  0.27886771570E+02  0.10262324292E+03  0.13364450919E+03  0.00000000000E+00 0. -1.
         22    1    3    3    0    0  0.55506016930E+02 -0.93399062163E+02  0.85610525380E+02  0.13832376797E+03  0.00000000000E+00 0. -1.
</event>
<event>
 7    1  0.7802682E-006  0.6346721E+02  0.7818608E-02  0.1395293E+00
          2   -1    0    0  502    0  0.00000000000E+00  0.00000000000E+00  0.17855615707E+04  0.17855615707E+04  0.00000000000E+00 0. -1.
          1   -1    0    0  501    0 -0.00000000000E+00 -0.00000000000E+00 -0.13401389669E+03  0.13401389669E+03  0.00000000000E+00 0. -1.
         25    2    1    2    0    0  0.68415685539E+02 -0.43853644769E+02  0.13404273491E+03  0.20049196812E+03  0.12500290521E+03 0.  0.
          2    1    1    2  501    0 -0.62255727328E+02 -0.13697581715E+02 -0.90137188478E+02  0.11039978296E+03  0.00000000000E+00 0. -1.
          1    1    1    2  502    0 -0.61599582107E+01  0.57551226484E+02  0.16076421276E+04  0.16086837163E+04  0.00000000000E+00 0. -1.
         22    1    3    3    0    0  0.56320253028E+02  0.34176983939E+02  0.84992622977E+02  0.10753503193E+03  0.00000000000E+00 0. -1.
         22    1    3    3    0    0  0.12095432510E+02 -0.78030628708E+02  0.49050111937E+02  0.92956936187E+02  0.00000000000E+00 0. -1.
</event>
<event>
 7    1  0.7802682E-006  0.3733634E+02  0.7818608E-02  0.1552639E+00
          2   -1    0    0  502    0  0.00000000000E+00  0.00000000000E+00  0.55204429127E+03  0.55204429127E+03  0.00000000000E+00 0. -1.
          1   -1    0    0  501    0 -0.00000000000E+00 -0.00000000000E+00 -0.39039642772E+03  0.39039642772E+03  0.00000000000E+00 0. -1.
         25    2    1    2    0    0 -0.49382664356E+02  0.30545980265E+02 -0.49262461975E+02  0.14636784823E+03  0.12500020954E+03 0.  0.
          2    1    1    2  501    0  0.12150128561E+02 -0.29571595382E+02 -0.29101586161E+03  0.29276669310E+03  0.00000000000E+00 0. -1.
          1    1    1    2  502    0  0.37232535795E+02 -0.97438488313E+00  0.50192618713E+03  0.50330617767E+03  0.00000000000E+00 0. -1.
         22    1    3    3    0    0 -0.30978519244E+02  0.79507590763E+02 -0.26766841477E+02  0.89429242679E+02  0.00000000000E+00 0. -1.
         22    1    3    3    0    0 -0.18404145112E+02 -0.48961610498E+02 -0.22495620498E+02  0.56938605546E+02  0.00000000000E+00 0. -1.
</event>
<event>
 7    1  0.7802682E-006  0.5879472E+02  0.7818608E-02  0.1497887E+00
          2   -1    0    0  502    0  0.00000000000E+00  0.00000000000E+00  0.76096067290E+03  0.76096067290E+03  0.00000000000E+00 0. -1.
          1   -1    0    0  501    0 -0.00000000000E+00 -0.00000000000E+00 -0.67872626120E+03  0.67872626120E+03  0.00000000000E+00 0. -1.
         25    2    1    2    0    0  0.16395863436E+02  0.31481151318E+02  0.99738352498E+02  0.16380652414E+03  0.12499980467E+03 0.  0.
          2    1    1    2  501    0 -0.85430509194E+01  0.27928042893E+02 -0.64493407090E+03  0.64559500858E+03  0.00000000000E+00 0. -1.
          1    1    1    2  502    0 -0.78528125164E+01 -0.59409194211E+02  0.62743013010E+03  0.63028540137E+03  0.00000000000E+00 0. -1.
         22    1    3    3    0    0  0.10199132832E+02 -0.10723886572E+02 -0.26611584686E+02  0.30449967048E+02  0.00000000000E+00 0.  1.
         22    1    3    3    0    0  0.61967306039E+01  0.42205037890E+02  0.12634993718E+03  0.13335655709E+03  0.00000000000E+00 0.  1.
</event>
<event>
 7    1  0.8546261E-006  0.5038773E+02  0.7818608E-02  0.1458410E+00
          2   -1    0    0  502    0  0.00000000000E+00  0.00000000000E+00  0.10080150826E+04  0.10080150826E+04  0.00000000000E+00 0. -1.
          1   -1    0    0  501    0 -0.00000000000E+00 -0.00000000000E+00 -0.14983968111E+04  0.14983968111E+04  0.00000000000E+00 0. -1.
         25    2    1    2    0    0  0.86607550998E+02  0.38449104867E+02 -0.93585195645E+02  0.18265399194E+03  0.12500036149E+03 0.  0.
          2    1    1    2  501    0 -0.38995590839E+02 -0.22602465313E+02 -0.13592500538E+04  0.13599971457E+04  0.00000000000E+00 0. -1.
          1    1    1    2  502    0 -0.47611960159E+02 -0.15846639554E+02  0.96245352098E+03  0.96376075599E+03  0.00000000000E+00 0. -1.
         22    1    3    3    0    0  0.11815103379E+03  0.23947469994E+02 -0.61294429480E+02  0.13524110023E+03  0.00000000000E+00 0. -1.
         22    1    3    3    0    0 -0.31543482795E+02  0.14501634873E+02 -0.32290766164E+02  0.47412891710E+02  0.00000000000E+00 0. -1.
</event>
<event>
 7    1  0.7802682E-006  0.3438902E+03  0.7818608E-02  0.1158355E+00
          2   -1    0    0  502    0  0.00000000000E+00  0.00000000000E+00  0.20127669531E+04  0.20127669531E+04  0.00000000000E+00 0. -1.
          1   -1    0    0  501    0 -0.00000000000E+00 -0.00000000000E+00 -0.71794845818E+03  0.71794845818E+03  0.00000000000E+00 0. -1.
         25    2    1    2    0    0 -0.30746040701E+03 -0.96575800138E+02  0.21161601731E+03  0.40529634092E+03  0.12499999251E+03 0.  0.
          2    1    1    2  501    0 -0.42794691928E+02  0.95999480111E+02 -0.59848477222E+03  0.60764406392E+03  0.00000000000E+00 0. -1.
          1    1    1    2  502    0  0.35025509894E+03  0.57632002701E+00  0.16816872499E+04  0.17177750065E+04  0.00000000000E+00 0. -1.
         22    1    3    3    0    0 -0.30902375320E+03 -0.67440015264E+02  0.19738310182E+03  0.37283230089E+03  0.00000000000E+00 0. -1.
         22    1    3    3    0    0  0.15633461941E+01 -0.29135784874E+02  0.14232915491E+02  0.32464040028E+02  0.00000000000E+00 0. -1.
</event>
<event>
 7    1  0.7802682E-006  0.6444086E+02  0.7818608E-02  0.1407546E+00
          2   -1    0    0  502    0  0.00000000000E+00  0.00000000000E+00  0.25400486385E+04  0.25400486385E+04  0.00000000000E+00 0. -1.
          1   -1    0    0  501    0 -0.00000000000E+00 -0.00000000000E+00 -0.26066587468E+03  0.26066587468E+03  0.00000000000E+00 0. -1.
         25    2    1    2    0    0  0.11088287927E+03 -0.25701639196E+02  0.86276482684E+02  0.18979989705E+03  0.12499912914E+03 0.  0.
          2    1    1    2  501    0 -0.46960292294E+02  0.21732063450E+02 -0.20526582442E+03  0.21168752988E+03  0.00000000000E+00 0. -1.
          1    1    1    2  502    0 -0.63922586972E+02  0.39695757459E+01  0.23983721056E+04  0.23992270863E+04  0.00000000000E+00 0. -1.
         22    1    3    3    0    0  0.34578918659E+02  0.49510163017E+02  0.43545203504E+02  0.74452284087E+02  0.00000000000E+00 0. -1.
         22    1    3    3    0    0  0.76303960607E+02 -0.75211802213E+02  0.42731279180E+02  0.11534761297E+03  0.00000000000E+00 0. -1.
</event>
<event>
 7    1  0.7802682E-006  0.9378975E+02  0.7818608E-02  0.1385171E+00
          2   -1    0    0  502    0  0.00000000000E+00  0.00000000000E+00  0.52279306938E+03  0.52279306938E+03  0.00000000000E+00 0. -1.
          1   -1    0    0  501    0 -0.00000000000E+00 -0.00000000000E+00 -0.63509653429E+02  0.63509653429E+02  0.00000000000E+00 0. -1.
         25    2    1    2    0    0  0.70417646533E+02  0.72193037611E+02  0.97556380134E+02  0.18791879957E+03  0.12500299317E+03 0.  0.
          2    1    1    2  501    0 -0.85791691913E+02 -0.32587871920E+02  0.11073092150E+03  0.14381766503E+03  0.00000000000E+00 0. -1.
          1    1    1    2  502    0  0.15374045380E+02 -0.39605165692E+02  0.25099611432E+03  0.25456625822E+03  0.00000000000E+00 0. -1.
         22    1    3    3    0    0  0.10061216253E+03  0.63105013703E+02  0.45752401678E+02  0.12727266895E+03  0.00000000000E+00 0. -1.
         22    1    3    3    0    0 -0.30194515993E+02  0.90880239088E+01  0.51803978457E+02  0.60646130615E+02  0.00000000000E+00 0. -1.
</event>
<event>
 7    1  0.7802682E-006  0.4837934E+03  0.7818608E-02  0.1195816E+00
          2   -1    0    0  502    0  0.00000000000E+00  0.00000000000E+00  0.15138712209E+04  0.15138712209E+04  0.00000000000E+00 0. -1.
          1   -1    0    0  501    0 -0.00000000000E+00 -0.00000000000E+00 -0.28427068234E+03  0.28427068234E+03  0.00000000000E+00 0. -1.
         25    2    1    2    0    0  0.35405431950E+03 -0.27689047725E+03  0.10642336837E+04  0.11619982819E+04  0.12499550417E+03 0.  0.
          2    1    1    2  501    0 -0.37142663379E+03  0.32263012506E+03  0.30787389039E+02  0.49294604696E+03  0.00000000000E+00 0. -1.
          1    1    1    2  502    0  0.17372314297E+02 -0.45739647814E+02  0.13457946580E+03  0.14319757435E+03  0.00000000000E+00 0. -1.
         22    1    3    3    0    0  0.18876702855E+03 -0.21398492741E+03  0.73149676377E+03  0.78518154310E+03  0.00000000000E+00 0. -1.
         22    1    3    3    0    0  0.16528729095E+03 -0.62905549840E+02  0.33273691993E+03  0.37681673879E+03  0.00000000000E+00 0. -1.
</event>
<event>
 7    1  0.7802682E-006  0.8523775E+02  0.7818608E-02  0.1336993E+00
          2   -1    0    0  502    0  0.00000000000E+00  0.00000000000E+00  0.10818218453E+04  0.10818218453E+04  0.00000000000E+00 0. -1.
          1   -1    0    0  501    0 -0.00000000000E+00 -0.00000000000E+00 -0.49631458872E+03  0.49631458872E+03  0.00000000000E+00 0. -1.
         25    2    1    2    0    0 -0.12896805502E+03 -0.42036367882E+02  0.25387004388E+02  0.18619752056E+03  0.12500080491E+03 0.  0.
          2    1    1    2  501    0  0.83017875753E+02 -0.10824517559E+02 -0.41042136002E+03  0.41887328709E+03  0.00000000000E+00 0. -1.
          1    1    1    2  502    0  0.45950179271E+02  0.52860885441E+02  0.97054161222E+03  0.97306562637E+03  0.00000000000E+00 0. -1.
         22    1    3    3    0    0 -0.35540081537E+02 -0.76870996166E+02  0.93169960301E+01  0.85200081352E+02  0.00000000000E+00 0. -1.
         22    1    3    3    0    0 -0.93427973487E+02  0.34834628284E+02  0.16070008358E+02  0.10099743921E+03  0.00000000000E+00 0. -1.
</event>
<event>
 7    1  0.7802682E-006  0.2177314E+03  0.7818608E-02  0.1300322E+00
          2   -1    0    0  502    0  0.00000000000E+00  0.00000000000E+00  0.12184694344E+04  0.12184694344E+04  0.00000000000E+00 0. -1.
          1   -1    0    0  501    0 -0.00000000000E+00 -0.00000000000E+00 -0.73514751589E+03  0.73514751589E+03  0.00000000000E+00 0. -1.
         25    2    1    2    0    0 -0.11236588685E+03 -0.15294309315E+03  0.68751486237E+02  0.23742227700E+03  0.12499955394E+03 0.  0.
          2    1    1    2  501    0 -0.11004853517E+00 -0.38076975658E+02 -0.63870803086E+03  0.63984202493E+03  0.00000000000E+00 0. -1.
          1    1    1    2  502    0  0.11247593538E+03  0.19102006881E+03  0.10532784631E+04  0.10763526483E+04  0.00000000000E+00 0. -1.
         22    1    3    3    0    0 -0.10681010650E+03 -0.17167682636E+03  0.76804829585E+02  0.21628757109E+03  0.00000000000E+00 0.  1.
         22    1    3    3    0    0 -0.55557803491E+01  0.18733733204E+02 -0.80533433480E+01  0.21134705916E+02  0.00000000000E+00 0.  1.
</event>
<event>
 7    1  0.7802682E-006  0.1019300E+03  0.7818608E-02  0.1336787E+00
          2   -1    0    0  502    0  0.00000000000E+00  0.00000000000E+00  0.12935886138E+04  0.12935886138E+04  0.00000000000E+00 0. -1.
          1   -1    0    0  501    0 -0.00000000000E+00 -0.00000000000E+00 -0.10158625259E+03  0.10158625259E+03  0.00000000000E+00 0. -1.
         25    2    1    2    0    0  0.70123151580E+02  0.64168922497E+02  0.68152443124E+03  0.69938210824E+03  0.12499950377E+03 0.  0.
          2    1    1    2  501    0 -0.23742834646E+02 -0.10010940162E+03 -0.62127293424E+02  0.12018908052E+03  0.00000000000E+00 0. -1.
          1    1    1    2  502    0 -0.46380316934E+02  0.35940479119E+02  0.57260522338E+03  0.57560367761E+03  0.00000000000E+00 0. -1.
         22    1    3    3    0    0 -0.17102874719E+02  0.23334081841E+02  0.33601551909E+02  0.44340184818E+02  0.00000000000E+00 0. -1.
         22    1    3    3    0    0  0.87226026298E+02  0.40834840657E+02  0.64792287933E+03  0.65504192342E+03  0.00000000000E+00 0. -1.
</event>
<event>
 7    1  0.7802682E-006  0.9993600E+02  0.7818608E-02  0.1303591E+00
          2   -1    0    0  502    0  0.00000000000E+00  0.00000000000E+00  0.92846149730E+03  0.92846149730E+03  0.00000000000E+00 0. -1.
          1   -1    0    0  501    0 -0.00000000000E+00 -0.00000000000E+00 -0.19101263269E+03  0.19101263269E+03  0.00000000000E+00 0. -1.
         25    2    1    2    0    0 -0.41601502712E+02  0.15933783299E+03 -0.10959013195E+02  0.20703670516E+03  0.12499946905E+03 0.  0.
          2    1    1    2  501    0  0.12818014169E+02 -0.84155419848E+02 -0.57366438660E+02  0.10265156824E+03  0.00000000000E+00 0. -1.
          1    1    1    2  502    0  0.28783488543E+02 -0.75182413146E+02  0.80577431646E+03  0.80978585659E+03  0.00000000000E+00 0. -1.
         22    1    3    3    0    0 -0.64332930836E+02  0.11891808284E+03 -0.52245496559E+02  0.14494767444E+03  0.00000000000E+00 0.  1.
         22    1    3    3    0    0  0.22731428124E+02  0.40419750156E+02  0.41286483364E+02  0.62089030720E+02  0.00000000000E+00 0.  1.
</event>
<event>
 7    1  0.7802682E-006  0.7959193E+02  0.7818608E-02  0.1376876E+00
          2   -1    0    0  502    0  0.00000000000E+00  0.00000000000E+00  0.71762970472E+02  0.71762970472E+02  0.00000000000E+00 0. -1.
          1   -1    0    0  501    0 -0.00000000000E+00 -0.00000000000E+00 -0.15780281862E+04  0.15780281862E+04  0.00000000000E+00 0. -1.
         25    2    1    2    0    0 -0.95911295778E+02 -0.89189479554E+02 -0.13090678491E+03  0.22341717359E+03  0.12499962880E+03 0.  0.
          2    1    1    2  501    0  0.62394462606E+02  0.47410661815E+02 -0.13703388665E+04  0.13725776659E+04  0.00000000000E+00 0. -1.
          1    1    1    2  502    0  0.33516833171E+02  0.41778817740E+02 -0.50195643112E+01  0.53796317192E+02  0.00000000000E+00 0. -1.
         22    1    3    3    0    0 -0.52945621970E+02 -0.10892498637E+03 -0.52812748230E+02  0.13212523573E+03  0.00000000000E+00 0.  1.
         22    1    3    3    0    0 -0.42965673808E+02  0.19735506812E+02 -0.78094036676E+02  0.91291937865E+02  0.00000000000E+00 0.  1.
</event>
<event>
 7    1  0.7802682E-006  0.1405223E+03  0.7818608E-02  0.1362732E+00
          2   -1    0    0  502    0  0.00000000000E+00  0.00000000000E+00  0.11964345695E+04  0.11964345695E+04  0.00000000000E+00 0. -1.
          1   -1    0    0  501    0 -0.00000000000E+00 -0.00000000000E+00 -0.17453317328E+04  0.17453317328E+04  0.00000000000E+00 0. -1.
         25    2    1    2    0    0  0.14271748193E+03  0.91134939089E+02  0.75651375074E+03  0.78524750975E+03  0.12500695877E+03 0.  0.
          2    1    1    2  501    0 -0.12638520190E+03 -0.61192968660E+02 -0.17274279277E+04  0.17331258016E+04  0.00000000000E+00 0. -1.
          1    1    1    2  502    0 -0.16332280023E+02 -0.29941970430E+02  0.42201701372E+03  0.42339299101E+03  0.00000000000E+00 0. -1.
         22    1    3    3    0    0  0.34160380919E+02  0.41401974241E+02  0.49334705549E+03  0.49625837248E+03  0.00000000000E+00 0. -1.
         22    1    3    3    0    0  0.10855710101E+03  0.49732964849E+02  0.26316669525E+03  0.28898913727E+03  0.00000000000E+00 0. -1.
</event>
<event>
 7    1  0.7802682E-006  0.1148815E+03  0.7818608E-02  0.1368155E+00
          2   -1    0    0  502    0  0.00000000000E+00  0.00000000000E+00  0.50110878613E+02  0.50110878613E+02  0.00000000000E+00 0. -1.
          1   -1    0    0  501    0 -0.00000000000E+00 -0.00000000000E+00 -0.11508654873E+04  0.11508654873E+04  0.00000000000E+00 0. -1.
         25    2    1    2    0    0  0.58037180655E+02 -0.58128587247E+02 -0.18910918481E+03  0.24111300825E+03  0.12500380784E+03 0.  0.
          2    1    1    2  501    0 -0.94924104811E+02  0.73275152813E+02 -0.91213600127E+03  0.91998473820E+03  0.00000000000E+00 0. -1.
          1    1    1    2  502    0  0.36886924156E+02 -0.15146565566E+02  0.49057742622E+00  0.39878619439E+02  0.00000000000E+00 0. -1.
         22    1    3    3    0    0  0.92741573108E+02 -0.58310654017E+02 -0.16777982732E+03  0.20037764898E+03  0.00000000000E+00 0. -1.
         22    1    3    3    0    0 -0.34704392453E+02  0.18206677059E+00 -0.21329357486E+02  0.40735359266E+02  0.00000000000E+00 0. -1.
</event>
<event>
 7    1  0.7802682E-006  0.2648356E+03  0.7818608E-02  0.1346619E+00
          2   -1    0    0  502    0  0.00000000000E+00  0.00000000000E+00  0.12873735699E+04  0.12873735699E+04  0.00000000000E+00 0. -1.
          1   -1    0    0  501    0 -0.00000000000E+00 -0.00000000000E+00 -0.79489047752E+03  0.79489047752E+03  0.00000000000E+00 0. -1.
         25    2    1    2    0    0  0.22689687848E+03 -0.15975030708E+03 -0.29978947011E+02  0.30581975904E+03  0.12499853470E+03 0.  0.
          2    1    1    2  501    0 -0.20314795138E+02 -0.41970746521E+01 -0.61168516743E+03  0.61203680477E+03  0.00000000000E+00 0. -1.
          1    1    1    2  502    0 -0.20658208335E+03  0.16394738173E+03  0.11341472068E+04  0.11644074836E+04  0.00000000000E+00 0. -1.
         22    1    3    3    0    0  0.77363381302E+01 -0.62348722208E+02  0.67702509585E+01  0.63190587801E+02  0.00000000000E+00 0.  1.
         22    1    3    3    0    0  0.21916054035E+03 -0.97401584871E+02 -0.36749197970E+02  0.24262917124E+03  0.00000000000E+00 0.  1.
</event>
<event>
 7    1  0.7802682E-006  0.1150872E+03  0.7818608E-02  0.1337999E+00
          2   -1    0    0  502    0  0.00000000000E+00  0.00000000000E+00  0.15987337420E+04  0.15987337420E+04  0.00000000000E+00 0. -1.
          1   -1    0    0  501    0 -0.00000000000E+00 -0.00000000000E+00 -0.10721155676E+03  0.10721155676E+03  0.00000000000E+00 0. -1.
         25    2    1    2    0    0 -0.11817528883E+03 -0.29786628161E+02  0.45587370136E+02  0.18043267268E+03  0.12500039580E+03 0.  0.
          2    1    1    2  501    0  0.89198429281E+02  0.72267376567E+02  0.44481070841E+02  0.12311579576E+03  0.00000000000E+00 0. -1.
          1    1    1    2  502    0  0.28976859545E+02 -0.42480748406E+02  0.14014537443E+04  0.14023968304E+04  0.00000000000E+00 0. -1.
         22    1    3    3    0    0 -0.11928815176E+03 -0.14938484401E+01  0.73947816269E+02  0.14035730926E+03  0.00000000000E+00 0. -1.
         22    1    3    3    0    0  0.11128629324E+01 -0.28292779721E+02 -0.28360446133E+02  0.40075363419E+02  0.00000000000E+00 0. -1.
</event>
<event>
 7    1  0.7802682E-006  0.6331646E+02  0.7818608E-02  0.1475154E+00
          2   -1    0    0  502    0  0.00000000000E+00  0.00000000000E+00  0.30206528055E+03  0.30206528055E+03  0.00000000000E+00 0. -1.
          1   -1    0    0  501    0 -0.00000000000E+00 -0.00000000000E+00 -0.99458162067E+03  0.99458162067E+03  0.00000000000E+00 0. -1.
         25    2    1    2    0    0  0.21249641156E+02 -0.26645544930E+02 -0.33030477521E+02  0.13370756309E+03  0.12500067067E+03 0.  0.
          2    1    1    2  501    0 -0.50320908582E+02  0.39528397039E+02 -0.90907926084E+03  0.91132858536E+03  0.00000000000E+00 0. -1.
          1    1    1    2  502    0  0.29071267426E+02 -0.12882852109E+02  0.24959339824E+03  0.25161075278E+03  0.00000000000E+00 0. -1.
         22    1    3    3    0    0  0.19668408671E+01  0.50138003867E+02 -0.16614102010E+02  0.52855617301E+02  0.00000000000E+00 0. -1.
         22    1    3    3    0    0  0.19282800289E+02 -0.76783548796E+02 -0.16416375511E+02  0.80851945788E+02  0.00000000000E+00 0. -1.
</event>
<event>
 7    1  0.7802682E-006  0.5082886E+02  0.7818608E-02  0.1487321E+00
          2   -1    0    0  502    0  0.00000000000E+00  0.00000000000E+00  0.95189440697E+03  0.95189440697E+03  0.00000000000E+00 0. -1.
          1   -1    0    0  501    0 -0.00000000000E+00 -0.00000000000E+00 -0.23948843541E+03  0.23948843541E+03  0.00000000000E+00 0. -1.
         25    2    1    2    0    0  0.18615567861E+02  0.22175747288E+02 -0.39776769042E+02  0.13434095233E+03  0.12500798768E+03 0.  0.
          2    1    1    2  501    0 -0.42381582170E+00 -0.53649934892E+02 -0.14733000108E+03  0.15679484797E+03  0.00000000000E+00 0. -1.
          1    1    1    2  502    0 -0.18191752039E+02  0.31474187604E+02  0.89951274168E+03  0.90024704208E+03  0.00000000000E+00 0. -1.
         22    1    3    3    0    0 -0.23481222825E+02 -0.43617548891E+02 -0.87875657736E+01  0.50309837098E+02  0.00000000000E+00 0. -1.
         22    1    3    3    0    0  0.42096790686E+02  0.65793296179E+02 -0.30989203268E+02  0.84031115233E+02  0.00000000000E+00 0. -1.
</event>
<event>
 7    1  0.7802682E-006  0.8874668E+02  0.7818608E-02  0.1345111E+00
          2   -1    0    0  502    0  0.00000000000E+00  0.00000000000E+00  0.14892809314E+03  0.14892809314E+03  0.00000000000E+00 0. -1.
          1   -1    0    0  501    0 -0.00000000000E+00 -0.00000000000E+00 -0.61911587508E+03  0.61911587508E+03  0.00000000000E+00 0. -1.
         25    2    1    2    0    0 -0.82420860697E+02  0.19148699622E+02 -0.12129544967E+03  0.19363497232E+03  0.12498818111E+03 0.  0.
          2    1    1    2  501    0  0.80748157526E+02  0.43539123838E+02 -0.44790761418E+03  0.45720580824E+03  0.00000000000E+00 0. -1.
          1    1    1    2  502    0  0.16727031708E+01 -0.62687823460E+02  0.99015281908E+02  0.11720318766E+03  0.00000000000E+00 0. -1.
         22    1    3    3    0    0 -0.72439097857E+02 -0.38043619224E+02 -0.33574499721E+02  0.88441997340E+02  0.00000000000E+00 0. -1.
         22    1    3    3    0    0 -0.99817628398E+01  0.57192318846E+02 -0.87720949950E+02  0.10519297498E+03  0.00000000000E+00 0. -1.
</event>
<event>
 7    1  0.7802682E-006  0.1080562E+03  0.7818608E-02  0.1439738E+00
          2   -1    0    0  502    0  0.00000000000E+00  0.00000000000E+00  0.33536123797E+02  0.33536123797E+02  0.00000000000E+00 0. -1.
          1   -1    0    0  501    0 -0.00000000000E+00 -0.00000000000E+00 -0.18381451725E+04  0.18381451725E+04  0.00000000000E+00 0. -1.
         25    2    1    2    0    0  0.55895396639E+02 -0.10112234521E+03 -0.64122276999E+03  0.66343136221E+03  0.12499803015E+03 0.  0.
          2    1    1    2  501    0 -0.69464431307E+02  0.81178796063E+02 -0.11761270960E+04  0.11809700463E+04  0.00000000000E+00 0. -1.
          1    1    1    2  502    0  0.13569034668E+02  0.19943549150E+02  0.12740817311E+02  0.27279887835E+02  0.00000000000E+00 0. -1.
         22    1    3    3    0    0  0.68526587056E+02 -0.12531699253E+03 -0.52991054141E+03  0.54882185056E+03  0.00000000000E+00 0.  1.
         22    1    3    3    0    0 -0.12631190417E+02  0.24194647313E+02 -0.11131222858E+03  0.11460951165E+03  0.00000000000E+00 0.  1.
</event>
<event>
 7    1  0.7802682E-006  0.8582720E+02  0.7818608E-02  0.1356626E+00
          2   -1    0    0  502    0  0.00000000000E+00  0.00000000000E+00  0.50139068359E+02  0.50139068359E+02  0.00000000000E+00 0. -1.
          1   -1    0    0  501    0 -0.00000000000E+00 -0.00000000000E+00 -0.18314564506E+04  0.18314564506E+04  0.00000000000E+00 0. -1.
         25    2    1    2    0    0 -0.53522607078E+02  0.62100290741E+02 -0.54050029507E+03  0.56079203929E+03  0.12500410703E+03 0.  0.
          2    1    1    2  501    0  0.87883620304E+02 -0.14404919629E+02 -0.12567478820E+04  0.12598993100E+04  0.00000000000E+00 0. -1.
          1    1    1    2  502    0 -0.34361013226E+02 -0.47695371111E+02  0.15930794859E+02  0.60904169646E+02  0.00000000000E+00 0. -1.
         22    1    3    3    0    0  0.19919051414E+02 -0.18782638949E+02 -0.23017146940E+03  0.23179400653E+03  0.00000000000E+00 0. -1.
         22    1    3    3    0    0 -0.73441658493E+02  0.80882929690E+02 -0.31032882567E+03  0.32899803276E+03  0.00000000000E+00 0. -1.
</event>
<event>
 7    1  0.7802682E-006  0.7099447E+02  0.7818608E-02  0.1404588E+00
          2   -1    0    0  502    0  0.00000000000E+00  0.00000000000E+00  0.25835818007E+04  0.25835818007E+04  0.00000000000E+00 0. -1.
          1   -1    0    0  501    0 -0.00000000000E+00 -0.00000000000E+00 -0.92975139781E+02  0.92975139781E+02  0.00000000000E+00 0. -1.
         25    2    1    2    0    0 -0.95009569391E+02  0.69367500397E+02  0.55457247063E+03  0.58052768610E+03  0.12499240281E+03 0.  0.
          2    1    1    2  501    0  0.54397399526E+02 -0.43647683707E+02 -0.64452635179E+02  0.94964938529E+02  0.00000000000E+00 0. -1.
          1    1    1    2  502    0  0.40612169865E+02 -0.25719816690E+02  0.20004868254E+04  0.20010643158E+04  0.00000000000E+00 0. -1.
         22    1    3    3    0    0 -0.14536326445E+02 -0.59373212085E+01  0.61623903978E+00  0.15714207591E+02  0.00000000000E+00 0.  1.
         22    1    3    3    0    0 -0.80473242946E+02  0.75304821606E+02  0.55395623159E+03  0.56481347851E+03  0.00000000000E+00 0.  1.
</event>
<event>
 7    1  0.7802682E-006  0.4184145E+02  0.7818608E-02  0.1505646E+00
          2   -1    0    0  502    0  0.00000000000E+00  0.00000000000E+00  0.75042140836E+03  0.75042140836E+03  0.00000000000E+00 0. -1.
          1   -1    0    0  501    0 -0.00000000000E+00 -0.00000000000E+00 -0.15050107705E+04  0.15050107705E+04  0.00000000000E+00 0. -1.
         25    2    1    2    0    0 -0.72657964723E+02  0.16102487185E+02 -0.11876891116E+03  0.18780249601E+03  0.12500101326E+03 0.  0.
          2    1    1    2  501    0  0.38196213660E+02  0.74356997381E+01 -0.13508364437E+04  0.13513968099E+04  0.00000000000E+00 0. -1.
          1    1    1    2  502    0  0.34461751063E+02 -0.23538186923E+02  0.71501599266E+03  0.71623287294E+03  0.00000000000E+00 0. -1.
         22    1    3    3    0    0 -0.10047185187E+03 -0.17363064735E+02 -0.83626221920E+02  0.13186892746E+03  0.00000000000E+00 0. -1.
         22    1    3    3    0    0  0.27813887151E+02  0.33465551920E+02 -0.35142689240E+02  0.55933568550E+02  0.00000000000E+00 0. -1.
</event>
<event>
 7    1  0.7802682E-006  0.6504342E+02  0.7818608E-02  0.1508685E+00
          2   -1    0    0  502    0  0.00000000000E+00  0.00000000000E+00  0.29140113545E+03  0.29140113545E+03  0.00000000000E+00 0. -1.
          1   -1    0    0  501    0 -0.00000000000E+00 -0.00000000000E+00 -0.11217924864E+04  0.11217924864E+04  0.00000000000E+00 0. -1.
         25    2    1    2    0    0  0.67500744445E+01 -0.89054847202E+02 -0.51042501379E+03  0.53304345478E+03  0.12500120263E+03 0.  0.
          2    1    1    2  501    0 -0.18284086429E+00  0.24519349875E+02 -0.59604692757E+03  0.59655106388E+03  0.00000000000E+00 0. -1.
          1    1    1    2  502    0 -0.65672335802E+01  0.64535497327E+02  0.27608059038E+03  0.28359910324E+03  0.00000000000E+00 0. -1.
         22    1    3    3    0    0  0.20180441723E+02 -0.11576309194E+03 -0.45654960544E+03  0.47142961925E+03  0.00000000000E+00 0.  1.
         22    1    3    3    0    0 -0.13430367278E+02  0.26708244740E+02 -0.53875408357E+02  0.61613835524E+02  0.00000000000E+00 0.  1.
</event>
<event>
 7    1  0.7802682E-006  0.1015270E+03  0.7818608E-02  0.1375511E+00
          2   -1    0    0  502    0  0.00000000000E+00  0.00000000000E+00  0.32950496410E+04  0.32950496410E+04  0.00000000000E+00 0. -1.
          1   -1    0    0  501    0 -0.00000000000E+00 -0.00000000000E+00 -0.26330491811E+03  0.26330491811E+03  0.00000000000E+00 0. -1.
         25    2    1    2    0    0  0.11890474580E+02  0.14251444504E+03  0.16159357635E+03  0.24937670891E+03  0.12499803438E+03 0.  0.
          2    1    1    2  501    0 -0.39774245870E-01 -0.42462102520E+02 -0.21652931379E+03  0.22065351903E+03  0.00000000000E+00 0. -1.
          1    1    1    2  502    0 -0.11850700334E+02 -0.10005234252E+03  0.30866804603E+04  0.30883243312E+04  0.00000000000E+00 0. -1.
         22    1    3    3    0    0 -0.20173016270E+02  0.18246668874E+02  0.10614163275E+03  0.10957160998E+03  0.00000000000E+00 0.  1.
         22    1    3    3    0    0  0.32063490850E+02  0.12426777617E+03  0.55451943598E+02  0.13980509893E+03  0.00000000000E+00 0.  1.
</event>
<event>
 7    1  0.7802682E-006  0.8357493E+02  0.7818608E-02  0.1356780E+00
          2   -1    0    0  502    0  0.00000000000E+00  0.00000000000E+00  0.23146246158E+04  0.23146246158E+04  0.00000000000E+00 0. -1.
          1   -1    0    0  501    0 -0.00000000000E+00 -0.00000000000E+00 -0.67114560795E+03  0.67114560795E+03  0.00000000000E+00 0. -1.
         25    2    1    2    0    0 -0.10507949491E+03 -0.52790743002E+02  0.50687267378E+03  0.53513882887E+03  0.12500038378E+03 0.  0.
          2    1    1    2  501    0  0.58424927104E+02 -0.14877601711E+02 -0.65468510835E+03  0.65745525037E+03  0.00000000000E+00 0. -1.
          1    1    1    2  502    0  0.46654567809E+02  0.67668344712E+02  0.17912914424E+04  0.17931761445E+04  0.00000000000E+00 0. -1.
         22    1    3    3    0    0 -0.81961642236E+02 -0.82560252743E+02  0.46255655361E+03  0.47696170855E+03  0.00000000000E+00 0.  1.
         22    1    3    3    0    0 -0.23117852677E+02  0.29769509741E+02  0.44316120167E+02  0.58177120325E+02  0.00000000000E+00 0.  1.
</event>
<event>
 7    1  0.7802682E-006  0.8855085E+02  0.7818608E-02  0.1398554E+00
          2   -1    0    0  502    0  0.00000000000E+00  0.00000000000E+00  0.19618159722E+04  0.19618159722E+04  0.00000000000E+00 0. -1.
          1   -1    0    0  501    0 -0.00000000000E+00 -0.00000000000E+00 -0.15900748170E+03  0.15900748170E+03  0.00000000000E+00 0. -1.
         25    2    1    2    0    0 -0.70248988433E+01 -0.74230631808E+02  0.71462233271E+03  0.72929375641E+03  0.12499907534E+03 0.  0.
          2    1    1    2  501    0 -0.32477305034E+02  0.82806009312E+02 -0.13826942501E+03  0.16440816407E+03  0.00000000000E+00 0. -1.
          1    1    1    2  502    0  0.39502203877E+02 -0.85753775033E+01  0.12264555828E+04  0.12271215334E+04  0.00000000000E+00 0. -1.
         22    1    3    3    0    0  0.36321756150E+02  0.97050286457E+00  0.70140232325E+02  0.78992810028E+02  0.00000000000E+00 0. -1.
         22    1    3    3    0    0 -0.43346654993E+02 -0.75201134673E+02  0.64448210038E+03  0.65030094639E+03  0.00000000000E+00 0. -1.
</event>
<event>
 7    1  0.7802682E-006  0.2887978E+03  0.7818608E-02  0.1244359E+00
          2   -1    0    0  502    0  0.00000000000E+00  0.00000000000E+00  0.22853744595E+04  0.22853744595E+04  0.00000000000E+00 0. -1.
          1   -1    0    0  501    0 -0.00000000000E+00 -0.00000000000E+00 -0.13222184099E+04  0.13222184099E+04  0.00000000000E+00 0. -1.
         25    2    1    2    0    0  0.20026979931E+03  0.16529708810E+03  0.12837667222E+04  0.13157172644E+04  0.12499521166E+03 0.  0.
          2    1    1    2  501    0 -0.19432578431E+03 -0.21416800115E+03 -0.12896046576E+04  0.13216318005E+04  0.00000000000E+00 0. -1.
          1    1    1    2  502    0 -0.59440150003E+01  0.48870913041E+02  0.96899398485E+03  0.97024380448E+03  0.00000000000E+00 0. -1.
         22    1    3    3    0    0  0.15849423234E+03  0.16599577553E+03  0.86706982015E+03  0.89693092945E+03  0.00000000000E+00 0. -1.
         22    1    3    3    0    0  0.41775566971E+02 -0.69868742322E+00  0.41669690209E+03  0.41878633499E+03  0.00000000000E+00 0. -1.
</event>
<event>
 7    1  0.7802682E-006  0.1140827E+03  0.7818608E-02  0.1354655E+00
          2   -1    0    0  502    0  0.00000000000E+00  0.00000000000E+00  0.71326746768E+03  0.71326746768E+03  0.00000000000E+00 0. -1.
          1   -1    0    0  501    0 -0.00000000000E+00 -0.00000000000E+00 -0.16777286194E+04  0.16777286194E+04  0.00000000000E+00 0. -1.
         25    2    1    2    0    0 -0.13700985339E+03 -0.67865846393E+02 -0.35715276243E+03  0.40811760784E+03  0.12499765232E+03 0.  0.
          2    1    1    2  501    0  0.28235162485E+02  0.34998326834E+02 -0.12900055967E+04  0.12907891179E+04  0.00000000000E+00 0. -1.
          1    1    1    2  502    0  0.10877469090E+03  0.32867519559E+02  0.68269720738E+03  0.69208936142E+03  0.00000000000E+00 0. -1.
         22    1    3    3    0    0 -0.36531813702E+02 -0.35999773715E+02 -0.25918688926E+03  0.26421279432E+03  0.00000000000E+00 0. -1.
         22    1    3    3    0    0 -0.10047803968E+03 -0.31866072678E+02 -0.97965873169E+02  0.14390481351E+03  0.00000000000E+00 0. -1.
</event>
<event>
 7    1  0.7802682E-006  0.6515519E+02  0.7818608E-02  0.1444343E+00
          2   -1    0    0  502    0  0.00000000000E+00  0.00000000000E+00  0.16575531922E+03  0.16575531922E+03  0.00000000000E+00 0. -1.
          1   -1    0    0  501    0 -0.00000000000E+00 -0.00000000000E+00 -0.13748765990E+03  0.13748765990E+03  0.00000000000E+00 0. -1.
         25    2    1    2    0    0  0.28727279655E+02  0.90938575059E+02  0.12692608657E+02  0.15773699056E+03  0.12499909938E+03 0.  0.
          2    1    1    2  501    0  0.12672632644E+01 -0.38634494756E+02 -0.45486381779E+02  0.59692889598E+02  0.00000000000E+00 0. -1.
          1    1    1    2  502    0 -0.29994542920E+02 -0.52304080303E+02  0.61061432441E+02  0.85813098960E+02  0.00000000000E+00 0. -1.
         22    1    3    3    0    0 -0.43841340133E+02  0.45464441460E+01  0.81183691962E+01  0.44817866722E+02  0.00000000000E+00 0. -1.
         22    1    3    3    0    0  0.72568619789E+02  0.86392130913E+02  0.45742394606E+01  0.11291912384E+03  0.00000000000E+00 0. -1.
</event>
<event>
 7    1  0.7802682E-006  0.7403227E+02  0.7818608E-02  0.1386307E+00
          2   -1    0    0  502    0  0.00000000000E+00  0.00000000000E+00  0.23723175287E+02  0.23723175287E+02  0.00000000000E+00 0. -1.
          1   -1    0    0  501    0 -0.00000000000E+00 -0.00000000000E+00 -0.23956991925E+04  0.23956991925E+04  0.00000000000E+00 0. -1.
         25    2    1    2    0    0  0.29923314415E+02  0.96535751312E+02 -0.53164933268E+03  0.55541845328E+03  0.12499635708E+03 0.  0.
          2    1    1    2  501    0 -0.54247800117E+02 -0.49075328646E+02 -0.17873038684E+04  0.17888002486E+04  0.00000000000E+00 0. -1.
          1    1    1    2  502    0  0.24324485702E+02 -0.47460422666E+02 -0.53022816195E+02  0.75203665878E+02  0.00000000000E+00 0. -1.
         22    1    3    3    0    0  0.58215742007E+02  0.10533232423E+03 -0.48829226951E+03  0.50290487332E+03  0.00000000000E+00 0. -1.
         22    1    3    3    0    0 -0.28292427592E+02 -0.87965729144E+01 -0.43357063170E+02  0.52513579966E+02  0.00000000000E+00 0. -1.
</event>
<event>
 7    1  0.7802682E-006  0.1032695E+03  0.7818608E-02  0.1444188E+00
          2   -1    0    0  502    0  0.00000000000E+00  0.00000000000E+00  0.14644971953E+03  0.14644971953E+03  0.00000000000E+00 0. -1.
          1   -1    0    0  501    0 -0.00000000000E+00 -0.00000000000E+00 -0.45331493734E+03  0.45331493734E+03  0.00000000000E+00 0. -1.
         25    2    1    2    0    0  0.87013543060E+02 -0.42123227695E+02  0.64486870146E+02  0.17066927280E+03  0.12499488498E+03 0.  0.
          2    1    1    2  501    0 -0.10136037537E+03  0.22366261413E+02 -0.38661118266E+03  0.40030286272E+03  0.00000000000E+00 0. -1.
          1    1    1    2  502    0  0.14346832306E+02  0.19756966282E+02  0.15259094714E+02  0.28792521345E+02  0.00000000000E+00 0. -1.
         22    1    3    3    0    0  0.22062181284E+02 -0.59391926885E+02  0.79646646301E+02  0.10177292906E+03  0.00000000000E+00 0.  1.
         22    1    3    3    0    0  0.64951361776E+02  0.17268699189E+02 -0.15159776155E+02  0.68896343745E+02  0.00000000000E+00 0.  1.
</event>
<event>
 7    1  0.7802682E-006  0.1637752E+03  0.7818608E-02  0.1328613E+00
          2   -1    0    0  502    0  0.00000000000E+00  0.00000000000E+00  0.41974727881E+03  0.41974727881E+03  0.00000000000E+00 0. -1.
          1   -1    0    0  501    0 -0.00000000000E+00 -0.00000000000E+00 -0.34832530771E+03  0.34832530771E+03  0.00000000000E+00 0. -1.
         25    2    1    2    0    0 -0.60262313994E+02 -0.17721395765E+03 -0.14006881114E+03  0.26507877355E+03  0.12494459196E+03 0.  0.
          2    1    1    2  501    0  0.38946339876E+02  0.14428114678E+03 -0.10591583962E+03  0.18317213704E+03  0.00000000000E+00 0. -1.
          1    1    1    2  502    0  0.21315974118E+02  0.32932810877E+02  0.31740662186E+03  0.31982167592E+03  0.00000000000E+00 0. -1.
         22    1    3    3    0    0 -0.53815019066E+02 -0.13256312019E+03 -0.16096766050E+03  0.21535929243E+03  0.00000000000E+00 0.  1.
         22    1    3    3    0    0 -0.64472949277E+01 -0.44650837466E+02  0.20898849361E+02  0.49719481121E+02  0.00000000000E+00 0.  1.
</event>
<event>
 7    1  0.7802682E-006  0.3574096E+02  0.7818608E-02  0.1597525E+00
          2   -1    0    0  502    0  0.00000000000E+00  0.00000000000E+00  0.61457884020E+03  0.61457884020E+03  0.00000000000E+00 0. -1.
          1   -1    0    0  501    0 -0.00000000000E+00 -0.00000000000E+00 -0.64764776075E+02  0.64764776075E+02  0.00000000000E+00 0. -1.
         25    2    1    2    0    0 -0.12912473737E+02  0.17930390126E+02  0.15961124540E+03  0.20393368679E+03  0.12499987233E+03 0.  0.
          2    1    1    2  501    0  0.35844987479E+02 -0.73229289833E+01 -0.34303718296E+02  0.50152103696E+02  0.00000000000E+00 0. -1.
          1    1    1    2  502    0 -0.22932513742E+02 -0.10607461143E+02  0.42450653702E+03  0.42525782578E+03  0.00000000000E+00 0. -1.
         22    1    3    3    0    0 -0.17058098531E+02 -0.40868055741E+02  0.13368856452E+02  0.46259085900E+02  0.00000000000E+00 0. -1.
         22    1    3    3    0    0  0.41456247935E+01  0.58798445867E+02  0.14624238895E+03  0.15767460089E+03  0.00000000000E+00 0. -1.
</event>
<event>
 7    1  0.7802682E-006  0.1565242E+03  0.7818608E-02  0.1304093E+00
          2   -1    0    0  502    0  0.00000000000E+00  0.00000000000E+00  0.89451408203E+03  0.89451408203E+03  0.00000000000E+00 0. -1.
          1   -1    0    0  501    0 -0.00000000000E+00 -0.00000000000E+00 -0.10759627556E+03  0.10759627556E+03  0.00000000000E+00 0. -1.
         25    2    1    2    0    0 -0.46456462566E+02  0.16723306621E+03  0.35706790084E+03  0.41623044546E+03  0.12500078629E+03 0.  0.
          2    1    1    2  501    0  0.48768067885E+02 -0.15472997492E+02 -0.56602505333E+02  0.76299290342E+02  0.00000000000E+00 0. -1.
          1    1    1    2  502    0 -0.23116053194E+01 -0.15176006871E+03  0.48645241096E+03  0.50958062179E+03  0.00000000000E+00 0. -1.
         22    1    3    3    0    0 -0.18117459449E+02 -0.18314164737E+02  0.34994671119E+02  0.43454320541E+02  0.00000000000E+00 0.  1.
         22    1    3    3    0    0 -0.28339003117E+02  0.18554723094E+03  0.32207322972E+03  0.37277612492E+03  0.00000000000E+00 0.  1.
</event>
<event>
 7    1  0.7802682E-006  0.1977464E+03  0.7818608E-02  0.1358315E+00
          2   -1    0    0  502    0  0.00000000000E+00  0.00000000000E+00  0.17231181234E+04  0.17231181234E+04  0.00000000000E+00 0. -1.
          1   -1    0    0  501    0 -0.00000000000E+00 -0.00000000000E+00 -0.27442175976E+03  0.27442175976E+03  0.00000000000E+00 0. -1.
         25    2    1    2    0    0 -0.16588804783E+02  0.18259397747E+03  0.31852161606E+03  0.38820337607E+03  0.12502036731E+03 0.  0.
          2    1    1    2  501    0 -0.20087339333E+01 -0.19952880306E+03 -0.19789381129E+03  0.28102978278E+03  0.00000000000E+00 0. -1.
          1    1    1    2  502    0  0.18597538717E+02  0.16934825583E+02  0.13280685589E+04  0.13283067244E+04  0.00000000000E+00 0. -1.
         22    1    3    3    0    0 -0.57917194136E+02  0.16602975061E+03  0.23439554056E+03  0.29302141372E+03  0.00000000000E+00 0.  1.
         22    1    3    3    0    0  0.41328389353E+02  0.16564226867E+02  0.84126075501E+02  0.95181962354E+02  0.00000000000E+00 0.  1.
</event>
<event>
 7    1  0.7802682E-006  0.4283865E+02  0.7818608E-02  0.1554679E+00
          2   -1    0    0  502    0  0.00000000000E+00  0.00000000000E+00  0.13829337021E+04  0.13829337021E+04  0.00000000000E+00 0. -1.
          1   -1    0    0  501    0 -0.00000000000E+00 -0.00000000000E+00 -0.50699961162E+03  0.50699961162E+03  0.00000000000E+00 0. -1.
         25    2    1    2    0    0  0.88580778219E+01  0.34399680428E+02  0.45139550734E+02  0.13756638674E+03  0.12500051265E+03 0.  0.
          2    1    1    2  501    0  0.18268453572E+02 -0.38935017548E+02 -0.45963580594E+03  0.46164352707E+03  0.00000000000E+00 0. -1.
          1    1    1    2  502    0 -0.27126531394E+02  0.45353371191E+01  0.12904303457E+04  0.12907233999E+04  0.00000000000E+00 0. -1.
         22    1    3    3    0    0  0.58899629389E+02  0.49462815357E+02  0.34197482081E+02  0.84173655177E+02  0.00000000000E+00 0. -1.
         22    1    3    3    0    0 -0.50041551567E+02 -0.15063134928E+02  0.10942068652E+02  0.53392731561E+02  0.00000000000E+00 0. -1.
</event>
<event>
 7    1  0.7802682E-006  0.1237497E+03  0.7818608E-02  0.1273731E+00
          2   -1    0    0  502    0  0.00000000000E+00  0.00000000000E+00  0.21850675243E+04  0.21850675243E+04  0.00000000000E+00 0. -1.
          1   -1    0    0  501    0 -0.00000000000E+00 -0.00000000000E+00 -0.19802371686E+04  0.19802371686E+04  0.00000000000E+00 0. -1.
         25    2    1    2    0    0 -0.19580552816E+02 -0.81529241735E+02 -0.90780158289E+02  0.17577471159E+03  0.12500118716E+03 0.  0.
          2    1    1    2  501    0  0.81902882968E+02 -0.26368331517E+02 -0.18441441939E+04  0.18461503674E+04  0.00000000000E+00 0. -1.
          1    1    1    2  502    0 -0.62322330151E+02  0.10789757325E+03  0.21397547080E+04  0.21433796139E+04  0.00000000000E+00 0. -1.
         22    1    3    3    0    0 -0.13524544053E+02  0.11754986521E+02  0.22590327325E+02  0.28834283217E+02  0.00000000000E+00 0. -1.
         22    1    3    3    0    0 -0.60560087636E+01 -0.93284228257E+02 -0.11337048561E+03  0.14694042838E+03  0.00000000000E+00 0. -1.
</event>
<event>
 7    1  0.8255952E-006  0.1607063E+03  0.7818608E-02  0.1329034E+00
          2   -1    0    0  502    0  0.00000000000E+00  0.00000000000E+00  0.12640624186E+04  0.12640624186E+04  0.00000000000E+00 0. -1.
          1   -1    0    0  501    0 -0.00000000000E+00 -0.00000000000E+00 -0.11381686478E+04  0.11381686478E+04  0.00000000000E+00 0. -1.
         25    2    1    2    0    0 -0.12627379993E+03 -0.33801884399E+02 -0.19271033906E+03  0.26428361025E+03  0.12498364663E+03 0.  0.
          2    1    1    2  501    0 -0.34565229176E+02  0.19791305591E+02 -0.90392592342E+03  0.90480303154E+03  0.00000000000E+00 0. -1.
          1    1    1    2  502    0  0.16083902911E+03  0.14010578809E+02  0.12225300333E+04  0.12331444246E+04  0.00000000000E+00 0. -1.
         22    1    3    3    0    0 -0.13426460792E+03 -0.54406818804E+02 -0.19402769299E+03  0.24214423908E+03  0.00000000000E+00 0. -1.
         22    1    3    3    0    0  0.79908079891E+01  0.20604934404E+02  0.13173539317E+01  0.22139371163E+02  0.00000000000E+00 0. -1.
</event>
<event>
 7    1  0.7802682E-006  0.6031391E+02  0.7818608E-02  0.1417223E+00
          2   -1    0    0  502    0  0.00000000000E+00  0.00000000000E+00  0.14318436472E+04  0.14318436472E+04  0.00000000000E+00 0. -1.
          1   -1    0    0  501    0 -0.00000000000E+00 -0.00000000000E+00 -0.43707555393E+03  0.43707555393E+03  0.00000000000E+00 0. -1.
         25    2    1    2    0    0 -0.70303941615E+02  0.36422707090E+02  0.14424060303E+03  0.20663857721E+03  0.12499956891E+03 0.  0.
          2    1    1    2  501    0  0.58770300191E+02  0.13541367392E+02 -0.40310911958E+03  0.40759572999E+03  0.00000000000E+00 0. -1.
          1    1    1    2  502    0  0.11533641424E+02 -0.49964074481E+02  0.12536366098E+04  0.12546848940E+04  0.00000000000E+00 0. -1.
         22    1    3    3    0    0 -0.39329390229E+02  0.53769567073E+02  0.94909031138E+01  0.67290746176E+02  0.00000000000E+00 0.  1.
         22    1    3    3    0    0 -0.30974551385E+02 -0.17346859983E+02  0.13474969992E+03  0.13934783103E+03  0.00000000000E+00 0.  1.
</event>
<event>
 7    1  0.7802682E-006  0.9031254E+02  0.7818608E-02  0.1329300E+00
          2   -1    0    0  502    0  0.00000000000E+00  0.00000000000E+00  0.34927541953E+03  0.34927541953E+03  0.00000000000E+00 0. -1.
          1   -1    0    0  501    0 -0.00000000000E+00 -0.00000000000E+00 -0.59100074597E+03  0.59100074597E+03  0.00000000000E+00 0. -1.
         25    2    1    2    0    0 -0.59281208820E+02 -0.52480221933E+01 -0.29498508061E+03  0.32585871654E+03  0.12500360756E+03 0.  0.
          2    1    1    2  501    0  0.78329062138E+01 -0.70275155100E+02 -0.26968072600E+03  0.27879678230E+03  0.00000000000E+00 0. -1.
          1    1    1    2  502    0  0.51448302607E+02  0.75523177293E+02  0.32294048018E+03  0.33562066665E+03  0.00000000000E+00 0. -1.
         22    1    3    3    0    0 -0.12932465450E+02 -0.58659117702E+02 -0.83482288754E+02  0.10284664938E+03  0.00000000000E+00 0. -1.
         22    1    3    3    0    0 -0.46348743370E+02  0.53411095509E+02 -0.21150279186E+03  0.22301206716E+03  0.00000000000E+00 0. -1.
</event>
<event>
 7    1  0.7802682E-006  0.8965425E+02  0.7818608E-02  0.1461658E+00
          2   -1    0    0  502    0  0.00000000000E+00  0.00000000000E+00  0.22670194353E+03  0.22670194353E+03  0.00000000000E+00 0. -1.
          1   -1    0    0  501    0 -0.00000000000E+00 -0.00000000000E+00 -0.12039532645E+04  0.12039532645E+04  0.00000000000E+00 0. -1.
         25    2    1    2    0    0 -0.69975378924E+02 -0.83891786966E+00 -0.28386935486E+03  0.31796545379E+03  0.12499184669E+03 0.  0.
          2    1    1    2  501    0  0.91548734722E+02  0.12951704995E+02 -0.89992893850E+03  0.90466624334E+03  0.00000000000E+00 0. -1.
          1    1    1    2  502    0 -0.21573355798E+02 -0.12112787125E+02  0.20654697238E+03  0.20802351091E+03  0.00000000000E+00 0. -1.
         22    1    3    3    0    0 -0.52846199163E+02  0.56760013255E+02 -0.20226363276E+03  0.21662178332E+03  0.00000000000E+00 0. -1.
         22    1    3    3    0    0 -0.17129179761E+02 -0.57598931124E+02 -0.81605722103E+02  0.10134367048E+03  0.00000000000E+00 0. -1.
</event>
<event>
 7    1  0.7802682E-006  0.4696432E+02  0.7818608E-02  0.1492508E+00
          2   -1    0    0  502    0  0.00000000000E+00  0.00000000000E+00  0.13711058409E+03  0.13711058409E+03  0.00000000000E+00 0. -1.
          1   -1    0    0  501    0 -0.00000000000E+00 -0.00000000000E+00 -0.10802746281E+04  0.10802746281E+04  0.00000000000E+00 0. -1.
         25    2    1    2    0    0  0.40426361595E+02  0.69175154950E+02 -0.51800412803E+03  0.53886239239E+03  0.12499963404E+03 0.  0.
          2    1    1    2  501    0 -0.29761111322E+02 -0.32756456217E+02 -0.54808732804E+03  0.54987128342E+03  0.00000000000E+00 0. -1.
          1    1    1    2  502    0 -0.10665250273E+02 -0.36418698733E+02  0.12292741205E+03  0.12865153638E+03  0.00000000000E+00 0. -1.
         22    1    3    3    0    0  0.61068624934E+00  0.92071508432E+02 -0.42828474272E+03  0.43807003601E+03  0.00000000000E+00 0.  1.
         22    1    3    3    0    0  0.39815675345E+02 -0.22896353482E+02 -0.89719385309E+02  0.10079235639E+03  0.00000000000E+00 0.  1.
</event>
<event>
 7    1  0.7802682E-006  0.1607863E+03  0.7818608E-02  0.1409367E+00
          2   -1    0    0  502    0  0.00000000000E+00  0.00000000000E+00  0.17274056964E+04  0.17274056964E+04  0.00000000000E+00 0. -1.
          1   -1    0    0  501    0 -0.00000000000E+00 -0.00000000000E+00 -0.13351509138E+04  0.13351509138E+04  0.00000000000E+00 0. -1.
         25    2    1    2    0    0 -0.13709828208E+03  0.11535639077E+03  0.13888698214E+03  0.25887814629E+03  0.12500105990E+03 0.  0.
          2    1    1    2  501    0  0.11690443712E+02 -0.16773476119E+02 -0.12709110714E+04  0.12710755160E+04  0.00000000000E+00 0. -1.
          1    1    1    2  502    0  0.12540783837E+03 -0.98582914649E+02  0.15242788719E+04  0.15326029480E+04  0.00000000000E+00 0. -1.
         22    1    3    3    0    0 -0.65400264346E+02 -0.56440886444E+01  0.69099973251E+01  0.66006048027E+02  0.00000000000E+00 0.  1.
         22    1    3    3    0    0 -0.71698017731E+02  0.12100047941E+03  0.13197698482E+03  0.19287209826E+03  0.00000000000E+00 0.  1.
</event>
<event>
 7    1  0.7802682E-006  0.9235786E+02  0.7818608E-02  0.1326287E+00
          2   -1    0    0  502    0  0.00000000000E+00  0.00000000000E+00  0.14088752409E+04  0.14088752409E+04  0.00000000000E+00 0. -1.
          1   -1    0    0  501    0 -0.00000000000E+00 -0.00000000000E+00 -0.41550387189E+03  0.41550387189E+03  0.00000000000E+00 0. -1.
         25    2    1    2    0    0  0.12747186642E+03  0.80319363912E+02  0.45928484056E+03  0.49926776268E+03  0.12500182854E+03 0.  0.
          2    1    1    2  501    0 -0.56953428350E+02 -0.71998976382E+02 -0.38880317464E+03  0.39949399772E+03  0.00000000000E+00 0. -1.
          1    1    1    2  502    0 -0.70518438070E+02 -0.83203875297E+01  0.92288970310E+03  0.92561735239E+03  0.00000000000E+00 0. -1.
         22    1    3    3    0    0  0.43080049315E+02 -0.12483296994E+02  0.35184018540E+02  0.57005600720E+02  0.00000000000E+00 0. -1.
         22    1    3    3    0    0  0.84391817105E+02  0.92802660906E+02  0.42410082202E+03  0.44226216196E+03  0.00000000000E+00 0. -1.
</event>
<event>
 7    1  0.7802682E-006  0.5450082E+02  0.7818608E-02  0.1465862E+00
          2   -1    0    0  502    0  0.00000000000E+00  0.00000000000E+00  0.60397369023E+03  0.60397369023E+03  0.00000000000E+00 0. -1.
          1   -1    0    0  501    0 -0.00000000000E+00 -0.00000000000E+00 -0.57507900141E+02  0.57507900141E+02  0.00000000000E+00 0. -1.
         25    2    1    2    0    0  0.27233318560E+02 -0.98185758258E+01  0.54359150643E+02  0.13934732239E+03  0.12499880371E+03 0.  0.
          2    1    1    2  501    0  0.22161882942E+01  0.55677776805E+02  0.44741050421E+02  0.71461093703E+02  0.00000000000E+00 0. -1.
          1    1    1    2  502    0 -0.29449506854E+02 -0.45859200979E+02  0.44736558903E+03  0.45067317428E+03  0.00000000000E+00 0. -1.
         22    1    3    3    0    0 -0.25797913506E+02 -0.48937301611E+01  0.77090576210E+02  0.81439780675E+02  0.00000000000E+00 0.  1.
         22    1    3    3    0    0  0.53031232066E+02 -0.49248456647E+01 -0.22731425567E+02  0.57907541716E+02  0.00000000000E+00 0.  1.
</event>
<event>
 7    1  0.7802682E-006  0.1116959E+03  0.7818608E-02  0.1375264E+00
          2   -1    0    0  502    0  0.00000000000E+00  0.00000000000E+00  0.38157141157E+03  0.38157141157E+03  0.00000000000E+00 0. -1.
          1   -1    0    0  501    0 -0.00000000000E+00 -0.00000000000E+00 -0.88101866891E+03  0.88101866891E+03  0.00000000000E+00 0. -1.
         25    2    1    2    0    0 -0.10927251502E+03 -0.92583935229E+02  0.17546266826E+03  0.25869789703E+03  0.12500074549E+03 0.  0.
          2    1    1    2  501    0  0.95889123596E+02  0.56298816327E+02 -0.83338288727E+03  0.84076829004E+03  0.00000000000E+00 0. -1.
          1    1    1    2  502    0  0.13383391422E+02  0.36285118901E+02  0.15847296167E+03  0.16312389340E+03  0.00000000000E+00 0. -1.
         22    1    3    3    0    0  0.18514161778E+02 -0.53087244264E+02  0.56242741219E+02  0.79525314396E+02  0.00000000000E+00 0. -1.
         22    1    3    3    0    0 -0.12778667680E+03 -0.39496690965E+02  0.11921992704E+03  0.17917258263E+03  0.00000000000E+00 0. -1.
</event>
<event>
 7    1  0.7802682E-006  0.1184588E+03  0.7818608E-02  0.1320944E+00
          2   -1    0    0  502    0  0.00000000000E+00  0.00000000000E+00  0.13140451946E+03  0.13140451946E+03  0.00000000000E+00 0. -1.
          1   -1    0    0  501    0 -0.00000000000E+00 -0.00000000000E+00 -0.54084033645E+03  0.54084033645E+03  0.00000000000E+00 0. -1.
         25    2    1    2    0    0  0.57943956677E+02 -0.77968796535E+02 -0.28949113767E+02  0.16093321750E+03  0.12499925583E+03 0.  0.
          2    1    1    2  501    0 -0.11045689165E+03  0.53219276700E+02 -0.42231880181E+03  0.43975696321E+03  0.00000000000E+00 0. -1.
          1    1    1    2  502    0  0.52512934978E+02  0.24749519834E+02  0.41832098580E+02  0.71554675204E+02  0.00000000000E+00 0. -1.
         22    1    3    3    0    0  0.26145176580E+02  0.29197565528E+02 -0.29653042842E+02  0.49146424498E+02  0.00000000000E+00 0.  1.
         22    1    3    3    0    0  0.31798780097E+02 -0.10716636206E+03  0.70392907588E+00  0.11178679300E+03  0.00000000000E+00 0.  1.
</event>
<event>
 7    1  0.7802682E-006  0.5114026E+02  0.7818608E-02  0.1546929E+00
          2   -1    0    0  502    0  0.00000000000E+00  0.00000000000E+00  0.19733343619E+03  0.19733343619E+03  0.00000000000E+00 0. -1.
          1   -1    0    0  501    0 -0.00000000000E+00 -0.00000000000E+00 -0.40848202294E+03  0.40848202294E+03  0.00000000000E+00 0. -1.
         25    2    1    2    0    0 -0.28724917012E+02 -0.37664642811E+02 -0.64109406094E+02  0.14825091460E+03  0.12499828620E+03 0.  0.
          2    1    1    2  501    0  0.84603392628E+01  0.50916920929E+02 -0.29913403533E+03  0.30355441238E+03  0.00000000000E+00 0. -1.
          1    1    1    2  502    0  0.20264577749E+02 -0.13252278118E+02  0.15209485468E+03  0.15401013215E+03  0.00000000000E+00 0. -1.
         22    1    3    3    0    0 -0.42864130666E+02  0.24494203302E+02 -0.68405064387E+02  0.84359661729E+02  0.00000000000E+00 0. -1.
         22    1    3    3    0    0  0.14139213654E+02 -0.62158846113E+02  0.42956582931E+01  0.63891252868E+02  0.00000000000E+00 0. -1.
</event>
<event>
 7    1  0.7802682E-006  0.2775602E+03  0.7818608E-02  0.1239318E+00
          2   -1    0    0  502    0  0.00000000000E+00  0.00000000000E+00  0.98450479458E+03  0.98450479458E+03  0.00000000000E+00 0. -1.
          1   -1    0    0  501    0 -0.00000000000E+00 -0.00000000000E+00 -0.31876300943E+03  0.31876300943E+03  0.00000000000E+00 0. -1.
         25    2    1    2    0    0  0.21160345590E+03  0.18493662977E+03  0.23270623800E+03  0.38568750153E+03  0.12500030420E+03 0.  0.
          2    1    1    2  501    0  0.28629226855E+02 -0.45675344720E+02 -0.21018199747E+03  0.21698465800E+03  0.00000000000E+00 0. -1.
          1    1    1    2  502    0 -0.24023268276E+03 -0.13926128505E+03  0.64321754461E+03  0.70059564449E+03  0.00000000000E+00 0. -1.
         22    1    3    3    0    0  0.10638958698E+03  0.33268359182E+02  0.38951646363E+02  0.11807945924E+03  0.00000000000E+00 0. -1.
         22    1    3    3    0    0  0.10521386893E+03  0.15166827059E+03  0.19375459164E+03  0.26760804229E+03  0.00000000000E+00 0. -1.
</event>
<event>
 7    1  0.7802682E-006  0.1669161E+03  0.7818608E-02  0.1345646E+00
          2   -1    0    0  502    0  0.00000000000E+00  0.00000000000E+00  0.17960813469E+04  0.17960813469E+04  0.00000000000E+00 0. -1.
          1   -1    0    0  501    0 -0.00000000000E+00 -0.00000000000E+00 -0.13232722967E+03  0.13232722967E+03  0.00000000000E+00 0. -1.
         25    2    1    2    0    0  0.43587203119E+02 -0.16478899384E+03  0.73909438159E+03  0.76872700837E+03  0.12500180692E+03 0.  0.
          2    1    1    2  501    0  0.29430444478E+02  0.15341585225E+02 -0.10837434652E+03  0.11334246461E+03  0.00000000000E+00 0. -1.
          1    1    1    2  502    0 -0.73017647597E+02  0.14944740862E+03  0.10330340822E+04  0.10463391036E+04  0.00000000000E+00 0. -1.
         22    1    3    3    0    0  0.41373765628E+02 -0.19013286201E+02  0.67042903585E+02  0.81043472628E+02  0.00000000000E+00 0. -1.
         22    1    3    3    0    0  0.22134374909E+01 -0.14577570764E+03  0.67205147801E+03  0.68768353574E+03  0.00000000000E+00 0. -1.
</event>
<event>
 7    1  0.7802682E-006  0.6206200E+02  0.7818608E-02  0.1444831E+00
          2   -1    0    0  502    0  0.00000000000E+00  0.00000000000E+00  0.93679794982E+02  0.93679794982E+02  0.00000000000E+00 0. -1.
          1   -1    0    0  501    0 -0.00000000000E+00 -0.00000000000E+00 -0.13597911524E+04  0.13597911524E+04  0.00000000000E+00 0. -1.
         25    2    1    2    0    0 -0.36431021788E+02 -0.12838168669E+02 -0.91376778491E+02  0.15958781583E+03  0.12500606942E+03 0.  0.
          2    1    1    2  501    0 -0.27949690545E+02  0.29220080758E+02 -0.12153475883E+04  0.12160200486E+04  0.00000000000E+00 0. -1.
          1    1    1    2  502    0  0.64380712333E+02 -0.16381912089E+02  0.40613009308E+02  0.77863082968E+02  0.00000000000E+00 0. -1.
         22    1    3    3    0    0 -0.57483350436E+02 -0.57394319330E+02 -0.51344130478E+02  0.96097155022E+02  0.00000000000E+00 0. -1.
         22    1    3    3    0    0  0.21052328648E+02  0.44556150662E+02 -0.40032648013E+02  0.63490660811E+02  0.00000000000E+00 0. -1.
</event>
<event>
 7    1  0.7802682E-006  0.5185274E+02  0.7818608E-02  0.1444795E+00
          2   -1    0    0  502    0  0.00000000000E+00  0.00000000000E+00  0.46712521949E+03  0.46712521949E+03  0.00000000000E+00 0. -1.
          1   -1    0    0  501    0 -0.00000000000E+00 -0.00000000000E+00 -0.12268057148E+03  0.12268057148E+03  0.00000000000E+00 0. -1.
         25    2    1    2    0    0  0.71655808978E+02 -0.66259395858E+02  0.13137934140E+03  0.20593690630E+03  0.12499846211E+03 0.  0.
          2    1    1    2  501    0 -0.33899360784E+02  0.34558505839E+02 -0.76285091693E+02  0.90348614832E+02  0.00000000000E+00 0. -1.
          1    1    1    2  502    0 -0.37756448194E+02  0.31700890019E+02  0.28935039830E+03  0.29352026984E+03  0.00000000000E+00 0. -1.
         22    1    3    3    0    0  0.57017305662E+02  0.12724595731E+02  0.83623877770E+01  0.59015404860E+02  0.00000000000E+00 0.  1.
         22    1    3    3    0    0  0.14638503315E+02 -0.78983991588E+02  0.12301695362E+03  0.14692150144E+03  0.00000000000E+00 0.  1.
</event>
<event>
 7    1  0.7802682E-006  0.5019251E+02  0.7818608E-02  0.1570363E+00
          2   -1    0    0  502    0  0.00000000000E+00  0.00000000000E+00  0.16185558641E+04  0.16185558641E+04  0.00000000000E+00 0. -1.
          1   -1    0    0  501    0 -0.00000000000E+00 -0.00000000000E+00 -0.25824047221E+02  0.25824047221E+02  0.00000000000E+00 0. -1.
         25    2    1    2    0    0 -0.21127415175E+01  0.62417553917E+02  0.27820484863E+03  0.31132542760E+03  0.12500067741E+03 0.  0.
          2    1    1    2  501    0  0.15666772309E+02 -0.14370215605E+02  0.40678755113E+01  0.21644825300E+02  0.00000000000E+00 0. -1.
          1    1    1    2  502    0 -0.13554030792E+02 -0.48047338313E+02  0.13104590927E+04  0.13114096584E+04  0.00000000000E+00 0. -1.
         22    1    3    3    0    0  0.66818906479E+01  0.90968490768E+02  0.12221491699E+03  0.15250049150E+03  0.00000000000E+00 0.  1.
         22    1    3    3    0    0 -0.87946321655E+01 -0.28550936851E+02  0.15598993164E+03  0.15882493609E+03  0.00000000000E+00 0.  1.
</event>
<event>
 7    1  0.7802682E-006  0.7992973E+02  0.7818608E-02  0.1372573E+00
          2   -1    0    0  502    0  0.00000000000E+00  0.00000000000E+00  0.14891378735E+04  0.14891378735E+04  0.00000000000E+00 0. -1.
          1   -1    0    0  501    0 -0.00000000000E+00 -0.00000000000E+00 -0.70107034454E+02  0.70107034454E+02  0.00000000000E+00 0. -1.
         25    2    1    2    0    0 -0.35833107318E+01  0.40142738208E+02  0.12403740997E+03  0.18064981776E+03  0.12499919216E+03 0.  0.
          2    1    1    2  501    0  0.26835586475E+02 -0.90267564785E+02  0.12599396302E+02  0.95011192714E+02  0.00000000000E+00 0. -1.
          1    1    1    2  502    0 -0.23252275744E+02  0.50124826577E+02  0.12823940328E+04  0.12835838975E+04  0.00000000000E+00 0. -1.
         22    1    3    3    0    0  0.41262211227E+02 -0.26945875629E+02  0.34760313558E+02  0.60306962180E+02  0.00000000000E+00 0.  1.
         22    1    3    3    0    0 -0.44845521959E+02  0.67088613837E+02  0.89277096413E+02  0.12034285558E+03  0.00000000000E+00 0.  1.
</event>
<event>
 7    1  0.7802682E-006  0.2576954E+02  0.7818608E-02  0.1686034E+00
          2   -1    0    0  502    0  0.00000000000E+00  0.00000000000E+00  0.41479510469E+03  0.41479510469E+03  0.00000000000E+00 0. -1.
          1   -1    0    0  501    0 -0.00000000000E+00 -0.00000000000E+00 -0.62910780735E+02  0.62910780735E+02  0.00000000000E+00 0. -1.
         25    2    1    2    0    0 -0.43186665177E+02 -0.96291513680E+01  0.13739104591E+03  0.19095357763E+03  0.12501664172E+03 0.  0.
          2    1    1    2  501    0  0.22196681771E+02  0.12161350172E+02 -0.31186489562E+02  0.40164514822E+02  0.00000000000E+00 0. -1.
          1    1    1    2  502    0  0.20989983406E+02 -0.25321988041E+01  0.24567976760E+03  0.24658779297E+03  0.00000000000E+00 0. -1.
         22    1    3    3    0    0 -0.83521551877E+02  0.46446802419E+01  0.61474121161E+02  0.10380987552E+03  0.00000000000E+00 0. -1.
         22    1    3    3    0    0  0.40334886700E+02 -0.14273831610E+02  0.75916924753E+02  0.87143702112E+02  0.00000000000E+00 0. -1.
</event>
<event>
 7    1  0.7802682E-006  0.5774392E+02  0.7818608E-02  0.1426124E+00
          2   -1    0    0  502    0  0.00000000000E+00  0.00000000000E+00  0.20919066394E+03  0.20919066394E+03  0.00000000000E+00 0. -1.
          1   -1    0    0  501    0 -0.00000000000E+00 -0.00000000000E+00 -0.53022630665E+03  0.53022630665E+03  0.00000000000E+00 0. -1.
         25    2    1    2    0    0  0.43333699261E+02 -0.16494779270E+02 -0.18193833937E+03  0.22555748648E+03  0.12499893257E+03 0.  0.
          2    1    1    2  501    0 -0.52131442409E+02 -0.32750442403E+02 -0.32015366452E+03  0.32601939769E+03  0.00000000000E+00 0. -1.
          1    1    1    2  502    0  0.87977431482E+01  0.49245221673E+02  0.18105636118E+03  0.18784008642E+03  0.00000000000E+00 0. -1.
         22    1    3    3    0    0 -0.31329667039E+02 -0.16965943836E+02 -0.12951643323E+03  0.13432757633E+03  0.00000000000E+00 0.  1.
         22    1    3    3    0    0  0.74663366300E+02  0.47116456566E+00 -0.52421906141E+02  0.91229910154E+02  0.00000000000E+00 0.  1.
</event>
<event>
 7    1  0.7802682E-006  0.6092841E+02  0.7818608E-02  0.1514129E+00
          2   -1    0    0  502    0  0.00000000000E+00  0.00000000000E+00  0.39262829484E+02  0.39262829484E+02  0.00000000000E+00 0. -1.
          1   -1    0    0  501    0 -0.00000000000E+00 -0.00000000000E+00 -0.19916899595E+04  0.19916899595E+04  0.00000000000E+00 0. -1.
         25    2    1    2    0    0  0.64896407570E+02 -0.26791681762E+00 -0.25012134304E+03  0.28704754749E+03  0.12499597105E+03 0.  0.
          2    1    1    2  501    0 -0.85942626083E+01  0.23720631590E+02 -0.16780942605E+04  0.16782839083E+04  0.00000000000E+00 0. -1.
          1    1    1    2  502    0 -0.56302144961E+02 -0.23452714773E+02 -0.24211526478E+02  0.65621333207E+02  0.00000000000E+00 0. -1.
         22    1    3    3    0    0  0.12063072987E+02 -0.28732661749E+02 -0.14056716553E+01  0.31193901549E+02  0.00000000000E+00 0.  1.
         22    1    3    3    0    0  0.52833334583E+02  0.28464744931E+02 -0.24871567138E+03  0.25585364594E+03  0.00000000000E+00 0.  1.
</event>
<event>
 7    1  0.7802682E-006  0.2784199E+03  0.7818608E-02  0.1279539E+00
          2   -1    0    0  502    0  0.00000000000E+00  0.00000000000E+00  0.30418358995E+04  0.30418358995E+04  0.00000000000E+00 0. -1.
          1   -1    0    0  501    0 -0.00000000000E+00 -0.00000000000E+00 -0.10578845138E+04  0.10578845138E+04  0.00000000000E+00 0. -1.
         25    2    1    2    0    0  0.14960793135E+03 -0.20621961724E+03 -0.32735272114E+02  0.28566675841E+03  0.12499934064E+03 0.  0.
          2    1    1    2  501    0  0.36080283890E+02 -0.26364752264E+01 -0.89161850414E+03  0.89235211369E+03  0.00000000000E+00 0. -1.
          1    1    1    2  502    0 -0.18568821524E+03  0.20885609247E+03  0.29083051619E+04  0.29217015412E+04  0.00000000000E+00 0. -1.
         22    1    3    3    0    0  0.56700782212E+02 -0.17777289011E+03 -0.23291017999E+02  0.18804427851E+03  0.00000000000E+00 0.  1.
         22    1    3    3    0    0  0.92907149139E+02 -0.28446727130E+02 -0.94442541154E+01  0.97622479898E+02  0.00000000000E+00 0.  1.
</event>
<event>
 7    1  0.7802682E-006  0.8563891E+02  0.7818608E-02  0.1450102E+00
          2   -1    0    0  502    0  0.00000000000E+00  0.00000000000E+00  0.18136741967E+04  0.18136741967E+04  0.00000000000E+00 0. -1.
          1   -1    0    0  501    0 -0.00000000000E+00 -0.00000000000E+00 -0.35829821711E+03  0.35829821711E+03  0.00000000000E+00 0. -1.
         25    2    1    2    0    0  0.38740057182E+01  0.57508854695E+02  0.10825503421E+04  0.10912665545E+04  0.12500069436E+03 0.  0.
          2    1    1    2  501    0 -0.37336285831E+01 -0.85691662619E+02 -0.34846436899E+03  0.35886545875E+03  0.00000000000E+00 0. -1.
          1    1    1    2  502    0 -0.14037713506E+00  0.28182807925E+02  0.72129000650E+03  0.72184040053E+03  0.00000000000E+00 0. -1.
         22    1    3    3    0    0  0.57486088581E+02  0.28164009494E+01  0.58956734923E+03  0.59237002099E+03  0.00000000000E+00 0. -1.
         22    1    3    3    0    0 -0.53612082863E+02  0.54692453745E+02  0.49298299283E+03  0.49889653351E+03  0.00000000000E+00 0. -1.
</event>
<event>
 7    1  0.7802682E-006  0.1893067E+03  0.7818608E-02  0.1237104E+00
          2   -1    0    0  502    0  0.00000000000E+00  0.00000000000E+00  0.10214644950E+04  0.10214644950E+04  0.00000000000E+00 0. -1.
          1   -1    0    0  501    0 -0.00000000000E+00 -0.00000000000E+00 -0.26586328950E+03  0.26586328950E+03  0.00000000000E+00 0. -1.
         25    2    1    2    0    0 -0.53279135646E+02 -0.23505810171E+03  0.45271202874E+03  0.52788558525E+03  0.12499613063E+03 0.  0.
          2    1    1    2  501    0 -0.17180625184E+02  0.78992741774E+02 -0.20665066418E+03  0.22189980654E+03  0.00000000000E+00 0. -1.
          1    1    1    2  502    0  0.70459760830E+02  0.15606535994E+03  0.50953984095E+03  0.53754239273E+03  0.00000000000E+00 0. -1.
         22    1    3    3    0    0 -0.58350468349E+02 -0.65654091542E+02  0.24215785589E+03  0.25759593176E+03  0.00000000000E+00 0.  1.
         22    1    3    3    0    0  0.50713327038E+01 -0.16940401017E+03  0.21055417286E+03  0.27028965349E+03  0.00000000000E+00 0.  1.
</event>
<event>
 7    1  0.7802682E-006  0.6485692E+02  0.7818608E-02  0.1427365E+00
          2   -1    0    0  502    0  0.00000000000E+00  0.00000000000E+00  0.71064768774E+02  0.71064768774E+02  0.00000000000E+00 0. -1.
          1   -1    0    0  501    0 -0.00000000000E+00 -0.00000000000E+00 -0.28971678863E+03  0.28971678863E+03  0.00000000000E+00 0. -1.
         25    2    1    2    0    0  0.50186888418E+02 -0.15877131928E+02 -0.78100817059E+02  0.15651019219E+03  0.12499958218E+03 0.  0.
          2    1    1    2  501    0  0.18976980353E+02  0.39829716991E+02 -0.12058524985E+03  0.12840301640E+03  0.00000000000E+00 0. -1.
          1    1    1    2  502    0 -0.69163868771E+02 -0.23952585063E+02 -0.19965952940E+02  0.75868348811E+02  0.00000000000E+00 0. -1.
         22    1    3    3    0    0 -0.34095598063E+02  0.14343539387E+02 -0.50922867494E+02  0.62939537361E+02  0.00000000000E+00 0.  1.
         22    1    3    3    0    0  0.84282486480E+02 -0.30220671315E+02 -0.27177949566E+02  0.93570654826E+02  0.00000000000E+00 0.  1.
</event>
<event>
 7    1  0.7802682E-006  0.1357209E+03  0.7818608E-02  0.1419830E+00
          2   -1    0    0  502    0  0.00000000000E+00  0.00000000000E+00  0.12599109867E+03  0.12599109867E+03  0.00000000000E+00 0. -1.
          1   -1    0    0  501    0 -0.00000000000E+00 -0.00000000000E+00 -0.88835731572E+03  0.88835731572E+03  0.00000000000E+00 0. -1.
         25    2    1    2    0    0 -0.76708538819E+01  0.12262345748E+03 -0.46342546767E+02  0.18128959233E+03  0.12499172102E+03 0.  0.
          2    1    1    2  501    0 -0.97311923072E+01 -0.13662339839E+03 -0.76608925435E+03  0.77823736400E+03  0.00000000000E+00 0. -1.
          1    1    1    2  502    0  0.17402046189E+02  0.13999940917E+02  0.50065584064E+02  0.54821458070E+02  0.00000000000E+00 0. -1.
         22    1    3    3    0    0 -0.46697908299E+02  0.46998140088E+02  0.24420929400E+02  0.70610917031E+02  0.00000000000E+00 0. -1.
         22    1    3    3    0    0  0.39027054417E+02  0.75625317390E+02 -0.70763476168E+02  0.11067867530E+03  0.00000000000E+00 0. -1.
</event>
<event>
 7    1  0.7802682E-006  0.6042635E+02  0.7818608E-02  0.1464073E+00
          2   -1    0    0  502    0  0.00000000000E+00  0.00000000000E+00  0.15105722430E+04  0.15105722430E+04  0.00000000000E+00 0. -1.
          1   -1    0    0  501    0 -0.00000000000E+00 -0.00000000000E+00 -0.28742278314E+03  0.28742278314E+03  0.00000000000E+00 0. -1.
         25    2    1    2    0    0  0.75608970935E+02 -0.26751959731E+02 -0.92407361952E+02  0.17491124892E+03  0.12498976206E+03 0.  0.
          2    1    1    2  501    0 -0.42272895283E+02  0.40533937744E+02 -0.14795641633E+03  0.15912604727E+03  0.00000000000E+00 0. -1.
          1    1    1    2  502    0 -0.33336075652E+02 -0.13781978013E+02  0.14635132381E+04  0.14639577299E+04  0.00000000000E+00 0. -1.
         22    1    3    3    0    0  0.59209949185E+02 -0.52828957549E+02 -0.11283871355E+03  0.13794670026E+03  0.00000000000E+00 0. -1.
         22    1    3    3    0    0  0.16399021750E+02  0.26076997817E+02  0.20431351594E+02  0.36964548658E+02  0.00000000000E+00 0. -1.
</event>
<event>
 7    1  0.7802682E-006  0.1049091E+03  0.7818608E-02  0.1458815E+00
          2   -1    0    0  502    0  0.00000000000E+00  0.00000000000E+00  0.28864562519E+03  0.28864562519E+03  0.00000000000E+00 0. -1.
          1   -1    0    0  501    0 -0.00000000000E+00 -0.00000000000E+00 -0.86569408714E+03  0.86569408714E+03  0.00000000000E+00 0. -1.
         25    2    1    2    0    0 -0.70680830444E+02 -0.76866142045E+02 -0.59215535318E+03  0.61414716928E+03  0.12499839857E+03 0.  0.
          2    1    1    2  501    0 -0.14688809286E+02  0.15815667214E+02 -0.25214704671E+03  0.25306921901E+03  0.00000000000E+00 0. -1.
          1    1    1    2  502    0  0.85369639731E+02  0.61050474831E+02  0.26725393794E+03  0.28712332405E+03  0.00000000000E+00 0. -1.
         22    1    3    3    0    0 -0.76414808803E+02 -0.61103563931E+02 -0.21054292179E+03  0.23216629911E+03  0.00000000000E+00 0. -1.
         22    1    3    3    0    0  0.57339783585E+01 -0.15762578114E+02 -0.38161243140E+03  0.38198087017E+03  0.00000000000E+00 0. -1.
</event>
<event>
 7    1  0.7802682E-006  0.6946406E+02  0.7818608E-02  0.1474817E+00
          2   -1    0    0  502    0  0.00000000000E+00  0.00000000000E+00  0.80179145338E+03  0.80179145338E+03  0.00000000000E+00 0. -1.
          1   -1    0    0  501    0 -0.00000000000E+00 -0.00000000000E+00 -0.16900434575E+04  0.16900434575E+04  0.00000000000E+00 0. -1.
         25    2    1    2    0    0  0.16588672620E+02  0.95316611663E+02 -0.19091725338E+02  0.15921602890E+03  0.12499923745E+03 0.  0.
          2    1    1    2  501    0 -0.11911132661E+02 -0.26499528036E+02 -0.15991318473E+04  0.15993957500E+04  0.00000000000E+00 0. -1.
          1    1    1    2  502    0 -0.46775399595E+01 -0.68817083627E+02  0.72997156853E+03  0.73322313196E+03  0.00000000000E+00 0. -1.
         22    1    3    3    0    0  0.62752646288E+02  0.43418575466E+02 -0.40686106397E+02  0.86477896398E+02  0.00000000000E+00 0.  1.
         22    1    3    3    0    0 -0.46163973668E+02  0.51898036197E+02  0.21594381059E+02  0.72738132497E+02  0.00000000000E+00 0.  1.
</event>
<event>
 7    1  0.7802682E-006  0.1040972E+03  0.7818608E-02  0.1327020E+00
          2   -1    0    0  502    0  0.00000000000E+00  0.00000000000E+00  0.21225396800E+03  0.21225396800E+03  0.00000000000E+00 0. -1.
          1   -1    0    0  501    0 -0.00000000000E+00 -0.00000000000E+00 -0.83953212305E+03  0.83953212305E+03  0.00000000000E+00 0. -1.
         25    2    1    2    0    0 -0.84730467812E+02  0.21988974568E+02 -0.29092999452E+02  0.15535535432E+03  0.12500446520E+03 0.  0.
          2    1    1    2  501    0  0.98615185949E+02  0.39044297669E+02 -0.73677059547E+03  0.74436571820E+03  0.00000000000E+00 0. -1.
          1    1    1    2  502    0 -0.13884718137E+02 -0.61033272237E+02  0.13858543987E+03  0.15206501854E+03  0.00000000000E+00 0. -1.
         22    1    3    3    0    0  0.22022819600E+01 -0.18712571226E+02  0.35129316204E+02  0.39863256574E+02  0.00000000000E+00 0.  1.
         22    1    3    3    0    0 -0.86932749772E+02  0.40701545794E+02 -0.64222315656E+02  0.11549209774E+03  0.00000000000E+00 0.  1.
</event>
<event>
 7    1  0.7802682E-006  0.1038166E+03  0.7818608E-02  0.1317511E+00
          2   -1    0    0  502    0  0.00000000000E+00  0.00000000000E+00  0.14339099833E+03  0.14339099833E+03  0.00000000000E+00 0. -1.
          1   -1    0    0  501    0 -0.00000000000E+00 -0.00000000000E+00 -0.42120267133E+03  0.42120267133E+03  0.00000000000E+00 0. -1.
         25    2    1    2    0    0  0.72915270906E+02 -0.33168797623E+02 -0.69682097675E+02  0.16400590396E+03  0.12500214370E+03 0.  0.
          2    1    1    2  501    0 -0.10986438400E+03 -0.24281680779E+02 -0.27980296942E+03  0.30157832248E+03  0.00000000000E+00 0. -1.
          1    1    1    2  502    0  0.36949113096E+02  0.57450478402E+02  0.71673394094E+02  0.99009443227E+02  0.00000000000E+00 0. -1.
         22    1    3    3    0    0 -0.14201569748E+00  0.36599523692E+02 -0.48549135352E+02  0.60799373733E+02  0.00000000000E+00 0.  1.
         22    1    3    3    0    0  0.73057286603E+02 -0.69768321315E+02 -0.21132962323E+02  0.10320653023E+03  0.00000000000E+00 0.  1.
</event>
<event>
 7    1  0.7802682E-006  0.9603443E+02  0.7818608E-02  0.1399938E+00
          2   -1    0    0  502    0  0.00000000000E+00  0.00000000000E+00  0.22279260585E+03  0.22279260585E+03  0.00000000000E+00 0. -1.
          1   -1    0    0  501    0 -0.00000000000E+00 -0.00000000000E+00 -0.47673444993E+03  0.47673444993E+03  0.00000000000E+00 0. -1.
         25    2    1    2    0    0 -0.53020161501E+02 -0.36896148252E+02 -0.14153471587E+03  0.19957303313E+03  0.12499942590E+03 0.  0.
          2    1    1    2  501    0 -0.36688629344E+02 -0.36081957313E+01 -0.29244877315E+03  0.29476322619E+03  0.00000000000E+00 0. -1.
          1    1    1    2  502    0  0.89708790845E+02  0.40504343984E+02  0.18004164494E+03  0.20519079645E+03  0.00000000000E+00 0. -1.
         22    1    3    3    0    0  0.10738145047E+01  0.40621381409E+02 -0.19115980661E+02  0.44907353760E+02  0.00000000000E+00 0. -1.
         22    1    3    3    0    0 -0.54093976006E+02 -0.77517529661E+02 -0.12241873521E+03  0.15466567937E+03  0.00000000000E+00 0. -1.
</event>
<event>
 7    1  0.7802682E-006  0.6771593E+02  0.7818608E-02  0.1451443E+00
          2   -1    0    0  502    0  0.00000000000E+00  0.00000000000E+00  0.32877692443E+03  0.32877692443E+03  0.00000000000E+00 0. -1.
          1   -1    0    0  501    0 -0.00000000000E+00 -0.00000000000E+00 -0.42850719421E+03  0.42850719421E+03  0.00000000000E+00 0. -1.
         25    2    1    2    0    0 -0.29351003491E+02  0.60706455057E+02  0.80564668923E+01  0.14225484492E+03  0.12499911660E+03 0.  0.
          2    1    1    2  501    0  0.34502968972E+02  0.74240372092E+01 -0.35591770287E+03  0.35766322486E+03  0.00000000000E+00 0. -1.
          1    1    1    2  502    0 -0.51519654815E+01 -0.68130492266E+02  0.24813096620E+03  0.25736604887E+03  0.00000000000E+00 0. -1.
         22    1    3    3    0    0  0.38867927672E+02  0.17627882488E+02 -0.30870558518E+02  0.52673042685E+02  0.00000000000E+00 0. -1.
         22    1    3    3    0    0 -0.68218931163E+02  0.43078572569E+02  0.38927025410E+02  0.89581802231E+02  0.00000000000E+00 0. -1.
</event>
<event>
 7    1  0.7802682E-006  0.2951359E+03  0.7818608E-02  0.1258279E+00
          2   -1    0    0  502    0  0.00000000000E+00  0.00000000000E+00  0.11868031633E+04  0.11868031633E+04  0.00000000000E+00 0. -1.
          1   -1    0    0  501    0 -0.00000000000E+00 -0.00000000000E+00 -0.23248627694E+03  0.23248627694E+03  0.00000000000E+00 0. -1.
         25    2    1    2    0    0 -0.25159069630E+03 -0.14731703595E+03  0.17715206491E+03  0.36332928015E+03  0.12500049667E+03 0.  0.
          2    1    1    2  501    0  0.19305292338E+02 -0.37224287456E+02 -0.11147856440E+03  0.11910420736E+03  0.00000000000E+00 0. -1.
          1    1    1    2  502    0  0.23228540397E+03  0.18454132340E+03  0.88864338589E+03  0.93685595276E+03  0.00000000000E+00 0. -1.
         22    1    3    3    0    0 -0.15472078950E+03 -0.62106092949E+02  0.16363853069E+03  0.23360919976E+03  0.00000000000E+00 0.  1.
         22    1    3    3    0    0 -0.96869906806E+02 -0.85210942996E+02  0.13513534217E+02  0.12972008040E+03  0.00000000000E+00 0.  1.
</event>
<event>
 7    1  0.7802682E-006  0.1087475E+03  0.7818608E-02  0.1374843E+00
          2   -1    0    0  502    0  0.00000000000E+00  0.00000000000E+00  0.50358150903E+03  0.50358150903E+03  0.00000000000E+00 0. -1.
          1   -1    0    0  501    0 -0.00000000000E+00 -0.00000000000E+00 -0.98353075334E+03  0.98353075334E+03  0.00000000000E+00 0. -1.
         25    2    1    2    0    0 -0.84029162701E+02  0.51920750240E+02  0.58792876599E+02  0.16985219244E+03  0.12504599333E+03 0.  0.
          2    1    1    2  501    0  0.65640866121E+02 -0.87286916366E+02 -0.92375527841E+03  0.93018898266E+03  0.00000000000E+00 0. -1.
          1    1    1    2  502    0  0.18388296580E+02  0.35366166126E+02  0.38501315749E+03  0.38707108727E+03  0.00000000000E+00 0. -1.
         22    1    3    3    0    0 -0.99123877594E+02 -0.48358923365E+01  0.26015313931E+02  0.10259495856E+03  0.00000000000E+00 0. -1.
         22    1    3    3    0    0  0.15094714892E+02  0.56756642577E+02  0.32777562668E+02  0.67257233877E+02  0.00000000000E+00 0. -1.
</event>
<event>
 7    1  0.7802682E-006  0.3139548E+02  0.7818608E-02  0.1605187E+00
          2   -1    0    0  502    0  0.00000000000E+00  0.00000000000E+00  0.13616964487E+03  0.13616964487E+03  0.00000000000E+00 0. -1.
          1   -1    0    0  501    0 -0.00000000000E+00 -0.00000000000E+00 -0.27562387621E+03  0.27562387621E+03  0.00000000000E+00 0. -1.
         25    2    1    2    0    0  0.26049386586E+01  0.21615447035E+02  0.87684653143E+02  0.15423263238E+03  0.12500037295E+03 0.  0.
          2    1    1    2  501    0  0.24933972525E+02  0.11529391948E+02 -0.20901441382E+03  0.21081189494E+03  0.00000000000E+00 0. -1.
          1    1    1    2  502    0 -0.27538911183E+02 -0.33144838983E+02 -0.18124470666E+02  0.46748993757E+02  0.00000000000E+00 0. -1.
         22    1    3    3    0    0  0.32966557225E+01  0.60355511409E+02  0.23243468910E+01  0.60490150313E+02  0.00000000000E+00 0. -1.
         22    1    3    3    0    0 -0.69171706388E+00 -0.38740064374E+02  0.85360306252E+02  0.93742482065E+02  0.00000000000E+00 0. -1.
</event>
<event>
 7    1  0.7802682E-006  0.1654928E+03  0.7818608E-02  0.1290421E+00
          2   -1    0    0  502    0  0.00000000000E+00  0.00000000000E+00  0.46978167290E+03  0.46978167290E+03  0.00000000000E+00 0. -1.
          1   -1    0    0  501    0 -0.00000000000E+00 -0.00000000000E+00 -0.54014003170E+03  0.54014003170E+03  0.00000000000E+00 0. -1.
         25    2    1    2    0    0 -0.14446154993E+03  0.37130703599E+02 -0.12043702526E+03  0.22886089052E+03  0.12499760637E+03 0.  0.
          2    1    1    2  501    0  0.40649563765E+01  0.54770078352E+02 -0.34629965087E+03  0.35062762804E+03  0.00000000000E+00 0. -1.
          1    1    1    2  502    0  0.14039659355E+03 -0.91900781951E+02  0.39637831732E+03  0.43043318604E+03  0.00000000000E+00 0. -1.
         22    1    3    3    0    0 -0.23069153752E+02  0.43622470262E+02  0.10222755856E+02  0.50394548355E+02  0.00000000000E+00 0. -1.
         22    1    3    3    0    0 -0.12139239618E+03 -0.64917666629E+01 -0.13065978112E+03  0.17846634217E+03  0.00000000000E+00 0. -1.
</event>
<event>
 7    1  0.7802682E-006  0.5001823E+02  0.7818608E-02  0.1571945E+00
          2   -1    0    0  502    0  0.00000000000E+00  0.00000000000E+00  0.12208420352E+03  0.12208420352E+03  0.00000000000E+00 0. -1.
          1   -1    0    0  501    0 -0.00000000000E+00 -0.00000000000E+00 -0.37744282433E+03  0.37744282433E+03  0.00000000000E+00 0. -1.
         25    2    1    2    0    0  0.63399677553E+02 -0.67612484148E+01  0.96048560648E+01  0.14065744210E+03  0.12500811640E+03 0.  0.
          2    1    1    2  501    0 -0.46032029782E+02  0.18784882465E+02 -0.30743815912E+03  0.31143224184E+03  0.00000000000E+00 0. -1.
          1    1    1    2  502    0 -0.17367647772E+02 -0.12023634050E+02  0.42474682243E+02  0.47437343902E+02  0.00000000000E+00 0. -1.
         22    1    3    3    0    0 -0.45272900388E+01  0.59245507221E+00  0.57205210985E+02  0.57387137252E+02  0.00000000000E+00 0.  1.
         22    1    3    3    0    0  0.67926967592E+02 -0.73537034870E+01 -0.47600354921E+02  0.83270304850E+02  0.00000000000E+00 0.  1.
</event>
<event>
 7    1  0.7802682E-006  0.2227412E+03  0.7818608E-02  0.1306146E+00
          2   -1    0    0  502    0  0.00000000000E+00  0.00000000000E+00  0.12715413404E+04  0.12715413404E+04  0.00000000000E+00 0. -1.
          1   -1    0    0  501    0 -0.00000000000E+00 -0.00000000000E+00 -0.33533597782E+03  0.33533597782E+03  0.00000000000E+00 0. -1.
         25    2    1    2    0    0 -0.23239033013E+03 -0.18669538249E+02  0.53303251146E+03  0.59506684393E+03  0.12500829280E+03 0.  0.
          2    1    1    2  501    0  0.22165888362E+03 -0.14943848619E+02 -0.26324352109E+03  0.34446063736E+03  0.00000000000E+00 0. -1.
          1    1    1    2  502    0  0.10731446515E+02  0.33613386868E+02  0.66641637224E+03  0.66734983697E+03  0.00000000000E+00 0. -1.
         22    1    3    3    0    0 -0.44344568015E+02 -0.42853557263E+02  0.22557099683E+03  0.23384854649E+03  0.00000000000E+00 0.  1.
         22    1    3    3    0    0 -0.18804576212E+03  0.24184019014E+02  0.30746151463E+03  0.36121829744E+03  0.00000000000E+00 0.  1.
</event>
<event>
 7    1  0.7802682E-006  0.1073917E+03  0.7818608E-02  0.1373853E+00
          2   -1    0    0  502    0  0.00000000000E+00  0.00000000000E+00  0.56734084230E+03  0.56734084230E+03  0.00000000000E+00 0. -1.
          1   -1    0    0  501    0 -0.00000000000E+00 -0.00000000000E+00 -0.13020438529E+04  0.13020438529E+04  0.00000000000E+00 0. -1.
         25    2    1    2    0    0 -0.97423408995E+02  0.10032670807E+03 -0.67422010063E+03  0.69982476278E+03  0.12500074215E+03 0.  0.
          2    1    1    2  501    0  0.90745127943E+01 -0.39669402353E+02 -0.60915854712E+03  0.61051629281E+03  0.00000000000E+00 0. -1.
          1    1    1    2  502    0  0.88348896201E+02 -0.60657305721E+02  0.54867563714E+03  0.55904363961E+03  0.00000000000E+00 0. -1.
         22    1    3    3    0    0 -0.93983466262E+02  0.12661819509E+03 -0.52145343405E+03  0.54477402943E+03  0.00000000000E+00 0.  1.
         22    1    3    3    0    0 -0.34399427334E+01 -0.26291487018E+02 -0.15276666658E+03  0.15505073335E+03  0.00000000000E+00 0.  1.
</event>
<event>
 7    1  0.7802682E-006  0.7771484E+02  0.7818608E-02  0.1362503E+00
          2   -1    0    0  502    0  0.00000000000E+00  0.00000000000E+00  0.26001271925E+03  0.26001271925E+03  0.00000000000E+00 0. -1.
          1   -1    0    0  501    0 -0.00000000000E+00 -0.00000000000E+00 -0.48272069407E+03  0.48272069407E+03  0.00000000000E+00 0. -1.
         25    2    1    2    0    0  0.16565262127E+02  0.18769751313E+02  0.32999837187E+01  0.12752315048E+03  0.12499821016E+03 0.  0.
          2    1    1    2  501    0  0.24638903464E+02  0.56664584323E+02 -0.40868077245E+03  0.41332544617E+03  0.00000000000E+00 0. -1.
          1    1    1    2  502    0 -0.41204165591E+02 -0.75434335636E+02  0.18267281392E+03  0.20188481666E+03  0.00000000000E+00 0. -1.
         22    1    3    3    0    0 -0.26294389397E+02 -0.44126408531E+02  0.91328926593E+00  0.51374788962E+02  0.00000000000E+00 0. -1.
         22    1    3    3    0    0  0.42859651524E+02  0.62896159845E+02  0.23866944528E+01  0.76148361521E+02  0.00000000000E+00 0. -1.
</event>
<event>
 7    1  0.7802682E-006  0.4706675E+02  0.7818608E-02  0.1466079E+00
          2   -1    0    0  502    0  0.00000000000E+00  0.00000000000E+00  0.48075109110E+03  0.48075109110E+03  0.00000000000E+00 0. -1.
          1   -1    0    0  501    0 -0.00000000000E+00 -0.00000000000E+00 -0.65114933190E+02  0.65114933190E+02  0.00000000000E+00 0. -1.
         25    2    1    2    0    0  0.30477808826E+02 -0.16445015953E+02  0.11004751491E+03  0.17007708991E+03  0.12496569768E+03 0.  0.
          2    1    1    2  501    0 -0.35609345017E+02 -0.30777478347E+02 -0.16758159760E+02  0.49961130336E+02  0.00000000000E+00 0. -1.
          1    1    1    2  502    0  0.51315361903E+01  0.47222494300E+02  0.32234680277E+03  0.32582780404E+03  0.00000000000E+00 0. -1.
         22    1    3    3    0    0  0.38352995074E+02  0.14863164727E+02  0.12708360972E+03  0.13357436040E+03  0.00000000000E+00 0. -1.
         22    1    3    3    0    0 -0.78751862476E+01 -0.31308180680E+02 -0.17036094811E+02  0.36502729519E+02  0.00000000000E+00 0. -1.
</event>
<event>
 7    1  0.7802682E-006  0.1551618E+03  0.7818608E-02  0.1332682E+00
          2   -1    0    0  502    0  0.00000000000E+00  0.00000000000E+00  0.44202855667E+03  0.44202855667E+03  0.00000000000E+00 0. -1.
          1   -1    0    0  501    0 -0.00000000000E+00 -0.00000000000E+00 -0.24684112294E+04  0.24684112294E+04  0.00000000000E+00 0. -1.
         25    2    1    2    0    0  0.58047187446E+02 -0.13045345465E+03  0.13740780376E+02  0.19027208139E+03  0.12500830416E+03 0.  0.
          2    1    1    2  501    0 -0.97013656290E+02  0.12163194310E+03 -0.23764193761E+04  0.23815068823E+04  0.00000000000E+00 0. -1.
          1    1    1    2  502    0  0.38966468843E+02  0.88215115549E+01  0.33629592305E+03  0.33866082238E+03  0.00000000000E+00 0. -1.
         22    1    3    3    0    0  0.19881784065E+02 -0.10712269070E+03  0.61274528903E+02  0.12500049637E+03  0.00000000000E+00 0.  1.
         22    1    3    3    0    0  0.38165403381E+02 -0.23330763954E+02 -0.47533748527E+02  0.65271585019E+02  0.00000000000E+00 0.  1.
</event>
<event>
 7    1  0.7802682E-006  0.8921484E+02  0.7818608E-02  0.1366735E+00
          2   -1    0    0  502    0  0.00000000000E+00  0.00000000000E+00  0.20938904577E+03  0.20938904577E+03  0.00000000000E+00 0. -1.
          1   -1    0    0  501    0 -0.00000000000E+00 -0.00000000000E+00 -0.13781405544E+03  0.13781405544E+03  0.00000000000E+00 0. -1.
         25    2    1    2    0    0 -0.52025039154E+02  0.31996132285E+02  0.31027619745E+02  0.14253862403E+03  0.12499675585E+03 0.  0.
          2    1    1    2  501    0  0.58993370785E+02 -0.83483548542E+02 -0.39202212330E+02  0.10948303122E+03  0.00000000000E+00 0. -1.
          1    1    1    2  502    0 -0.69683316316E+01  0.51487416257E+02  0.79749582921E+02  0.95181445958E+02  0.00000000000E+00 0. -1.
         22    1    3    3    0    0 -0.74581438213E+02  0.61827950087E+02  0.38769151199E+02  0.10434621901E+03  0.00000000000E+00 0. -1.
         22    1    3    3    0    0  0.22556399059E+02 -0.29831817802E+02 -0.77415314542E+01  0.38192405019E+02  0.00000000000E+00 0. -1.
</event>
<event>
 7    1  0.7802682E-006  0.1133081E+03  0.7818608E-02  0.1354075E+00
          2   -1    0    0  502    0  0.00000000000E+00  0.00000000000E+00  0.27385148938E+04  0.27385148938E+04  0.00000000000E+00 0. -1.
          1   -1    0    0  501    0 -0.00000000000E+00 -0.00000000000E+00 -0.95659271707E+03  0.95659271707E+03  0.00000000000E+00 0. -1.
         25    2    1    2    0    0  0.11292764295E+03  0.43910778091E+02 -0.44462306849E+03  0.47748695459E+03  0.12499323898E+03 0.  0.
          2    1    1    2  501    0 -0.82015340957E+02 -0.77295101752E+02 -0.48893696155E+03  0.50175731312E+03  0.00000000000E+00 0. -1.
          1    1    1    2  502    0 -0.30912301998E+02  0.33384323661E+02  0.27154822068E+04  0.27158633432E+04  0.00000000000E+00 0. -1.
         22    1    3    3    0    0 -0.47563218561E+01  0.52340046536E+02 -0.18484010357E+03  0.19216650842E+03  0.00000000000E+00 0.  1.
         22    1    3    3    0    0  0.11768396481E+03 -0.84292684446E+01 -0.25978296492E+03  0.28532044617E+03  0.00000000000E+00 0.  1.
</event>
<event>
 7    1  0.7802682E-006  0.1503441E+03  0.7818608E-02  0.1215850E+00
          2   -1    0    0  502    0  0.00000000000E+00  0.00000000000E+00  0.23845541644E+04  0.23845541644E+04  0.00000000000E+00 0. -1.
          1   -1    0    0  501    0 -0.00000000000E+00 -0.00000000000E+00 -0.15752388926E+03  0.15752388926E+03  0.00000000000E+00 0. -1.
         25    2    1    2    0    0  0.42340107512E+02 -0.88851224944E+02  0.81028359926E+02  0.17854572881E+03  0.12500302911E+03 0.  0.
          2    1    1    2  501    0  0.11080572099E+03  0.61918704105E+02 -0.68052539890E+02  0.14402424070E+03  0.00000000000E+00 0. -1.
          1    1    1    2  502    0 -0.15314582850E+03  0.26932520839E+02  0.22140544551E+04  0.22195080841E+04  0.00000000000E+00 0. -1.
         22    1    3    3    0    0  0.65572727496E+02  0.16926575635E+01  0.35092579435E+02  0.74391779199E+02  0.00000000000E+00 0.  1.
         22    1    3    3    0    0 -0.23232619984E+02 -0.90543882508E+02  0.45935780491E+02  0.10415394961E+03  0.00000000000E+00 0.  1.
</event>
<event>
 7    1  0.7802682E-006  0.4479201E+02  0.7818608E-02  0.1532197E+00
          2   -1    0    0  502    0  0.00000000000E+00  0.00000000000E+00  0.79605444174E+03  0.79605444174E+03  0.00000000000E+00 0. -1.
          1   -1    0    0  501    0 -0.00000000000E+00 -0.00000000000E+00 -0.10795098774E+03  0.10795098774E+03  0.00000000000E+00 0. -1.
         25    2    1    2    0    0 -0.98233025914E+01  0.35927019899E+02  0.11682932724E+03  0.17510541148E+03  0.12500226156E+03 0.  0.
          2    1    1    2  501    0 -0.20209873420E+02 -0.40817117945E+02 -0.71842666819E+02  0.85063769471E+02  0.00000000000E+00 0. -1.
          1    1    1    2  502    0  0.30033176012E+02  0.48900980460E+01  0.64311679359E+03  0.64383624853E+03  0.00000000000E+00 0. -1.
         22    1    3    3    0    0 -0.25252506435E+02 -0.27599099519E+02  0.10119622083E+03  0.10788917687E+03  0.00000000000E+00 0.  1.
         22    1    3    3    0    0  0.15429203843E+02  0.63526119419E+02  0.15633106410E+02  0.67216234614E+02  0.00000000000E+00 0.  1.
</event>
<event>
 7    1  0.7802682E-006  0.8466106E+02  0.7818608E-02  0.1333794E+00
          2   -1    0    0  502    0  0.00000000000E+00  0.00000000000E+00  0.11303295853E+04  0.11303295853E+04  0.00000000000E+00 0. -1.
          1   -1    0    0  501    0 -0.00000000000E+00 -0.00000000000E+00 -0.81381258141E+03  0.81381258141E+03  0.00000000000E+00 0. -1.
         25    2    1    2    0    0 -0.81725516680E+02  0.86146254126E+01 -0.84290117556E+01  0.14983106457E+03  0.12500011129E+03 0.  0.
          2    1    1    2  501    0  0.35556777137E+02  0.63197510066E+02 -0.73116654659E+03  0.73475351549E+03  0.00000000000E+00 0. -1.
          1    1    1    2  502    0  0.46168739543E+02 -0.71812135479E+02  0.10561125622E+04  0.10595575866E+04  0.00000000000E+00 0. -1.
         22    1    3    3    0    0 -0.19862545797E+02 -0.56302097629E+02 -0.73324828290E+01  0.60151577098E+02  0.00000000000E+00 0. -1.
         22    1    3    3    0    0 -0.61862970883E+02  0.64916723041E+02 -0.10965289266E+01  0.89679487468E+02  0.00000000000E+00 0. -1.
</event>
<event>
 7    1  0.7840660E-006  0.1070563E+03  0.7818608E-02  0.1287365E+00
          2   -1    0    0  502    0  0.00000000000E+00  0.00000000000E+00  0.66922966198E+03  0.66922966198E+03  0.00000000000E+00 0. -1.
          1   -1    0    0  501    0 -0.00000000000E+00 -0.00000000000E+00 -0.22402738490E+04  0.22402738490E+04  0.00000000000E+00 0. -1.
         25    2    1    2    0    0  0.44243040608E+01 -0.68844079071E+02 -0.23543230224E+03  0.27534121942E+03  0.12500134593E+03 0.  0.
          2    1    1    2  501    0 -0.91680133345E+02  0.64411867872E+02 -0.19803572034E+04  0.19835243353E+04  0.00000000000E+00 0. -1.
          1    1    1    2  502    0  0.87255829285E+02  0.44322111997E+01  0.64474531863E+03  0.65063795627E+03  0.00000000000E+00 0. -1.
         22    1    3    3    0    0 -0.63960286230E+01 -0.75204949327E+02 -0.52408811130E+02  0.91887850500E+02  0.00000000000E+00 0. -1.
         22    1    3    3    0    0  0.10820332684E+02  0.63608702556E+01 -0.18302349111E+03  0.18345336892E+03  0.00000000000E+00 0. -1.
</event>
<event>
 7    1  0.7802682E-006  0.1133260E+03  0.7818608E-02  0.1309220E+00
          2   -1    0    0  502    0  0.00000000000E+00  0.00000000000E+00  0.26467924240E+03  0.26467924240E+03  0.00000000000E+00 0. -1.
          1   -1    0    0  501    0 -0.00000000000E+00 -0.00000000000E+00 -0.69077814482E+03  0.69077814482E+03  0.00000000000E+00 0. -1.
         25    2    1    2    0    0 -0.53864741031E+02  0.99242904761E+02 -0.34934960076E+03  0.38784051855E+03  0.12499823919E+03 0.  0.
          2    1    1    2  501    0  0.10649518326E+03 -0.57078087667E+02 -0.30582107796E+03  0.32882467041E+03  0.00000000000E+00 0. -1.
          1    1    1    2  502    0 -0.52630442232E+02 -0.42164817094E+02  0.22907177631E+03  0.23879219826E+03  0.00000000000E+00 0. -1.
         22    1    3    3    0    0 -0.22105058550E+02  0.43329360312E+02 -0.30703239640E+03  0.31086164047E+03  0.00000000000E+00 0.  1.
         22    1    3    3    0    0 -0.31759682481E+02  0.55913544449E+02 -0.42317204364E+02  0.76978878073E+02  0.00000000000E+00 0.  1.
</event>
<event>
 7    1  0.7802682E-006  0.8712417E+02  0.7818608E-02  0.1335399E+00
          2   -1    0    0  502    0  0.00000000000E+00  0.00000000000E+00  0.26768053873E+04  0.26768053873E+04  0.00000000000E+00 0. -1.
          1   -1    0    0  501    0 -0.00000000000E+00 -0.00000000000E+00 -0.19823420007E+04  0.19823420007E+04  0.00000000000E+00 0. -1.
         25    2    1    2    0    0 -0.15129299543E+02  0.14525371922E+03  0.57062414991E+03  0.60213427249E+03  0.12500489186E+03 0.  0.
          2    1    1    2  501    0  0.36344139932E+02 -0.79089029502E+02 -0.19650459294E+04  0.19669726678E+04  0.00000000000E+00 0. -1.
          1    1    1    2  502    0 -0.21214840390E+02 -0.66164689721E+02  0.20888851662E+04  0.20900404477E+04  0.00000000000E+00 0. -1.
         22    1    3    3    0    0  0.14595789123E+02  0.72965037377E+02  0.46400801873E+03  0.46993656507E+03  0.00000000000E+00 0.  1.
         22    1    3    3    0    0 -0.29725088666E+02  0.72288681846E+02  0.10661613118E+03  0.13219770742E+03  0.00000000000E+00 0.  1.
</event>
<event>
 7    1  0.7802682E-006  0.4846703E+02  0.7818608E-02  0.1458727E+00
          2   -1    0    0  502    0  0.00000000000E+00  0.00000000000E+00  0.22119272077E+04  0.22119272077E+04  0.00000000000E+00 0. -1.
          1   -1    0    0  501    0 -0.00000000000E+00 -0.00000000000E+00 -0.14138570616E+03  0.14138570616E+03  0.00000000000E+00 0. -1.
         25    2    1    2    0    0 -0.44481756730E+01 -0.80612626492E+01  0.53056190105E+03  0.54516449931E+03  0.12499452082E+03 0.  0.
          2    1    1    2  501    0  0.43313322036E+02 -0.21748780633E+02 -0.12933361545E+03  0.13811675282E+03  0.00000000000E+00 0. -1.
          1    1    1    2  502    0 -0.38865146363E+02  0.29810043282E+02  0.16693132160E+04  0.16700316618E+04  0.00000000000E+00 0. -1.
         22    1    3    3    0    0 -0.15759464209E+02  0.51172226009E+02  0.36610834506E+03  0.37000307802E+03  0.00000000000E+00 0. -1.
         22    1    3    3    0    0  0.11311288536E+02 -0.59233488658E+02  0.16445355600E+03  0.17516142129E+03  0.00000000000E+00 0. -1.
</event>
<event>
 7    1  0.7802682E-006  0.1666650E+03  0.7818608E-02  0.1296398E+00
          2   -1    0    0  502    0  0.00000000000E+00  0.00000000000E+00  0.16170184953E+04  0.16170184953E+04  0.00000000000E+00 0. -1.
          1   -1    0    0  501    0 -0.00000000000E+00 -0.00000000000E+00 -0.59651107030E+03  0.59651107030E+03  0.00000000000E+00 0. -1.
         25    2    1    2    0    0  0.10516963714E+03 -0.81443507665E+02 -0.33367387416E+03  0.38033729278E+03  0.12499801782E+03 0.  0.
          2    1    1    2  501    0  0.48852695917E+02  0.16554114425E+02 -0.23228673543E+03  0.23794485088E+03  0.00000000000E+00 0. -1.
          1    1    1    2  502    0 -0.15402233306E+03  0.64889393241E+02  0.15864680346E+04  0.15952474220E+04  0.00000000000E+00 0. -1.
         22    1    3    3    0    0  0.71436377779E+02 -0.59988665962E+02 -0.78115859991E+02  0.12167121145E+03  0.00000000000E+00 0. -1.
         22    1    3    3    0    0  0.33733259364E+02 -0.21454841704E+02 -0.25555801417E+03  0.25866608132E+03  0.00000000000E+00 0. -1.
</event>
<event>
 7    1  0.7802682E-006  0.6625953E+02  0.7818608E-02  0.1408686E+00
          2   -1    0    0  502    0  0.00000000000E+00  0.00000000000E+00  0.13995291524E+04  0.13995291524E+04  0.00000000000E+00 0. -1.
          1   -1    0    0  501    0 -0.00000000000E+00 -0.00000000000E+00 -0.42057539087E+03  0.42057539087E+03  0.00000000000E+00 0. -1.
         25    2    1    2    0    0  0.78131909427E+01 -0.79982575464E+02  0.18409580263E+03  0.23659154155E+03  0.12500413856E+03 0.  0.
          2    1    1    2  501    0  0.35808277357E+02  0.55796331950E+02 -0.39101289202E+03  0.39659367760E+03  0.00000000000E+00 0. -1.
          1    1    1    2  502    0 -0.43621468300E+02  0.24186243514E+02  0.11858708510E+04  0.11869193242E+04  0.00000000000E+00 0. -1.
         22    1    3    3    0    0  0.26874545697E+02 -0.97878475708E+02  0.79930102706E+02  0.12919465365E+03  0.00000000000E+00 0.  1.
         22    1    3    3    0    0 -0.19061354754E+02  0.17895900243E+02  0.10416569992E+03  0.10739688790E+03  0.00000000000E+00 0.  1.
</event>
<event>
 7    1  0.7802682E-006  0.8809815E+02  0.7818608E-02  0.1456660E+00
          2   -1    0    0  502    0  0.00000000000E+00  0.00000000000E+00  0.50305493790E+03  0.50305493790E+03  0.00000000000E+00 0. -1.
          1   -1    0    0  501    0 -0.00000000000E+00 -0.00000000000E+00 -0.71716065684E+03  0.71716065684E+03  0.00000000000E+00 0. -1.
         25    2    1    2    0    0  0.66039494548E+02 -0.15189953740E+02  0.10154422801E+03  0.17472333774E+03  0.12500025989E+03 0.  0.
          2    1    1    2  501    0  0.25010620220E+02  0.74972713848E+01 -0.67459465232E+03  0.67509975940E+03  0.00000000000E+00 0. -1.
          1    1    1    2  502    0 -0.91050114768E+02  0.76926823556E+01  0.35894470537E+03  0.37039249760E+03  0.00000000000E+00 0. -1.
         22    1    3    3    0    0 -0.30643969323E-01  0.49629436823E+02  0.35426731331E+02  0.60976513767E+02  0.00000000000E+00 0. -1.
         22    1    3    3    0    0  0.66070138517E+02 -0.64819390563E+02  0.66117496676E+02  0.11374682397E+03  0.00000000000E+00 0. -1.
</event>
<event>
 7    1  0.7802682E-006  0.1942564E+03  0.7818608E-02  0.1170983E+00
          2   -1    0    0  502    0  0.00000000000E+00  0.00000000000E+00  0.12960588845E+04  0.12960588845E+04  0.00000000000E+00 0. -1.
          1   -1    0    0  501    0 -0.00000000000E+00 -0.00000000000E+00 -0.25062221892E+03  0.25062221892E+03  0.00000000000E+00 0. -1.
         25    2    1    2    0    0  0.13643375750E+03  0.23529961041E+03 -0.28229555540E+02  0.30066915609E+03  0.12499982710E+03 0.  0.
          2    1    1    2  501    0 -0.14255134253E+03 -0.74590016586E+02  0.52607894915E+00  0.16088763965E+03  0.00000000000E+00 0. -1.
          1    1    1    2  502    0  0.61175850335E+01 -0.16070959382E+03  0.10731401422E+04  0.10851243077E+04  0.00000000000E+00 0. -1.
         22    1    3    3    0    0  0.54464342329E+02  0.48661545063E+01 -0.24536088536E+01  0.54736315563E+02  0.00000000000E+00 0.  1.
         22    1    3    3    0    0  0.81969415173E+02  0.23043345590E+03 -0.25775946687E+02  0.24593284053E+03  0.00000000000E+00 0.  1.
</event>
<event>
 7    1  0.7802682E-006  0.1905844E+03  0.7818608E-02  0.1263512E+00
          2   -1    0    0  502    0  0.00000000000E+00  0.00000000000E+00  0.11053515131E+04  0.11053515131E+04  0.00000000000E+00 0. -1.
          1   -1    0    0  501    0 -0.00000000000E+00 -0.00000000000E+00 -0.50086724707E+03  0.50086724707E+03  0.00000000000E+00 0. -1.
         25    2    1    2    0    0  0.45318680805E+02 -0.12673956097E+03  0.43873765370E+03  0.47563976080E+03  0.12500301649E+03 0.  0.
          2    1    1    2  501    0 -0.42133631964E+02  0.18834242818E+03 -0.46153975006E+03  0.50026698280E+03  0.00000000000E+00 0. -1.
          1    1    1    2  502    0 -0.31850488413E+01 -0.61602867210E+02  0.62728636237E+03  0.63031201654E+03  0.00000000000E+00 0. -1.
         22    1    3    3    0    0  0.32835885407E+02 -0.14914271241E+03  0.32564142643E+03  0.35967218775E+03  0.00000000000E+00 0. -1.
         22    1    3    3    0    0  0.12482795399E+02  0.22403151438E+02  0.11309622727E+03  0.11596757304E+03  0.00000000000E+00 0. -1.
</event>
<event>
 7    1  0.7802682E-006  0.6773070E+02  0.7818608E-02  0.1495049E+00
          2   -1    0    0  502    0  0.00000000000E+00  0.00000000000E+00  0.97549041987E+03  0.97549041987E+03  0.00000000000E+00 0. -1.
          1   -1    0    0  501    0 -0.00000000000E+00 -0.00000000000E+00 -0.26828217647E+03  0.26828217647E+03  0.00000000000E+00 0. -1.
         25    2    1    2    0    0 -0.70011628158E+02 -0.38368626215E+02  0.79150824495E+02  0.16811607031E+03  0.12499752207E+03 0.  0.
          2    1    1    2  501    0  0.37569126765E+01  0.25579517624E+02 -0.22171093422E+03  0.22321327126E+03  0.00000000000E+00 0. -1.
          1    1    1    2  502    0  0.66254715482E+02  0.12789108591E+02  0.84976835313E+03  0.85244325477E+03  0.00000000000E+00 0. -1.
         22    1    3    3    0    0 -0.11131722709E+02 -0.13089526019E+02  0.99432131684E+02  0.10090589553E+03  0.00000000000E+00 0.  1.
         22    1    3    3    0    0 -0.58879905449E+02 -0.25279100196E+02 -0.20281307189E+02  0.67210174778E+02  0.00000000000E+00 0.  1.
</event>
<event>
 7    1  0.7802682E-006  0.1380756E+03  0.7818608E-02  0.1332419E+00
          2   -1    0    0  502    0  0.00000000000E+00  0.00000000000E+00  0.60860481843E+02  0.60860481843E+02  0.00000000000E+00 0. -1.
          1   -1    0    0  501    0 -0.00000000000E+00 -0.00000000000E+00 -0.98582739368E+03  0.98582739368E+03  0.00000000000E+00 0. -1.
         25    2    1    2    0    0  0.12674115691E+03 -0.10349513411E+03 -0.25613122505E+03  0.32863794320E+03  0.12500051849E+03 0.  0.
          2    1    1    2  501    0 -0.43662163430E+02  0.10891376305E+02 -0.52888801068E+03  0.53079895859E+03  0.00000000000E+00 0. -1.
          1    1    1    2  502    0 -0.83078993485E+02  0.92603757807E+02 -0.13994767611E+03  0.18725097374E+03  0.00000000000E+00 0. -1.
         22    1    3    3    0    0  0.11673822424E+03 -0.10191920222E+03 -0.27009155844E+03  0.31139169340E+03  0.00000000000E+00 0. -1.
         22    1    3    3    0    0  0.10002932677E+02 -0.15759318908E+01  0.13960333394E+02  0.17246249794E+02  0.00000000000E+00 0. -1.
</event>
<event>
 7    1  0.7802682E-006  0.1119815E+03  0.7818608E-02  0.1264630E+00
          2   -1    0    0  502    0  0.00000000000E+00  0.00000000000E+00  0.20949934182E+04  0.20949934182E+04  0.00000000000E+00 0. -1.
          1   -1    0    0  501    0 -0.00000000000E+00 -0.00000000000E+00 -0.63684753416E+02  0.63684753416E+02  0.00000000000E+00 0. -1.
         25    2    1    2    0    0  0.92620584226E+02  0.61296867092E+02  0.75446474666E+03  0.77277305602E+03  0.12500105453E+03 0.  0.
          2    1    1    2  501    0 -0.10805502803E+03  0.41393777370E+02  0.11472298433E+02  0.11627960921E+03  0.00000000000E+00 0. -1.
          1    1    1    2  502    0  0.15434443802E+02 -0.10269064446E+03  0.12653716196E+04  0.12696255063E+04  0.00000000000E+00 0. -1.
         22    1    3    3    0    0  0.23129404730E+02 -0.22239010903E+02  0.41728638710E+03  0.41851818578E+03  0.00000000000E+00 0.  1.
         22    1    3    3    0    0  0.69491179496E+02  0.83535877995E+02  0.33717835956E+03  0.35425487025E+03  0.00000000000E+00 0.  1.
</event>
<event>
 7    1  0.7802682E-006  0.3176610E+03  0.7818608E-02  0.1116320E+00
          2   -1    0    0  502    0  0.00000000000E+00  0.00000000000E+00  0.26089990199E+04  0.26089990199E+04  0.00000000000E+00 0. -1.
          1   -1    0    0  501    0 -0.00000000000E+00 -0.00000000000E+00 -0.35825286525E+03  0.35825286525E+03  0.00000000000E+00 0. -1.
         25    2    1    2    0    0  0.33779239669E+03  0.11210654931E+03  0.10792071820E+04  0.11432343786E+04  0.12500048419E+03 0.  0.
          2    1    1    2  501    0 -0.13659491186E+03  0.13120483292E+03 -0.28027488828E+03  0.33827044081E+03  0.00000000000E+00 0. -1.
          1    1    1    2  502    0 -0.20119748484E+03 -0.24331138223E+03  0.14518138609E+04  0.14857470657E+04  0.00000000000E+00 0. -1.
         22    1    3    3    0    0  0.20758667539E+03  0.74429315130E+02  0.47049263508E+03  0.51961069120E+03  0.00000000000E+00 0.  1.
         22    1    3    3    0    0  0.13020572131E+03  0.37677234184E+02  0.60871454692E+03  0.62362368739E+03  0.00000000000E+00 0.  1.
</event>
<event>
 7    1  0.7802682E-006  0.4739232E+02  0.7818608E-02  0.1495341E+00
          2   -1    0    0  502    0  0.00000000000E+00  0.00000000000E+00  0.14607251719E+03  0.14607251719E+03  0.00000000000E+00 0. -1.
          1   -1    0    0  501    0 -0.00000000000E+00 -0.00000000000E+00 -0.14985041654E+03  0.14985041654E+03  0.00000000000E+00 0. -1.
         25    2    1    2    0    0  0.65987727482E+01 -0.33425942912E+02 -0.11384371544E+01  0.12951442123E+03  0.12494739616E+03 0.  0.
          2    1    1    2  501    0  0.29553419656E+02  0.40688267373E+02 -0.72018768454E+02  0.87838731348E+02  0.00000000000E+00 0. -1.
          1    1    1    2  502    0 -0.36152192405E+02 -0.72623244608E+01  0.69379306262E+02  0.78569781148E+02  0.00000000000E+00 0. -1.
         22    1    3    3    0    0  0.68521889904E+01  0.20879700658E+02  0.50189811339E+02  0.54789885525E+02  0.00000000000E+00 0.  1.
         22    1    3    3    0    0 -0.25341624215E+00 -0.54305643570E+02 -0.51328248494E+02  0.74724535708E+02  0.00000000000E+00 0.  1.
</event>
<event>
 7    1  0.7802682E-006  0.5764180E+02  0.7818608E-02  0.1455670E+00
          2   -1    0    0  502    0  0.00000000000E+00  0.00000000000E+00  0.24515063441E+03  0.24515063441E+03  0.00000000000E+00 0. -1.
          1   -1    0    0  501    0 -0.00000000000E+00 -0.00000000000E+00 -0.95013744183E+03  0.95013744183E+03  0.00000000000E+00 0. -1.
         25    2    1    2    0    0  0.17893761515E+02 -0.11787666990E+02 -0.25260872322E+03  0.28265585461E+03  0.12499611716E+03 0.  0.
          2    1    1    2  501    0 -0.43238688609E+02  0.42985842905E+02 -0.67937426708E+03  0.68210465594E+03  0.00000000000E+00 0. -1.
          1    1    1    2  502    0  0.25344927094E+02 -0.31198175915E+02  0.22699618287E+03  0.23052756570E+03  0.00000000000E+00 0. -1.
         22    1    3    3    0    0  0.52946340947E+02 -0.22102993151E+02 -0.23535631482E+03  0.24224874046E+03  0.00000000000E+00 0.  1.
         22    1    3    3    0    0 -0.35052579432E+02  0.10315326161E+02 -0.17252408396E+02  0.40407114152E+02  0.00000000000E+00 0.  1.
</event>
<event>
 7    1  0.7802682E-006  0.5388323E+03  0.7818608E-02  0.1203739E+00
          2   -1    0    0  502    0  0.00000000000E+00  0.00000000000E+00  0.57635202145E+03  0.57635202145E+03  0.00000000000E+00 0. -1.
          1   -1    0    0  501    0 -0.00000000000E+00 -0.00000000000E+00 -0.10223870254E+04  0.10223870254E+04  0.00000000000E+00 0. -1.
         25    2    1    2    0    0  0.46980760558E+03 -0.21869646184E+03  0.92680702621E+02  0.54107978002E+03  0.12502114633E+03 0.  0.
          2    1    1    2  501    0 -0.50638294128E+03  0.20175794893E+03 -0.70239258419E+03  0.88909239987E+03  0.00000000000E+00 0. -1.
          1    1    1    2  502    0  0.36575335698E+02  0.16938512905E+02  0.16367687757E+03  0.16856686701E+03  0.00000000000E+00 0. -1.
         22    1    3    3    0    0  0.18283207951E+02  0.94378967161E+01  0.22267238814E+02  0.30317973412E+02  0.00000000000E+00 0. -1.
         22    1    3    3    0    0  0.45152439763E+03 -0.22813435855E+03  0.70413463807E+02  0.51076180661E+03  0.00000000000E+00 0. -1.
</event>
<event>
 7    1  0.7802682E-006  0.4280692E+02  0.7818608E-02  0.1543266E+00
          2   -1    0    0  502    0  0.00000000000E+00  0.00000000000E+00  0.81350456383E+03  0.81350456383E+03  0.00000000000E+00 0. -1.
          1   -1    0    0  501    0 -0.00000000000E+00 -0.00000000000E+00 -0.16098448296E+03  0.16098448296E+03  0.00000000000E+00 0. -1.
         25    2    1    2    0    0  0.34496901836E+02 -0.60366935687E+02 -0.16702785606E+01  0.14304496676E+03  0.12499947809E+03 0.  0.
          2    1    1    2  501    0 -0.25554944985E+02  0.32129071810E+02 -0.83559672708E+02  0.93099685132E+02  0.00000000000E+00 0. -1.
          1    1    1    2  502    0 -0.89419568511E+01  0.28237863877E+02  0.73775003214E+03  0.73834439490E+03  0.00000000000E+00 0. -1.
         22    1    3    3    0    0  0.45494298005E+02  0.28280586574E+02  0.24390286171E+01  0.53623423879E+02  0.00000000000E+00 0. -1.
         22    1    3    3    0    0 -0.10997396169E+02 -0.88647522260E+02 -0.41093071777E+01  0.89421542879E+02  0.00000000000E+00 0. -1.
</event>
<event>
 7    1  0.7802682E-006  0.5486800E+02  0.7818608E-02  0.1422042E+00
          2   -1    0    0  502    0  0.00000000000E+00  0.00000000000E+00  0.28886276338E+04  0.28886276338E+04  0.00000000000E+00 0. -1.
          1   -1    0    0  501    0 -0.00000000000E+00 -0.00000000000E+00 -0.69470189480E+02  0.69470189480E+02  0.00000000000E+00 0. -1.
         25    2    1    2    0    0  0.29433840153E+02  0.60859255226E+02  0.17082600796E+03  0.22220899493E+03  0.12500045016E+03 0.  0.
          2    1    1    2  501    0 -0.53142760627E+02 -0.11227267960E+02 -0.26539186779E+02  0.60452733502E+02  0.00000000000E+00 0. -1.
          1    1    1    2  502    0  0.23708920475E+02 -0.49631987267E+02  0.26748706231E+04  0.26754360948E+04  0.00000000000E+00 0. -1.
         22    1    3    3    0    0  0.17606013552E+02  0.88177777161E+02  0.17013143192E+03  0.19243179630E+03  0.00000000000E+00 0. -1.
         22    1    3    3    0    0  0.11827826601E+02 -0.27318521934E+02  0.69457603831E+00  0.29777198636E+02  0.00000000000E+00 0. -1.
</event>
<event>
 7    1  0.7802682E-006  0.5159901E+02  0.7818608E-02  0.1496460E+00
          2   -1    0    0  502    0  0.00000000000E+00  0.00000000000E+00  0.69285400895E+03  0.69285400895E+03  0.00000000000E+00 0. -1.
          1   -1    0    0  501    0 -0.00000000000E+00 -0.00000000000E+00 -0.13207802677E+04  0.13207802677E+04  0.00000000000E+00 0. -1.
         25    2    1    2    0    0 -0.82254817679E+02 -0.17936654414E+02 -0.11722929122E+03  0.19093364698E+03  0.12500148889E+03 0.  0.
          2    1    1    2  501    0  0.48746463640E+02  0.15359314283E+02 -0.11657080679E+04  0.11668279332E+04  0.00000000000E+00 0. -1.
          1    1    1    2  502    0  0.33508354040E+02  0.25773401309E+01  0.65501110031E+03  0.65587269649E+03  0.00000000000E+00 0. -1.
         22    1    3    3    0    0 -0.24695914509E+00  0.39142538090E+02 -0.70482208189E+02  0.80622211258E+02  0.00000000000E+00 0. -1.
         22    1    3    3    0    0 -0.82007858534E+02 -0.57079192504E+02 -0.46747083034E+02  0.11031143572E+03  0.00000000000E+00 0. -1.
</event>
<event>
 7    1  0.7802682E-006  0.7060376E+02  0.7818608E-02  0.1479936E+00
          2   -1    0    0  502    0  0.00000000000E+00  0.00000000000E+00  0.21662693096E+03  0.21662693096E+03  0.00000000000E+00 0. -1.
          1   -1    0    0  501    0 -0.00000000000E+00 -0.00000000000E+00 -0.68296039409E+03  0.68296039409E+03  0.00000000000E+00 0. -1.
         25    2    1    2    0    0  0.44746460489E+01 -0.65770678164E+02 -0.33449970409E+03  0.36312499466E+03  0.12499562052E+03 0.  0.
          2    1    1    2  501    0  0.27442843503E+02  0.25976889869E+01 -0.32736069376E+03  0.32851922542E+03  0.00000000000E+00 0. -1.
          1    1    1    2  502    0 -0.31917489552E+02  0.63172989177E+02  0.19552693473E+03  0.20794310497E+03  0.00000000000E+00 0. -1.
         22    1    3    3    0    0 -0.48563607572E+02 -0.11492155289E+02 -0.22118664028E+03  0.22674660627E+03  0.00000000000E+00 0. -1.
         22    1    3    3    0    0  0.53038253621E+02 -0.54278522874E+02 -0.11331306380E+03  0.13637838840E+03  0.00000000000E+00 0. -1.
</event>
<event>
 7    1  0.7802682E-006  0.6487399E+02  0.7818608E-02  0.1407168E+00
          2   -1    0    0  502    0  0.00000000000E+00  0.00000000000E+00  0.28979751196E+03  0.28979751196E+03  0.00000000000E+00 0. -1.
          1   -1    0    0  501    0 -0.00000000000E+00 -0.00000000000E+00 -0.37080469044E+03  0.37080469044E+03  0.00000000000E+00 0. -1.
         25    2    1    2    0    0  0.16724339778E+02 -0.51875374935E+01  0.12284093718E+02  0.12681725281E+03  0.12500041026E+03 0.  0.
          2    1    1    2  501    0 -0.67237200685E+02 -0.51101611765E+01 -0.30680916767E+03  0.31413185173E+03  0.00000000000E+00 0. -1.
          1    1    1    2  502    0  0.50512860907E+02  0.10297698670E+02  0.21351789547E+03  0.21965309787E+03  0.00000000000E+00 0. -1.
         22    1    3    3    0    0 -0.25994797139E+02  0.11492451521E+02 -0.45131060188E+02  0.53334965210E+02  0.00000000000E+00 0.  1.
         22    1    3    3    0    0  0.42719136917E+02 -0.16679989014E+02  0.57415153906E+02  0.73482287597E+02  0.00000000000E+00 0.  1.
</event>
<event>
 7    1  0.7802682E-006  0.3917770E+02  0.7818608E-02  0.1524983E+00
          2   -1    0    0  502    0  0.00000000000E+00  0.00000000000E+00  0.14867437565E+03  0.14867437565E+03  0.00000000000E+00 0. -1.
          1   -1    0    0  501    0 -0.00000000000E+00 -0.00000000000E+00 -0.16623175211E+04  0.16623175211E+04  0.00000000000E+00 0. -1.
         25    2    1    2    0    0 -0.37629779664E+02 -0.62794455268E+02 -0.26834124504E+03  0.30494690750E+03  0.12500579456E+03 0.  0.
          2    1    1    2  501    0  0.10555879600E+02  0.34927983774E+02 -0.13725309064E+04  0.13730158337E+04  0.00000000000E+00 0. -1.
          1    1    1    2  502    0  0.27073900064E+02  0.27866471494E+02  0.12722900591E+03  0.13302915561E+03  0.00000000000E+00 0. -1.
         22    1    3    3    0    0 -0.98051362652E+01  0.16386561012E+02  0.43899981296E+01  0.19594186958E+02  0.00000000000E+00 0. -1.
         22    1    3    3    0    0 -0.27824643399E+02 -0.79181016280E+02 -0.27273124317E+03  0.28535272054E+03  0.00000000000E+00 0. -1.
</event>
<event>
 7    1  0.7802682E-006  0.1819285E+03  0.7818608E-02  0.1230770E+00
          2   -1    0    0  502    0  0.00000000000E+00  0.00000000000E+00  0.91171497660E+03  0.91171497660E+03  0.00000000000E+00 0. -1.
          1   -1    0    0  501    0 -0.00000000000E+00 -0.00000000000E+00 -0.24416919866E+04  0.24416919866E+04  0.00000000000E+00 0. -1.
         25    2    1    2    0    0 -0.11050051505E+03 -0.10581895217E+02  0.10624770557E+03  0.19808142175E+03  0.12500133747E+03 0.  0.
          2    1    1    2  501    0  0.16416123232E+03  0.82541776983E+02 -0.23895836233E+04  0.23966376339E+04  0.00000000000E+00 0. -1.
          1    1    1    2  502    0 -0.53660717266E+02 -0.71959881765E+02  0.75335890779E+03  0.75868790758E+03  0.00000000000E+00 0. -1.
         22    1    3    3    0    0 -0.85228923453E+02  0.34611425213E+02  0.15053059093E+02  0.93212202723E+02  0.00000000000E+00 0. -1.
         22    1    3    3    0    0 -0.25271591597E+02 -0.45193320431E+02  0.91194646472E+02  0.10486921902E+03  0.00000000000E+00 0. -1.
</event>
<event>
 7    1  0.7802682E-006  0.5378303E+03  0.7818608E-02  0.1105406E+00
          2   -1    0    0  502    0  0.00000000000E+00  0.00000000000E+00  0.16403435111E+04  0.16403435111E+04  0.00000000000E+00 0. -1.
          1   -1    0    0  501    0 -0.00000000000E+00 -0.00000000000E+00 -0.49279118531E+03  0.49279118531E+03  0.00000000000E+00 0. -1.
         25    2    1    2    0    0  0.50975678320E+03 -0.32388340670E+03  0.34450246001E+03  0.70644137922E+03  0.12500015268E+03 0.  0.
          2    1    1    2  501    0 -0.32039270322E+02  0.12446438975E+03 -0.23436513193E+03  0.26729181473E+03  0.00000000000E+00 0. -1.
          1    1    1    2  502    0 -0.47771751288E+03  0.19941901695E+03  0.10374149977E+04  0.11594015025E+04  0.00000000000E+00 0. -1.
         22    1    3    3    0    0  0.13949556610E+02  0.65490483413E+01 -0.43345896439E+01  0.16008398770E+02  0.00000000000E+00 0.  1.
         22    1    3    3    0    0  0.49580722659E+03 -0.33043245504E+03  0.34883704966E+03  0.69043298045E+03  0.00000000000E+00 0.  1.
</event>
<event>
 7    1  0.7802682E-006  0.6284233E+02  0.7818608E-02  0.1410523E+00
          2   -1    0    0  502    0  0.00000000000E+00  0.00000000000E+00  0.67177935833E+03  0.67177935833E+03  0.00000000000E+00 0. -1.
          1   -1    0    0  501    0 -0.00000000000E+00 -0.00000000000E+00 -0.33342903677E+04  0.33342903677E+04  0.00000000000E+00 0. -1.
         25    2    1    2    0    0 -0.89537104741E+02 -0.43403552501E+02  0.40748609870E+03  0.43768827650E+03  0.12500138101E+03 0.  0.
          2    1    1    2  501    0  0.33412403071E+02  0.39637025787E+02 -0.33158096551E+04  0.33162148832E+04  0.00000000000E+00 0. -1.
          1    1    1    2  502    0  0.56124701670E+02  0.37665267146E+01  0.24581254708E+03  0.25216656631E+03  0.00000000000E+00 0. -1.
         22    1    3    3    0    0 -0.43040012779E+02  0.40826985794E+02  0.10925674589E+03  0.12432345712E+03  0.00000000000E+00 0.  1.
         22    1    3    3    0    0 -0.46497091962E+02 -0.84230538295E+02  0.29822935282E+03  0.31336481938E+03  0.00000000000E+00 0.  1.
</event>
<event>
 7    1  0.7802682E-006  0.6322956E+02  0.7818608E-02  0.1462896E+00
          2   -1    0    0  502    0  0.00000000000E+00  0.00000000000E+00  0.27566762947E+02  0.27566762947E+02  0.00000000000E+00 0. -1.
          1   -1    0    0  501    0 -0.00000000000E+00 -0.00000000000E+00 -0.28614298873E+04  0.28614298873E+04  0.00000000000E+00 0. -1.
         25    2    1    2    0    0 -0.36419115972E+01  0.34406124163E+02 -0.94279184061E+03  0.95167074687E+03  0.12499484320E+03 0.  0.
          2    1    1    2  501    0 -0.25932388929E+02  0.23158339676E+02 -0.18684435747E+04  0.18687670239E+04  0.00000000000E+00 0. -1.
          1    1    1    2  502    0  0.29574300526E+02 -0.57564463839E+02 -0.22627709039E+02  0.68558879549E+02  0.00000000000E+00 0. -1.
         22    1    3    3    0    0  0.14197646136E+01  0.72094300332E+02 -0.33413336708E+03  0.34182555619E+03  0.00000000000E+00 0.  1.
         22    1    3    3    0    0 -0.50616762108E+01 -0.37688176169E+02 -0.60865847354E+03  0.60984519068E+03  0.00000000000E+00 0.  1.
</event>
<event>
 7    1  0.7802682E-006  0.7955996E+02  0.7818608E-02  0.1377785E+00
          2   -1    0    0  502    0  0.00000000000E+00  0.00000000000E+00  0.98376516105E+01  0.98376516105E+01  0.00000000000E+00 0. -1.
          1   -1    0    0  501    0 -0.00000000000E+00 -0.00000000000E+00 -0.31819703460E+04  0.31819703460E+04  0.00000000000E+00 0. -1.
         25    2    1    2    0    0 -0.46919859153E+02  0.85635661061E+02 -0.11493768356E+04  0.11602701032E+04  0.12499865006E+03 0.  0.
          2    1    1    2  501    0 -0.21083691844E+02 -0.48828152750E+02 -0.16494672055E+04  0.16503244446E+04  0.00000000000E+00 0. -1.
          1    1    1    2  502    0  0.68003550997E+02 -0.36807508310E+02 -0.37328865328E+03  0.38121344977E+03  0.00000000000E+00 0. -1.
         22    1    3    3    0    0 -0.59078565163E+02 -0.87196822681E+01 -0.57186952613E+03  0.57497918626E+03  0.00000000000E+00 0.  1.
         22    1    3    3    0    0  0.12158706010E+02  0.94355343329E+02 -0.57750730946E+03  0.58529091692E+03  0.00000000000E+00 0.  1.
</event>
<event>
 7    1  0.7802682E-006  0.1043246E+03  0.7818608E-02  0.1313019E+00
          2   -1    0    0  502    0  0.00000000000E+00  0.00000000000E+00  0.37294932920E+03  0.37294932920E+03  0.00000000000E+00 0. -1.
          1   -1    0    0  501    0 -0.00000000000E+00 -0.00000000000E+00 -0.26276624914E+03  0.26276624914E+03  0.00000000000E+00 0. -1.
         25    2    1    2    0    0  0.10759620777E+03 -0.32327806297E+02 -0.34187757315E+02  0.17150905011E+03  0.12499808212E+03 0.  0.
          2    1    1    2  501    0 -0.46244137801E+02 -0.53581991174E+02 -0.14218288386E+03  0.15882544671E+03  0.00000000000E+00 0. -1.
          1    1    1    2  502    0 -0.61352069965E+02  0.85909797471E+02  0.28655372124E+03  0.30538108151E+03  0.00000000000E+00 0. -1.
         22    1    3    3    0    0 -0.15643942855E+02 -0.73143960589E+01  0.26694407329E+02  0.31793469776E+02  0.00000000000E+00 0.  1.
         22    1    3    3    0    0  0.12324015062E+03 -0.25013410238E+02 -0.60882164644E+02  0.13971558034E+03  0.00000000000E+00 0.  1.
</event>
<event>
 7    1  0.7802682E-006  0.9724772E+02  0.7818608E-02  0.1299528E+00
          2   -1    0    0  502    0  0.00000000000E+00  0.00000000000E+00  0.30697052443E+04  0.30697052443E+04  0.00000000000E+00 0. -1.
          1   -1    0    0  501    0 -0.00000000000E+00 -0.00000000000E+00 -0.39684740442E+03  0.39684740442E+03  0.00000000000E+00 0. -1.
         25    2    1    2    0    0 -0.13188117600E+03 -0.88863035380E+02  0.34190286418E+03  0.39725452648E+03  0.12499722649E+03 0.  0.
          2    1    1    2  501    0  0.85742861868E+02  0.48326810149E+01 -0.36331314082E+03  0.37332510157E+03  0.00000000000E+00 0. -1.
          1    1    1    2  502    0  0.46138314128E+02  0.84030354365E+02  0.26942681165E+04  0.26959730207E+04  0.00000000000E+00 0. -1.
         22    1    3    3    0    0 -0.75952407827E+02 -0.11115218814E+03  0.28116638015E+03  0.31173403810E+03  0.00000000000E+00 0.  1.
         22    1    3    3    0    0 -0.55928768169E+02  0.22289152761E+02  0.60736484033E+02  0.85520488378E+02  0.00000000000E+00 0.  1.
</event>
<event>
 7    1  0.7802682E-006  0.7553890E+02  0.7818608E-02  0.1379518E+00
          2   -1    0    0  502    0  0.00000000000E+00  0.00000000000E+00  0.11304514774E+03  0.11304514774E+03  0.00000000000E+00 0. -1.
          1   -1    0    0  501    0 -0.00000000000E+00 -0.00000000000E+00 -0.18199999546E+04  0.18199999546E+04  0.00000000000E+00 0. -1.
         25    2    1    2    0    0  0.21235637697E+02  0.55358917979E+01 -0.10403314895E+04  0.10480448395E+04  0.12500711629E+03 0.  0.
          2    1    1    2  501    0 -0.47112208812E+02  0.65432607440E+02 -0.76035530900E+03  0.76461832456E+03  0.00000000000E+00 0. -1.
          1    1    1    2  502    0  0.25876571115E+02 -0.70968499238E+02  0.93731991619E+02  0.12038193830E+03  0.00000000000E+00 0. -1.
         22    1    3    3    0    0  0.64663215989E+02  0.31398983981E+02 -0.46834348567E+03  0.47382786777E+03  0.00000000000E+00 0.  1.
         22    1    3    3    0    0 -0.43427578293E+02 -0.25863092183E+02 -0.57198800379E+03  0.57421697169E+03  0.00000000000E+00 0.  1.
</event>
<event>
 7    1  0.7802682E-006  0.6174553E+02  0.7818608E-02  0.1496434E+00
          2   -1    0    0  502    0  0.00000000000E+00  0.00000000000E+00  0.66685633530E+02  0.66685633530E+02  0.00000000000E+00 0. -1.
          1   -1    0    0  501    0 -0.00000000000E+00 -0.00000000000E+00 -0.21704160124E+03  0.21704160124E+03  0.00000000000E+00 0. -1.
         25    2    1    2    0    0  0.51332943343E+02  0.23859487631E+02 -0.12118554789E+03  0.18307247179E+03  0.12500098675E+03 0.  0.
          2    1    1    2  501    0 -0.44975052825E+02 -0.51220357083E+02 -0.22531735156E+02  0.71791081936E+02  0.00000000000E+00 0. -1.
          1    1    1    2  502    0 -0.63578905176E+01  0.27360869452E+02 -0.66386846593E+01  0.28863681037E+02  0.00000000000E+00 0. -1.
         22    1    3    3    0    0 -0.81279863149E+01 -0.17897098667E+01  0.23298366827E+02  0.24740273235E+02  0.00000000000E+00 0. -1.
         22    1    3    3    0    0  0.59460929657E+02  0.25649197497E+02 -0.14448391472E+03  0.15833219856E+03  0.00000000000E+00 0. -1.
</event>
<event>
 7    1  0.7802682E-006  0.3213530E+02  0.7818608E-02  0.1584564E+00
          2   -1    0    0  502    0  0.00000000000E+00  0.00000000000E+00  0.42717911747E+03  0.42717911747E+03  0.00000000000E+00 0. -1.
          1   -1    0    0  501    0 -0.00000000000E+00 -0.00000000000E+00 -0.91391785034E+02  0.91391785034E+02  0.00000000000E+00 0. -1.
         25    2    1    2    0    0  0.47487443420E+02 -0.39533149944E+02  0.55523971873E+02  0.15008586489E+03  0.12499971265E+03 0.  0.
          2    1    1    2  501    0 -0.21428440092E+02  0.21575644471E+02 -0.37990394978E+02  0.48661654202E+02  0.00000000000E+00 0. -1.
          1    1    1    2  502    0 -0.26059003328E+02  0.17957505473E+02  0.31825375554E+03  0.31982338341E+03  0.00000000000E+00 0. -1.
         22    1    3    3    0    0 -0.31164387980E+02  0.16151600049E+02  0.38721841081E+02  0.52263507718E+02  0.00000000000E+00 0. -1.
         22    1    3    3    0    0  0.78651831400E+02 -0.55684749994E+02  0.16802130792E+02  0.97822357177E+02  0.00000000000E+00 0. -1.
</event>
<event>
 7    1  0.7802682E-006  0.1454569E+03  0.7818608E-02  0.1343888E+00
          2   -1    0    0  502    0  0.00000000000E+00  0.00000000000E+00  0.98952873210E+03  0.98952873210E+03  0.00000000000E+00 0. -1.
          1   -1    0    0  501    0 -0.00000000000E+00 -0.00000000000E+00 -0.57952502420E+03  0.57952502420E+03  0.00000000000E+00 0. -1.
         25    2    1    2    0    0  0.87611531465E+02 -0.13565097625E+03 -0.46514960002E+02  0.20943900717E+03  0.12499635361E+03 0.  0.
          2    1    1    2  501    0 -0.48949861515E+02  0.13510993190E+03 -0.43968730402E+03  0.46257508359E+03  0.00000000000E+00 0. -1.
          1    1    1    2  502    0 -0.38661669950E+02  0.54104434800E+00  0.89620597192E+03  0.89703966554E+03  0.00000000000E+00 0. -1.
         22    1    3    3    0    0  0.11644377641E+03 -0.12022552068E+03 -0.54050126522E+02  0.17588275943E+03  0.00000000000E+00 0.  1.
         22    1    3    3    0    0 -0.28832244943E+02 -0.15425455569E+02  0.75351665208E+01  0.33556247741E+02  0.00000000000E+00 0.  1.
</event>
<event>
 7    1  0.7802682E-006  0.1376302E+03  0.7818608E-02  0.1337784E+00
          2   -1    0    0  502    0  0.00000000000E+00  0.00000000000E+00  0.18418831692E+04  0.18418831692E+04  0.00000000000E+00 0. -1.
          1   -1    0    0  501    0 -0.00000000000E+00 -0.00000000000E+00 -0.57029903752E+02  0.57029903752E+02  0.00000000000E+00 0. -1.
         25    2    1    2    0    0  0.12248957650E+03 -0.64111706201E+02  0.50849949845E+03  0.54158114252E+03  0.12499754711E+03 0.  0.
          2    1    1    2  501    0 -0.25302469733E+02 -0.34866982692E+02 -0.24192764994E+02  0.49408615996E+02  0.00000000000E+00 0. -1.
          1    1    1    2  502    0 -0.97187106763E+02  0.98978688893E+02  0.13005465320E+04  0.13079233144E+04  0.00000000000E+00 0. -1.
         22    1    3    3    0    0  0.84340102420E+02 -0.31814952670E+02  0.46979110245E+03  0.47836087218E+03  0.00000000000E+00 0.  1.
         22    1    3    3    0    0  0.38149474076E+02 -0.32296753531E+02  0.38708396002E+02  0.63220270340E+02  0.00000000000E+00 0.  1.
</event>
<event>
 7    1  0.7802682E-006  0.2861347E+03  0.7818608E-02  0.1232516E+00
          2   -1    0    0  502    0  0.00000000000E+00  0.00000000000E+00  0.54931706482E+03  0.54931706482E+03  0.00000000000E+00 0. -1.
          1   -1    0    0  501    0 -0.00000000000E+00 -0.00000000000E+00 -0.21374620033E+04  0.21374620033E+04  0.00000000000E+00 0. -1.
         25    2    1    2    0    0 -0.82711006872E+02  0.29010103471E+03 -0.15994791879E+04  0.16324716232E+04  0.12502082549E+03 0.  0.
          2    1    1    2  501    0  0.10067434936E+03 -0.23700087944E+03 -0.48803610406E+03  0.55180067084E+03  0.00000000000E+00 0. -1.
          1    1    1    2  502    0 -0.17963342493E+02 -0.53100155275E+02  0.49937035347E+03  0.50250677417E+03  0.00000000000E+00 0. -1.
         22    1    3    3    0    0 -0.23153449877E+02  0.89510393273E+01 -0.32708518097E+03  0.32802579008E+03  0.00000000000E+00 0.  1.
         22    1    3    3    0    0 -0.59557556994E+02  0.28114999538E+03 -0.12723940070E+04  0.13044458331E+04  0.00000000000E+00 0.  1.
</event>
<event>
 7    1  0.7802682E-006  0.6988198E+02  0.7818608E-02  0.1387975E+00
          2   -1    0    0  502    0  0.00000000000E+00  0.00000000000E+00  0.13290034846E+04  0.13290034846E+04  0.00000000000E+00 0. -1.
          1   -1    0    0  501    0 -0.00000000000E+00 -0.00000000000E+00 -0.18552294657E+04  0.18552294657E+04  0.00000000000E+00 0. -1.
         25    2    1    2    0    0 -0.42785734427E+02 -0.51423725370E+02 -0.92451517937E+02  0.16927340380E+03  0.12502473140E+03 0.  0.
          2    1    1    2  501    0 -0.98954153454E+01  0.69643311672E+02 -0.17230471336E+04  0.17244823961E+04  0.00000000000E+00 0. -1.
          1    1    1    2  502    0  0.52681149772E+02 -0.18219586302E+02  0.12892726704E+04  0.12904771503E+04  0.00000000000E+00 0. -1.
         22    1    3    3    0    0 -0.83472633087E+02 -0.44978446499E+02 -0.85141630198E+02  0.12743562421E+03  0.00000000000E+00 0. -1.
         22    1    3    3    0    0  0.40686898661E+02 -0.64452788713E+01 -0.73098877387E+01  0.41837779591E+02  0.00000000000E+00 0. -1.
</event>
<event>
 7    1  0.7802682E-006  0.2181903E+03  0.7818608E-02  0.1320432E+00
          2   -1    0    0  502    0  0.00000000000E+00  0.00000000000E+00  0.15192875959E+04  0.15192875959E+04  0.00000000000E+00 0. -1.
          1   -1    0    0  501    0 -0.00000000000E+00 -0.00000000000E+00 -0.14963666819E+04  0.14963666819E+04  0.00000000000E+00 0. -1.
         25    2    1    2    0    0 -0.22574061738E+03  0.88355127863E+02 -0.35834760170E+03  0.45033728556E+03  0.12500084867E+03 0.  0.
          2    1    1    2  501    0  0.19409975569E+03 -0.87187564751E+02 -0.10814860500E+04  0.11022197888E+04  0.00000000000E+00 0. -1.
          1    1    1    2  502    0  0.31640861687E+02 -0.11675631119E+01  0.14627545657E+04  0.14630972035E+04  0.00000000000E+00 0. -1.
         22    1    3    3    0    0 -0.12023381681E+03 -0.19284375393E+02 -0.15056213592E+03  0.19364145892E+03  0.00000000000E+00 0.  1.
         22    1    3    3    0    0 -0.10550680057E+03  0.10763950326E+03 -0.20778546578E+03  0.25669582665E+03  0.00000000000E+00 0.  1.
</event>
<event>
 7    1  0.7802682E-006  0.7132127E+02  0.7818608E-02  0.1376240E+00
          2   -1    0    0  502    0  0.00000000000E+00  0.00000000000E+00  0.60190117517E+03  0.60190117517E+03  0.00000000000E+00 0. -1.
          1   -1    0    0  501    0 -0.00000000000E+00 -0.00000000000E+00 -0.18576200975E+03  0.18576200975E+03  0.00000000000E+00 0. -1.
         25    2    1    2    0    0  0.21104848269E+02  0.25742087224E+02 -0.64223548708E+02  0.14442325354E+03  0.12500136911E+03 0.  0.
          2    1    1    2  501    0 -0.40893507413E+02  0.44022079486E+02 -0.67632459240E+02  0.90467518888E+02  0.00000000000E+00 0. -1.
          1    1    1    2  502    0  0.19788659144E+02 -0.69764166710E+02  0.54799517336E+03  0.55277241250E+03  0.00000000000E+00 0. -1.
         22    1    3    3    0    0 -0.63327610453E+01  0.38054668374E+02 -0.94302917264E+02  0.10188867382E+03  0.00000000000E+00 0. -1.
         22    1    3    3    0    0  0.27437609314E+02 -0.12312581150E+02  0.30079368556E+02  0.42534579723E+02  0.00000000000E+00 0. -1.
</event>
<event>
 7    1  0.7802682E-006  0.2870139E+02  0.7818608E-02  0.1630248E+00
          2   -1    0    0  502    0  0.00000000000E+00  0.00000000000E+00  0.23460900625E+02  0.23460900625E+02  0.00000000000E+00 0. -1.
          1   -1    0    0  501    0 -0.00000000000E+00 -0.00000000000E+00 -0.87606610676E+03  0.87606610676E+03  0.00000000000E+00 0. -1.
         25    2    1    2    0    0 -0.37624257533E+02 -0.34508795156E+02 -0.62935461822E+03  0.64367579208E+03  0.12499939253E+03 0.  0.
          2    1    1    2  501    0  0.15072199047E+02  0.21709876508E+02 -0.22796791728E+03  0.22949479565E+03  0.00000000000E+00 0. -1.
          1    1    1    2  502    0  0.22552058487E+02  0.12798918648E+02  0.47173293683E+01  0.26356419653E+02  0.00000000000E+00 0. -1.
         22    1    3    3    0    0 -0.74794260697E+02 -0.16806572463E+02 -0.53849102422E+03  0.54392023815E+03  0.00000000000E+00 0.  1.
         22    1    3    3    0    0  0.37170003164E+02 -0.17702222693E+02 -0.90863594005E+02  0.99755553926E+02  0.00000000000E+00 0.  1.
</event>
<event>
 7    1  0.7802682E-006  0.1694060E+03  0.7818608E-02  0.1322145E+00
          2   -1    0    0  502    0  0.00000000000E+00  0.00000000000E+00  0.29588365111E+04  0.29588365111E+04  0.00000000000E+00 0. -1.
          1   -1    0    0  501    0 -0.00000000000E+00 -0.00000000000E+00 -0.29941222179E+03  0.29941222179E+03  0.00000000000E+00 0. -1.
         25    2    1    2    0    0 -0.12430358907E+03 -0.67620871301E+02  0.28306419444E+03  0.34025495425E+03  0.12499652484E+03 0.  0.
          2    1    1    2  501    0  0.16269906337E+03  0.55840097058E+02 -0.24333270724E+03  0.29799313427E+03  0.00000000000E+00 0. -1.
          1    1    1    2  502    0 -0.38395474292E+02  0.11780774243E+02  0.26196928021E+04  0.26200006443E+04  0.00000000000E+00 0. -1.
         22    1    3    3    0    0 -0.21042567638E+02  0.20095845356E+02  0.31408452552E+01  0.29265979606E+02  0.00000000000E+00 0.  1.
         22    1    3    3    0    0 -0.10326102144E+03 -0.87716716658E+02  0.27992334918E+03  0.31098897464E+03  0.00000000000E+00 0.  1.
</event>
<event>
 7    1  0.7802682E-006  0.7617927E+02  0.7818608E-02  0.1392812E+00
          2   -1    0    0  502    0  0.00000000000E+00  0.00000000000E+00  0.93487166215E+03  0.93487166215E+03  0.00000000000E+00 0. -1.
          1   -1    0    0  501    0 -0.00000000000E+00 -0.00000000000E+00 -0.37275321104E+03  0.37275321104E+03  0.00000000000E+00 0. -1.
         25    2    1    2    0    0  0.89739930200E+02  0.58485576032E+02  0.55180576143E+03  0.57583718123E+03  0.12500017305E+03 0.  0.
          2    1    1    2  501    0 -0.49124541927E+02 -0.24657902894E+01 -0.35580503011E+03  0.35918869719E+03  0.00000000000E+00 0. -1.
          1    1    1    2  502    0 -0.40615388274E+02 -0.56019785743E+02  0.36611771979E+03  0.37259899477E+03  0.00000000000E+00 0. -1.
         22    1    3    3    0    0  0.54359645610E+02  0.94795811999E+02  0.30784914464E+03  0.32666850613E+03  0.00000000000E+00 0.  1.
         22    1    3    3    0    0  0.35380284591E+02 -0.36310235967E+02  0.24395661679E+03  0.24916867510E+03  0.00000000000E+00 0.  1.
</event>
<event>
 7    1  0.7802682E-006  0.1927788E+03  0.7818608E-02  0.1339653E+00
          2   -1    0    0  502    0  0.00000000000E+00  0.00000000000E+00  0.21623027590E+03  0.21623027590E+03  0.00000000000E+00 0. -1.
          1   -1    0    0  501    0 -0.00000000000E+00 -0.00000000000E+00 -0.24592805369E+04  0.24592805369E+04  0.00000000000E+00 0. -1.
         25    2    1    2    0    0 -0.73954122583E+02 -0.19529384350E+03 -0.10822198415E+02  0.24362449247E+03  0.12500750295E+03 0.  0.
          2    1    1    2  501    0  0.90246818033E+02  0.16979298953E+03 -0.23257012423E+04  0.23336367360E+04  0.00000000000E+00 0. -1.
          1    1    1    2  502    0 -0.16292695450E+02  0.25500853972E+02  0.93473179728E+02  0.98249584257E+02  0.00000000000E+00 0. -1.
         22    1    3    3    0    0 -0.32896155413E+02 -0.18273184590E+03  0.25465399598E+02  0.18740750018E+03  0.00000000000E+00 0. -1.
         22    1    3    3    0    0 -0.41057967170E+02 -0.12561997598E+02 -0.36287598012E+02  0.56216992283E+02  0.00000000000E+00 0. -1.
</event>
<event>
 7    1  0.7802682E-006  0.4878096E+02  0.7818608E-02  0.1492413E+00
          2   -1    0    0  502    0  0.00000000000E+00  0.00000000000E+00  0.72689387361E+03  0.72689387361E+03  0.00000000000E+00 0. -1.
          1   -1    0    0  501    0 -0.00000000000E+00 -0.00000000000E+00 -0.22228992716E+03  0.22228992716E+03  0.00000000000E+00 0. -1.
         25    2    1    2    0    0 -0.47293371399E+02  0.35591787638E+02  0.30912734554E+02  0.14171798548E+03  0.12499980770E+03 0.  0.
          2    1    1    2  501    0  0.48839842166E+02  0.93459062313E+00 -0.16277689551E+03  0.16994858444E+03  0.00000000000E+00 0. -1.
          1    1    1    2  502    0 -0.15464707664E+01 -0.36526378261E+02  0.63646810741E+03  0.63751723085E+03  0.00000000000E+00 0. -1.
         22    1    3    3    0    0 -0.64967048761E+02  0.95373519119E+01  0.67010715952E+02  0.93819585155E+02  0.00000000000E+00 0. -1.
         22    1    3    3    0    0  0.17673677362E+02  0.26054435726E+02 -0.36097981399E+02  0.47898400324E+02  0.00000000000E+00 0. -1.
</event>
<event>
 7    1  0.7802682E-006  0.9473467E+02  0.7818608E-02  0.1448246E+00
          2   -1    0    0  502    0  0.00000000000E+00  0.00000000000E+00  0.13852821935E+04  0.13852821935E+04  0.00000000000E+00 0. -1.
          1   -1    0    0  501    0 -0.00000000000E+00 -0.00000000000E+00 -0.56289908037E+03  0.56289908037E+03  0.00000000000E+00 0. -1.
         25    2    1    2    0    0  0.11487321914E+03  0.16013936148E+01  0.10176573955E+04  0.10317207561E+04  0.12499089140E+03 0.  0.
          2    1    1    2  501    0 -0.93325616814E+02 -0.15842264038E+02 -0.55136624183E+03  0.55943308868E+03  0.00000000000E+00 0. -1.
          1    1    1    2  502    0 -0.21547602328E+02  0.14240870423E+02  0.35609195940E+03  0.35702742907E+03  0.00000000000E+00 0. -1.
         22    1    3    3    0    0  0.77463153163E+02 -0.17713222090E+02  0.23775023235E+03  0.25067802321E+03  0.00000000000E+00 0. -1.
         22    1    3    3    0    0  0.37410065980E+02  0.19314615705E+02  0.77990716316E+03  0.78104273287E+03  0.00000000000E+00 0. -1.
</event>
<event>
 7    1  0.7802682E-006  0.1688165E+03  0.7818608E-02  0.1246344E+00
          2   -1    0    0  502    0  0.00000000000E+00  0.00000000000E+00  0.28442747450E+04  0.28442747450E+04  0.00000000000E+00 0. -1.
          1   -1    0    0  501    0 -0.00000000000E+00 -0.00000000000E+00 -0.70769707355E+03  0.70769707355E+03  0.00000000000E+00 0. -1.
         25    2    1    2    0    0 -0.54748366164E+02 -0.22828102679E+03 -0.59956597108E+02  0.27263766976E+03  0.12500757836E+03 0.  0.
          2    1    1    2  501    0  0.56290371704E+02  0.60387471005E+02 -0.53566078349E+03  0.54198498832E+03  0.00000000000E+00 0. -1.
          1    1    1    2  502    0 -0.15420055403E+01  0.16789355578E+03  0.27321950520E+04  0.27373491604E+04  0.00000000000E+00 0. -1.
         22    1    3    3    0    0 -0.54411486250E+01 -0.21301477844E+03 -0.37549448939E+02  0.21636742604E+03  0.00000000000E+00 0.  1.
         22    1    3    3    0    0 -0.49307217539E+02 -0.15266248341E+02 -0.22407148169E+02  0.56270243725E+02  0.00000000000E+00 0.  1.
</event>
<event>
 7    1  0.7802682E-006  0.4963552E+02  0.7818608E-02  0.1448323E+00
          2   -1    0    0  502    0  0.00000000000E+00  0.00000000000E+00  0.41321357722E+03  0.41321357722E+03  0.00000000000E+00 0. -1.
          1   -1    0    0  501    0 -0.00000000000E+00 -0.00000000000E+00 -0.12517404716E+04  0.12517404716E+04  0.00000000000E+00 0. -1.
         25    2    1    2    0    0 -0.57555254919E+01 -0.98119743217E+01 -0.78450675872E+03  0.79448438924E+03  0.12500075745E+03 0.  0.
          2    1    1    2  501    0 -0.40511395388E+02  0.28038640649E+02 -0.45940848166E+03  0.46204273779E+03  0.00000000000E+00 0. -1.
          1    1    1    2  502    0  0.46266920880E+02 -0.18226666328E+02  0.40538834602E+03  0.40842692177E+03  0.00000000000E+00 0. -1.
         22    1    3    3    0    0  0.45671569616E+02  0.12092335756E+02 -0.14420049533E+03  0.15174287367E+03  0.00000000000E+00 0.  1.
         22    1    3    3    0    0 -0.51427095108E+02 -0.21904310077E+02 -0.64030626339E+03  0.64274151558E+03  0.00000000000E+00 0.  1.
</event>
<event>
 7    1  0.7802682E-006  0.5726156E+02  0.7818608E-02  0.1523629E+00
          2   -1    0    0  502    0  0.00000000000E+00  0.00000000000E+00  0.11225943847E+04  0.11225943847E+04  0.00000000000E+00 0. -1.
          1   -1    0    0  501    0 -0.00000000000E+00 -0.00000000000E+00 -0.14883727168E+02  0.14883727168E+02  0.00000000000E+00 0. -1.
         25    2    1    2    0    0 -0.13651760675E+02 -0.49772143863E+02  0.66353851036E+03  0.67717935612E+03  0.12499955498E+03 0.  0.
          2    1    1    2  501    0 -0.24933500141E+02  0.35886921945E+01  0.20792206002E+02  0.32663036775E+02  0.00000000000E+00 0. -1.
          1    1    1    2  502    0  0.38585260816E+02  0.46183451668E+02  0.42337994117E+03  0.42763571898E+03  0.00000000000E+00 0. -1.
         22    1    3    3    0    0 -0.44949024351E+01  0.40201007398E+02  0.13396518283E+03  0.13993925594E+03  0.00000000000E+00 0.  1.
         22    1    3    3    0    0 -0.91568582400E+01 -0.89973151261E+02  0.52957332753E+03  0.53724010017E+03  0.00000000000E+00 0.  1.
</event>
<event>
 7    1  0.7802682E-006  0.9605929E+02  0.7818608E-02  0.1383239E+00
          2   -1    0    0  502    0  0.00000000000E+00  0.00000000000E+00  0.14001404434E+04  0.14001404434E+04  0.00000000000E+00 0. -1.
          1   -1    0    0  501    0 -0.00000000000E+00 -0.00000000000E+00 -0.64146142499E+03  0.64146142499E+03  0.00000000000E+00 0. -1.
         25    2    1    2    0    0  0.24807850357E+01 -0.10326276479E+03  0.21823075810E+03  0.27188086572E+03  0.12500075391E+03 0.  0.
          2    1    1    2  501    0  0.38798129658E+02  0.16434658409E+02 -0.61191010702E+03  0.61335908890E+03  0.00000000000E+00 0. -1.
          1    1    1    2  502    0 -0.41278914694E+02  0.86828106381E+02  0.11523583673E+04  0.11563619137E+04  0.00000000000E+00 0. -1.
         22    1    3    3    0    0 -0.12560397780E+01  0.50837677786E+01 -0.14349476047E+02  0.15275136450E+02  0.00000000000E+00 0.  1.
         22    1    3    3    0    0  0.37368248137E+01 -0.10834653257E+03  0.23258023414E+03  0.25660572927E+03  0.00000000000E+00 0.  1.
</event>
<event>
 7    1  0.7802682E-006  0.1109754E+03  0.7818608E-02  0.1347981E+00
          2   -1    0    0  502    0  0.00000000000E+00  0.00000000000E+00  0.38894684132E+02  0.38894684132E+02  0.00000000000E+00 0. -1.
          1   -1    0    0  501    0 -0.00000000000E+00 -0.00000000000E+00 -0.12348933007E+04  0.12348933007E+04  0.00000000000E+00 0. -1.
         25    2    1    2    0    0 -0.98898948261E+02  0.34570545201E+01 -0.73488842135E+03  0.75198384795E+03  0.12500305018E+03 0.  0.
          2    1    1    2  501    0 -0.24803319630E+01  0.48866831040E+02 -0.37675539618E+03  0.37991939642E+03  0.00000000000E+00 0. -1.
          1    1    1    2  502    0  0.10137928022E+03 -0.52323885560E+02 -0.84354799067E+02  0.14188474049E+03  0.00000000000E+00 0. -1.
         22    1    3    3    0    0 -0.27432907708E+02  0.30690501647E+02 -0.55484947636E+03  0.55637434587E+03  0.00000000000E+00 0. -1.
         22    1    3    3    0    0 -0.71466040553E+02 -0.27233447127E+02 -0.18003894498E+03  0.19560950208E+03  0.00000000000E+00 0. -1.
</event>
<event>
 7    1  0.7802682E-006  0.3011784E+03  0.7818608E-02  0.1200508E+00
          2   -1    0    0  502    0  0.00000000000E+00  0.00000000000E+00  0.16022504139E+04  0.16022504139E+04  0.00000000000E+00 0. -1.
          1   -1    0    0  501    0 -0.00000000000E+00 -0.00000000000E+00 -0.64047765903E+03  0.64047765903E+03  0.00000000000E+00 0. -1.
         25    2    1    2    0    0  0.21975117031E+03  0.24856509518E+03 -0.13102483126E+03  0.37797902804E+03  0.12500182333E+03 0.  0.
          2    1    1    2  501    0 -0.23095813228E+03 -0.17473232946E+03 -0.33053339501E+03  0.43946031793E+03  0.00000000000E+00 0. -1.
          1    1    1    2  502    0  0.11206961967E+02 -0.73832765720E+02  0.14233309812E+04  0.14252887270E+04  0.00000000000E+00 0. -1.
         22    1    3    3    0    0  0.12394263491E+02  0.18224115771E+02  0.23030188300E+02  0.31876727189E+02  0.00000000000E+00 0.  1.
         22    1    3    3    0    0  0.20735690682E+03  0.23034097941E+03 -0.15405501956E+03  0.34610230085E+03  0.00000000000E+00 0.  1.
</event>
<event>
 7    1  0.7802682E-006  0.1020829E+03  0.7818608E-02  0.1331641E+00
          2   -1    0    0  502    0  0.00000000000E+00  0.00000000000E+00  0.13260109607E+04  0.13260109607E+04  0.00000000000E+00 0. -1.
          1   -1    0    0  501    0 -0.00000000000E+00 -0.00000000000E+00 -0.41155063322E+03  0.41155063322E+03  0.00000000000E+00 0. -1.
         25    2    1    2    0    0 -0.14340369047E+03 -0.66887939798E+02  0.22685983967E+03  0.30352766057E+03  0.12500015576E+03 0.  0.
          2    1    1    2  501    0  0.49586108254E+02  0.36010874614E+02 -0.36838095465E+03  0.37344356063E+03  0.00000000000E+00 0. -1.
          1    1    1    2  502    0  0.93817582220E+02  0.30877065184E+02  0.10559814424E+04  0.10605903727E+04  0.00000000000E+00 0. -1.
         22    1    3    3    0    0 -0.40309396530E+02  0.43573018902E+01 -0.41093440737E+01  0.40751935379E+02  0.00000000000E+00 0. -1.
         22    1    3    3    0    0 -0.10309429394E+03 -0.71245241688E+02  0.23096918375E+03  0.26277572519E+03  0.00000000000E+00 0. -1.
</event>
<event>
 7    1  0.7802682E-006  0.4683443E+02  0.7818608E-02  0.1533417E+00
          2   -1    0    0  502    0  0.00000000000E+00  0.00000000000E+00  0.29355158957E+04  0.29355158957E+04  0.00000000000E+00 0. -1.
          1   -1    0    0  501    0 -0.00000000000E+00 -0.00000000000E+00 -0.79280005474E+02  0.79280005474E+02  0.00000000000E+00 0. -1.
         25    2    1    2    0    0  0.45156074252E+02 -0.19101772233E+02  0.31010522763E+03  0.33792595229E+03  0.12499899311E+03 0.  0.
          2    1    1    2  501    0  0.75164353875E+00  0.28859394265E+02 -0.61960816198E+02  0.68356216610E+02  0.00000000000E+00 0. -1.
          1    1    1    2  502    0 -0.45907717791E+02 -0.97576220316E+01  0.26080914788E+04  0.26085137323E+04  0.00000000000E+00 0. -1.
         22    1    3    3    0    0  0.36847171777E+02  0.48610837445E+02  0.19287429225E+03  0.20228994092E+03  0.00000000000E+00 0. -1.
         22    1    3    3    0    0  0.83089024748E+01 -0.67712609678E+02  0.11723093538E+03  0.13563601137E+03  0.00000000000E+00 0. -1.
</event>
<event>
 7    1  0.7802682E-006  0.4651484E+02  0.7818608E-02  0.1532363E+00
          2   -1    0    0  502    0  0.00000000000E+00  0.00000000000E+00  0.29800696349E+03  0.29800696349E+03  0.00000000000E+00 0. -1.
          1   -1    0    0  501    0 -0.00000000000E+00 -0.00000000000E+00 -0.85175135921E+03  0.85175135921E+03  0.00000000000E+00 0. -1.
         25    2    1    2    0    0 -0.10977825650E+02 -0.61872091765E+02 -0.41575119233E+02  0.14595087616E+03  0.12499799725E+03 0.  0.
          2    1    1    2  501    0 -0.16172319841E+02  0.24395987666E+02 -0.75552445973E+03  0.75609120971E+03  0.00000000000E+00 0. -1.
          1    1    1    2  502    0  0.27150145491E+02  0.37476104098E+02  0.24335518325E+03  0.24771623684E+03  0.00000000000E+00 0. -1.
         22    1    3    3    0    0  0.29709324531E+02 -0.31194167412E+02 -0.73947978186E+02  0.85580509010E+02  0.00000000000E+00 0. -1.
         22    1    3    3    0    0 -0.40687150181E+02 -0.30677924352E+02  0.32372858953E+02  0.60370367145E+02  0.00000000000E+00 0. -1.
</event>
<event>
 7    1  0.7802682E-006  0.4645625E+02  0.7818608E-02  0.1538180E+00
          2   -1    0    0  502    0  0.00000000000E+00  0.00000000000E+00  0.53796157778E+03  0.53796157778E+03  0.00000000000E+00 0. -1.
          1   -1    0    0  501    0 -0.00000000000E+00 -0.00000000000E+00 -0.14780682339E+03  0.14780682339E+03  0.00000000000E+00 0. -1.
         25    2    1    2    0    0 -0.30810249720E+02 -0.48303326212E+01  0.27250661520E+03  0.30142502276E+03  0.12499834166E+03 0.  0.
          2    1    1    2  501    0  0.33187291202E+02  0.32940875176E+02 -0.12841751175E+03  0.13666585118E+03  0.00000000000E+00 0. -1.
          1    1    1    2  502    0 -0.23770414814E+01 -0.28110542555E+02  0.24606565093E+03  0.24767752724E+03  0.00000000000E+00 0. -1.
         22    1    3    3    0    0 -0.77903090772E+01 -0.56745557972E+02  0.20676147762E+03  0.21454849310E+03  0.00000000000E+00 0.  1.
         22    1    3    3    0    0 -0.23019940643E+02  0.51915225350E+02  0.65745137585E+02  0.86876529664E+02  0.00000000000E+00 0.  1.
</event>
<event>
 7    1  0.7802682E-006  0.7718495E+02  0.7818608E-02  0.1352021E+00
          2   -1    0    0  502    0  0.00000000000E+00  0.00000000000E+00  0.15933309712E+04  0.15933309712E+04  0.00000000000E+00 0. -1.
          1   -1    0    0  501    0 -0.00000000000E+00 -0.00000000000E+00 -0.13594625551E+04  0.13594625551E+04  0.00000000000E+00 0. -1.
         25    2    1    2    0    0 -0.21114434700E+02  0.92861198542E+02  0.13671562642E+03  0.20829153017E+03  0.12500070995E+03 0.  0.
          2    1    1    2  501    0 -0.44360169806E+02 -0.51494731263E+02 -0.13217453849E+04  0.13234917433E+04  0.00000000000E+00 0. -1.
          1    1    1    2  502    0  0.65474604506E+02 -0.41366467279E+02  0.14188981747E+04  0.14210102528E+04  0.00000000000E+00 0. -1.
         22    1    3    3    0    0 -0.66871414504E+02  0.25331381626E+02  0.40611242834E+02  0.82235868192E+02  0.00000000000E+00 0. -1.
         22    1    3    3    0    0  0.45756979804E+02  0.67529816915E+02  0.96104383585E+02  0.12605566198E+03  0.00000000000E+00 0. -1.
</event>
<event>
 7    1  0.7802682E-006  0.1615571E+03  0.7818608E-02  0.1280936E+00
          2   -1    0    0  502    0  0.00000000000E+00  0.00000000000E+00  0.13155732803E+03  0.13155732803E+03  0.00000000000E+00 0. -1.
          1   -1    0    0  501    0 -0.00000000000E+00 -0.00000000000E+00 -0.14871137619E+04  0.14871137619E+04  0.00000000000E+00 0. -1.
         25    2    1    2    0    0 -0.11177727620E+03 -0.47128639211E+01 -0.10158579532E+03  0.19611501735E+03  0.12500022264E+03 0.  0.
          2    1    1    2  501    0  0.16263765527E+03  0.39327464351E+02 -0.13210105379E+04  0.13315654312E+04  0.00000000000E+00 0. -1.
          1    1    1    2  502    0 -0.50860379072E+02 -0.34614600430E+02  0.67039899312E+02  0.90990641399E+02  0.00000000000E+00 0. -1.
         22    1    3    3    0    0 -0.60578274215E+02 -0.42030912871E+02 -0.10976880868E+03  0.13223281099E+03  0.00000000000E+00 0.  1.
         22    1    3    3    0    0 -0.51199001983E+02  0.37318048950E+02  0.81830133644E+01  0.63882206359E+02  0.00000000000E+00 0.  1.
</event>
<event>
 7    1  0.7802682E-006  0.7356736E+02  0.7818608E-02  0.1351580E+00
          2   -1    0    0  502    0  0.00000000000E+00  0.00000000000E+00  0.15959579174E+04  0.15959579174E+04  0.00000000000E+00 0. -1.
          1   -1    0    0  501    0 -0.00000000000E+00 -0.00000000000E+00 -0.11598184277E+04  0.11598184277E+04  0.00000000000E+00 0. -1.
         25    2    1    2    0    0  0.24252268097E+02  0.11876444582E+03  0.19847406897E+03  0.26402718294E+03  0.12500092471E+03 0.  0.
          2    1    1    2  501    0  0.26628698559E+02 -0.68420876881E+02 -0.11249057867E+04  0.11272992206E+04  0.00000000000E+00 0. -1.
          1    1    1    2  502    0 -0.50880966656E+02 -0.50343568936E+02  0.13625712074E+04  0.13644499415E+04  0.00000000000E+00 0. -1.
         22    1    3    3    0    0  0.37588479543E+02  0.28039356847E+02  0.16886964795E+01  0.46924950959E+02  0.00000000000E+00 0.  1.
         22    1    3    3    0    0 -0.13336211446E+02  0.90725088970E+02  0.19678537249E+03  0.21710223198E+03  0.00000000000E+00 0.  1.
</event>
<event>
 7    1  0.7802682E-006  0.1153675E+03  0.7818608E-02  0.1395509E+00
          2   -1    0    0  502    0  0.00000000000E+00  0.00000000000E+00  0.44168251967E+03  0.44168251967E+03  0.00000000000E+00 0. -1.
          1   -1    0    0  501    0 -0.00000000000E+00 -0.00000000000E+00 -0.43151353815E+03  0.43151353815E+03  0.00000000000E+00 0. -1.
         25    2    1    2    0    0  0.13615541393E+03  0.20045565667E+02  0.10283646650E+03  0.21245932710E+03  0.12499402140E+03 0.  0.
          2    1    1    2  501    0 -0.24992789244E+02 -0.19640582906E+02 -0.36510849000E+03  0.36648956531E+03  0.00000000000E+00 0. -1.
          1    1    1    2  502    0 -0.11116262469E+03 -0.40498276052E+00  0.27244100502E+03  0.29424716541E+03  0.00000000000E+00 0. -1.
         22    1    3    3    0    0  0.45341770011E+02 -0.40182595984E+02 -0.28559813214E+01  0.60652071334E+02  0.00000000000E+00 0. -1.
         22    1    3    3    0    0  0.90813643919E+02  0.60228161651E+02  0.10569244782E+03  0.15180725577E+03  0.00000000000E+00 0. -1.
</event>
<event>
 7    1  0.7802682E-006  0.9821329E+02  0.7818608E-02  0.1416699E+00
          2   -1    0    0  502    0  0.00000000000E+00  0.00000000000E+00  0.16744524965E+04  0.16744524965E+04  0.00000000000E+00 0. -1.
          1   -1    0    0  501    0 -0.00000000000E+00 -0.00000000000E+00 -0.32942474852E+04  0.32942474852E+04  0.00000000000E+00 0. -1.
         25    2    1    2    0    0 -0.67037939686E+02 -0.19513191146E+02 -0.38190312811E+03  0.40786349994E+03  0.12501114086E+03 0.  0.
          2    1    1    2  501    0  0.98591259029E+02  0.17487617795E+02 -0.28983491174E+04  0.29000782161E+04  0.00000000000E+00 0. -1.
          1    1    1    2  502    0 -0.31553319343E+02  0.20255733507E+01  0.16604572568E+04  0.16607582656E+04  0.00000000000E+00 0. -1.
         22    1    3    3    0    0 -0.78242403430E+02 -0.15277055446E+02 -0.11081525191E+03  0.13651110641E+03  0.00000000000E+00 0.  1.
         22    1    3    3    0    0  0.11204463743E+02 -0.42361357004E+01 -0.27108787619E+03  0.27135239353E+03  0.00000000000E+00 0.  1.
</event>
<event>
 7    1  0.7802682E-006  0.4735394E+02  0.7818608E-02  0.1470231E+00
          2   -1    0    0  502    0  0.00000000000E+00  0.00000000000E+00  0.17059602582E+04  0.17059602582E+04  0.00000000000E+00 0. -1.
          1   -1    0    0  501    0 -0.00000000000E+00 -0.00000000000E+00 -0.15838500638E+02  0.15838500638E+02  0.00000000000E+00 0. -1.
         25    2    1    2    0    0  0.10121207204E+02  0.66108793382E+02  0.75127129892E+03  0.76453042060E+03  0.12500155216E+03 0.  0.
          2    1    1    2  501    0 -0.35193876189E+02 -0.26469108086E+02  0.47832396792E+02  0.65016619313E+02  0.00000000000E+00 0. -1.
          1    1    1    2  502    0  0.25072668986E+02 -0.39639685296E+02  0.89101806183E+03  0.89225171891E+03  0.00000000000E+00 0. -1.
         22    1    3    3    0    0  0.49440640934E+02  0.79374497182E+02  0.61537448465E+03  0.62243910878E+03  0.00000000000E+00 0.  1.
         22    1    3    3    0    0 -0.39319433730E+02 -0.13265703800E+02  0.13589681427E+03  0.14209131182E+03  0.00000000000E+00 0.  1.
</event>
<event>
 7    1  0.7802682E-006  0.1468024E+03  0.7818608E-02  0.1412225E+00
          2   -1    0    0  502    0  0.00000000000E+00  0.00000000000E+00  0.38763026392E+03  0.38763026392E+03  0.00000000000E+00 0. -1.
          1   -1    0    0  501    0 -0.00000000000E+00 -0.00000000000E+00 -0.21037863613E+03  0.21037863613E+03  0.00000000000E+00 0. -1.
         25    2    1    2    0    0 -0.11731737690E+03  0.52551032301E+02 -0.26885915649E+02  0.18131241425E+03  0.12500544461E+03 0.  0.
          2    1    1    2  501    0 -0.21451524724E+02  0.44077708843E+01 -0.86716686226E+02  0.89439253279E+02  0.00000000000E+00 0. -1.
          1    1    1    2  502    0  0.13876890163E+03 -0.56958803185E+02  0.29085422967E+03  0.32725723252E+03  0.00000000000E+00 0. -1.
         22    1    3    3    0    0 -0.74361762183E+02 -0.28211603208E+02  0.14611217489E+02  0.80864416816E+02  0.00000000000E+00 0.  1.
         22    1    3    3    0    0 -0.42955614720E+02  0.80762635509E+02 -0.41497133137E+02  0.10044799744E+03  0.00000000000E+00 0.  1.
</event>
<event>
 7    1  0.7802682E-006  0.1975072E+03  0.7818608E-02  0.1253908E+00
          2   -1    0    0  502    0  0.00000000000E+00  0.00000000000E+00  0.52379006974E+03  0.52379006974E+03  0.00000000000E+00 0. -1.
          1   -1    0    0  501    0 -0.00000000000E+00 -0.00000000000E+00 -0.32090773244E+03  0.32090773244E+03  0.00000000000E+00 0. -1.
         25    2    1    2    0    0 -0.13187572845E+03  0.14675467068E+03  0.21013950473E+02  0.23450799531E+03  0.12499709047E+03 0.  0.
          2    1    1    2  501    0 -0.42571430668E+02 -0.49683961912E+02 -0.18296282827E+03  0.19430959655E+03  0.00000000000E+00 0. -1.
          1    1    1    2  502    0  0.17444715912E+03 -0.97070708773E+02  0.36483121511E+03  0.41588021033E+03  0.00000000000E+00 0. -1.
         22    1    3    3    0    0 -0.42905842470E+02 -0.13129118982E+02  0.25252658709E+02  0.51487686442E+02  0.00000000000E+00 0.  1.
         22    1    3    3    0    0 -0.88969885979E+02  0.15988378967E+03 -0.42387082357E+01  0.18302030886E+03  0.00000000000E+00 0.  1.
</event>
<event>
 7    1  0.7802682E-006  0.8018698E+02  0.7818608E-02  0.1366943E+00
          2   -1    0    0  502    0  0.00000000000E+00  0.00000000000E+00  0.20638492661E+04  0.20638492661E+04  0.00000000000E+00 0. -1.
          1   -1    0    0  501    0 -0.00000000000E+00 -0.00000000000E+00 -0.31239051756E+03  0.31239051756E+03  0.00000000000E+00 0. -1.
         25    2    1    2    0    0 -0.28328260264E+02 -0.10642786192E+03  0.40427900575E+03  0.43725957539E+03  0.12500016664E+03 0.  0.
          2    1    1    2  501    0 -0.27864081482E+02  0.50533370910E+02 -0.29212019010E+03  0.29776540107E+03  0.00000000000E+00 0. -1.
          1    1    1    2  502    0  0.56192341746E+02  0.55894491014E+02  0.16392999329E+04  0.16412148072E+04  0.00000000000E+00 0. -1.
         22    1    3    3    0    0  0.27608160114E+02  0.15487366068E+02  0.61461773213E+02  0.69134785594E+02  0.00000000000E+00 0.  1.
         22    1    3    3    0    0 -0.55936420379E+02 -0.12191522799E+03  0.34281723254E+03  0.36812478980E+03  0.00000000000E+00 0.  1.
</event>
<event>
 7    1  0.7802682E-006  0.1015768E+03  0.7818608E-02  0.1364661E+00
          2   -1    0    0  502    0  0.00000000000E+00  0.00000000000E+00  0.24306218184E+04  0.24306218184E+04  0.00000000000E+00 0. -1.
          1   -1    0    0  501    0 -0.00000000000E+00 -0.00000000000E+00 -0.11401509769E+03  0.11401509769E+03  0.00000000000E+00 0. -1.
         25    2    1    2    0    0  0.37887606460E+02  0.60722723460E+02  0.19228211905E+04  0.19282088259E+04  0.12500090300E+03 0.  0.
          2    1    1    2  501    0 -0.84210690777E+02 -0.57586646243E+02 -0.86591613484E+02  0.13381244259E+03  0.00000000000E+00 0. -1.
          1    1    1    2  502    0  0.46323084317E+02 -0.31360772175E+01  0.48037714368E+03  0.48261564758E+03  0.00000000000E+00 0. -1.
         22    1    3    3    0    0 -0.40088023866E+02  0.97699026079E+01  0.96163562668E+03  0.96252043051E+03  0.00000000000E+00 0. -1.
         22    1    3    3    0    0  0.77975630326E+02  0.50952820852E+02  0.96118556380E+03  0.96568839537E+03  0.00000000000E+00 0. -1.
</event>
<event>
 7    1  0.7802682E-006  0.8380245E+02  0.7818608E-02  0.1412946E+00
          2   -1    0    0  502    0  0.00000000000E+00  0.00000000000E+00  0.13512970871E+04  0.13512970871E+04  0.00000000000E+00 0. -1.
          1   -1    0    0  501    0 -0.00000000000E+00 -0.00000000000E+00 -0.14570031867E+03  0.14570031867E+03  0.00000000000E+00 0. -1.
         25    2    1    2    0    0  0.16516476488E+02 -0.10934436668E+03  0.65617325890E+03  0.67706724186E+03  0.12501087867E+03 0.  0.
          2    1    1    2  501    0  0.10754655795E+02  0.82668522502E+02 -0.12181429553E+03  0.14760917936E+03  0.00000000000E+00 0. -1.
          1    1    1    2  502    0 -0.27271132283E+02  0.26675844177E+02  0.67123780505E+03  0.67232098453E+03  0.00000000000E+00 0. -1.
         22    1    3    3    0    0 -0.52931285839E+02 -0.64740936222E+02  0.29835343600E+03  0.30985138795E+03  0.00000000000E+00 0. -1.
         22    1    3    3    0    0  0.69447762328E+02 -0.44603430457E+02  0.35781982290E+03  0.36721585391E+03  0.00000000000E+00 0. -1.
</event>
<event>
 7    1  0.7802682E-006  0.2178242E+03  0.7818608E-02  0.1284786E+00
          2   -1    0    0  502    0  0.00000000000E+00  0.00000000000E+00  0.16780471263E+04  0.16780471263E+04  0.00000000000E+00 0. -1.
          1   -1    0    0  501    0 -0.00000000000E+00 -0.00000000000E+00 -0.15962875588E+04  0.15962875588E+04  0.00000000000E+00 0. -1.
         25    2    1    2    0    0  0.18133642248E+03  0.36493115180E+02 -0.21938364758E+03  0.31300112593E+03  0.12500349769E+03 0.  0.
          2    1    1    2  501    0 -0.21510312370E+03 -0.64696975616E+02 -0.13203113021E+04  0.13392822656E+04  0.00000000000E+00 0. -1.
          1    1    1    2  502    0  0.33766701219E+02  0.28203860436E+02  0.16214545172E+04  0.16220512936E+04  0.00000000000E+00 0. -1.
         22    1    3    3    0    0  0.20295162208E+02 -0.34753987795E+02 -0.75657625326E+02  0.85696029935E+02  0.00000000000E+00 0. -1.
         22    1    3    3    0    0  0.16104126027E+03  0.71247102975E+02 -0.14372602225E+03  0.22730509600E+03  0.00000000000E+00 0. -1.
</event>
<event>
 7    1  0.7802682E-006  0.1369915E+03  0.7818608E-02  0.1373223E+00
          2   -1    0    0  502    0  0.00000000000E+00  0.00000000000E+00  0.25679656841E+04  0.25679656841E+04  0.00000000000E+00 0. -1.
          1   -1    0    0  501    0 -0.00000000000E+00 -0.00000000000E+00 -0.12143891206E+03  0.12143891206E+03  0.00000000000E+00 0. -1.
         25    2    1    2    0    0  0.92055454761E+02  0.91950233977E+02  0.44740349209E+03  0.48240803137E+03  0.12497428421E+03 0.  0.
          2    1    1    2  501    0 -0.19267474099E+02  0.25633370597E+02 -0.99131780590E+02  0.10418932368E+03  0.00000000000E+00 0. -1.
          1    1    1    2  502    0 -0.72787980661E+02 -0.11758360457E+03  0.20982550605E+04  0.21028072411E+04  0.00000000000E+00 0. -1.
         22    1    3    3    0    0  0.46032188691E+02 -0.17926769172E+02  0.63534699898E+02  0.80479746146E+02  0.00000000000E+00 0. -1.
         22    1    3    3    0    0  0.46023266070E+02  0.10987700315E+03  0.38386879219E+03  0.40192828522E+03  0.00000000000E+00 0. -1.
</event>
<event>
 7    1  0.7802682E-006  0.4085892E+02  0.7818608E-02  0.1527421E+00
          2   -1    0    0  502    0  0.00000000000E+00  0.00000000000E+00  0.31725194312E+04  0.31725194312E+04  0.00000000000E+00 0. -1.
          1   -1    0    0  501    0 -0.00000000000E+00 -0.00000000000E+00 -0.38025659524E+03  0.38025659524E+03  0.00000000000E+00 0. -1.
         25    2    1    2    0    0  0.13898715684E+02  0.82839608356E+01  0.32400579453E+03  0.34765851253E+03  0.12499955258E+03 0.  0.
          2    1    1    2  501    0 -0.10381288845E+02  0.32823072376E+02 -0.36747568089E+03  0.36908468037E+03  0.00000000000E+00 0. -1.
          1    1    1    2  502    0 -0.35174268392E+01 -0.41107033212E+02  0.28357327223E+04  0.28360328336E+04  0.00000000000E+00 0. -1.
         22    1    3    3    0    0  0.43778035913E+01  0.91002898497E+01 -0.95896100925E+01  0.13926272343E+02  0.00000000000E+00 0.  1.
         22    1    3    3    0    0  0.95209120926E+01 -0.81632901408E+00  0.33359540462E+03  0.33373224019E+03  0.00000000000E+00 0.  1.
</event>
<event>
 7    1  0.7802682E-006  0.1350710E+03  0.7818608E-02  0.1290614E+00
          2   -1    0    0  502    0  0.00000000000E+00  0.00000000000E+00  0.21046771431E+03  0.21046771431E+03  0.00000000000E+00 0. -1.
          1   -1    0    0  501    0 -0.00000000000E+00 -0.00000000000E+00 -0.14685617740E+04  0.14685617740E+04  0.00000000000E+00 0. -1.
         25    2    1    2    0    0  0.79634417061E+02 -0.53808418722E+02 -0.37190692038E+03  0.40395108080E+03  0.12499892779E+03 0.  0.
          2    1    1    2  501    0  0.57252130217E+02  0.35126392950E+02 -0.10548888675E+04  0.10570251618E+04  0.00000000000E+00 0. -1.
          1    1    1    2  502    0 -0.13688654728E+03  0.18682025771E+02  0.16870172813E+03  0.21805324576E+03  0.00000000000E+00 0. -1.
         22    1    3    3    0    0 -0.14919475267E+02 -0.61034179597E+02 -0.14547505593E+03  0.15846372998E+03  0.00000000000E+00 0. -1.
         22    1    3    3    0    0  0.94553892328E+02  0.72257608752E+01 -0.22643186445E+03  0.24548735082E+03  0.00000000000E+00 0. -1.
</event>
<event>
 7    1  0.7802682E-006  0.4466919E+02  0.7818608E-02  0.1533529E+00
          2   -1    0    0  502    0  0.00000000000E+00  0.00000000000E+00  0.18182494054E+04  0.18182494054E+04  0.00000000000E+00 0. -1.
          1   -1    0    0  501    0 -0.00000000000E+00 -0.00000000000E+00 -0.19009821128E+03  0.19009821128E+03  0.00000000000E+00 0. -1.
         25    2    1    2    0    0 -0.44350190712E+02 -0.37404869143E+02  0.51530768945E+02  0.14712602077E+03  0.12499832874E+03 0.  0.
          2    1    1    2  501    0  0.29031870839E+00  0.30244981933E+02 -0.14039999879E+03  0.14362103912E+03  0.00000000000E+00 0. -1.
          1    1    1    2  502    0  0.44059872004E+02  0.71598872102E+01  0.17170204240E+04  0.17176005568E+04  0.00000000000E+00 0. -1.
         22    1    3    3    0    0 -0.71674624111E+02  0.19821237542E+02  0.26366999014E+02  0.78900898829E+02  0.00000000000E+00 0. -1.
         22    1    3    3    0    0  0.27324433399E+02 -0.57226106685E+02  0.25163769931E+02  0.68225121942E+02  0.00000000000E+00 0. -1.
</event>
<event>
 7    1  0.7802682E-006  0.1683419E+03  0.7818608E-02  0.1265229E+00
          2   -1    0    0  502    0  0.00000000000E+00  0.00000000000E+00  0.15792679313E+03  0.15792679313E+03  0.00000000000E+00 0. -1.
          1   -1    0    0  501    0 -0.00000000000E+00 -0.00000000000E+00 -0.11671448057E+04  0.11671448057E+04  0.00000000000E+00 0. -1.
         25    2    1    2    0    0  0.90206016289E+02  0.11608335816E+03 -0.48968062019E+03  0.52633044762E+03  0.12499663550E+03 0.  0.
          2    1    1    2  501    0 -0.15753867537E+03 -0.10256803981E+03 -0.63618549698E+03  0.66337819048E+03  0.00000000000E+00 0. -1.
          1    1    1    2  502    0  0.67332659079E+02 -0.13515318358E+02  0.11664810465E+03  0.13536296069E+03  0.00000000000E+00 0. -1.
         22    1    3    3    0    0  0.24792276033E+02  0.12422442983E+03 -0.30620729673E+03  0.33137482476E+03  0.00000000000E+00 0.  1.
         22    1    3    3    0    0  0.65413740256E+02 -0.81410716622E+01 -0.18347332346E+03  0.19495562286E+03  0.00000000000E+00 0.  1.
</event>
<event>
 7    1  0.7802682E-006  0.2550207E+03  0.7818608E-02  0.1115336E+00
          2   -1    0    0  502    0  0.00000000000E+00  0.00000000000E+00  0.29637068582E+04  0.29637068582E+04  0.00000000000E+00 0. -1.
          1   -1    0    0  501    0 -0.00000000000E+00 -0.00000000000E+00 -0.14964262131E+04  0.14964262131E+04  0.00000000000E+00 0. -1.
         25    2    1    2    0    0  0.10559422152E+02  0.77369056215E+02  0.24137389085E+03  0.28281488842E+03  0.12500173469E+03 0.  0.
          2    1    1    2  501    0 -0.14852921721E+03  0.20730324578E+03 -0.14553194019E+04  0.14774945434E+04  0.00000000000E+00 0. -1.
          1    1    1    2  502    0  0.13796979506E+03 -0.28467230200E+03  0.26812261562E+04  0.26998236395E+04  0.00000000000E+00 0. -1.
         22    1    3    3    0    0 -0.16312121327E+02  0.39770447799E+02  0.23162994656E+03  0.23558481692E+03  0.00000000000E+00 0.  1.
         22    1    3    3    0    0  0.26871543480E+02  0.37598608415E+02  0.97439442878E+01  0.47230071502E+02  0.00000000000E+00 0.  1.
</event>
<event>
 7    1  0.7802682E-006  0.6342005E+02  0.7818608E-02  0.1398281E+00
          2   -1    0    0  502    0  0.00000000000E+00  0.00000000000E+00  0.29252129100E+04  0.29252129100E+04  0.00000000000E+00 0. -1.
          1   -1    0    0  501    0 -0.00000000000E+00 -0.00000000000E+00 -0.13806862157E+03  0.13806862157E+03  0.00000000000E+00 0. -1.
         25    2    1    2    0    0 -0.56611655065E+02  0.84795012451E+02  0.19478071510E+03  0.25290222001E+03  0.12499972914E+03 0.  0.
          2    1    1    2  501    0  0.18343093460E+00 -0.56562039614E+02 -0.10127615341E+03  0.11600067768E+03  0.00000000000E+00 0. -1.
          1    1    1    2  502    0  0.56428224130E+02 -0.28232972838E+02  0.26936397267E+04  0.26943786339E+04  0.00000000000E+00 0. -1.
         22    1    3    3    0    0 -0.81637987228E+02  0.29541931974E+02  0.61278387188E+02  0.10626630435E+03  0.00000000000E+00 0.  1.
         22    1    3    3    0    0  0.25026332163E+02  0.55253080477E+02  0.13350232791E+03  0.14663591566E+03  0.00000000000E+00 0.  1.
</event>
<event>
 7    1  0.7802682E-006  0.9532268E+02  0.7818608E-02  0.1372369E+00
          2   -1    0    0  502    0  0.00000000000E+00  0.00000000000E+00  0.22954662339E+04  0.22954662339E+04  0.00000000000E+00 0. -1.
          1   -1    0    0  501    0 -0.00000000000E+00 -0.00000000000E+00 -0.37623850447E+03  0.37623850447E+03  0.00000000000E+00 0. -1.
         25    2    1    2    0    0 -0.93302248337E+02 -0.10494410494E+03  0.12655353221E+03  0.22662500844E+03  0.12499809292E+03 0.  0.
          2    1    1    2  501    0  0.27110636361E+02  0.37669017829E+02 -0.32349489371E+03  0.32680711095E+03  0.00000000000E+00 0. -1.
          1    1    1    2  502    0  0.66191611975E+02  0.67275087108E+02  0.21161690910E+04  0.21182726190E+04  0.00000000000E+00 0. -1.
         22    1    3    3    0    0 -0.12362838750E+03 -0.71546868696E+02  0.93992013397E+02  0.17098956459E+03  0.00000000000E+00 0. -1.
         22    1    3    3    0    0  0.30326139167E+02 -0.33397236241E+02  0.32561518811E+02  0.55635443852E+02  0.00000000000E+00 0. -1.
</event>
<event>
 7    1  0.7802682E-006  0.5279335E+02  0.7818608E-02  0.1486456E+00
          2   -1    0    0  502    0  0.00000000000E+00  0.00000000000E+00  0.35530970611E+04  0.35530970611E+04  0.00000000000E+00 0. -1.
          1   -1    0    0  501    0 -0.00000000000E+00 -0.00000000000E+00 -0.10010236695E+02  0.10010236695E+02  0.00000000000E+00 0. -1.
         25    2    1    2    0    0 -0.38794105343E+02 -0.68613207098E+01  0.73789489527E+03  0.74944337434E+03  0.12499773816E+03 0.  0.
          2    1    1    2  501    0 -0.74571614599E+01  0.34414274970E+02  0.74097858257E+02  0.82039284352E+02  0.00000000000E+00 0. -1.
          1    1    1    2  502    0  0.46251266803E+02 -0.27552954260E+02  0.27310940709E+04  0.27316246392E+04  0.00000000000E+00 0. -1.
         22    1    3    3    0    0 -0.44454634145E+02  0.18534427077E+02  0.99758834064E+02  0.11077709356E+03  0.00000000000E+00 0.  1.
         22    1    3    3    0    0  0.56605288023E+01 -0.25395747787E+02  0.63813606121E+03  0.63866628078E+03  0.00000000000E+00 0.  1.
</event>
<event>
 7    1  0.1493408E-005  0.1120695E+03  0.7818608E-02  0.1294078E+00
          2   -1    0    0  502    0  0.00000000000E+00  0.00000000000E+00  0.90331074980E+03  0.90331074980E+03  0.00000000000E+00 0. -1.
          1   -1    0    0  501    0 -0.00000000000E+00 -0.00000000000E+00 -0.15910018446E+04  0.15910018446E+04  0.00000000000E+00 0. -1.
         25    2    1    2    0    0 -0.18607921444E+02 -0.29644565745E+02 -0.30270715866E+03  0.32936510609E+03  0.12499877675E+03 0.  0.
          2    1    1    2  501    0 -0.53414977278E+02 -0.57360914540E+02 -0.12701692430E+04  0.12725852978E+04  0.00000000000E+00 0. -1.
          1    1    1    2  502    0  0.72022898722E+02  0.87005480285E+02  0.88518530686E+03  0.89236219050E+03  0.00000000000E+00 0. -1.
         22    1    3    3    0    0 -0.17762621902E+02  0.36599697000E+02 -0.21832706271E+03  0.22208501721E+03  0.00000000000E+00 0. -1.
         22    1    3    3    0    0 -0.84529954281E+00 -0.66244262745E+02 -0.84380095945E+02  0.10728008888E+03  0.00000000000E+00 0. -1.
</event>
<event>
 7    1  0.7802682E-006  0.8471384E+02  0.7818608E-02  0.1419580E+00
          2   -1    0    0  502    0  0.00000000000E+00  0.00000000000E+00  0.89619313864E+03  0.89619313864E+03  0.00000000000E+00 0. -1.
          1   -1    0    0  501    0 -0.00000000000E+00 -0.00000000000E+00 -0.21786734614E+03  0.21786734614E+03  0.00000000000E+00 0. -1.
         25    2    1    2    0    0 -0.44650261869E+02 -0.42020189588E+02  0.38683199472E+03  0.41112225014E+03  0.12499268059E+03 0.  0.
          2    1    1    2  501    0 -0.35190345360E+02 -0.68525356630E+01 -0.19970570621E+03  0.20289821769E+03  0.00000000000E+00 0. -1.
          1    1    1    2  502    0  0.79840607229E+02  0.48872725251E+02  0.49119950399E+03  0.50004001695E+03  0.00000000000E+00 0. -1.
         22    1    3    3    0    0 -0.37013678693E+02 -0.11535780483E+02  0.21287679529E+02  0.44229536980E+02  0.00000000000E+00 0. -1.
         22    1    3    3    0    0 -0.76365831763E+01 -0.30484409106E+02  0.36554431519E+03  0.36689271316E+03  0.00000000000E+00 0. -1.
</event>
<event>
 7    1  0.7802682E-006  0.1019011E+03  0.7818608E-02  0.1341718E+00
          2   -1    0    0  502    0  0.00000000000E+00  0.00000000000E+00  0.17590979168E+04  0.17590979168E+04  0.00000000000E+00 0. -1.
          1   -1    0    0  501    0 -0.00000000000E+00 -0.00000000000E+00 -0.62969872589E+03  0.62969872589E+03  0.00000000000E+00 0. -1.
         25    2    1    2    0    0 -0.93365007175E+02  0.10588145625E+03  0.84497140924E+01  0.18872920678E+03  0.12497763192E+03 0.  0.
          2    1    1    2  501    0  0.38720009399E+02 -0.92603384456E+02 -0.53440939402E+03  0.54375364491E+03  0.00000000000E+00 0. -1.
          1    1    1    2  502    0  0.54644997776E+02 -0.13278071797E+02  0.16553588708E+04  0.16563137910E+04  0.00000000000E+00 0. -1.
         22    1    3    3    0    0 -0.58564948433E+02  0.82100231934E+02 -0.53221757451E+02  0.11403006943E+03  0.00000000000E+00 0. -1.
         22    1    3    3    0    0 -0.34800058742E+02  0.23781224319E+02  0.61671471543E+02  0.74699137350E+02  0.00000000000E+00 0. -1.
</event>
<event>
 7    1  0.7802682E-006  0.1065427E+03  0.7818608E-02  0.1271392E+00
          2   -1    0    0  502    0  0.00000000000E+00  0.00000000000E+00  0.21400998608E+03  0.21400998608E+03  0.00000000000E+00 0. -1.
          1   -1    0    0  501    0 -0.00000000000E+00 -0.00000000000E+00 -0.12401507364E+04  0.12401507364E+04  0.00000000000E+00 0. -1.
         25    2    1    2    0    0  0.12891205144E+03 -0.23658186443E+02 -0.15079772308E+03  0.23567653248E+03  0.12500179153E+03 0.  0.
          2    1    1    2  501    0 -0.83627988791E+02 -0.67978964962E+02 -0.10286203656E+04  0.10342507611E+04  0.00000000000E+00 0. -1.
          1    1    1    2  502    0 -0.45284062651E+02  0.91637151405E+02  0.15327733842E+03  0.18423342889E+03  0.00000000000E+00 0. -1.
         22    1    3    3    0    0  0.37670009116E+01  0.30703377165E+02  0.17869728570E+01  0.30985172861E+02  0.00000000000E+00 0. -1.
         22    1    3    3    0    0  0.12514505053E+03 -0.54361563608E+02 -0.15258469594E+03  0.20469135962E+03  0.00000000000E+00 0. -1.
</event>
<event>
 7    1  0.7802682E-006  0.5103421E+02  0.7818608E-02  0.1472740E+00
          2   -1    0    0  502    0  0.00000000000E+00  0.00000000000E+00  0.11963558688E+04  0.11963558688E+04  0.00000000000E+00 0. -1.
          1   -1    0    0  501    0 -0.00000000000E+00 -0.00000000000E+00 -0.18710464205E+02  0.18710464205E+02  0.00000000000E+00 0. -1.
         25    2    1    2    0    0 -0.28998253053E+02  0.10451309044E+02  0.51341376341E+03  0.52930967049E+03  0.12499962512E+03 0.  0.
          2    1    1    2  501    0  0.23087277171E+02 -0.50148428128E+02  0.65421040341E+02  0.85602568478E+02  0.00000000000E+00 0. -1.
          1    1    1    2  502    0  0.59109758815E+01  0.39697119084E+02  0.59881060089E+03  0.60015409408E+03  0.00000000000E+00 0. -1.
         22    1    3    3    0    0  0.13996891175E+02  0.37661559379E+02  0.55170705866E+02  0.68250368520E+02  0.00000000000E+00 0.  1.
         22    1    3    3    0    0 -0.42995144228E+02 -0.27210250335E+02  0.45824305754E+03  0.46105930197E+03  0.00000000000E+00 0.  1.
</event>
<event>
 7    1  0.7802682E-006  0.6992016E+02  0.7818608E-02  0.1398641E+00
          2   -1    0    0  502    0  0.00000000000E+00  0.00000000000E+00  0.28226948543E+04  0.28226948543E+04  0.00000000000E+00 0. -1.
          1   -1    0    0  501    0 -0.00000000000E+00 -0.00000000000E+00 -0.18220791550E+02  0.18220791550E+02  0.00000000000E+00 0. -1.
         25    2    1    2    0    0 -0.85235957671E+02  0.67319565758E+01  0.13399943315E+04  0.13485251748E+04  0.12499940359E+03 0.  0.
          2    1    1    2  501    0  0.52580121789E+02 -0.46110578571E+02  0.77195542082E+02  0.10416336391E+03  0.00000000000E+00 0. -1.
          1    1    1    2  502    0  0.32655835883E+02  0.39378621995E+02  0.13872841892E+04  0.13882271071E+04  0.00000000000E+00 0. -1.
         22    1    3    3    0    0 -0.32280409238E+02 -0.52907921131E+02  0.83227789057E+03  0.83458238663E+03  0.00000000000E+00 0. -1.
         22    1    3    3    0    0 -0.52955548433E+02  0.59639877707E+02  0.50771644097E+03  0.51394278821E+03  0.00000000000E+00 0. -1.
</event>
<event>
 7    1  0.7802682E-006  0.1225157E+03  0.7818608E-02  0.1438908E+00
          2   -1    0    0  502    0  0.00000000000E+00  0.00000000000E+00  0.64188529446E+03  0.64188529446E+03  0.00000000000E+00 0. -1.
          1   -1    0    0  501    0 -0.00000000000E+00 -0.00000000000E+00 -0.25094423408E+03  0.25094423408E+03  0.00000000000E+00 0. -1.
         25    2    1    2    0    0  0.13464999398E+03  0.26794984385E+01  0.18701439600E+03  0.26217339497E+03  0.12499081618E+03 0.  0.
          2    1    1    2  501    0 -0.12088439954E+03  0.13715271429E+02 -0.19571239850E+03  0.23044411394E+03  0.00000000000E+00 0. -1.
          1    1    1    2  502    0 -0.13765594445E+02 -0.16394769867E+02  0.39963906289E+03  0.40021201963E+03  0.00000000000E+00 0. -1.
         22    1    3    3    0    0  0.71281211266E+02  0.50774843975E+02  0.15169938969E+03  0.17513366522E+03  0.00000000000E+00 0.  1.
         22    1    3    3    0    0  0.63368782715E+02 -0.48095345536E+02  0.35315006309E+02  0.87039729754E+02  0.00000000000E+00 0.  1.
</event>
<event>
 7    1  0.7802682E-006  0.5491814E+02  0.7818608E-02  0.1551947E+00
          2   -1    0    0  502    0  0.00000000000E+00  0.00000000000E+00  0.25183141040E+04  0.25183141040E+04  0.00000000000E+00 0. -1.
          1   -1    0    0  501    0 -0.00000000000E+00 -0.00000000000E+00 -0.20557053980E+02  0.20557053980E+02  0.00000000000E+00 0. -1.
         25    2    1    2    0    0  0.10500042237E+01  0.65478073012E+02  0.41065590004E+03  0.43422489282E+03  0.12499803499E+03 0.  0.
          2    1    1    2  501    0 -0.17338232178E+02 -0.13266911628E+02  0.57494956757E+01  0.22576136510E+02  0.00000000000E+00 0. -1.
          1    1    1    2  502    0  0.16288227955E+02 -0.52211161384E+02  0.20813516543E+04  0.20820701286E+04  0.00000000000E+00 0. -1.
         22    1    3    3    0    0 -0.35634780492E+02  0.84757807183E+02  0.34095156057E+03  0.35313126471E+03  0.00000000000E+00 0. -1.
         22    1    3    3    0    0  0.36684784716E+02 -0.19279734171E+02  0.69704339468E+02  0.81093628110E+02  0.00000000000E+00 0. -1.
</event>
<event>
 7    1  0.7802682E-006  0.3534752E+03  0.7818608E-02  0.1147316E+00
          2   -1    0    0  502    0  0.00000000000E+00  0.00000000000E+00  0.33580399019E+04  0.33580399019E+04  0.00000000000E+00 0. -1.
          1   -1    0    0  501    0 -0.00000000000E+00 -0.00000000000E+00 -0.41684505256E+03  0.41684505256E+03  0.00000000000E+00 0. -1.
         25    2    1    2    0    0 -0.31256179806E+03  0.15368006196E+03  0.20125276345E+04  0.20462663679E+04  0.12500451862E+03 0.  0.
          2    1    1    2  501    0 -0.56476705435E+02 -0.10185668366E+03 -0.36458972640E+03  0.38274021328E+03  0.00000000000E+00 0. -1.
          1    1    1    2  502    0  0.36903850349E+03 -0.51823378300E+02  0.12932569413E+04  0.13458783733E+04  0.00000000000E+00 0. -1.
         22    1    3    3    0    0 -0.40023676500E+02  0.28735284230E+00  0.90420976218E+02  0.98883417176E+02  0.00000000000E+00 0. -1.
         22    1    3    3    0    0 -0.27253812156E+03  0.15339270912E+03  0.19221066583E+04  0.19473829507E+04  0.00000000000E+00 0. -1.
</event>
<event>
 7    1  0.7802682E-006  0.9946764E+02  0.7818608E-02  0.1398415E+00
          2   -1    0    0  502    0  0.00000000000E+00  0.00000000000E+00  0.63685651144E+03  0.63685651144E+03  0.00000000000E+00 0. -1.
          1   -1    0    0  501    0 -0.00000000000E+00 -0.00000000000E+00 -0.11717932938E+03  0.11717932938E+03  0.00000000000E+00 0. -1.
         25    2    1    2    0    0 -0.65728198838E+02  0.53680992825E+02  0.15200264013E+02  0.15184785822E+03  0.12499951562E+03 0.  0.
          2    1    1    2  501    0  0.67243519190E+02 -0.89674436445E+02  0.16983256159E+02  0.11336501407E+03  0.00000000000E+00 0. -1.
          1    1    1    2  502    0 -0.15153203525E+01  0.35993443619E+02  0.48749366190E+03  0.48882296854E+03  0.00000000000E+00 0. -1.
         22    1    3    3    0    0  0.10494295339E+02 -0.17481731161E+02 -0.31553288191E+02  0.37567953826E+02  0.00000000000E+00 0. -1.
         22    1    3    3    0    0 -0.76222494176E+02  0.71162723986E+02  0.46753552204E+02  0.11427990439E+03  0.00000000000E+00 0. -1.
</event>
<event>
 7    1  0.7802682E-006  0.2861916E+02  0.7818608E-02  0.1675359E+00
          2   -1    0    0  502    0  0.00000000000E+00  0.00000000000E+00  0.34486479353E+03  0.34486479353E+03  0.00000000000E+00 0. -1.
          1   -1    0    0  501    0 -0.00000000000E+00 -0.00000000000E+00 -0.19089893950E+04  0.19089893950E+04  0.00000000000E+00 0. -1.
         25    2    1    2    0    0 -0.38310356317E+02  0.30046925160E+02  0.58220611315E+02  0.14623468429E+03  0.12499776876E+03 0.  0.
          2    1    1    2  501    0  0.23346331458E+02 -0.16515972314E+02 -0.18644531552E+04  0.18646724636E+04  0.00000000000E+00 0. -1.
          1    1    1    2  502    0  0.14964024860E+02 -0.13530952847E+02  0.24210794247E+03  0.24294704059E+03  0.00000000000E+00 0. -1.
         22    1    3    3    0    0 -0.20126344729E+02 -0.45665230848E+02  0.45116208874E+02  0.67274477803E+02  0.00000000000E+00 0. -1.
         22    1    3    3    0    0 -0.18184011588E+02  0.75712156008E+02  0.13104402441E+02  0.78960206485E+02  0.00000000000E+00 0. -1.
</event>
<event>
 7    1  0.7802682E-006  0.7072399E+02  0.7818608E-02  0.1470561E+00
          2   -1    0    0  502    0  0.00000000000E+00  0.00000000000E+00  0.16844807120E+04  0.16844807120E+04  0.00000000000E+00 0. -1.
          1   -1    0    0  501    0 -0.00000000000E+00 -0.00000000000E+00 -0.19907873756E+02  0.19907873756E+02  0.00000000000E+00 0. -1.
         25    2    1    2    0    0  0.16004296029E+01 -0.85574122151E+01  0.23290505685E+03  0.26447100531E+03  0.12499742583E+03 0.  0.
          2    1    1    2  501    0 -0.44011883991E+01  0.79225924082E+02  0.59530436001E+03  0.60056922878E+03  0.00000000000E+00 0. -1.
          1    1    1    2  502    0  0.28007587962E+01 -0.70668511867E+02  0.83636342137E+03  0.83934835166E+03  0.00000000000E+00 0. -1.
         22    1    3    3    0    0 -0.25526916717E+01 -0.55701333219E+02  0.47901318070E+02  0.73509802271E+02  0.00000000000E+00 0.  1.
         22    1    3    3    0    0  0.41531212746E+01  0.47143921003E+02  0.18500373878E+03  0.19096120304E+03  0.00000000000E+00 0.  1.
</event>
<event>
 7    1  0.7802682E-006  0.4044384E+02  0.7818608E-02  0.1546640E+00
          2   -1    0    0  502    0  0.00000000000E+00  0.00000000000E+00  0.13825525751E+04  0.13825525751E+04  0.00000000000E+00 0. -1.
          1   -1    0    0  501    0 -0.00000000000E+00 -0.00000000000E+00 -0.66499310130E+03  0.66499310130E+03  0.00000000000E+00 0. -1.
         25    2    1    2    0    0 -0.52110570197E+01  0.10243762814E+02  0.28476306488E+02  0.12872549950E+03  0.12500905726E+03 0.  0.
          2    1    1    2  501    0  0.32064141867E+02 -0.25069512778E+02 -0.61401426708E+03  0.61536177152E+03  0.00000000000E+00 0. -1.
          1    1    1    2  502    0 -0.26853084847E+02  0.14825749964E+02  0.13030974344E+04  0.13034584054E+04  0.00000000000E+00 0. -1.
         22    1    3    3    0    0  0.30221997229E+02  0.43888708455E+02  0.52035883339E+02  0.74480339696E+02  0.00000000000E+00 0. -1.
         22    1    3    3    0    0 -0.35433054248E+02 -0.33644945642E+02 -0.23559576851E+02  0.54245159802E+02  0.00000000000E+00 0. -1.
</event>
<event>
 7    1  0.7802682E-006  0.3096811E+02  0.7818608E-02  0.1633796E+00
          2   -1    0    0  502    0  0.00000000000E+00  0.00000000000E+00  0.16596056999E+04  0.16596056999E+04  0.00000000000E+00 0. -1.
          1   -1    0    0  501    0 -0.00000000000E+00 -0.00000000000E+00 -0.27302474000E+03  0.27302474000E+03  0.00000000000E+00 0. -1.
         25    2    1    2    0    0 -0.29976398715E+02  0.22822059158E+02  0.16575935574E+02  0.13160214499E+03  0.12499972825E+03 0.  0.
          2    1    1    2  501    0  0.75680851237E+01 -0.30050595007E+02 -0.21430971422E+03  0.21653860576E+03  0.00000000000E+00 0. -1.
          1    1    1    2  502    0  0.22408313591E+02  0.72285358488E+01  0.15843147386E+04  0.15844896892E+04  0.00000000000E+00 0. -1.
         22    1    3    3    0    0 -0.44154521768E+02  0.68307018276E+02  0.55596089685E+00  0.81337442982E+02  0.00000000000E+00 0. -1.
         22    1    3    3    0    0  0.14178123053E+02 -0.45484959118E+02  0.16019974677E+02  0.50264702007E+02  0.00000000000E+00 0. -1.
</event>
<event>
 7    1  0.7802682E-006  0.1265151E+03  0.7818608E-02  0.1310868E+00
          2   -1    0    0  502    0  0.00000000000E+00  0.00000000000E+00  0.19169168493E+04  0.19169168493E+04  0.00000000000E+00 0. -1.
          1   -1    0    0  501    0 -0.00000000000E+00 -0.00000000000E+00 -0.15856763410E+03  0.15856763410E+03  0.00000000000E+00 0. -1.
         25    2    1    2    0    0  0.16584088814E+03  0.75482492719E+02  0.18112972647E+03  0.28571443603E+03  0.12499581695E+03 0.  0.
          2    1    1    2  501    0 -0.48930954271E+02 -0.33871590398E+02 -0.95461660387E+02  0.11249200650E+03  0.00000000000E+00 0. -1.
          1    1    1    2  502    0 -0.11690993387E+03 -0.41610902322E+02  0.16726811491E+04  0.16772780409E+04  0.00000000000E+00 0. -1.
         22    1    3    3    0    0  0.16685737003E+02  0.35771921186E+02 -0.93334950624E+01  0.40560550967E+02  0.00000000000E+00 0. -1.
         22    1    3    3    0    0  0.14915515114E+03  0.39710571533E+02  0.19046322154E+03  0.24515388506E+03  0.00000000000E+00 0. -1.
</event>
<event>
 7    1  0.7802682E-006  0.2765606E+02  0.7818608E-02  0.1658259E+00
          2   -1    0    0  502    0  0.00000000000E+00  0.00000000000E+00  0.32391946867E+02  0.32391946867E+02  0.00000000000E+00 0. -1.
          1   -1    0    0  501    0 -0.00000000000E+00 -0.00000000000E+00 -0.75870392174E+03  0.75870392174E+03  0.00000000000E+00 0. -1.
         25    2    1    2    0    0 -0.26822709464E+02 -0.41036848202E+02 -0.19912224241E+03  0.24016035033E+03  0.12499538309E+03 0.  0.
          2    1    1    2  501    0  0.10927844881E+02  0.20178450367E+02 -0.52401776484E+03  0.52451997628E+03  0.00000000000E+00 0. -1.
          1    1    1    2  502    0  0.15894864582E+02  0.20858397835E+02 -0.31719676214E+01  0.26415541996E+02  0.00000000000E+00 0. -1.
         22    1    3    3    0    0 -0.19026125320E+02 -0.73536237311E+01  0.13684824333E+02  0.24563054446E+02  0.00000000000E+00 0.  1.
         22    1    3    3    0    0 -0.77965841433E+01 -0.33683224471E+02 -0.21280706675E+03  0.21559729588E+03  0.00000000000E+00 0.  1.
</event>
<event>
 7    1  0.7802682E-006  0.5521870E+02  0.7818608E-02  0.1466951E+00
          2   -1    0    0  502    0  0.00000000000E+00  0.00000000000E+00  0.47972843989E+03  0.47972843989E+03  0.00000000000E+00 0. -1.
          1   -1    0    0  501    0 -0.00000000000E+00 -0.00000000000E+00 -0.15105403182E+04  0.15105403182E+04  0.00000000000E+00 0. -1.
         25    2    1    2    0    0 -0.24247750008E+02  0.44048232013E+02 -0.65398975165E+03  0.66772474664E+03  0.12500216752E+03 0.  0.
          2    1    1    2  501    0  0.54116813740E+02 -0.19497316315E+02 -0.84791664360E+03  0.84986552429E+03  0.00000000000E+00 0. -1.
          1    1    1    2  502    0 -0.29869063732E+02 -0.24550915698E+02  0.47109451689E+03  0.47267848721E+03  0.00000000000E+00 0. -1.
         22    1    3    3    0    0 -0.10846692225E+02 -0.37852778125E+02 -0.98650027049E+02  0.10621822528E+03  0.00000000000E+00 0. -1.
         22    1    3    3    0    0 -0.13401057783E+02  0.81901010138E+02 -0.55533972460E+03  0.56150652136E+03  0.00000000000E+00 0. -1.
</event>
<event>
 7    1  0.7802682E-006  0.9078275E+02  0.7818608E-02  0.1355271E+00
          2   -1    0    0  502    0  0.00000000000E+00  0.00000000000E+00  0.97362308481E+03  0.97362308481E+03  0.00000000000E+00 0. -1.
          1   -1    0    0  501    0 -0.00000000000E+00 -0.00000000000E+00 -0.16913689570E+03  0.16913689570E+03  0.00000000000E+00 0. -1.
         25    2    1    2    0    0  0.50745134230E+02  0.44739669433E+01  0.25100913958E+03  0.28500211818E+03  0.12500213672E+03 0.  0.
          2    1    1    2  501    0  0.44563063607E+02 -0.34267202015E+02 -0.14326360357E+03  0.15389791382E+03  0.00000000000E+00 0. -1.
          1    1    1    2  502    0 -0.95308197836E+02  0.29793235071E+02  0.69674065310E+03  0.70385994851E+03  0.00000000000E+00 0. -1.
         22    1    3    3    0    0  0.79652158599E+02  0.31976429358E+02  0.11652576085E+03  0.14472460519E+03  0.00000000000E+00 0.  1.
         22    1    3    3    0    0 -0.28907024369E+02 -0.27502462415E+02  0.13448337873E+03  0.14027751299E+03  0.00000000000E+00 0.  1.
</event>
<event>
 7    1  0.7802682E-006  0.2082879E+03  0.7818608E-02  0.1249909E+00
          2   -1    0    0  502    0  0.00000000000E+00  0.00000000000E+00  0.14572577807E+04  0.14572577807E+04  0.00000000000E+00 0. -1.
          1   -1    0    0  501    0 -0.00000000000E+00 -0.00000000000E+00 -0.31778991312E+03  0.31778991312E+03  0.00000000000E+00 0. -1.
         25    2    1    2    0    0  0.16525793945E+03 -0.51771977787E+02  0.50030243307E+02  0.21936214462E+03  0.12500480395E+03 0.  0.
          2    1    1    2  501    0 -0.22236174050E+03  0.21648316497E+02 -0.17858678725E+03  0.28601859000E+03  0.00000000000E+00 0. -1.
          1    1    1    2  502    0  0.57103801049E+02  0.30123661289E+02  0.12680244116E+04  0.12696669592E+04  0.00000000000E+00 0. -1.
         22    1    3    3    0    0  0.15700527174E+03 -0.83948959505E+02  0.53649367185E+02  0.18594713699E+03  0.00000000000E+00 0.  1.
         22    1    3    3    0    0  0.82526677115E+01  0.32176981719E+02 -0.36191238780E+01  0.33415007624E+02  0.00000000000E+00 0.  1.
</event>
<event>
 7    1  0.7802682E-006  0.1140023E+03  0.7818608E-02  0.1373057E+00
          2   -1    0    0  502    0  0.00000000000E+00  0.00000000000E+00  0.53030062260E+03  0.53030062260E+03  0.00000000000E+00 0. -1.
          1   -1    0    0  501    0 -0.00000000000E+00 -0.00000000000E+00 -0.98980190339E+03  0.98980190339E+03  0.00000000000E+00 0. -1.
         25    2    1    2    0    0  0.12473205228E+03  0.34452895858E+02  0.10535002567E+02  0.18022335421E+03  0.12499753688E+03 0.  0.
          2    1    1    2  501    0 -0.11359458096E+03  0.24914416680E+01 -0.90052493317E+03  0.90766463596E+03  0.00000000000E+00 0. -1.
          1    1    1    2  502    0 -0.11137471314E+02 -0.36944337526E+02  0.43048864982E+03  0.43221453582E+03  0.00000000000E+00 0. -1.
         22    1    3    3    0    0  0.76180960273E+02  0.71457213227E+02  0.40740844437E+02  0.11211372992E+03  0.00000000000E+00 0.  1.
         22    1    3    3    0    0  0.48551092004E+02 -0.37004317369E+02 -0.30205841871E+02  0.68109624297E+02  0.00000000000E+00 0.  1.
</event>
<event>
 7    1  0.7802682E-006  0.1231998E+03  0.7818608E-02  0.1304000E+00
          2   -1    0    0  502    0  0.00000000000E+00  0.00000000000E+00  0.84915522518E+03  0.84915522518E+03  0.00000000000E+00 0. -1.
          1   -1    0    0  501    0 -0.00000000000E+00 -0.00000000000E+00 -0.95972730759E+03  0.95972730759E+03  0.00000000000E+00 0. -1.
         25    2    1    2    0    0  0.13019584281E+03  0.14148427610E+02  0.20870546185E+03  0.27628267169E+03  0.12499203726E+03 0.  0.
          2    1    1    2  501    0 -0.15821582323E+02 -0.63105380281E+02 -0.91839738991E+03  0.92069885265E+03  0.00000000000E+00 0. -1.
          1    1    1    2  502    0 -0.11437426048E+03  0.48956952671E+02  0.59911984565E+03  0.61190100843E+03  0.00000000000E+00 0. -1.
         22    1    3    3    0    0  0.13355280426E+03  0.12191188471E+02  0.22368552701E+03  0.26080680895E+03  0.00000000000E+00 0. -1.
         22    1    3    3    0    0 -0.33569614573E+01  0.19572391384E+01 -0.14980065156E+02  0.15475862733E+02  0.00000000000E+00 0. -1.
</event>
<event>
 7    1  0.7802682E-006  0.3372479E+02  0.7818608E-02  0.1560361E+00
          2   -1    0    0  502    0  0.00000000000E+00  0.00000000000E+00  0.23723031542E+04  0.23723031542E+04  0.00000000000E+00 0. -1.
          1   -1    0    0  501    0 -0.00000000000E+00 -0.00000000000E+00 -0.60132357745E+02  0.60132357745E+02  0.00000000000E+00 0. -1.
         25    2    1    2    0    0  0.70171431817E+01 -0.20838568469E+02  0.79159636732E+03  0.80170680999E+03  0.12500205679E+03 0.  0.
          2    1    1    2  501    0 -0.33700212795E+02 -0.12872619614E+01 -0.49705290966E+02  0.60066441011E+02  0.00000000000E+00 0. -1.
          1    1    1    2  502    0  0.26683069613E+02  0.22125830431E+02  0.15702797201E+04  0.15706622610E+04  0.00000000000E+00 0. -1.
         22    1    3    3    0    0 -0.49367008843E+02 -0.15388749260E+01  0.57323851098E+03  0.57536237292E+03  0.00000000000E+00 0. -1.
         22    1    3    3    0    0  0.56384152024E+02 -0.19299693544E+02  0.21835785634E+03  0.22634443707E+03  0.00000000000E+00 0. -1.
</event>
<event>
 7    1  0.7802682E-006  0.3900225E+03  0.7818608E-02  0.1179901E+00
          2   -1    0    0  502    0  0.00000000000E+00  0.00000000000E+00  0.10897643177E+04  0.10897643177E+04  0.00000000000E+00 0. -1.
          1   -1    0    0  501    0 -0.00000000000E+00 -0.00000000000E+00 -0.48976540695E+03  0.48976540695E+03  0.00000000000E+00 0. -1.
         25    2    1    2    0    0  0.44055446305E+03 -0.27575637768E+02  0.94114060804E+02  0.46832777397E+03  0.12499918685E+03 0.  0.
          2    1    1    2  501    0 -0.36816710159E+03  0.29155746237E+02 -0.18740123983E+03  0.41414526065E+03  0.00000000000E+00 0. -1.
          1    1    1    2  502    0 -0.72387361467E+02 -0.15801084690E+01  0.69328608975E+03  0.69705669000E+03  0.00000000000E+00 0. -1.
         22    1    3    3    0    0  0.16871537274E+03 -0.59832182789E+02  0.48114867722E+00  0.17901116892E+03  0.00000000000E+00 0. -1.
         22    1    3    3    0    0  0.27183909032E+03  0.32256545022E+02  0.93632912126E+02  0.28931660504E+03  0.00000000000E+00 0. -1.
</event>
<event>
 7    1  0.7802682E-006  0.1194562E+03  0.7818608E-02  0.1247048E+00
          2   -1    0    0  502    0  0.00000000000E+00  0.00000000000E+00  0.20665954103E+03  0.20665954103E+03  0.00000000000E+00 0. -1.
          1   -1    0    0  501    0 -0.00000000000E+00 -0.00000000000E+00 -0.84842703188E+03  0.84842703188E+03  0.00000000000E+00 0. -1.
         25    2    1    2    0    0 -0.12551732468E+02  0.25066651585E+02 -0.11652286506E+03  0.17317805829E+03  0.12500871483E+03 0.  0.
          2    1    1    2  501    0  0.63233694272E+02 -0.12923655615E+03 -0.67636287905E+03  0.69149644373E+03  0.00000000000E+00 0. -1.
          1    1    1    2  502    0 -0.50681961804E+02  0.10416990456E+03  0.15111825326E+03  0.19041207088E+03  0.00000000000E+00 0. -1.
         22    1    3    3    0    0  0.27923676887E+02 -0.41609981586E+02 -0.46070172410E+02  0.68070427385E+02  0.00000000000E+00 0. -1.
         22    1    3    3    0    0 -0.40475409355E+02  0.66676633171E+02 -0.70452692653E+02  0.10510763091E+03  0.00000000000E+00 0. -1.
</event>
<event>
 7    1  0.7802682E-006  0.4252449E+02  0.7818608E-02  0.1584275E+00
          2   -1    0    0  502    0  0.00000000000E+00  0.00000000000E+00  0.50867135275E+03  0.50867135275E+03  0.00000000000E+00 0. -1.
          1   -1    0    0  501    0 -0.00000000000E+00 -0.00000000000E+00 -0.16417074498E+03  0.16417074498E+03  0.00000000000E+00 0. -1.
         25    2    1    2    0    0  0.99960025925E+01  0.60269048564E+01  0.45907351697E+03  0.47593054190E+03  0.12500057231E+03 0.  0.
          2    1    1    2  501    0  0.18034921675E+01  0.42486227591E+02 -0.13606458720E+03  0.14255491576E+03  0.00000000000E+00 0. -1.
          1    1    1    2  502    0 -0.11799494760E+02 -0.48513132448E+02  0.21491677997E+02  0.54356640069E+02  0.00000000000E+00 0. -1.
         22    1    3    3    0    0 -0.23306864895E+02  0.42412529756E+02  0.78820141916E+02  0.92491336909E+02  0.00000000000E+00 0.  1.
         22    1    3    3    0    0  0.33302867488E+02 -0.36385624899E+02  0.38025337506E+03  0.38343920499E+03  0.00000000000E+00 0.  1.
</event>
<event>
 7    1  0.7802682E-006  0.5591009E+02  0.7818608E-02  0.1472440E+00
          2   -1    0    0  502    0  0.00000000000E+00  0.00000000000E+00  0.18520501621E+04  0.18520501621E+04  0.00000000000E+00 0. -1.
          1   -1    0    0  501    0 -0.00000000000E+00 -0.00000000000E+00 -0.65813505823E+03  0.65813505823E+03  0.00000000000E+00 0. -1.
         25    2    1    2    0    0 -0.30235584396E+02 -0.18197835241E+02 -0.65546541267E+00  0.12988942930E+03  0.12500192973E+03 0.  0.
          2    1    1    2  501    0  0.11762819086E+02 -0.34777786921E+02 -0.59185343089E+03  0.59299101345E+03  0.00000000000E+00 0. -1.
          1    1    1    2  502    0  0.18472765310E+02  0.52975622162E+02  0.17864240002E+04  0.17873047776E+04  0.00000000000E+00 0. -1.
         22    1    3    3    0    0 -0.25239493608E+02 -0.51770726270E+02 -0.45674950232E+02  0.73508103056E+02  0.00000000000E+00 0.  1.
         22    1    3    3    0    0 -0.49960907871E+01  0.33572891030E+02  0.45019484820E+02  0.56381326241E+02  0.00000000000E+00 0.  1.
</event>
<event>
 7    1  0.7802682E-006  0.1055464E+03  0.7818608E-02  0.1426389E+00
          2   -1    0    0  502    0  0.00000000000E+00  0.00000000000E+00  0.33044426041E+02  0.33044426041E+02  0.00000000000E+00 0. -1.
          1   -1    0    0  501    0 -0.00000000000E+00 -0.00000000000E+00 -0.13136477709E+04  0.13136477709E+04  0.00000000000E+00 0. -1.
         25    2    1    2    0    0  0.86603417474E+02  0.30950770054E+02 -0.74562910539E+03  0.76160730388E+03  0.12499928171E+03 0.  0.
          2    1    1    2  501    0  0.45697777296E+01  0.26928141018E+02 -0.44124481621E+03  0.44208935237E+03  0.00000000000E+00 0. -1.
          1    1    1    2  502    0 -0.91173195204E+02 -0.57878911072E+02 -0.93729423225E+02  0.14299554066E+03  0.00000000000E+00 0. -1.
         22    1    3    3    0    0  0.10455142591E+03  0.58557594441E+02 -0.63388826744E+03  0.64511574786E+03  0.00000000000E+00 0.  1.
         22    1    3    3    0    0 -0.17948008438E+02 -0.27606824387E+02 -0.11174083795E+03  0.11649155602E+03  0.00000000000E+00 0.  1.
</event>
<event>
 7    1  0.7802682E-006  0.1015156E+03  0.7818608E-02  0.1353869E+00
          2   -1    0    0  502    0  0.00000000000E+00  0.00000000000E+00  0.52930709137E+03  0.52930709137E+03  0.00000000000E+00 0. -1.
          1   -1    0    0  501    0 -0.00000000000E+00 -0.00000000000E+00 -0.54290923949E+03  0.54290923949E+03  0.00000000000E+00 0. -1.
         25    2    1    2    0    0  0.72915584046E+02 -0.12928323765E+03 -0.28891136666E+03  0.34802897057E+03  0.12499419442E+03 0.  0.
          2    1    1    2  501    0 -0.11157582609E+02  0.49633727913E+02 -0.21637736348E+03  0.22227721886E+03  0.00000000000E+00 0. -1.
          1    1    1    2  502    0 -0.61758001437E+02  0.79649509737E+02  0.49168658202E+03  0.50191014144E+03  0.00000000000E+00 0. -1.
         22    1    3    3    0    0  0.13482822166E+02 -0.12779029246E+03 -0.23468565414E+03  0.26756214531E+03  0.00000000000E+00 0.  1.
         22    1    3    3    0    0  0.59432761880E+02 -0.14929451859E+01 -0.54225712518E+02  0.80466825264E+02  0.00000000000E+00 0.  1.
</event>
<event>
 7    1  0.7802682E-006  0.8432605E+02  0.7818608E-02  0.1402186E+00
          2   -1    0    0  502    0  0.00000000000E+00  0.00000000000E+00  0.11505539201E+04  0.11505539201E+04  0.00000000000E+00 0. -1.
          1   -1    0    0  501    0 -0.00000000000E+00 -0.00000000000E+00 -0.81503452185E+03  0.81503452185E+03  0.00000000000E+00 0. -1.
         25    2    1    2    0    0  0.93673885337E+02 -0.82461839020E+02 -0.39529184750E+03  0.43296176275E+03  0.12500196643E+03 0.  0.
          2    1    1    2  501    0 -0.34508640884E+02  0.22589062990E+02 -0.39827613532E+03  0.40040603395E+03  0.00000000000E+00 0. -1.
          1    1    1    2  502    0 -0.59165244453E+02  0.59872776030E+02  0.11290873811E+04  0.11322206453E+04  0.00000000000E+00 0. -1.
         22    1    3    3    0    0  0.74635630657E+02 -0.92107727786E+02 -0.17343641642E+03  0.21008213018E+03  0.00000000000E+00 0. -1.
         22    1    3    3    0    0  0.19038254679E+02  0.96458887659E+01 -0.22185543108E+03  0.22287963256E+03  0.00000000000E+00 0. -1.
</event>
<event>
 7    1  0.7802682E-006  0.7975981E+02  0.7818608E-02  0.1340784E+00
          2   -1    0    0  502    0  0.00000000000E+00  0.00000000000E+00  0.74098214251E+03  0.74098214251E+03  0.00000000000E+00 0. -1.
          1   -1    0    0  501    0 -0.00000000000E+00 -0.00000000000E+00 -0.14710648110E+03  0.14710648110E+03  0.00000000000E+00 0. -1.
         25    2    1    2    0    0  0.70662200138E+02  0.73371607619E+02  0.53339113808E+02  0.16984081528E+03  0.12499720853E+03 0.  0.
          2    1    1    2  501    0  0.93644736611E+01 -0.71820683327E+02 -0.71041941709E+02  0.10145374021E+03  0.00000000000E+00 0. -1.
          1    1    1    2  502    0 -0.80026673799E+02 -0.15509242926E+01  0.61157848931E+03  0.61679406812E+03  0.00000000000E+00 0. -1.
         22    1    3    3    0    0  0.73659838015E+02  0.10395988846E+03  0.55619684295E+02  0.13902150706E+03  0.00000000000E+00 0.  1.
         22    1    3    3    0    0 -0.29976378774E+01 -0.30588280836E+02 -0.22805704864E+01  0.30819308219E+02  0.00000000000E+00 0.  1.
</event>
<event>
 7    1  0.7802682E-006  0.1329815E+03  0.7818608E-02  0.1369510E+00
          2   -1    0    0  502    0  0.00000000000E+00  0.00000000000E+00  0.24301716517E+04  0.24301716517E+04  0.00000000000E+00 0. -1.
          1   -1    0    0  501    0 -0.00000000000E+00 -0.00000000000E+00 -0.41924191006E+02  0.41924191006E+02  0.00000000000E+00 0. -1.
         25    2    1    2    0    0  0.98908505444E+02 -0.47030623535E+02  0.76888203081E+03  0.78663759845E+03  0.12499744796E+03 0.  0.
          2    1    1    2  501    0  0.21741545184E+02 -0.26222342615E+02 -0.20349993961E+02  0.39679066187E+02  0.00000000000E+00 0. -1.
          1    1    1    2  502    0 -0.12065005063E+03  0.73252966150E+02  0.16397154239E+04  0.16457791781E+04  0.00000000000E+00 0. -1.
         22    1    3    3    0    0  0.64407391301E+02 -0.56450586841E+02  0.21253325187E+03  0.22914048957E+03  0.00000000000E+00 0.  1.
         22    1    3    3    0    0  0.34501114144E+02  0.94199633061E+01  0.55634877894E+03  0.55749710888E+03  0.00000000000E+00 0.  1.
</event>
<event>
 7    1  0.7802682E-006  0.6425032E+02  0.7818608E-02  0.1420756E+00
          2   -1    0    0  502    0  0.00000000000E+00  0.00000000000E+00  0.11389500144E+03  0.11389500144E+03  0.00000000000E+00 0. -1.
          1   -1    0    0  501    0 -0.00000000000E+00 -0.00000000000E+00 -0.94304980331E+03  0.94304980331E+03  0.00000000000E+00 0. -1.
         25    2    1    2    0    0 -0.31557595832E+02 -0.27743050154E+02 -0.28803677368E+03  0.31679192343E+03  0.12500552417E+03 0.  0.
          2    1    1    2  501    0  0.75868036668E+01  0.67989564131E+02 -0.63317639290E+03  0.63686143308E+03  0.00000000000E+00 0. -1.
          1    1    1    2  502    0  0.23970792165E+02 -0.40246513977E+02  0.92058364713E+02  0.10329144823E+03  0.00000000000E+00 0. -1.
         22    1    3    3    0    0 -0.62302290726E+02  0.87038650259E+01 -0.72245425948E+02  0.95795272672E+02  0.00000000000E+00 0. -1.
         22    1    3    3    0    0  0.30744694894E+02 -0.36446915180E+02 -0.21579134773E+03  0.22099665076E+03  0.00000000000E+00 0. -1.
</event>
<event>
 7    1  0.7802682E-006  0.7055442E+02  0.7818608E-02  0.1423309E+00
          2   -1    0    0  502    0  0.00000000000E+00  0.00000000000E+00  0.24186734722E+04  0.24186734722E+04  0.00000000000E+00 0. -1.
          1   -1    0    0  501    0 -0.00000000000E+00 -0.00000000000E+00 -0.29498674778E+02  0.29498674778E+02  0.00000000000E+00 0. -1.
         25    2    1    2    0    0  0.24716594852E+02 -0.39350850113E+02  0.24792906654E+03  0.28152013265E+03  0.12500145435E+03 0.  0.
          2    1    1    2  501    0 -0.63187272399E+02  0.55779820446E+02  0.12975771289E+03  0.15472906584E+03  0.00000000000E+00 0. -1.
          1    1    1    2  502    0  0.38470677547E+02 -0.16428970333E+02  0.20114880180E+04  0.20119229485E+04  0.00000000000E+00 0. -1.
         22    1    3    3    0    0 -0.44238186827E+02  0.13683783924E+02  0.82065457224E+02  0.94228458470E+02  0.00000000000E+00 0.  1.
         22    1    3    3    0    0  0.68954781679E+02 -0.53034634037E+02  0.16586360931E+03  0.18729167418E+03  0.00000000000E+00 0.  1.
</event>
<event>
 7    1  0.7802682E-006  0.4702253E+02  0.7818608E-02  0.1472228E+00
          2   -1    0    0  502    0  0.00000000000E+00  0.00000000000E+00  0.10140933618E+04  0.10140933618E+04  0.00000000000E+00 0. -1.
          1   -1    0    0  501    0 -0.00000000000E+00 -0.00000000000E+00 -0.29709800035E+02  0.29709800035E+02  0.00000000000E+00 0. -1.
         25    2    1    2    0    0  0.32816235470E+02 -0.47899331059E+01  0.56321022077E+03  0.57786759986E+03  0.12500144567E+03 0.  0.
          2    1    1    2  501    0 -0.19496687256E+02 -0.42790159172E+02  0.55081028875E+01  0.47344035879E+02  0.00000000000E+00 0. -1.
          1    1    1    2  502    0 -0.13319548215E+02  0.47580092278E+02  0.41566523807E+03  0.41859152606E+03  0.00000000000E+00 0. -1.
         22    1    3    3    0    0  0.79648249744E+02  0.95739133652E+01  0.33752804125E+03  0.34693037073E+03  0.00000000000E+00 0.  1.
         22    1    3    3    0    0 -0.46832014273E+02 -0.14363846471E+02  0.22568217951E+03  0.23093722913E+03  0.00000000000E+00 0.  1.
</event>
<event>
 7    1  0.7802682E-006  0.1017435E+03  0.7818608E-02  0.1356345E+00
          2   -1    0    0  502    0  0.00000000000E+00  0.00000000000E+00  0.73938648340E+03  0.73938648340E+03  0.00000000000E+00 0. -1.
          1   -1    0    0  501    0 -0.00000000000E+00 -0.00000000000E+00 -0.20078012248E+03  0.20078012248E+03  0.00000000000E+00 0. -1.
         25    2    1    2    0    0  0.38123272071E+01 -0.10828249995E+03 -0.33126212723E+02  0.16870533478E+03  0.12499804150E+03 0.  0.
          2    1    1    2  501    0  0.45825339320E+02  0.19253385469E+02 -0.89522514933E+02  0.10239597285E+03  0.00000000000E+00 0. -1.
          1    1    1    2  502    0 -0.49637666527E+02  0.89029114480E+02  0.66125508857E+03  0.66906529825E+03  0.00000000000E+00 0. -1.
         22    1    3    3    0    0 -0.52466777085E+02 -0.74392425756E+02 -0.45633052666E+02  0.10183010951E+03  0.00000000000E+00 0. -1.
         22    1    3    3    0    0  0.56279104292E+02 -0.33890074194E+02  0.12506839943E+02  0.66875225264E+02  0.00000000000E+00 0. -1.
</event>
<event>
 7    1  0.7802682E-006  0.1514498E+03  0.7818608E-02  0.1417727E+00
          2   -1    0    0  502    0  0.00000000000E+00  0.00000000000E+00  0.22673692426E+03  0.22673692426E+03  0.00000000000E+00 0. -1.
          1   -1    0    0  501    0 -0.00000000000E+00 -0.00000000000E+00 -0.52596555722E+03  0.52596555722E+03  0.00000000000E+00 0. -1.
         25    2    1    2    0    0 -0.10027880883E+03  0.11724498506E+03 -0.33098547856E+03  0.38597658869E+03  0.12499725586E+03 0.  0.
          2    1    1    2  501    0  0.17890149742E+02  0.96815801270E+01 -0.13789859843E+03  0.13939086735E+03  0.00000000000E+00 0. -1.
          1    1    1    2  502    0  0.82388659086E+02 -0.12692656519E+03  0.16965544405E+03  0.22733502544E+03  0.00000000000E+00 0. -1.
         22    1    3    3    0    0  0.82144831643E+01  0.29642789250E+02 -0.17102189241E+03  0.17376610824E+03  0.00000000000E+00 0. -1.
         22    1    3    3    0    0 -0.10849329199E+03  0.87602195813E+02 -0.15996358616E+03  0.21221048045E+03  0.00000000000E+00 0. -1.
</event>
<event>
 7    1  0.7802682E-006  0.4440255E+02  0.7818608E-02  0.1481408E+00
          2   -1    0    0  502    0  0.00000000000E+00  0.00000000000E+00  0.10026617785E+02  0.10026617785E+02  0.00000000000E+00 0. -1.
          1   -1    0    0  501    0 -0.00000000000E+00 -0.00000000000E+00 -0.25816935091E+04  0.25816935091E+04  0.00000000000E+00 0. -1.
         25    2    1    2    0    0 -0.46940187076E+02 -0.15355655183E+02 -0.59421096399E+03  0.60922143583E+03  0.12499964336E+03 0.  0.
          2    1    1    2  501    0  0.31041621104E+02 -0.30300514460E+02 -0.17197649508E+04  0.17203119454E+04  0.00000000000E+00 0. -1.
          1    1    1    2  502    0  0.15898565972E+02  0.45656169643E+02 -0.25769097658E+03  0.26218674573E+03  0.00000000000E+00 0. -1.
         22    1    3    3    0    0  0.26210282128E+02  0.18111308972E+02 -0.51332639918E+02  0.60415547030E+02  0.00000000000E+00 0. -1.
         22    1    3    3    0    0 -0.73150469204E+02 -0.33466964155E+02 -0.54287832408E+03  0.54880588880E+03  0.00000000000E+00 0. -1.
</event>
<event>
 7    1  0.7802682E-006  0.8967385E+02  0.7818608E-02  0.1411823E+00
          2   -1    0    0  502    0  0.00000000000E+00  0.00000000000E+00  0.50173449987E+03  0.50173449987E+03  0.00000000000E+00 0. -1.
          1   -1    0    0  501    0 -0.00000000000E+00 -0.00000000000E+00 -0.11115016171E+04  0.11115016171E+04  0.00000000000E+00 0. -1.
         25    2    1    2    0    0 -0.52596532133E+02 -0.13459499181E+02  0.18511828131E+03  0.22987177696E+03  0.12499880982E+03 0.  0.
          2    1    1    2  501    0  0.88399229123E+02  0.16856866132E+02 -0.10861581075E+04  0.10898798154E+04  0.00000000000E+00 0. -1.
          1    1    1    2  502    0 -0.35802696990E+02 -0.33973669515E+01  0.29127270893E+03  0.29348452460E+03  0.00000000000E+00 0. -1.
         22    1    3    3    0    0  0.31920686499E+02 -0.18985842280E+02  0.11193779809E+03  0.11793838678E+03  0.00000000000E+00 0. -1.
         22    1    3    3    0    0 -0.84517218632E+02  0.55263430989E+01  0.73180483221E+02  0.11193339018E+03  0.00000000000E+00 0. -1.
</event>
<event>
 7    1  0.7802682E-006  0.6399452E+02  0.7818608E-02  0.1461800E+00
          2   -1    0    0  502    0  0.00000000000E+00  0.00000000000E+00  0.23746756232E+04  0.23746756232E+04  0.00000000000E+00 0. -1.
          1   -1    0    0  501    0 -0.00000000000E+00 -0.00000000000E+00 -0.33929473393E+03  0.33929473393E+03  0.00000000000E+00 0. -1.
         25    2    1    2    0    0 -0.30124689644E+02  0.20047980247E+02  0.63827214140E+03  0.65140216164E+03  0.12499612504E+03 0.  0.
          2    1    1    2  501    0 -0.10789797470E+02  0.32901863195E+02 -0.33117965989E+03  0.33298486370E+03  0.00000000000E+00 0. -1.
          1    1    1    2  502    0  0.40914487114E+02 -0.52949843442E+02  0.17282884078E+04  0.17295833318E+04  0.00000000000E+00 0. -1.
         22    1    3    3    0    0 -0.51644273204E+02  0.25050962208E+02  0.62022287422E+03  0.62287325787E+03  0.00000000000E+00 0. -1.
         22    1    3    3    0    0  0.21519583560E+02 -0.50029819605E+01  0.18049267180E+02  0.28528903779E+02  0.00000000000E+00 0. -1.
</event>
<event>
 7    1  0.7802682E-006  0.1101480E+03  0.7818608E-02  0.1461134E+00
          2   -1    0    0  502    0  0.00000000000E+00  0.00000000000E+00  0.10463487262E+03  0.10463487262E+03  0.00000000000E+00 0. -1.
          1   -1    0    0  501    0 -0.00000000000E+00 -0.00000000000E+00 -0.20188866344E+04  0.20188866344E+04  0.00000000000E+00 0. -1.
         25    2    1    2    0    0  0.63653871307E+02  0.68610214843E+02 -0.14824689273E+03  0.21531853330E+03  0.12500301063E+03 0.  0.
          2    1    1    2  501    0 -0.66918237436E+02 -0.88559542271E+02 -0.18339543405E+04  0.18373103619E+04  0.00000000000E+00 0. -1.
          1    1    1    2  502    0  0.32643661289E+01  0.19949327428E+02  0.67949471398E+02  0.70892611846E+02  0.00000000000E+00 0. -1.
         22    1    3    3    0    0  0.62399178363E+02  0.83831654862E+02 -0.49926724141E+02  0.11581917631E+03  0.00000000000E+00 0.  1.
         22    1    3    3    0    0  0.12546929441E+01 -0.15221440019E+02 -0.98320168593E+02  0.99499356996E+02  0.00000000000E+00 0.  1.
</event>
<event>
 7    1  0.7802682E-006  0.6546663E+02  0.7818608E-02  0.1503130E+00
          2   -1    0    0  502    0  0.00000000000E+00  0.00000000000E+00  0.10736299109E+04  0.10736299109E+04  0.00000000000E+00 0. -1.
          1   -1    0    0  501    0 -0.00000000000E+00 -0.00000000000E+00 -0.31983547561E+03  0.31983547561E+03  0.00000000000E+00 0. -1.
         25    2    1    2    0    0 -0.27293251825E+02  0.75884606592E+02 -0.13776378368E+03  0.20274823976E+03  0.12499837406E+03 0.  0.
          2    1    1    2  501    0  0.22957948919E+02 -0.10634786212E+02 -0.14747421199E+03  0.14962890529E+03  0.00000000000E+00 0. -1.
          1    1    1    2  502    0  0.43353029061E+01 -0.65249820380E+02  0.10390324310E+04  0.10410882415E+04  0.00000000000E+00 0. -1.
         22    1    3    3    0    0 -0.60072249061E+01  0.21673997165E+02 -0.14254871974E+03  0.14431211455E+03  0.00000000000E+00 0.  1.
         22    1    3    3    0    0 -0.21286026919E+02  0.54210609427E+02  0.47849360609E+01  0.58436125210E+02  0.00000000000E+00 0.  1.
</event>
<event>
 7    1  0.7802682E-006  0.4748859E+02  0.7818608E-02  0.1514798E+00
          2   -1    0    0  502    0  0.00000000000E+00  0.00000000000E+00  0.32929146575E+03  0.32929146575E+03  0.00000000000E+00 0. -1.
          1   -1    0    0  501    0 -0.00000000000E+00 -0.00000000000E+00 -0.86718558712E+03  0.86718558712E+03  0.00000000000E+00 0. -1.
         25    2    1    2    0    0  0.43192333361E+01 -0.32277420878E+02 -0.25053428292E+03  0.28187383156E+03  0.12499976929E+03 0.  0.
          2    1    1    2  501    0  0.32181925419E+02  0.16508610295E+01 -0.59873599837E+03  0.59960253286E+03  0.00000000000E+00 0. -1.
          1    1    1    2  502    0 -0.36501158755E+02  0.30626559848E+02  0.31137615993E+03  0.31500068846E+03  0.00000000000E+00 0. -1.
         22    1    3    3    0    0  0.19251588248E+02 -0.74970586029E+02 -0.19776977401E+03  0.21237724909E+03  0.00000000000E+00 0.  1.
         22    1    3    3    0    0 -0.14932354912E+02  0.42693165151E+02 -0.52764508914E+02  0.69496582469E+02  0.00000000000E+00 0.  1.
</event>
<event>
 7    1  0.7802682E-006  0.1216441E+03  0.7818608E-02  0.1273489E+00
          2   -1    0    0  502    0  0.00000000000E+00  0.00000000000E+00  0.58621429442E+02  0.58621429442E+02  0.00000000000E+00 0. -1.
          1   -1    0    0  501    0 -0.00000000000E+00 -0.00000000000E+00 -0.18002556323E+04  0.18002556323E+04  0.00000000000E+00 0. -1.
         25    2    1    2    0    0 -0.65688199219E+02  0.34719286977E+02 -0.40225587753E+03  0.42773674277E+03  0.12501424597E+03 0.  0.
          2    1    1    2  501    0  0.44842469450E+01  0.87621573154E+02 -0.12783347577E+04  0.12813420314E+04  0.00000000000E+00 0. -1.
          1    1    1    2  502    0  0.61203952274E+02 -0.12234086013E+03 -0.61043567643E+02  0.14979828765E+03  0.00000000000E+00 0. -1.
         22    1    3    3    0    0 -0.91082968328E+02 -0.77684457072E+01 -0.30792899321E+03  0.32121133343E+03  0.00000000000E+00 0.  1.
         22    1    3    3    0    0  0.25394769109E+02  0.42487732684E+02 -0.94326884325E+02  0.10652540933E+03  0.00000000000E+00 0.  1.
</event>
<event>
 7    1  0.7802682E-006  0.1570700E+03  0.7818608E-02  0.1338813E+00
          2   -1    0    0  502    0  0.00000000000E+00  0.00000000000E+00  0.78180279064E+03  0.78180279064E+03  0.00000000000E+00 0. -1.
          1   -1    0    0  501    0 -0.00000000000E+00 -0.00000000000E+00 -0.91313418453E+03  0.91313418453E+03  0.00000000000E+00 0. -1.
         25    2    1    2    0    0 -0.77280122853E+02 -0.93361900951E+02 -0.22148874502E+03  0.28172884359E+03  0.12500086081E+03 0.  0.
          2    1    1    2  501    0 -0.19083614539E+02 -0.32179431999E+02 -0.65265355611E+03  0.65372499148E+03  0.00000000000E+00 0. -1.
          1    1    1    2  502    0  0.96363737392E+02  0.12554133295E+03  0.74281090725E+03  0.75948314010E+03  0.00000000000E+00 0. -1.
         22    1    3    3    0    0 -0.57416164350E+02  0.79429978449E+01 -0.32680869686E+02  0.66541313384E+02  0.00000000000E+00 0. -1.
         22    1    3    3    0    0 -0.19863958503E+02 -0.10130489880E+03 -0.18880787534E+03  0.21518753021E+03  0.00000000000E+00 0. -1.
</event>
<event>
 7    1  0.7802682E-006  0.9788698E+02  0.7818608E-02  0.1359548E+00
          2   -1    0    0  502    0  0.00000000000E+00  0.00000000000E+00  0.38003774924E+03  0.38003774924E+03  0.00000000000E+00 0. -1.
          1   -1    0    0  501    0 -0.00000000000E+00 -0.00000000000E+00 -0.30054397872E+03  0.30054397872E+03  0.00000000000E+00 0. -1.
         25    2    1    2    0    0  0.78905958883E+02 -0.43551237872E+02  0.15792925040E+03  0.22065776739E+03  0.12500136604E+03 0.  0.
          2    1    1    2  501    0  0.26320301792E+02  0.42849691890E+02 -0.25199085223E+03  0.25695961548E+03  0.00000000000E+00 0. -1.
          1    1    1    2  502    0 -0.10522626067E+03  0.70154598219E+00  0.17355537235E+03  0.20296434508E+03  0.00000000000E+00 0. -1.
         22    1    3    3    0    0 -0.30079842944E+02  0.56529673612E+01  0.14345616239E+02  0.33801622695E+02  0.00000000000E+00 0.  1.
         22    1    3    3    0    0  0.10898580183E+03 -0.49204205233E+02  0.14358363416E+03  0.18685614470E+03  0.00000000000E+00 0.  1.
</event>
<event>
 7    1  0.7802682E-006  0.2217688E+03  0.7818608E-02  0.1238514E+00
          2   -1    0    0  502    0  0.00000000000E+00  0.00000000000E+00  0.23337041212E+04  0.23337041212E+04  0.00000000000E+00 0. -1.
          1   -1    0    0  501    0 -0.00000000000E+00 -0.00000000000E+00 -0.18259748831E+03  0.18259748831E+03  0.00000000000E+00 0. -1.
         25    2    1    2    0    0 -0.14505008246E+02  0.17367607220E+03  0.25837251168E+03  0.33578557574E+03  0.12498729841E+03 0.  0.
          2    1    1    2  501    0  0.47707429999E+02 -0.23304385882E+03 -0.44571470811E+02  0.24201664204E+03  0.00000000000E+00 0. -1.
          1    1    1    2  502    0 -0.33202421753E+02  0.59367786626E+02  0.19373055920E+04  0.19384993917E+04  0.00000000000E+00 0. -1.
         22    1    3    3    0    0  0.30668090629E+02  0.21756769864E+02  0.64466176483E+01  0.38150330232E+02  0.00000000000E+00 0. -1.
         22    1    3    3    0    0 -0.45173098875E+02  0.15191930233E+03  0.25192589403E+03  0.29763524551E+03  0.00000000000E+00 0. -1.
</event>
<event>
 7    1  0.7802682E-006  0.7660552E+02  0.7818608E-02  0.1453657E+00
          2   -1    0    0  502    0  0.00000000000E+00  0.00000000000E+00  0.40406708297E+03  0.40406708297E+03  0.00000000000E+00 0. -1.
          1   -1    0    0  501    0 -0.00000000000E+00 -0.00000000000E+00 -0.31236289993E+03  0.31236289993E+03  0.00000000000E+00 0. -1.
         25    2    1    2    0    0 -0.92766467979E+02 -0.27689583209E+02 -0.10116516977E+03  0.18769999452E+03  0.12499826306E+03 0.  0.
          2    1    1    2  501    0  0.73140117026E+02  0.40901275595E+01 -0.15924204360E+03  0.17528329730E+03  0.00000000000E+00 0. -1.
          1    1    1    2  502    0  0.19626350953E+02  0.23599455649E+02  0.35211139641E+03  0.35344669108E+03  0.00000000000E+00 0. -1.
         22    1    3    3    0    0 -0.11168380852E+03 -0.35717203770E+02 -0.41155102067E+02  0.12426879801E+03  0.00000000000E+00 0.  1.
         22    1    3    3    0    0  0.18917340545E+02  0.80276205614E+01 -0.60010067702E+02  0.63431196511E+02  0.00000000000E+00 0.  1.
</event>
<event>
 7    1  0.7802682E-006  0.9012108E+02  0.7818608E-02  0.1454837E+00
          2   -1    0    0  502    0  0.00000000000E+00  0.00000000000E+00  0.96312833481E+03  0.96312833481E+03  0.00000000000E+00 0. -1.
          1   -1    0    0  501    0 -0.00000000000E+00 -0.00000000000E+00 -0.11559804678E+03  0.11559804678E+03  0.00000000000E+00 0. -1.
         25    2    1    2    0    0  0.73491058603E+02 -0.62972637866E+02  0.14291605409E+03  0.21311124329E+03  0.12499965873E+03 0.  0.
          2    1    1    2  501    0 -0.23175066873E+02 -0.11488457876E+02 -0.75775150563E+02  0.80068357244E+02  0.00000000000E+00 0. -1.
          1    1    1    2  502    0 -0.50315991730E+02  0.74461095742E+02  0.78038938450E+03  0.78554678107E+03  0.00000000000E+00 0. -1.
         22    1    3    3    0    0 -0.11816009727E+02 -0.70789632330E+02  0.55563789251E+02  0.90764116297E+02  0.00000000000E+00 0.  1.
         22    1    3    3    0    0  0.85307068330E+02  0.78169944642E+01  0.87352264842E+02  0.12234712699E+03  0.00000000000E+00 0.  1.
</event>
<event>
 7    1  0.7802682E-006  0.1138859E+03  0.7818608E-02  0.1330427E+00
          2   -1    0    0  502    0  0.00000000000E+00  0.00000000000E+00  0.27848170147E+04  0.27848170147E+04  0.00000000000E+00 0. -1.
          1   -1    0    0  501    0 -0.00000000000E+00 -0.00000000000E+00 -0.28912862369E+03  0.28912862369E+03  0.00000000000E+00 0. -1.
         25    2    1    2    0    0 -0.13520020394E+03  0.39508605522E+01  0.11141451864E+04  0.11292671505E+04  0.12502038330E+03 0.  0.
          2    1    1    2  501    0  0.10270650629E+03 -0.48969712073E+02 -0.26958680234E+03  0.29261528178E+03  0.00000000000E+00 0. -1.
          1    1    1    2  502    0  0.32493697645E+02  0.45018851521E+02  0.16511300069E+04  0.16520632061E+04  0.00000000000E+00 0. -1.
         22    1    3    3    0    0 -0.12206611013E+03  0.56758038222E+01  0.49087883495E+03  0.50586004052E+03  0.00000000000E+00 0. -1.
         22    1    3    3    0    0 -0.13134093806E+02 -0.17249432700E+01  0.62326635150E+03  0.62340710997E+03  0.00000000000E+00 0. -1.
</event>
<event>
 7    1  0.7802682E-006  0.9543581E+02  0.7818608E-02  0.1340954E+00
          2   -1    0    0  502    0  0.00000000000E+00  0.00000000000E+00  0.81196039713E+03  0.81196039713E+03  0.00000000000E+00 0. -1.
          1   -1    0    0  501    0 -0.00000000000E+00 -0.00000000000E+00 -0.28113457730E+03  0.28113457730E+03  0.00000000000E+00 0. -1.
         25    2    1    2    0    0 -0.97753028166E+01 -0.63995630545E+02  0.85261894409E+02  0.16457786979E+03  0.12500114925E+03 0.  0.
          2    1    1    2  501    0  0.55383030135E+02 -0.24208241920E+02 -0.23402893738E+03  0.24170821777E+03  0.00000000000E+00 0. -1.
          1    1    1    2  502    0 -0.45607727318E+02  0.88203872465E+02  0.67959286280E+03  0.68680888687E+03  0.00000000000E+00 0. -1.
         22    1    3    3    0    0  0.11192593761E+02  0.13914157839E+02 -0.23276171629E+02  0.29336975119E+02  0.00000000000E+00 0. -1.
         22    1    3    3    0    0 -0.20967896578E+02 -0.77909788384E+02  0.10853806604E+03  0.13524089467E+03  0.00000000000E+00 0. -1.
</event>
<event>
 7    1  0.7802682E-006  0.3645650E+02  0.7818608E-02  0.1561258E+00
          2   -1    0    0  502    0  0.00000000000E+00  0.00000000000E+00  0.40023564261E+03  0.40023564261E+03  0.00000000000E+00 0. -1.
          1   -1    0    0  501    0 -0.00000000000E+00 -0.00000000000E+00 -0.60741843784E+02  0.60741843784E+02  0.00000000000E+00 0. -1.
         25    2    1    2    0    0  0.22244591135E+02  0.32421508200E+02  0.11259710542E+03  0.17276638183E+03  0.12499655400E+03 0.  0.
          2    1    1    2  501    0 -0.30800293837E+02  0.34632809087E+01 -0.21094051627E+02  0.37491484756E+02  0.00000000000E+00 0. -1.
          1    1    1    2  502    0  0.85557027026E+01 -0.35884789109E+02  0.24799074503E+03  0.25071961981E+03  0.00000000000E+00 0. -1.
         22    1    3    3    0    0  0.24454103940E+02  0.56232197914E+02  0.38707515574E+01  0.61441402974E+02  0.00000000000E+00 0. -1.
         22    1    3    3    0    0 -0.22095128054E+01 -0.23810689714E+02  0.10872635387E+03  0.11132497885E+03  0.00000000000E+00 0. -1.
</event>
<event>
 7    1  0.7802682E-006  0.5152882E+03  0.7818608E-02  0.1174615E+00
          2   -1    0    0  502    0  0.00000000000E+00  0.00000000000E+00  0.86017852760E+03  0.86017852760E+03  0.00000000000E+00 0. -1.
          1   -1    0    0  501    0 -0.00000000000E+00 -0.00000000000E+00 -0.80593886996E+03  0.80593886996E+03  0.00000000000E+00 0. -1.
         25    2    1    2    0    0 -0.52277521907E+03  0.16662825978E+03  0.43062160017E+03  0.70860349907E+03  0.12500019892E+03 0.  0.
          2    1    1    2  501    0  0.49675802885E+03 -0.11459564661E+03 -0.56448476217E+03  0.76062063354E+03  0.00000000000E+00 0. -1.
          1    1    1    2  502    0  0.26017190219E+02 -0.52032613176E+02  0.18810281964E+03  0.19689326494E+03  0.00000000000E+00 0. -1.
         22    1    3    3    0    0 -0.26673369559E+03  0.57505751734E+02  0.14182455479E+03  0.30751907288E+03  0.00000000000E+00 0. -1.
         22    1    3    3    0    0 -0.25604152348E+03  0.10912250805E+03  0.28879704539E+03  0.40108442619E+03  0.00000000000E+00 0. -1.
</event>
<event>
 7    1  0.7802682E-006  0.1347397E+03  0.7818608E-02  0.1325288E+00
          2   -1    0    0  502    0  0.00000000000E+00  0.00000000000E+00  0.21347994930E+04  0.21347994930E+04  0.00000000000E+00 0. -1.
          1   -1    0    0  501    0 -0.00000000000E+00 -0.00000000000E+00 -0.50096305898E+03  0.50096305898E+03  0.00000000000E+00 0. -1.
         25    2    1    2    0    0 -0.38967065067E+02 -0.94579066029E+02  0.73837063715E+03  0.75583040662E+03  0.12499909550E+03 0.  0.
          2    1    1    2  501    0  0.10760890133E+02  0.13477495890E+03 -0.48250332211E+03  0.50108835763E+03  0.00000000000E+00 0. -1.
          1    1    1    2  502    0  0.28206174934E+02 -0.40195892874E+02  0.13779691190E+04  0.13788437878E+04  0.00000000000E+00 0. -1.
         22    1    3    3    0    0 -0.42026529722E+02  0.14819726426E+02  0.33212605090E+03  0.33510232344E+03  0.00000000000E+00 0. -1.
         22    1    3    3    0    0  0.30594646545E+01 -0.10939879245E+03  0.40624458625E+03  0.42072808318E+03  0.00000000000E+00 0. -1.
</event>
<event>
 7    1  0.7802682E-006  0.9697350E+02  0.7818608E-02  0.1342749E+00
          2   -1    0    0  502    0  0.00000000000E+00  0.00000000000E+00  0.23005669394E+03  0.23005669394E+03  0.00000000000E+00 0. -1.
          1   -1    0    0  501    0 -0.00000000000E+00 -0.00000000000E+00 -0.14062989279E+04  0.14062989279E+04  0.00000000000E+00 0. -1.
         25    2    1    2    0    0  0.45801224239E+02 -0.12889807414E+03 -0.69823723788E+02  0.19802128516E+03  0.12499844525E+03 0.  0.
          2    1    1    2  501    0  0.14164104460E+02  0.56830741186E+02 -0.12584001171E+04  0.12597623624E+04  0.00000000000E+00 0. -1.
          1    1    1    2  502    0 -0.59965328699E+02  0.72067332953E+02  0.15198160698E+03  0.17857197424E+03  0.00000000000E+00 0. -1.
         22    1    3    3    0    0 -0.12773613875E+02  0.17106326981E+02  0.76302972604E+01  0.22671856353E+02  0.00000000000E+00 0.  1.
         22    1    3    3    0    0  0.58574838113E+02 -0.14600440112E+03 -0.77454021048E+02  0.17534942881E+03  0.00000000000E+00 0.  1.
</event>
<event>
 7    1  0.7802682E-006  0.4553318E+02  0.7818608E-02  0.1546346E+00
          2   -1    0    0  502    0  0.00000000000E+00  0.00000000000E+00  0.11098707847E+04  0.11098707847E+04  0.00000000000E+00 0. -1.
          1   -1    0    0  501    0 -0.00000000000E+00 -0.00000000000E+00 -0.29633444580E+02  0.29633444580E+02  0.00000000000E+00 0. -1.
         25    2    1    2    0    0  0.37710373440E+01 -0.18560502896E+02  0.93298681799E+03  0.94151262564E+03  0.12499163451E+03 0.  0.
          2    1    1    2  501    0 -0.60499768094E+01  0.45762356121E+02 -0.20598606221E+01  0.46206476634E+02  0.00000000000E+00 0. -1.
          1    1    1    2  502    0  0.22789394654E+01 -0.27201853225E+02  0.14931038273E+03  0.15178512699E+03  0.00000000000E+00 0. -1.
         22    1    3    3    0    0  0.22254494106E+02  0.49711636271E+02  0.34228175870E+03  0.34658810082E+03  0.00000000000E+00 0.  1.
         22    1    3    3    0    0 -0.18483456762E+02 -0.68272139167E+02  0.59070505929E+03  0.59492452482E+03  0.00000000000E+00 0.  1.
</event>
<event>
 7    1  0.7802682E-006  0.4248719E+03  0.7818608E-02  0.1164460E+00
          2   -1    0    0  502    0  0.00000000000E+00  0.00000000000E+00  0.14130192274E+04  0.14130192274E+04  0.00000000000E+00 0. -1.
          1   -1    0    0  501    0 -0.00000000000E+00 -0.00000000000E+00 -0.14775755473E+04  0.14775755473E+04  0.00000000000E+00 0. -1.
         25    2    1    2    0    0  0.40687125091E+03  0.22484494730E+03  0.45602095449E+03  0.66308282465E+03  0.12499702502E+03 0.  0.
          2    1    1    2  501    0 -0.39674006132E+03 -0.14624450606E+03 -0.13395566084E+04  0.14047071008E+04  0.00000000000E+00 0. -1.
          1    1    1    2  502    0 -0.10131189586E+02 -0.78600441242E+02  0.81897933404E+03  0.82280484925E+03  0.00000000000E+00 0. -1.
         22    1    3    3    0    0  0.76521124974E+02 -0.63310706997E+01  0.92348860031E+02  0.12009944618E+03  0.00000000000E+00 0. -1.
         22    1    3    3    0    0  0.33035012593E+03  0.23117601800E+03  0.36367209446E+03  0.54298337847E+03  0.00000000000E+00 0. -1.
</event>
<event>
 7    1  0.7802682E-006  0.7453907E+02  0.7818608E-02  0.1488307E+00
          2   -1    0    0  502    0  0.00000000000E+00  0.00000000000E+00  0.25667016269E+04  0.25667016269E+04  0.00000000000E+00 0. -1.
          1   -1    0    0  501    0 -0.00000000000E+00 -0.00000000000E+00 -0.13913587419E+04  0.13913587419E+04  0.00000000000E+00 0. -1.
         25    2    1    2    0    0 -0.33120976836E+02 -0.92958047205E+02  0.12260937814E+03  0.20098921483E+03  0.12500162887E+03 0.  0.
          2    1    1    2  501    0  0.10249514532E+02  0.22384445481E+02 -0.13514845485E+04  0.13517087707E+04  0.00000000000E+00 0. -1.
          1    1    1    2  502    0  0.22871462303E+02  0.70573601724E+02  0.24042180554E+04  0.24053623833E+04  0.00000000000E+00 0. -1.
         22    1    3    3    0    0 -0.34766666565E+02 -0.11178666392E+03  0.13476902731E+03  0.17851518159E+03  0.00000000000E+00 0. -1.
         22    1    3    3    0    0  0.16456897298E+01  0.18828616718E+02 -0.12159649166E+02  0.22474033239E+02  0.00000000000E+00 0. -1.
</event>
<event>
 7    1  0.7802682E-006  0.5605116E+02  0.7818608E-02  0.1527964E+00
          2   -1    0    0  502    0  0.00000000000E+00  0.00000000000E+00  0.16164188114E+04  0.16164188114E+04  0.00000000000E+00 0. -1.
          1   -1    0    0  501    0 -0.00000000000E+00 -0.00000000000E+00 -0.35189587465E+03  0.35189587465E+03  0.00000000000E+00 0. -1.
         25    2    1    2    0    0  0.26697723231E+02 -0.41970202872E+02  0.27164351451E+03  0.30313386474E+03  0.12500269845E+03 0.  0.
          2    1    1    2  501    0  0.21573064202E+02  0.12643182874E+02 -0.33508456357E+03  0.33601623758E+03  0.00000000000E+00 0. -1.
          1    1    1    2  502    0 -0.48270787433E+02  0.29327019998E+02  0.13279639858E+04  0.13291645837E+04  0.00000000000E+00 0. -1.
         22    1    3    3    0    0 -0.22132595137E+02 -0.31230187059E+02  0.14115436255E+02  0.40797327019E+02  0.00000000000E+00 0.  1.
         22    1    3    3    0    0  0.48830318369E+02 -0.10740015813E+02  0.25752807826E+03  0.26233653772E+03  0.00000000000E+00 0.  1.
</event>
<event>
 7    1  0.7802682E-006  0.8233205E+02  0.7818608E-02  0.1383730E+00
          2   -1    0    0  502    0  0.00000000000E+00  0.00000000000E+00  0.26627269219E+03  0.26627269219E+03  0.00000000000E+00 0. -1.
          1   -1    0    0  501    0 -0.00000000000E+00 -0.00000000000E+00 -0.23495213711E+03  0.23495213711E+03  0.00000000000E+00 0. -1.
         25    2    1    2    0    0 -0.21386650974E+02 -0.35607256268E+02  0.14763667305E+02  0.13254259800E+03  0.12499723547E+03 0.  0.
          2    1    1    2  501    0  0.28673702804E+02  0.84027277083E+02 -0.16134750990E+03  0.18416238344E+03  0.00000000000E+00 0. -1.
          1    1    1    2  502    0 -0.72870518308E+01 -0.48420020815E+02  0.17790439768E+03  0.18451984786E+03  0.00000000000E+00 0. -1.
         22    1    3    3    0    0  0.18415246477E+02  0.40548648778E+02 -0.35754860930E+01  0.44677716160E+02  0.00000000000E+00 0.  1.
         22    1    3    3    0    0 -0.39801897450E+02 -0.76155905046E+02  0.18339153398E+02  0.87864881844E+02  0.00000000000E+00 0.  1.
</event>
<event>
 7    1  0.7802682E-006  0.6031976E+02  0.7818608E-02  0.1469640E+00
          2   -1    0    0  502    0  0.00000000000E+00  0.00000000000E+00  0.15338461754E+04  0.15338461754E+04  0.00000000000E+00 0. -1.
          1   -1    0    0  501    0 -0.00000000000E+00 -0.00000000000E+00 -0.14365116402E+02  0.14365116402E+02  0.00000000000E+00 0. -1.
         25    2    1    2    0    0  0.28336433449E+02  0.13303817775E+02  0.13028231778E+04  0.13091810085E+04  0.12500694152E+03 0.  0.
          2    1    1    2  501    0 -0.45903492287E+02 -0.43248947414E+02  0.10920951342E+03  0.12611233040E+03  0.00000000000E+00 0. -1.
          1    1    1    2  502    0  0.17567058837E+02  0.29945129640E+02  0.10744836773E+03  0.11291795284E+03  0.00000000000E+00 0. -1.
         22    1    3    3    0    0  0.69920307749E+02 -0.26188019890E+00  0.46610036700E+03  0.47131567992E+03  0.00000000000E+00 0. -1.
         22    1    3    3    0    0 -0.41583874299E+02  0.13565697974E+02  0.83672281080E+03  0.83786532860E+03  0.00000000000E+00 0. -1.
</event>
<event>
 7    1  0.7802682E-006  0.2546241E+02  0.7818608E-02  0.1663687E+00
          2   -1    0    0  502    0  0.00000000000E+00  0.00000000000E+00  0.13623754801E+04  0.13623754801E+04  0.00000000000E+00 0. -1.
          1   -1    0    0  501    0 -0.00000000000E+00 -0.00000000000E+00 -0.63400780775E+03  0.63400780775E+03  0.00000000000E+00 0. -1.
         25    2    1    2    0    0 -0.44167540081E+02 -0.21696367532E+02  0.20221937636E+03  0.24277295859E+03  0.12499811714E+03 0.  0.
          2    1    1    2  501    0  0.24050278989E+02  0.82770504489E+01 -0.61333915499E+03  0.61386630835E+03  0.00000000000E+00 0. -1.
          1    1    1    2  502    0  0.20117261093E+02  0.13419317083E+02  0.11394874510E+04  0.11397440209E+04  0.00000000000E+00 0. -1.
         22    1    3    3    0    0  0.22772401110E+02 -0.42186402194E+02  0.29213379977E+02  0.56139971072E+02  0.00000000000E+00 0. -1.
         22    1    3    3    0    0 -0.66939941191E+02  0.20490034662E+02  0.17300599638E+03  0.18663298752E+03  0.00000000000E+00 0. -1.
</event>
<event>
 7    1  0.7802682E-006  0.6245382E+02  0.7818608E-02  0.1472764E+00
          2   -1    0    0  502    0  0.00000000000E+00  0.00000000000E+00  0.53874349780E+03  0.53874349780E+03  0.00000000000E+00 0. -1.
          1   -1    0    0  501    0 -0.00000000000E+00 -0.00000000000E+00 -0.18458109717E+04  0.18458109717E+04  0.00000000000E+00 0. -1.
         25    2    1    2    0    0  0.61864435726E+02 -0.63439638270E+01 -0.22992315817E+03  0.26899242644E+03  0.12499925013E+03 0.  0.
          2    1    1    2  501    0 -0.57041412220E+02 -0.26089960575E+02 -0.15952184874E+04  0.15964511992E+04  0.00000000000E+00 0. -1.
          1    1    1    2  502    0 -0.48230235061E+01  0.32433924402E+02  0.51807417162E+03  0.51911084396E+03  0.00000000000E+00 0. -1.
         22    1    3    3    0    0  0.78610186894E+02  0.30194235549E+01 -0.23608062061E+03  0.24884279743E+03  0.00000000000E+00 0.  1.
         22    1    3    3    0    0 -0.16745751169E+02 -0.93633873819E+01  0.61574624433E+01  0.20149629009E+02  0.00000000000E+00 0.  1.
</event>
<event>
 7    1  0.7802682E-006  0.6360100E+03  0.7818608E-02  0.1099229E+00
          2   -1    0    0  502    0  0.00000000000E+00  0.00000000000E+00  0.31309821515E+04  0.31309821515E+04  0.00000000000E+00 0. -1.
          1   -1    0    0  501    0 -0.00000000000E+00 -0.00000000000E+00 -0.10369013252E+04  0.10369013252E+04  0.00000000000E+00 0. -1.
         25    2    1    2    0    0 -0.52428112662E+02 -0.66825831995E+03  0.93062058627E+02  0.68818691678E+03  0.12499118566E+03 0.  0.
          2    1    1    2  501    0 -0.56700369538E+02  0.62414077632E+03 -0.60496122383E+03  0.87105954039E+03  0.00000000000E+00 0. -1.
          1    1    1    2  502    0  0.10912848220E+03  0.44117543631E+02  0.26059799916E+04  0.26086370195E+04  0.00000000000E+00 0. -1.
         22    1    3    3    0    0  0.26203484724E+02 -0.24133597975E+03  0.73523501524E+02  0.25364420555E+03  0.00000000000E+00 0.  1.
         22    1    3    3    0    0 -0.78631597386E+02 -0.42692234020E+03  0.19538557103E+02  0.43454271123E+03  0.00000000000E+00 0.  1.
</event>
<event>
 7    1  0.7802682E-006  0.1087678E+03  0.7818608E-02  0.1317291E+00
          2   -1    0    0  502    0  0.00000000000E+00  0.00000000000E+00  0.74442182915E+03  0.74442182915E+03  0.00000000000E+00 0. -1.
          1   -1    0    0  501    0 -0.00000000000E+00 -0.00000000000E+00 -0.73802571420E+02  0.73802571420E+02  0.00000000000E+00 0. -1.
         25    2    1    2    0    0 -0.78751179478E+02  0.26548106662E+02  0.17202585708E+03  0.22830839502E+03  0.12500110999E+03 0.  0.
          2    1    1    2  501    0  0.83040903842E+02 -0.91733080191E+02  0.45034929029E+02  0.13167723624E+03  0.00000000000E+00 0. -1.
          1    1    1    2  502    0 -0.42897243633E+01  0.65184973530E+02  0.45355847162E+03  0.45823876930E+03  0.00000000000E+00 0. -1.
         22    1    3    3    0    0 -0.26001414070E+02  0.71593943060E+02  0.11771892131E+03  0.14021237695E+03  0.00000000000E+00 0.  1.
         22    1    3    3    0    0 -0.52749765408E+02 -0.45045836398E+02  0.54306935767E+02  0.88096018070E+02  0.00000000000E+00 0.  1.
</event>
<event>
 7    1  0.7802682E-006  0.2681066E+03  0.7818608E-02  0.1228916E+00
          2   -1    0    0  502    0  0.00000000000E+00  0.00000000000E+00  0.13843191177E+04  0.13843191177E+04  0.00000000000E+00 0. -1.
          1   -1    0    0  501    0 -0.00000000000E+00 -0.00000000000E+00 -0.91752168204E+03  0.91752168204E+03  0.00000000000E+00 0. -1.
         25    2    1    2    0    0 -0.22965325562E+02 -0.21973522326E+03  0.85592433408E+02  0.26788160761E+03  0.12499406594E+03 0.  0.
          2    1    1    2  501    0  0.25131517517E+02 -0.56775318457E+02 -0.80934272400E+03  0.81172081090E+03  0.00000000000E+00 0. -1.
          1    1    1    2  502    0 -0.21661919546E+01  0.27651054172E+03  0.11905477262E+04  0.12222383812E+04  0.00000000000E+00 0. -1.
         22    1    3    3    0    0  0.43884343795E+02 -0.15105540750E+03  0.62746693157E+02  0.16935382862E+03  0.00000000000E+00 0.  1.
         22    1    3    3    0    0 -0.66849669357E+02 -0.68679815761E+02  0.22845740250E+02  0.98527778995E+02  0.00000000000E+00 0.  1.
</event>
<event>
 7    1  0.7802682E-006  0.2231671E+03  0.7818608E-02  0.1365262E+00
          2   -1    0    0  502    0  0.00000000000E+00  0.00000000000E+00  0.61772406770E+03  0.61772406770E+03  0.00000000000E+00 0. -1.
          1   -1    0    0  501    0 -0.00000000000E+00 -0.00000000000E+00 -0.78630886535E+03  0.78630886535E+03  0.00000000000E+00 0. -1.
         25    2    1    2    0    0  0.14789866902E+03 -0.16348783350E+03 -0.19029056342E+03  0.31691893156E+03  0.12499929061E+03 0.  0.
          2    1    1    2  501    0  0.16891544110E+02  0.12522461734E+02 -0.50995634613E+03  0.51038966610E+03  0.00000000000E+00 0. -1.
          1    1    1    2  502    0 -0.16479021313E+03  0.15096537177E+03  0.53166211189E+03  0.57672433540E+03  0.00000000000E+00 0. -1.
         22    1    3    3    0    0 -0.11736657334E+02 -0.55292306974E+02 -0.20970592486E+02  0.60288921744E+02  0.00000000000E+00 0. -1.
         22    1    3    3    0    0  0.15963532635E+03 -0.10819552653E+03 -0.16931997093E+03  0.25663000981E+03  0.00000000000E+00 0. -1.
</event>
<event>
 7    1  0.7802682E-006  0.4472061E+02  0.7818608E-02  0.1531753E+00
          2   -1    0    0  502    0  0.00000000000E+00  0.00000000000E+00  0.10291058165E+03  0.10291058165E+03  0.00000000000E+00 0. -1.
          1   -1    0    0  501    0 -0.00000000000E+00 -0.00000000000E+00 -0.35019773477E+03  0.35019773477E+03  0.00000000000E+00 0. -1.
         25    2    1    2    0    0  0.14362514446E+02  0.33098366081E+02 -0.20925396147E+02  0.13177409962E+03  0.12499902987E+03 0.  0.
          2    1    1    2  501    0  0.14581199236E+02 -0.42925075368E+02 -0.26681083578E+03  0.27063480108E+03  0.00000000000E+00 0. -1.
          1    1    1    2  502    0 -0.28943713682E+02  0.98267092878E+01  0.40449078805E+02  0.50699415710E+02  0.00000000000E+00 0. -1.
         22    1    3    3    0    0  0.54577970232E+02  0.51180426483E+02 -0.38694832023E+02  0.84234677626E+02  0.00000000000E+00 0.  1.
         22    1    3    3    0    0 -0.40215455786E+02 -0.18082060402E+02  0.17769435876E+02  0.47539421997E+02  0.00000000000E+00 0.  1.
</event>
<event>
 7    1  0.7802682E-006  0.1784184E+03  0.7818608E-02  0.1226668E+00
          2   -1    0    0  502    0  0.00000000000E+00  0.00000000000E+00  0.75031259689E+03  0.75031259689E+03  0.00000000000E+00 0. -1.
          1   -1    0    0  501    0 -0.00000000000E+00 -0.00000000000E+00 -0.56546279503E+03  0.56546279503E+03  0.00000000000E+00 0. -1.
         25    2    1    2    0    0  0.26763154360E+02  0.24401046489E+03 -0.16065717467E+03  0.31889277493E+03  0.12499800288E+03 0.  0.
          2    1    1    2  501    0  0.45623818317E+02 -0.83895663776E+02 -0.30680171055E+03  0.32132118634E+03  0.00000000000E+00 0. -1.
          1    1    1    2  502    0 -0.72386972677E+02 -0.16011480111E+03  0.65230868708E+03  0.67556143065E+03  0.00000000000E+00 0. -1.
         22    1    3    3    0    0 -0.47809326953E+02  0.11116322969E+03 -0.51681892602E+02  0.13158272455E+03  0.00000000000E+00 0. -1.
         22    1    3    3    0    0  0.74572481313E+02  0.13284723520E+03 -0.10897528207E+03  0.18731005037E+03  0.00000000000E+00 0. -1.
</event>
<event>
 7    1  0.7802682E-006  0.7685834E+02  0.7818608E-02  0.1406829E+00
          2   -1    0    0  502    0  0.00000000000E+00  0.00000000000E+00  0.10986440298E+04  0.10986440298E+04  0.00000000000E+00 0. -1.
          1   -1    0    0  501    0 -0.00000000000E+00 -0.00000000000E+00 -0.27008475558E+02  0.27008475558E+02  0.00000000000E+00 0. -1.
         25    2    1    2    0    0  0.41807597941E+02  0.34195030989E+02  0.40407002822E+03  0.42641454275E+03  0.12505838306E+03 0.  0.
          2    1    1    2  501    0 -0.88530938640E+01  0.42721566254E+02  0.23108750392E+02  0.49371285570E+02  0.00000000000E+00 0. -1.
          1    1    1    2  502    0 -0.32954504077E+02 -0.76916597242E+02  0.64445677566E+03  0.64986667707E+03  0.00000000000E+00 0. -1.
         22    1    3    3    0    0 -0.14993792012E+02 -0.36804138850E+01 -0.11518553195E+01  0.15481796276E+02  0.00000000000E+00 0.  1.
         22    1    3    3    0    0  0.56801389953E+02  0.37875444874E+02  0.40522188354E+03  0.41093274647E+03  0.00000000000E+00 0.  1.
</event>
<event>
 7    1  0.7802682E-006  0.1348441E+03  0.7818608E-02  0.1221468E+00
          2   -1    0    0  502    0  0.00000000000E+00  0.00000000000E+00  0.11496110434E+04  0.11496110434E+04  0.00000000000E+00 0. -1.
          1   -1    0    0  501    0 -0.00000000000E+00 -0.00000000000E+00 -0.80773740678E+02  0.80773740678E+02  0.00000000000E+00 0. -1.
         25    2    1    2    0    0 -0.56151028040E+02 -0.23165685062E+01  0.23601217992E+03  0.27292567470E+03  0.12501348087E+03 0.  0.
          2    1    1    2  501    0  0.16168645261E+03 -0.81619095484E+02  0.89543711734E+02  0.20204519796E+03  0.00000000000E+00 0. -1.
          1    1    1    2  502    0 -0.10553542457E+03  0.83935663990E+02  0.74328141111E+03  0.75541391146E+03  0.00000000000E+00 0. -1.
         22    1    3    3    0    0  0.37804789258E+02  0.15712486769E+02  0.60862006907E+02  0.73350311629E+02  0.00000000000E+00 0.  1.
         22    1    3    3    0    0 -0.93955817299E+02 -0.18029055275E+02  0.17515017302E+03  0.19957536307E+03  0.00000000000E+00 0.  1.
</event>
<event>
 7    1  0.7802682E-006  0.2982270E+02  0.7818608E-02  0.1667570E+00
          2   -1    0    0  502    0  0.00000000000E+00  0.00000000000E+00  0.10148443188E+03  0.10148443188E+03  0.00000000000E+00 0. -1.
          1   -1    0    0  501    0 -0.00000000000E+00 -0.00000000000E+00 -0.93698320050E+03  0.93698320050E+03  0.00000000000E+00 0. -1.
         25    2    1    2    0    0  0.41830053509E+02 -0.26064350166E+02 -0.53909493442E+02  0.14477781239E+03  0.12500111100E+03 0.  0.
          2    1    1    2  501    0 -0.27057093328E+02  0.12276731912E+02 -0.83554556409E+03  0.83607367744E+03  0.00000000000E+00 0. -1.
          1    1    1    2  502    0 -0.14772960181E+02  0.13787618254E+02  0.53956288908E+02  0.57616142550E+02  0.00000000000E+00 0. -1.
         22    1    3    3    0    0  0.42640337634E+02 -0.18448058745E+02 -0.93524728292E+02  0.10442894267E+03  0.00000000000E+00 0. -1.
         22    1    3    3    0    0 -0.81028412575E+00 -0.76162914212E+01  0.39615234851E+02  0.40348869719E+02  0.00000000000E+00 0. -1.
</event>
<event>
 7    1  0.7802682E-006  0.1693516E+03  0.7818608E-02  0.1309955E+00
          2   -1    0    0  502    0  0.00000000000E+00  0.00000000000E+00  0.55507817658E+03  0.55507817658E+03  0.00000000000E+00 0. -1.
          1   -1    0    0  501    0 -0.00000000000E+00 -0.00000000000E+00 -0.11778677479E+04  0.11778677479E+04  0.00000000000E+00 0. -1.
         25    2    1    2    0    0  0.14875536421E+03 -0.10801155906E+03  0.14491283783E+03  0.26536675800E+03  0.12500052164E+03 0.  0.
          2    1    1    2  501    0 -0.15653294593E+03  0.63864067410E+02 -0.11097768612E+04  0.11225800034E+04  0.00000000000E+00 0. -1.
          1    1    1    2  502    0  0.77775817180E+01  0.44147491647E+02  0.34207445206E+03  0.34499916312E+03  0.00000000000E+00 0. -1.
         22    1    3    3    0    0  0.96268500731E+01 -0.60969784899E+02  0.88801561811E+02  0.10814669802E+03  0.00000000000E+00 0.  1.
         22    1    3    3    0    0  0.13912851414E+03 -0.47041774158E+02  0.56111276021E+02  0.15722005997E+03  0.00000000000E+00 0.  1.
</event>
<event>
 7    1  0.9676967E-006  0.1710902E+03  0.7818608E-02  0.1263609E+00
          2   -1    0    0  502    0  0.00000000000E+00  0.00000000000E+00  0.20231927480E+04  0.20231927480E+04  0.00000000000E+00 0. -1.
          1   -1    0    0  501    0 -0.00000000000E+00 -0.00000000000E+00 -0.18624936810E+04  0.18624936810E+04  0.00000000000E+00 0. -1.
         25    2    1    2    0    0 -0.14321653556E+03 -0.17002218139E+03 -0.70914202168E+03  0.75360838626E+03  0.12499869881E+03 0.  0.
          2    1    1    2  501    0  0.84671548259E+02  0.13417260222E+03 -0.11249617008E+04  0.11360943563E+04  0.00000000000E+00 0. -1.
          1    1    1    2  502    0  0.58544987303E+02  0.35849579169E+02  0.19948027895E+04  0.19959836865E+04  0.00000000000E+00 0. -1.
         22    1    3    3    0    0 -0.11444822586E+03 -0.61830066858E+02 -0.49696797348E+03  0.51371054129E+03  0.00000000000E+00 0. -1.
         22    1    3    3    0    0 -0.28768309702E+02 -0.10819211453E+03 -0.21217404820E+03  0.23989784497E+03  0.00000000000E+00 0. -1.
</event>
<event>
 7    1  0.7802682E-006  0.3907053E+03  0.7818608E-02  0.1147981E+00
          2   -1    0    0  502    0  0.00000000000E+00  0.00000000000E+00  0.10291883155E+04  0.10291883155E+04  0.00000000000E+00 0. -1.
          1   -1    0    0  501    0 -0.00000000000E+00 -0.00000000000E+00 -0.30308494665E+04  0.30308494665E+04  0.00000000000E+00 0. -1.
         25    2    1    2    0    0 -0.20239787385E+03  0.32876417670E+03  0.54525786337E+03  0.67969255294E+03  0.12500018297E+03 0.  0.
          2    1    1    2  501    0 -0.91921693423E+02 -0.49786438171E+02 -0.28637915669E+04  0.28656989419E+04  0.00000000000E+00 0. -1.
          1    1    1    2  502    0  0.29431956727E+03 -0.27897773853E+03  0.31687255252E+03  0.51464628709E+03  0.00000000000E+00 0. -1.
         22    1    3    3    0    0 -0.98441096576E+02  0.18261279014E+03  0.18811661090E+03  0.28004631744E+03  0.00000000000E+00 0. -1.
         22    1    3    3    0    0 -0.10395677727E+03  0.14615138656E+03  0.35714125247E+03  0.39964623550E+03  0.00000000000E+00 0. -1.
</event>
<event>
 7    1  0.7802682E-006  0.7966635E+02  0.7818608E-02  0.1363406E+00
          2   -1    0    0  502    0  0.00000000000E+00  0.00000000000E+00  0.31620162037E+02  0.31620162037E+02  0.00000000000E+00 0. -1.
          1   -1    0    0  501    0 -0.00000000000E+00 -0.00000000000E+00 -0.14473918238E+04  0.14473918238E+04  0.00000000000E+00 0. -1.
         25    2    1    2    0    0 -0.19955368432E+02  0.13416299298E+02 -0.94554286363E+03  0.95407234741E+03  0.12499809322E+03 0.  0.
          2    1    1    2  501    0 -0.45121422620E+02  0.39278213309E+02 -0.42611616921E+03  0.43029491106E+03  0.00000000000E+00 0. -1.
          1    1    1    2  502    0  0.65076791051E+02 -0.52694512607E+02 -0.44112628958E+02  0.94644727407E+02  0.00000000000E+00 0. -1.
         22    1    3    3    0    0  0.52633211068E+02  0.13515142740E+02 -0.44069968209E+03  0.44403729999E+03  0.00000000000E+00 0.  1.
         22    1    3    3    0    0 -0.72588579500E+02 -0.98843442005E-01 -0.50484318154E+03  0.51003504742E+03  0.00000000000E+00 0.  1.
</event>
<event>
 7    1  0.7802682E-006  0.9631319E+02  0.7818608E-02  0.1352509E+00
          2   -1    0    0  502    0  0.00000000000E+00  0.00000000000E+00  0.19915080029E+04  0.19915080029E+04  0.00000000000E+00 0. -1.
          1   -1    0    0  501    0 -0.00000000000E+00 -0.00000000000E+00 -0.42847824784E+03  0.42847824784E+03  0.00000000000E+00 0. -1.
         25    2    1    2    0    0  0.12647275184E+03 -0.74524151523E+02  0.28946761520E+02  0.19496693282E+03  0.12499993509E+03 0.  0.
          2    1    1    2  501    0 -0.37734395503E+02  0.38966837926E+02 -0.34211448181E+03  0.34638795840E+03  0.00000000000E+00 0. -1.
          1    1    1    2  502    0 -0.88738356336E+02  0.35557313597E+02  0.18761974753E+04  0.18786313595E+04  0.00000000000E+00 0. -1.
         22    1    3    3    0    0  0.10168562906E+03 -0.30007040119E+02  0.72085084303E+02  0.12820549518E+03  0.00000000000E+00 0.  1.
         22    1    3    3    0    0  0.24787122774E+02 -0.44517111404E+02 -0.43138322784E+02  0.66761437640E+02  0.00000000000E+00 0.  1.
</event>
<event>
 7    1  0.7802682E-006  0.5649702E+02  0.7818608E-02  0.1486052E+00
          2   -1    0    0  502    0  0.00000000000E+00  0.00000000000E+00  0.55368072949E+03  0.55368072949E+03  0.00000000000E+00 0. -1.
          1   -1    0    0  501    0 -0.00000000000E+00 -0.00000000000E+00 -0.37952586000E+02  0.37952586000E+02  0.00000000000E+00 0. -1.
         25    2    1    2    0    0  0.30632988043E+02  0.57474581676E+02  0.19215202722E+03  0.23830822170E+03  0.12500679770E+03 0.  0.
          2    1    1    2  501    0  0.17481195189E+02 -0.27986827239E+02  0.96679856340E+01  0.34384947730E+02  0.00000000000E+00 0. -1.
          1    1    1    2  502    0 -0.48114183232E+02 -0.29487754437E+02  0.31390813063E+03  0.31894014606E+03  0.00000000000E+00 0. -1.
         22    1    3    3    0    0  0.67627002902E+02  0.46206114499E+02  0.18002169491E+03  0.19777822726E+03  0.00000000000E+00 0.  1.
         22    1    3    3    0    0 -0.36994014859E+02  0.11268467177E+02  0.12130332315E+02  0.40529994448E+02  0.00000000000E+00 0.  1.
</event>
<event>
 7    1  0.7802682E-006  0.1412801E+03  0.7818608E-02  0.1335987E+00
          2   -1    0    0  502    0  0.00000000000E+00  0.00000000000E+00  0.11391065404E+04  0.11391065404E+04  0.00000000000E+00 0. -1.
          1   -1    0    0  501    0 -0.00000000000E+00 -0.00000000000E+00 -0.34276686098E+03  0.34276686098E+03  0.00000000000E+00 0. -1.
         25    2    1    2    0    0 -0.10055616457E+03  0.53151984930E+01  0.66705464495E+03  0.68609525062E+03  0.12500000005E+03 0.  0.
          2    1    1    2  501    0  0.14214232652E+03  0.40567696384E+01 -0.31701492355E+03  0.34744691698E+03  0.00000000000E+00 0. -1.
          1    1    1    2  502    0 -0.41586161952E+02 -0.93719681314E+01  0.44629995804E+03  0.44833123380E+03  0.00000000000E+00 0. -1.
         22    1    3    3    0    0 -0.12798269206E+03  0.95674625656E+01  0.47446999569E+03  0.49152098899E+03  0.00000000000E+00 0. -1.
         22    1    3    3    0    0  0.27426527490E+02 -0.42522640727E+01  0.19258464926E+03  0.19457426164E+03  0.00000000000E+00 0. -1.
</event>
<event>
 7    1  0.7802682E-006  0.7287704E+02  0.7818608E-02  0.1360095E+00
          2   -1    0    0  502    0  0.00000000000E+00  0.00000000000E+00  0.24524163058E+04  0.24524163058E+04  0.00000000000E+00 0. -1.
          1   -1    0    0  501    0 -0.00000000000E+00 -0.00000000000E+00 -0.12727740087E+03  0.12727740087E+03  0.00000000000E+00 0. -1.
         25    2    1    2    0    0 -0.69296283062E+02  0.67318695372E+02  0.81692090950E+03  0.83205664353E+03  0.12499881630E+03 0.  0.
          2    1    1    2  501    0  0.67004978917E+02  0.55635141570E+01 -0.10938216700E+03  0.12839423019E+03  0.00000000000E+00 0. -1.
          1    1    1    2  502    0  0.22913041447E+01 -0.72882209529E+02  0.16176001624E+04  0.16192428329E+04  0.00000000000E+00 0. -1.
         22    1    3    3    0    0 -0.57333456729E+02  0.38037058831E+00  0.13389407270E+03  0.14565333036E+03  0.00000000000E+00 0.  1.
         22    1    3    3    0    0 -0.11962826333E+02  0.66938324784E+02  0.68302683680E+03  0.68640331317E+03  0.00000000000E+00 0.  1.
</event>
<event>
 7    1  0.7802682E-006  0.9329282E+02  0.7818608E-02  0.1399191E+00
          2   -1    0    0  502    0  0.00000000000E+00  0.00000000000E+00  0.10460875898E+04  0.10460875898E+04  0.00000000000E+00 0. -1.
          1   -1    0    0  501    0 -0.00000000000E+00 -0.00000000000E+00 -0.25200648921E+03  0.25200648921E+03  0.00000000000E+00 0. -1.
         25    2    1    2    0    0 -0.11610223102E+03 -0.47964988226E+00  0.35994530633E+03  0.39832947378E+03  0.12500315207E+03 0.  0.
          2    1    1    2  501    0  0.89014150308E+02 -0.26418527400E+02 -0.22298050583E+03  0.24154039729E+03  0.00000000000E+00 0. -1.
          1    1    1    2  502    0  0.27088080709E+02  0.26898177282E+02  0.65711630006E+03  0.65822420790E+03  0.00000000000E+00 0. -1.
         22    1    3    3    0    0 -0.39071489114E+01 -0.45079247098E+02  0.14378698595E+03  0.15073852082E+03  0.00000000000E+00 0. -1.
         22    1    3    3    0    0 -0.11219508210E+03  0.44599597216E+02  0.21615832038E+03  0.24759095296E+03  0.00000000000E+00 0. -1.
</event>
<event>
 7    1  0.7802682E-006  0.1048973E+03  0.7818608E-02  0.1400638E+00
          2   -1    0    0  502    0  0.00000000000E+00  0.00000000000E+00  0.30122997800E+03  0.30122997800E+03  0.00000000000E+00 0. -1.
          1   -1    0    0  501    0 -0.00000000000E+00 -0.00000000000E+00 -0.81357731682E+02  0.81357731682E+02  0.00000000000E+00 0. -1.
         25    2    1    2    0    0 -0.58076702643E+02 -0.71725408138E+02  0.10210851466E+03  0.18593284543E+03  0.12500974635E+03 0.  0.
          2    1    1    2  501    0  0.91479806482E+02  0.68440300449E+02  0.58039155974E+02  0.12814512611E+03  0.00000000000E+00 0. -1.
          1    1    1    2  502    0 -0.33403103840E+02  0.32851076896E+01  0.59724575686E+02  0.68509738137E+02  0.00000000000E+00 0. -1.
         22    1    3    3    0    0 -0.13999338226E+02 -0.44812233188E+02  0.12189837129E+03  0.13062668425E+03  0.00000000000E+00 0. -1.
         22    1    3    3    0    0 -0.44077364417E+02 -0.26913174950E+02 -0.19789856633E+02  0.55306161188E+02  0.00000000000E+00 0. -1.
</event>
<event>
 7    1  0.7802682E-006  0.6544520E+02  0.7818608E-02  0.1514274E+00
          2   -1    0    0  502    0  0.00000000000E+00  0.00000000000E+00  0.11581959492E+03  0.11581959492E+03  0.00000000000E+00 0. -1.
          1   -1    0    0  501    0 -0.00000000000E+00 -0.00000000000E+00 -0.19239855453E+04  0.19239855453E+04  0.00000000000E+00 0. -1.
         25    2    1    2    0    0  0.30703660921E+02 -0.66809383504E+02 -0.12432748862E+04  0.12517043356E+04  0.12500037044E+03 0.  0.
          2    1    1    2  501    0 -0.23395569614E+02  0.18076371060E+01 -0.66668742506E+03  0.66710024956E+03  0.00000000000E+00 0. -1.
          1    1    1    2  502    0 -0.73080913066E+01  0.65001746398E+02  0.10179636088E+03  0.12100055505E+03  0.00000000000E+00 0. -1.
         22    1    3    3    0    0  0.28903565663E+02 -0.49060026465E+02 -0.19169646507E+03  0.19997459095E+03  0.00000000000E+00 0. -1.
         22    1    3    3    0    0  0.18000952572E+01 -0.17749357039E+02 -0.10515784211E+04  0.10517297446E+04  0.00000000000E+00 0. -1.
</event>
<event>
 7    1  0.7802682E-006  0.9376715E+02  0.7818608E-02  0.1323147E+00
          2   -1    0    0  502    0  0.00000000000E+00  0.00000000000E+00  0.11507549371E+04  0.11507549371E+04  0.00000000000E+00 0. -1.
          1   -1    0    0  501    0 -0.00000000000E+00 -0.00000000000E+00 -0.45871813402E+02  0.45871813402E+02  0.00000000000E+00 0. -1.
         25    2    1    2    0    0  0.85051398995E+02 -0.23587758250E+02  0.14628098313E+03  0.21169339244E+03  0.12500337422E+03 0.  0.
          2    1    1    2  501    0 -0.10868596114E+03 -0.44333396616E+02  0.29575928933E+03  0.31820063707E+03  0.00000000000E+00 0. -1.
          1    1    1    2  502    0  0.23634562143E+02  0.67921154866E+02  0.66284285121E+03  0.66673272097E+03  0.00000000000E+00 0. -1.
         22    1    3    3    0    0  0.34575838200E+02 -0.57832410761E+02  0.13325585369E+03  0.14932246604E+03  0.00000000000E+00 0.  1.
         22    1    3    3    0    0  0.50475560794E+02  0.34244652511E+02  0.13025129438E+02  0.62370926400E+02  0.00000000000E+00 0.  1.
</event>
<event>
 7    1  0.7802682E-006  0.8279426E+02  0.7818608E-02  0.1332873E+00
          2   -1    0    0  502    0  0.00000000000E+00  0.00000000000E+00  0.39245613300E+03  0.39245613300E+03  0.00000000000E+00 0. -1.
          1   -1    0    0  501    0 -0.00000000000E+00 -0.00000000000E+00 -0.91453361638E+03  0.91453361638E+03  0.00000000000E+00 0. -1.
         25    2    1    2    0    0  0.62376777007E+02  0.43503350605E+02 -0.39703016183E+03  0.42313364688E+03  0.12500291954E+03 0.  0.
          2    1    1    2  501    0  0.10442877433E+02 -0.82901162260E+02 -0.49640130636E+03  0.50338445879E+03  0.00000000000E+00 0. -1.
          1    1    1    2  502    0 -0.72819654440E+02  0.39397811654E+02  0.37135398481E+03  0.38047164371E+03  0.00000000000E+00 0. -1.
         22    1    3    3    0    0 -0.36579745059E+02  0.24340790451E+02 -0.93589508632E+02  0.10339027011E+03  0.00000000000E+00 0. -1.
         22    1    3    3    0    0  0.98956522066E+02  0.19162560154E+02 -0.30344065320E+03  0.31974337677E+03  0.00000000000E+00 0. -1.
</event>
<event>
 7    1  0.7802682E-006  0.1523594E+03  0.7818608E-02  0.1273306E+00
          2   -1    0    0  502    0  0.00000000000E+00  0.00000000000E+00  0.54856555556E+03  0.54856555556E+03  0.00000000000E+00 0. -1.
          1   -1    0    0  501    0 -0.00000000000E+00 -0.00000000000E+00 -0.43926134073E+03  0.43926134073E+03  0.00000000000E+00 0. -1.
         25    2    1    2    0    0 -0.14410519858E+03  0.95243933135E+02 -0.11724630280E+03  0.24332643363E+03  0.12499337073E+03 0.  0.
          2    1    1    2  501    0  0.14685331589E+03 -0.25125618392E+02 -0.23467138938E+03  0.27797095906E+03  0.00000000000E+00 0. -1.
          1    1    1    2  502    0 -0.27481173124E+01 -0.70118314744E+02  0.46122190702E+03  0.46652950360E+03  0.00000000000E+00 0. -1.
         22    1    3    3    0    0  0.94573903622E+01  0.50002652758E+02 -0.13811911114E+02  0.52730222870E+02  0.00000000000E+00 0. -1.
         22    1    3    3    0    0 -0.15356258894E+03  0.45241280378E+02 -0.10343439169E+03  0.19059621076E+03  0.00000000000E+00 0. -1.
</event>
<event>
 7    1  0.7802682E-006  0.7586128E+02  0.7818608E-02  0.1386406E+00
          2   -1    0    0  502    0  0.00000000000E+00  0.00000000000E+00  0.19392361193E+02  0.19392361193E+02  0.00000000000E+00 0. -1.
          1   -1    0    0  501    0 -0.00000000000E+00 -0.00000000000E+00 -0.22672410461E+04  0.22672410461E+04  0.00000000000E+00 0. -1.
         25    2    1    2    0    0 -0.51020454031E+02  0.81624220277E+02 -0.12157111222E+04  0.12259057238E+04  0.12500284370E+03 0.  0.
          2    1    1    2  501    0 -0.33025075086E+00 -0.73412643517E+02 -0.99282915281E+03  0.99553967875E+03  0.00000000000E+00 0. -1.
          1    1    1    2  502    0  0.51350704782E+02 -0.82115767601E+01 -0.39308409904E+02  0.65188004753E+02  0.00000000000E+00 0. -1.
         22    1    3    3    0    0 -0.65966296761E+02  0.26776089468E+01 -0.78446426033E+03  0.78723751030E+03  0.00000000000E+00 0.  1.
         22    1    3    3    0    0  0.14945842730E+02  0.78946611330E+02 -0.43124686189E+03  0.43866821351E+03  0.00000000000E+00 0.  1.
</event>
<event>
 7    1  0.7802682E-006  0.4817980E+02  0.7818608E-02  0.1492191E+00
          2   -1    0    0  502    0  0.00000000000E+00  0.00000000000E+00  0.19811272049E+03  0.19811272049E+03  0.00000000000E+00 0. -1.
          1   -1    0    0  501    0 -0.00000000000E+00 -0.00000000000E+00 -0.31535836944E+03  0.31535836944E+03  0.00000000000E+00 0. -1.
         25    2    1    2    0    0 -0.75919024107E+02 -0.23012908551E+02 -0.13571801652E+03  0.20084400533E+03  0.12500256912E+03 0.  0.
          2    1    1    2  501    0  0.38847519938E+02  0.22778013650E+02 -0.14145959854E+03  0.14845465883E+03  0.00000000000E+00 0. -1.
          1    1    1    2  502    0  0.37071504169E+02  0.23489490047E+00  0.15993196611E+03  0.16417242577E+03  0.00000000000E+00 0. -1.
         22    1    3    3    0    0 -0.80749762244E+02  0.35767062635E+02 -0.71304506925E+02  0.11350832383E+03  0.00000000000E+00 0.  1.
         22    1    3    3    0    0  0.48307381366E+01 -0.58779971185E+02 -0.64413509599E+02  0.87335681496E+02  0.00000000000E+00 0.  1.
</event>
<event>
 7    1  0.7802682E-006  0.3572683E+03  0.7818608E-02  0.1268437E+00
          2   -1    0    0  502    0  0.00000000000E+00  0.00000000000E+00  0.65539424946E+03  0.65539424946E+03  0.00000000000E+00 0. -1.
          1   -1    0    0  501    0 -0.00000000000E+00 -0.00000000000E+00 -0.66802595101E+03  0.66802595101E+03  0.00000000000E+00 0. -1.
         25    2    1    2    0    0 -0.20029875984E+03  0.26302247077E+03 -0.34240119682E+03  0.49210193710E+03  0.12500129437E+03 0.  0.
          2    1    1    2  501    0 -0.25121195788E+02  0.18781789733E+02 -0.19330782744E+03  0.19583601879E+03  0.00000000000E+00 0. -1.
          1    1    1    2  502    0  0.22541995562E+03 -0.28180426051E+03  0.52307732272E+03  0.63548224458E+03  0.00000000000E+00 0. -1.
         22    1    3    3    0    0 -0.17914826987E+03  0.20820134997E+03 -0.20522041900E+03  0.34286633708E+03  0.00000000000E+00 0.  1.
         22    1    3    3    0    0 -0.21150489968E+02  0.54821120800E+02 -0.13718077782E+03  0.14923560003E+03  0.00000000000E+00 0.  1.
</event>
<event>
 7    1  0.7802682E-006  0.2328166E+03  0.7818608E-02  0.1182353E+00
          2   -1    0    0  502    0  0.00000000000E+00  0.00000000000E+00  0.83756455255E+03  0.83756455255E+03  0.00000000000E+00 0. -1.
          1   -1    0    0  501    0 -0.00000000000E+00 -0.00000000000E+00 -0.14809811175E+04  0.14809811175E+04  0.00000000000E+00 0. -1.
         25    2    1    2    0    0 -0.13970358471E+03  0.27393987969E+03  0.36728757989E+01  0.33196217505E+03  0.12500098554E+03 0.  0.
          2    1    1    2  501    0  0.31375663566E+02 -0.22714262410E+03 -0.13015376011E+04  0.13215817535E+04  0.00000000000E+00 0. -1.
          1    1    1    2  502    0  0.10832792114E+03 -0.46797255592E+02  0.65444816037E+03  0.66500174154E+03  0.00000000000E+00 0. -1.
         22    1    3    3    0    0 -0.99909986315E+01  0.75582427306E+02 -0.47052280690E+02  0.89590404002E+02  0.00000000000E+00 0.  1.
         22    1    3    3    0    0 -0.12971258608E+03  0.19835745238E+03  0.50725156489E+02  0.24237177105E+03  0.00000000000E+00 0.  1.
</event>
<event>
 7    1  0.7802682E-006  0.1211195E+03  0.7818608E-02  0.1322271E+00
          2   -1    0    0  502    0  0.00000000000E+00  0.00000000000E+00  0.36639475165E+04  0.36639475165E+04  0.00000000000E+00 0. -1.
          1   -1    0    0  501    0 -0.00000000000E+00 -0.00000000000E+00 -0.11566758149E+03  0.11566758149E+03  0.00000000000E+00 0. -1.
         25    2    1    2    0    0  0.61424545508E+01  0.77839727323E+02  0.17503281463E+03  0.22881975207E+03  0.12500095936E+03 0.  0.
          2    1    1    2  501    0 -0.31227802298E+02 -0.12803044591E+03 -0.39508354719E+02  0.13757863500E+03  0.00000000000E+00 0. -1.
          1    1    1    2  502    0  0.25085347747E+02  0.50190718589E+02  0.34127554751E+04  0.34132167109E+04  0.00000000000E+00 0. -1.
         22    1    3    3    0    0  0.18057229689E+02  0.72231843237E+02  0.25488368331E+02  0.78696630434E+02  0.00000000000E+00 0.  1.
         22    1    3    3    0    0 -0.11914775138E+02  0.56078840857E+01  0.14954444630E+03  0.15012312164E+03  0.00000000000E+00 0.  1.
</event>
<event>
 7    1  0.7802682E-006  0.5517486E+02  0.7818608E-02  0.1449384E+00
          2   -1    0    0  502    0  0.00000000000E+00  0.00000000000E+00  0.21700996511E+04  0.21700996511E+04  0.00000000000E+00 0. -1.
          1   -1    0    0  501    0 -0.00000000000E+00 -0.00000000000E+00 -0.13259839942E+03  0.13259839942E+03  0.00000000000E+00 0. -1.
         25    2    1    2    0    0 -0.92763732743E+02  0.10423297450E+02  0.60607841467E+03  0.62583462505E+03  0.12499671170E+03 0.  0.
          2    1    1    2  501    0  0.53889563912E+02  0.10136399197E+02 -0.11626696734E+03  0.12854897659E+03  0.00000000000E+00 0. -1.
          1    1    1    2  502    0  0.38874168831E+02 -0.20559696647E+02  0.15476898044E+04  0.15483144489E+04  0.00000000000E+00 0. -1.
         22    1    3    3    0    0 -0.36616911732E+02  0.47516055630E+02  0.47220306127E+03  0.47599821937E+03  0.00000000000E+00 0. -1.
         22    1    3    3    0    0 -0.56146821011E+02 -0.37092758180E+02  0.13387535340E+03  0.14983640568E+03  0.00000000000E+00 0. -1.
</event>
<event>
 7    1  0.7802682E-006  0.1820404E+03  0.7818608E-02  0.1254510E+00
          2   -1    0    0  502    0  0.00000000000E+00  0.00000000000E+00  0.29721348717E+03  0.29721348717E+03  0.00000000000E+00 0. -1.
          1   -1    0    0  501    0 -0.00000000000E+00 -0.00000000000E+00 -0.63915854155E+03  0.63915854155E+03  0.00000000000E+00 0. -1.
         25    2    1    2    0    0 -0.19490404490E+02 -0.13815803616E+03  0.34578138501E+02  0.19049293571E+03  0.12499756826E+03 0.  0.
          2    1    1    2  501    0  0.82419017516E+02  0.17008471913E+03 -0.53769046488E+03  0.56994099883E+03  0.00000000000E+00 0. -1.
          1    1    1    2  502    0 -0.62928613026E+02 -0.31926682969E+02  0.16116727199E+03  0.17593809418E+03  0.00000000000E+00 0. -1.
         22    1    3    3    0    0 -0.65465400145E+02 -0.85582623322E+02  0.50285874871E+02  0.11890657359E+03  0.00000000000E+00 0. -1.
         22    1    3    3    0    0  0.45974995655E+02 -0.52575412836E+02 -0.15707736370E+02  0.71586362125E+02  0.00000000000E+00 0. -1.
</event>
<event>
 7    1  0.7802682E-006  0.5370200E+02  0.7818608E-02  0.1438882E+00
          2   -1    0    0  502    0  0.00000000000E+00  0.00000000000E+00  0.65812194475E+03  0.65812194475E+03  0.00000000000E+00 0. -1.
          1   -1    0    0  501    0 -0.00000000000E+00 -0.00000000000E+00 -0.28815429754E+03  0.28815429754E+03  0.00000000000E+00 0. -1.
         25    2    1    2    0    0 -0.16847011812E+02  0.44184598381E+02  0.13333908789E+03  0.18878716348E+03  0.12500072077E+03 0.  0.
          2    1    1    2  501    0 -0.36961499753E+02 -0.31937785822E+02 -0.25658722306E+03  0.26119566931E+03  0.00000000000E+00 0. -1.
          1    1    1    2  502    0  0.53808511565E+02 -0.12246812560E+02  0.49321578238E+03  0.49629340951E+03  0.00000000000E+00 0. -1.
         22    1    3    3    0    0 -0.21031684786E+02  0.57811757415E+01 -0.20644069795E+02  0.30032172342E+02  0.00000000000E+00 0. -1.
         22    1    3    3    0    0  0.41846729739E+01  0.38403422640E+02  0.15398315769E+03  0.15875499113E+03  0.00000000000E+00 0. -1.
</event>
<event>
 7    1  0.7802682E-006  0.1706636E+03  0.7818608E-02  0.1327926E+00
          2   -1    0    0  502    0  0.00000000000E+00  0.00000000000E+00  0.18467766380E+04  0.18467766380E+04  0.00000000000E+00 0. -1.
          1   -1    0    0  501    0 -0.00000000000E+00 -0.00000000000E+00 -0.18578965210E+03  0.18578965210E+03  0.00000000000E+00 0. -1.
         25    2    1    2    0    0  0.14166142213E+03 -0.11767485361E+02  0.40975664071E+03  0.45136841614E+03  0.12500604085E+03 0.  0.
          2    1    1    2  501    0  0.36771124578E+02  0.90762610496E+01 -0.15710274768E+03  0.16160373587E+03  0.00000000000E+00 0. -1.
          1    1    1    2  502    0 -0.17843254671E+03  0.26912243112E+01  0.14083330928E+04  0.14195941380E+04  0.00000000000E+00 0. -1.
         22    1    3    3    0    0  0.26327458787E+02 -0.57544230059E+02  0.10930735350E+03  0.12630348780E+03  0.00000000000E+00 0. -1.
         22    1    3    3    0    0  0.11533396335E+03  0.45776744699E+02  0.30044928721E+03  0.32506492835E+03  0.00000000000E+00 0. -1.
</event>
<event>
 7    1  0.7802682E-006  0.1602513E+03  0.7818608E-02  0.1410739E+00
          2   -1    0    0  502    0  0.00000000000E+00  0.00000000000E+00  0.11986799270E+04  0.11986799270E+04  0.00000000000E+00 0. -1.
          1   -1    0    0  501    0 -0.00000000000E+00 -0.00000000000E+00 -0.62716640453E+03  0.62716640453E+03  0.00000000000E+00 0. -1.
         25    2    1    2    0    0 -0.87394049054E+02 -0.14682570694E+03  0.11373687482E+02  0.21201669887E+03  0.12500484713E+03 0.  0.
          2    1    1    2  501    0  0.67258466065E+02  0.14428549421E+03 -0.51472155550E+03  0.53877665576E+03  0.00000000000E+00 0. -1.
          1    1    1    2  502    0  0.20135582989E+02  0.25402127267E+01  0.10748613905E+04  0.10750529769E+04  0.00000000000E+00 0. -1.
         22    1    3    3    0    0 -0.10039678971E+03 -0.15863254526E+03 -0.52876298550E+01  0.18780777095E+03  0.00000000000E+00 0.  1.
         22    1    3    3    0    0  0.13002740655E+02  0.11806838324E+02  0.16661317337E+02  0.24208927923E+02  0.00000000000E+00 0.  1.
</event>
<event>
 7    1  0.7802682E-006  0.1493545E+03  0.7818608E-02  0.1329859E+00
          2   -1    0    0  502    0  0.00000000000E+00  0.00000000000E+00  0.19839231691E+03  0.19839231691E+03  0.00000000000E+00 0. -1.
          1   -1    0    0  501    0 -0.00000000000E+00 -0.00000000000E+00 -0.10369976827E+04  0.10369976827E+04  0.00000000000E+00 0. -1.
         25    2    1    2    0    0 -0.11767424037E+03 -0.13764479057E+03 -0.25177849020E+03  0.33438248688E+03  0.12500369671E+03 0.  0.
          2    1    1    2  501    0  0.10721510195E+03  0.96402879709E+02 -0.73388694062E+03  0.74791619512E+03  0.00000000000E+00 0. -1.
          1    1    1    2  502    0  0.10459138423E+02  0.41241910860E+02  0.14706006505E+03  0.15309131759E+03  0.00000000000E+00 0. -1.
         22    1    3    3    0    0 -0.50667279662E+02 -0.13612521082E+03 -0.12790009431E+03  0.19353470070E+03  0.00000000000E+00 0. -1.
         22    1    3    3    0    0 -0.67006960712E+02 -0.15195797495E+01 -0.12387839589E+03  0.14084778619E+03  0.00000000000E+00 0. -1.
</event>
<event>
 7    1  0.7802682E-006  0.4926692E+02  0.7818608E-02  0.1496159E+00
          2   -1    0    0  502    0  0.00000000000E+00  0.00000000000E+00  0.10279968570E+03  0.10279968570E+03  0.00000000000E+00 0. -1.
          1   -1    0    0  501    0 -0.00000000000E+00 -0.00000000000E+00 -0.22795417211E+03  0.22795417211E+03  0.00000000000E+00 0. -1.
         25    2    1    2    0    0  0.23202978675E+02  0.46009331210E+02 -0.11192487483E+03  0.17551870455E+03  0.12499760503E+03 0.  0.
          2    1    1    2  501    0  0.22857195846E+02 -0.26863212623E+02 -0.70776858316E+02  0.79078740932E+02  0.00000000000E+00 0. -1.
          1    1    1    2  502    0 -0.46060174521E+02 -0.19146118587E+02  0.57547246732E+02  0.76156412338E+02  0.00000000000E+00 0. -1.
         22    1    3    3    0    0 -0.33123312978E+02  0.63797938901E+02 -0.82831833648E+02  0.10967426105E+03  0.00000000000E+00 0. -1.
         22    1    3    3    0    0  0.56326291653E+02 -0.17788607691E+02 -0.29093041177E+02  0.65844443500E+02  0.00000000000E+00 0. -1.
</event>
<event>
 7    1  0.7802682E-006  0.7092880E+02  0.7818608E-02  0.1367191E+00
          2   -1    0    0  502    0  0.00000000000E+00  0.00000000000E+00  0.28081085801E+04  0.28081085801E+04  0.00000000000E+00 0. -1.
          1   -1    0    0  501    0 -0.00000000000E+00 -0.00000000000E+00 -0.22187992512E+03  0.22187992512E+03  0.00000000000E+00 0. -1.
         25    2    1    2    0    0 -0.12567416534E+03 -0.49865235295E+02  0.47245323735E+03  0.50707653998E+03  0.12503606836E+03 0.  0.
          2    1    1    2  501    0  0.65761788873E+02  0.24388256063E+02 -0.19808458715E+03  0.21013544102E+03  0.00000000000E+00 0. -1.
          1    1    1    2  502    0  0.59912376464E+02  0.25476979232E+02  0.23118600047E+04  0.23127765242E+04  0.00000000000E+00 0. -1.
         22    1    3    3    0    0 -0.44730384968E+02  0.35706830789E+02  0.23687733502E+03  0.24369377701E+03  0.00000000000E+00 0.  1.
         22    1    3    3    0    0 -0.80943780369E+02 -0.85572066084E+02  0.23557590233E+03  0.26338276297E+03  0.00000000000E+00 0.  1.
</event>
<event>
 7    1  0.7802682E-006  0.8259168E+02  0.7818608E-02  0.1388069E+00
          2   -1    0    0  502    0  0.00000000000E+00  0.00000000000E+00  0.31096601997E+03  0.31096601997E+03  0.00000000000E+00 0. -1.
          1   -1    0    0  501    0 -0.00000000000E+00 -0.00000000000E+00 -0.15752803262E+03  0.15752803262E+03  0.00000000000E+00 0. -1.
         25    2    1    2    0    0 -0.89540370608E+00  0.12040114514E+03  0.97268473707E+02  0.19895470994E+03  0.12499833252E+03 0.  0.
          2    1    1    2  501    0  0.18694017237E+02 -0.76762242059E+02 -0.87763911525E+02  0.11808646092E+03  0.00000000000E+00 0. -1.
          1    1    1    2  502    0 -0.17798613531E+02 -0.43638903077E+02  0.14393342517E+03  0.15145288174E+03  0.00000000000E+00 0. -1.
         22    1    3    3    0    0  0.15752703810E+02 -0.22048794549E+02  0.30364558625E+02  0.40697708030E+02  0.00000000000E+00 0. -1.
         22    1    3    3    0    0 -0.16648107516E+02  0.14244993968E+03  0.66903915082E+02  0.15825700191E+03  0.00000000000E+00 0. -1.
</event>
<event>
 7    1  0.7802682E-006  0.5401679E+02  0.7818608E-02  0.1455834E+00
          2   -1    0    0  502    0  0.00000000000E+00  0.00000000000E+00  0.87710583929E+03  0.87710583929E+03  0.00000000000E+00 0. -1.
          1   -1    0    0  501    0 -0.00000000000E+00 -0.00000000000E+00 -0.90527222150E+02  0.90527222150E+02  0.00000000000E+00 0. -1.
         25    2    1    2    0    0 -0.62150151097E+02  0.12866011702E+02  0.25632914859E+03  0.29216008792E+03  0.12499883605E+03 0.  0.
          2    1    1    2  501    0  0.32289412636E+02 -0.43586855404E+02 -0.61597614267E+02  0.82077318522E+02  0.00000000000E+00 0. -1.
          1    1    1    2  502    0  0.29860738461E+02  0.30720843702E+02  0.59184708281E+03  0.59339565500E+03  0.00000000000E+00 0. -1.
         22    1    3    3    0    0 -0.92624788301E+02  0.16009968158E+02  0.12000814823E+03  0.15243892590E+03  0.00000000000E+00 0.  1.
         22    1    3    3    0    0  0.30474637204E+02 -0.31439564555E+01  0.13632100036E+03  0.13972116201E+03  0.00000000000E+00 0.  1.
</event>
<event>
 7    1  0.7802682E-006  0.8852893E+02  0.7818608E-02  0.1483964E+00
          2   -1    0    0  502    0  0.00000000000E+00  0.00000000000E+00  0.67656331179E+03  0.67656331179E+03  0.00000000000E+00 0. -1.
          1   -1    0    0  501    0 -0.00000000000E+00 -0.00000000000E+00 -0.74115319243E+03  0.74115319243E+03  0.00000000000E+00 0. -1.
         25    2    1    2    0    0 -0.10534655759E+03 -0.30466394136E+02 -0.24571347993E+03  0.29669230114E+03  0.12500043588E+03 0.  0.
          2    1    1    2  501    0  0.20579895531E+02  0.57536779588E+01 -0.46671114563E+03  0.46720009671E+03  0.00000000000E+00 0. -1.
          1    1    1    2  502    0  0.84766662060E+02  0.24712716177E+02  0.64783474492E+03  0.65382410637E+03  0.00000000000E+00 0. -1.
         22    1    3    3    0    0 -0.35181256237E+02 -0.70296862336E+02 -0.16396037537E+03  0.18183061991E+03  0.00000000000E+00 0. -1.
         22    1    3    3    0    0 -0.70165301354E+02  0.39830468200E+02 -0.81753104555E+02  0.11486168123E+03  0.00000000000E+00 0. -1.
</event>
<event>
 7    1  0.7802682E-006  0.9151062E+02  0.7818608E-02  0.1431214E+00
          2   -1    0    0  502    0  0.00000000000E+00  0.00000000000E+00  0.10638402424E+04  0.10638402424E+04  0.00000000000E+00 0. -1.
          1   -1    0    0  501    0 -0.00000000000E+00 -0.00000000000E+00 -0.12501037392E+04  0.12501037392E+04  0.00000000000E+00 0. -1.
         25    2    1    2    0    0 -0.74072718893E+02  0.84141767143E+02 -0.22450360057E+02  0.16939770667E+03  0.12499983878E+03 0.  0.
          2    1    1    2  501    0  0.30054139685E+02 -0.43629101442E+01 -0.11518833830E+04  0.11522836519E+04  0.00000000000E+00 0. -1.
          1    1    1    2  502    0  0.44018579209E+02 -0.79778856999E+02  0.98807024628E+03  0.99226262296E+03  0.00000000000E+00 0. -1.
         22    1    3    3    0    0 -0.79321883536E+02  0.35666731425E+02  0.35259838963E+02  0.93847393049E+02  0.00000000000E+00 0.  1.
         22    1    3    3    0    0  0.52491646430E+01  0.48475035718E+02 -0.57710199020E+02  0.75550313621E+02  0.00000000000E+00 0.  1.
</event>
<event>
 7    1  0.7802682E-006  0.6511408E+02  0.7818608E-02  0.1415280E+00
          2   -1    0    0  502    0  0.00000000000E+00  0.00000000000E+00  0.27986503919E+04  0.27986503919E+04  0.00000000000E+00 0. -1.
          1   -1    0    0  501    0 -0.00000000000E+00 -0.00000000000E+00 -0.28517389842E+03  0.28517389842E+03  0.00000000000E+00 0. -1.
         25    2    1    2    0    0  0.91375565029E+02 -0.53664480066E+02  0.66467021075E+03  0.68457409862E+03  0.12500334848E+03 0.  0.
          2    1    1    2  501    0 -0.30072983166E+02  0.37689380540E+02 -0.27263367373E+03  0.27686457659E+03  0.00000000000E+00 0. -1.
          1    1    1    2  502    0 -0.61302581863E+02  0.15975099526E+02  0.21214399565E+04  0.21223856151E+04  0.00000000000E+00 0. -1.
         22    1    3    3    0    0  0.94231902962E+02 -0.51219582834E+01  0.57382555920E+03  0.58153388412E+03  0.00000000000E+00 0.  1.
         22    1    3    3    0    0 -0.28563379337E+01 -0.48542521783E+02  0.90844651552E+02  0.10304021449E+03  0.00000000000E+00 0.  1.
</event>
<event>
 7    1  0.7802682E-006  0.5997973E+02  0.7818608E-02  0.1478922E+00
          2   -1    0    0  502    0  0.00000000000E+00  0.00000000000E+00  0.97329904572E+02  0.97329904572E+02  0.00000000000E+00 0. -1.
          1   -1    0    0  501    0 -0.00000000000E+00 -0.00000000000E+00 -0.22585908571E+04  0.22585908571E+04  0.00000000000E+00 0. -1.
         25    2    1    2    0    0 -0.27930119842E+02  0.58344033250E+02 -0.10579944636E+04  0.10673144834E+04  0.12499521427E+03 0.  0.
          2    1    1    2  501    0  0.32647717096E+02  0.14860356170E+01 -0.11859706174E+04  0.11864208305E+04  0.00000000000E+00 0. -1.
          1    1    1    2  502    0 -0.47175972538E+01 -0.59830068867E+02  0.82704128498E+02  0.10218544777E+03  0.00000000000E+00 0. -1.
         22    1    3    3    0    0  0.47305947914E+02  0.38335896643E+01 -0.39531806803E+03  0.39815690880E+03  0.00000000000E+00 0.  1.
         22    1    3    3    0    0 -0.75236067756E+02  0.54510443585E+02 -0.66267639558E+03  0.66915757458E+03  0.00000000000E+00 0.  1.
</event>
<event>
 7    1  0.7802682E-006  0.5024457E+02  0.7818608E-02  0.1446269E+00
          2   -1    0    0  502    0  0.00000000000E+00  0.00000000000E+00  0.29028821066E+04  0.29028821066E+04  0.00000000000E+00 0. -1.
          1   -1    0    0  501    0 -0.00000000000E+00 -0.00000000000E+00 -0.15611529199E+03  0.15611529199E+03  0.00000000000E+00 0. -1.
         25    2    1    2    0    0 -0.33960131953E+02 -0.52050945135E+02  0.17552605262E+03  0.22426831177E+03  0.12499715622E+03 0.  0.
          2    1    1    2  501    0  0.50208602204E+02  0.53829840551E+01 -0.12667088229E+03  0.13636492464E+03  0.00000000000E+00 0. -1.
          1    1    1    2  502    0 -0.16248470251E+02  0.46667961080E+02  0.26979116443E+04  0.26983641622E+04  0.00000000000E+00 0. -1.
         22    1    3    3    0    0 -0.50148398487E+01 -0.56082123412E+02  0.11257348731E+02  0.57420214956E+02  0.00000000000E+00 0.  1.
         22    1    3    3    0    0 -0.28945292104E+02  0.40311782765E+01  0.16426870389E+03  0.16684809681E+03  0.00000000000E+00 0.  1.
</event>
<event>
 7    1  0.7802682E-006  0.1187992E+03  0.7818608E-02  0.1341900E+00
          2   -1    0    0  502    0  0.00000000000E+00  0.00000000000E+00  0.35353602366E+03  0.35353602366E+03  0.00000000000E+00 0. -1.
          1   -1    0    0  501    0 -0.00000000000E+00 -0.00000000000E+00 -0.35403688816E+03  0.35403688816E+03  0.00000000000E+00 0. -1.
         25    2    1    2    0    0  0.97028280116E+02 -0.74214993302E+01 -0.11509793569E+02  0.15883094399E+03  0.12500091050E+03 0.  0.
          2    1    1    2  501    0  0.13945206471E+02 -0.46097195330E+02 -0.25292431161E+03  0.25746869247E+03  0.00000000000E+00 0. -1.
          1    1    1    2  502    0 -0.11097348659E+03  0.53518694660E+02  0.26393324068E+03  0.29127327536E+03  0.00000000000E+00 0. -1.
         22    1    3    3    0    0  0.12487410961E+03  0.54020819032E+01  0.27475310387E+01  0.12502109689E+03  0.00000000000E+00 0. -1.
         22    1    3    3    0    0 -0.27845829495E+02 -0.12823581233E+02 -0.14257324607E+02  0.33809847099E+02  0.00000000000E+00 0. -1.
</event>
<event>
 7    1  0.7802682E-006  0.4853205E+02  0.7818608E-02  0.1500324E+00
          2   -1    0    0  502    0  0.00000000000E+00  0.00000000000E+00  0.13092018164E+04  0.13092018164E+04  0.00000000000E+00 0. -1.
          1   -1    0    0  501    0 -0.00000000000E+00 -0.00000000000E+00 -0.12938656405E+03  0.12938656405E+03  0.00000000000E+00 0. -1.
         25    2    1    2    0    0 -0.33982301044E+02  0.45500721252E+01  0.40966311696E+03  0.42967816477E+03  0.12499582370E+03 0.  0.
          2    1    1    2  501    0  0.26844134589E+01  0.34689195358E+02 -0.11611871025E+03  0.12121922794E+03  0.00000000000E+00 0. -1.
          1    1    1    2  502    0  0.31297887586E+02 -0.39239267483E+02  0.88627084566E+03  0.88769098776E+03  0.00000000000E+00 0. -1.
         22    1    3    3    0    0 -0.34486124179E+02  0.53422898629E+02  0.33111564039E+03  0.33716593270E+03  0.00000000000E+00 0. -1.
         22    1    3    3    0    0  0.50382313470E+00 -0.48872826504E+02  0.78547476571E+02  0.92512232078E+02  0.00000000000E+00 0. -1.
</event>
<event>
 7    1  0.7802682E-006  0.7321146E+02  0.7818608E-02  0.1516348E+00
          2   -1    0    0  502    0  0.00000000000E+00  0.00000000000E+00  0.11430358363E+02  0.11430358363E+02  0.00000000000E+00 0. -1.
          1   -1    0    0  501    0 -0.00000000000E+00 -0.00000000000E+00 -0.17880721630E+04  0.17880721630E+04  0.00000000000E+00 0. -1.
         25    2    1    2    0    0 -0.80071638061E+02  0.15613567538E+01 -0.11632460430E+04  0.11726809159E+04  0.12500107598E+03 0.  0.
          2    1    1    2  501    0  0.69049023309E+02  0.15942511919E+02 -0.59479920918E+03  0.59900586854E+03  0.00000000000E+00 0. -1.
          1    1    1    2  502    0  0.11022614752E+02 -0.17503868673E+02 -0.18596552426E+02  0.27815736852E+02  0.00000000000E+00 0. -1.
         22    1    3    3    0    0 -0.26344152265E+02  0.11153517529E+02 -0.10027715514E+04  0.10031795451E+04  0.00000000000E+00 0. -1.
         22    1    3    3    0    0 -0.53727485796E+02 -0.95921607748E+01 -0.16047449158E+03  0.16950137087E+03  0.00000000000E+00 0. -1.
</event>
<event>
 7    1  0.7802682E-006  0.1352945E+03  0.7818608E-02  0.1319373E+00
          2   -1    0    0  502    0  0.00000000000E+00  0.00000000000E+00  0.12990890568E+03  0.12990890568E+03  0.00000000000E+00 0. -1.
          1   -1    0    0  501    0 -0.00000000000E+00 -0.00000000000E+00 -0.99327550345E+03  0.99327550345E+03  0.00000000000E+00 0. -1.
         25    2    1    2    0    0  0.33293110060E+02  0.10462800936E+03 -0.49701510779E+03  0.52412005781E+03  0.12498946399E+03 0.  0.
          2    1    1    2  501    0 -0.56055539769E+02 -0.15087728118E+03 -0.46264412006E+03  0.48984258629E+03  0.00000000000E+00 0. -1.
          1    1    1    2  502    0  0.22762429709E+02  0.46249271820E+02  0.96292630075E+02  0.10922176503E+03  0.00000000000E+00 0. -1.
         22    1    3    3    0    0  0.62154856000E+02  0.56680046711E+01 -0.16210895932E+03  0.17370856943E+03  0.00000000000E+00 0. -1.
         22    1    3    3    0    0 -0.28861745940E+02  0.98960004687E+02 -0.33490614846E+03  0.35041148838E+03  0.00000000000E+00 0. -1.
</event>
<event>
 7    1  0.7802682E-006  0.8927471E+02  0.7818608E-02  0.1457388E+00
          2   -1    0    0  502    0  0.00000000000E+00  0.00000000000E+00  0.15662494675E+04  0.15662494675E+04  0.00000000000E+00 0. -1.
          1   -1    0    0  501    0 -0.00000000000E+00 -0.00000000000E+00 -0.50953669512E+02  0.50953669512E+02  0.00000000000E+00 0. -1.
         25    2    1    2    0    0 -0.56033019542E+02  0.55469604732E+02  0.10794072221E+04  0.10894777591E+04  0.12500104075E+03 0.  0.
          2    1    1    2  501    0 -0.25308637569E+02  0.40438015701E+01 -0.36558293293E+02  0.44647377026E+02  0.00000000000E+00 0. -1.
          1    1    1    2  502    0  0.81341657111E+02 -0.59513406303E+02  0.47244686917E+03  0.48307800084E+03  0.00000000000E+00 0. -1.
         22    1    3    3    0    0  0.74481857937E+01  0.63462385189E+02  0.81250334471E+03  0.81501204590E+03  0.00000000000E+00 0.  1.
         22    1    3    3    0    0 -0.63481205335E+02 -0.79927804565E+01  0.26690387739E+03  0.27446571323E+03  0.00000000000E+00 0.  1.
</event>
<event>
 7    1  0.7802682E-006  0.4720309E+02  0.7818608E-02  0.1462142E+00
          2   -1    0    0  502    0  0.00000000000E+00  0.00000000000E+00  0.19454572538E+03  0.19454572538E+03  0.00000000000E+00 0. -1.
          1   -1    0    0  501    0 -0.00000000000E+00 -0.00000000000E+00 -0.20380457471E+03  0.20380457471E+03  0.00000000000E+00 0. -1.
         25    2    1    2    0    0 -0.23762775340E+02 -0.18413900235E+02  0.13097840513E+03  0.18353515221E+03  0.12500427302E+03 0.  0.
          2    1    1    2  501    0  0.40915086163E+02 -0.25158857765E+02 -0.15768885286E+03  0.16484170199E+03  0.00000000000E+00 0. -1.
          1    1    1    2  502    0 -0.17152310823E+02  0.43572758000E+02  0.17451598409E+02  0.49973445882E+02  0.00000000000E+00 0. -1.
         22    1    3    3    0    0  0.47046367752E+01 -0.69409377954E+02  0.62354145744E+02  0.93422881815E+02  0.00000000000E+00 0.  1.
         22    1    3    3    0    0 -0.28467412115E+02  0.50995477719E+02  0.68624259386E+02  0.90112270399E+02  0.00000000000E+00 0.  1.
</event>
<event>
 7    1  0.7802682E-006  0.3988369E+02  0.7818608E-02  0.1594458E+00
          2   -1    0    0  502    0  0.00000000000E+00  0.00000000000E+00  0.10947485996E+04  0.10947485996E+04  0.00000000000E+00 0. -1.
          1   -1    0    0  501    0 -0.00000000000E+00 -0.00000000000E+00 -0.10881033783E+03  0.10881033783E+03  0.00000000000E+00 0. -1.
         25    2    1    2    0    0  0.54034515497E+02  0.27220140973E+01  0.69679559825E+02  0.15299599929E+03  0.12500158606E+03 0.  0.
          2    1    1    2  501    0 -0.35644778150E+02 -0.16645966275E+02 -0.61242674581E+02  0.72789446986E+02  0.00000000000E+00 0. -1.
          1    1    1    2  502    0 -0.18389737347E+02  0.13923952178E+02  0.97750137653E+03  0.97777349116E+03  0.00000000000E+00 0. -1.
         22    1    3    3    0    0  0.11890064845E+02 -0.53927076780E+02  0.21029753968E+01  0.55262335795E+02  0.00000000000E+00 0. -1.
         22    1    3    3    0    0  0.42144450652E+02  0.56649090877E+02  0.67576584428E+02  0.97733663499E+02  0.00000000000E+00 0. -1.
</event>
<event>
 7    1  0.7802682E-006  0.8635110E+02  0.7818608E-02  0.1400901E+00
          2   -1    0    0  502    0  0.00000000000E+00  0.00000000000E+00  0.11011142049E+04  0.11011142049E+04  0.00000000000E+00 0. -1.
          1   -1    0    0  501    0 -0.00000000000E+00 -0.00000000000E+00 -0.45757024769E+03  0.45757024769E+03  0.00000000000E+00 0. -1.
         25    2    1    2    0    0 -0.46335846742E+01  0.73458645200E+02 -0.84767719422E+01  0.14529013038E+03  0.12497889286E+03 0.  0.
          2    1    1    2  501    0  0.40281217907E+02  0.57416503997E+01 -0.37776627673E+03  0.37995118489E+03  0.00000000000E+00 0. -1.
          1    1    1    2  502    0 -0.35647633232E+02 -0.79200295600E+02  0.10297870059E+04  0.10334431373E+04  0.00000000000E+00 0. -1.
         22    1    3    3    0    0 -0.58493466173E+02  0.69243890894E+02 -0.10355856300E+02  0.91232920433E+02  0.00000000000E+00 0.  1.
         22    1    3    3    0    0  0.53859881499E+02  0.42147543060E+01  0.18790843582E+01  0.54057209944E+02  0.00000000000E+00 0.  1.
</event>
<event>
 7    1  0.7802682E-006  0.5571076E+02  0.7818608E-02  0.1491373E+00
          2   -1    0    0  502    0  0.00000000000E+00  0.00000000000E+00  0.15370380996E+03  0.15370380996E+03  0.00000000000E+00 0. -1.
          1   -1    0    0  501    0 -0.00000000000E+00 -0.00000000000E+00 -0.41691666123E+03  0.41691666123E+03  0.00000000000E+00 0. -1.
         25    2    1    2    0    0  0.48848003321E+02  0.37248245944E+02 -0.23774763396E+03  0.27554545123E+03  0.12501119543E+03 0.  0.
          2    1    1    2  501    0 -0.55775087804E+02 -0.57574716238E+01 -0.15330203608E+03  0.16323456486E+03  0.00000000000E+00 0. -1.
          1    1    1    2  502    0  0.69270844829E+01 -0.31490774320E+02  0.12783681878E+03  0.13184045510E+03  0.00000000000E+00 0. -1.
         22    1    3    3    0    0 -0.18673366395E+02  0.63886229234E+02 -0.11998201864E+03  0.13720725089E+03  0.00000000000E+00 0. -1.
         22    1    3    3    0    0  0.67521369716E+02 -0.26637983290E+02 -0.11776561532E+03  0.13833820034E+03  0.00000000000E+00 0. -1.
</event>
<event>
 7    1  0.7802682E-006  0.3048396E+03  0.7818608E-02  0.1190027E+00
          2   -1    0    0  502    0  0.00000000000E+00  0.00000000000E+00  0.97523491510E+03  0.97523491510E+03  0.00000000000E+00 0. -1.
          1   -1    0    0  501    0 -0.00000000000E+00 -0.00000000000E+00 -0.47722883226E+03  0.47722883226E+03  0.00000000000E+00 0. -1.
         25    2    1    2    0    0  0.26357174711E+03  0.24719914301E+02 -0.70436136082E+01  0.29284112095E+03  0.12500067836E+03 0.  0.
          2    1    1    2  501    0 -0.32887905055E+03  0.26102346731E+02 -0.24127427061E+03  0.40872489043E+03  0.00000000000E+00 0. -1.
          1    1    1    2  502    0  0.65307303438E+02 -0.50822261032E+02  0.74632396706E+03  0.75089773598E+03  0.00000000000E+00 0. -1.
         22    1    3    3    0    0  0.34743308205E+02 -0.39947798686E+02 -0.14638948310E+02  0.54929253522E+02  0.00000000000E+00 0.  1.
         22    1    3    3    0    0  0.22882843891E+03  0.64667712988E+02  0.75953347022E+01  0.23791186743E+03  0.00000000000E+00 0.  1.
</event>
<event>
 7    1  0.7802682E-006  0.9007407E+02  0.7818608E-02  0.1384757E+00
          2   -1    0    0  502    0  0.00000000000E+00  0.00000000000E+00  0.38482736508E+03  0.38482736508E+03  0.00000000000E+00 0. -1.
          1   -1    0    0  501    0 -0.00000000000E+00 -0.00000000000E+00 -0.62870384811E+03  0.62870384811E+03  0.00000000000E+00 0. -1.
         25    2    1    2    0    0 -0.13022582470E+03 -0.91543855692E+01 -0.53193726183E+02  0.18840747356E+03  0.12500094157E+03 0.  0.
          2    1    1    2  501    0  0.87756744171E+02 -0.37480116698E+01 -0.50252234775E+03  0.51014116059E+03  0.00000000000E+00 0. -1.
          1    1    1    2  502    0  0.42469080528E+02  0.12902397239E+02  0.31183959090E+03  0.31498257905E+03  0.00000000000E+00 0. -1.
         22    1    3    3    0    0 -0.92811382822E+02  0.49550629876E+02 -0.82231269998E+01  0.10553121586E+03  0.00000000000E+00 0. -1.
         22    1    3    3    0    0 -0.37414441877E+02 -0.58705015445E+02 -0.44970599183E+02  0.82876257699E+02  0.00000000000E+00 0. -1.
</event>
<event>
 7    1  0.7802682E-006  0.6107092E+02  0.7818608E-02  0.1443659E+00
          2   -1    0    0  502    0  0.00000000000E+00  0.00000000000E+00  0.26855078923E+04  0.26855078923E+04  0.00000000000E+00 0. -1.
          1   -1    0    0  501    0 -0.00000000000E+00 -0.00000000000E+00 -0.51147880991E+02  0.51147880991E+02  0.00000000000E+00 0. -1.
         25    2    1    2    0    0  0.74070682092E+02  0.52173934709E+02  0.19083683792E+03  0.24547080157E+03  0.12501452037E+03 0.  0.
          2    1    1    2  501    0 -0.14826010913E+02 -0.38708368748E+02 -0.51401425264E+01  0.41768043716E+02  0.00000000000E+00 0. -1.
          1    1    1    2  502    0 -0.59244671179E+02 -0.13465565961E+02  0.24486633159E+04  0.24494169280E+04  0.00000000000E+00 0. -1.
         22    1    3    3    0    0 -0.17212103948E+02 -0.14515142207E+02  0.93870743923E+02  0.96533219361E+02  0.00000000000E+00 0.  1.
         22    1    3    3    0    0  0.91282786040E+02  0.66689076916E+02  0.96966094001E+02  0.14893758220E+03  0.00000000000E+00 0.  1.
</event>
<event>
 7    1  0.7802682E-006  0.9420547E+02  0.7818608E-02  0.1350068E+00
          2   -1    0    0  502    0  0.00000000000E+00  0.00000000000E+00  0.23208532840E+04  0.23208532840E+04  0.00000000000E+00 0. -1.
          1   -1    0    0  501    0 -0.00000000000E+00 -0.00000000000E+00 -0.10324177806E+03  0.10324177806E+03  0.00000000000E+00 0. -1.
         25    2    1    2    0    0  0.41429838634E+02  0.10422458850E+02  0.47160794060E+03  0.48975912492E+03  0.12499956652E+03 0.  0.
          2    1    1    2  501    0 -0.96958716807E+02  0.64647385872E+00 -0.68647394594E+02  0.11880183280E+03  0.00000000000E+00 0. -1.
          1    1    1    2  502    0  0.55528878173E+02 -0.11068932708E+02  0.18146509599E+04  0.18155341043E+04  0.00000000000E+00 0. -1.
         22    1    3    3    0    0  0.47564749956E+02  0.17418032160E+02  0.62069582438E+02  0.80115081893E+02  0.00000000000E+00 0.  1.
         22    1    3    3    0    0 -0.61349113222E+01 -0.69955733105E+01  0.40953835816E+03  0.40964404303E+03  0.00000000000E+00 0.  1.
</event>
<event>
 7    1  0.7802682E-006  0.8838035E+02  0.7818608E-02  0.1394439E+00
          2   -1    0    0  502    0  0.00000000000E+00  0.00000000000E+00  0.46101404924E+03  0.46101404924E+03  0.00000000000E+00 0. -1.
          1   -1    0    0  501    0 -0.00000000000E+00 -0.00000000000E+00 -0.40960743748E+03  0.40960743748E+03  0.00000000000E+00 0. -1.
         25    2    1    2    0    0 -0.20756739345E+02 -0.70574975940E+02  0.30431356318E+02  0.14819547722E+03  0.12499665020E+03 0.  0.
          2    1    1    2  501    0  0.62208724352E+02  0.64827601939E+02 -0.34375502074E+03  0.35530276898E+03  0.00000000000E+00 0. -1.
          1    1    1    2  502    0 -0.41451985008E+02  0.57473740018E+01  0.36473027618E+03  0.36712324053E+03  0.00000000000E+00 0. -1.
         22    1    3    3    0    0 -0.85845494012E+01  0.32891304985E+02 -0.11511656770E+02  0.35889422866E+02  0.00000000000E+00 0.  1.
         22    1    3    3    0    0 -0.12172189944E+02 -0.10346628093E+03  0.41943013088E+02  0.11230605435E+03  0.00000000000E+00 0.  1.
</event>
<event>
 7    1  0.7802682E-006  0.1983994E+03  0.7818608E-02  0.1247934E+00
          2   -1    0    0  502    0  0.00000000000E+00  0.00000000000E+00  0.29911035970E+03  0.29911035970E+03  0.00000000000E+00 0. -1.
          1   -1    0    0  501    0 -0.00000000000E+00 -0.00000000000E+00 -0.80857698395E+03  0.80857698395E+03  0.00000000000E+00 0. -1.
         25    2    1    2    0    0  0.14769589488E+03 -0.18873981138E+03 -0.37103354118E+03  0.45905074293E+03  0.12499960857E+03 0.  0.
          2    1    1    2  501    0 -0.13286660244E+03  0.12121597657E+03 -0.36761613117E+03  0.40925354844E+03  0.00000000000E+00 0. -1.
          1    1    1    2  502    0 -0.14829292435E+02  0.67523834808E+02  0.22918304809E+03  0.23938305227E+03  0.00000000000E+00 0. -1.
         22    1    3    3    0    0  0.13517360614E+03 -0.94535517034E+02 -0.29233841392E+03  0.33566443963E+03  0.00000000000E+00 0. -1.
         22    1    3    3    0    0  0.12522288735E+02 -0.94204294345E+02 -0.78695127258E+02  0.12338630330E+03  0.00000000000E+00 0. -1.
</event>
<event>
 7    1  0.7802682E-006  0.7807405E+02  0.7818608E-02  0.1482703E+00
          2   -1    0    0  502    0  0.00000000000E+00  0.00000000000E+00  0.20406156934E+03  0.20406156934E+03  0.00000000000E+00 0. -1.
          1   -1    0    0  501    0 -0.00000000000E+00 -0.00000000000E+00 -0.93614572185E+03  0.93614572185E+03  0.00000000000E+00 0. -1.
         25    2    1    2    0    0 -0.99342115182E+01 -0.58097825523E+02  0.32047249389E+02  0.14186778579E+03  0.12500158624E+03 0.  0.
          2    1    1    2  501    0 -0.71633308724E+01 -0.23373450785E+02 -0.86624688255E+03  0.86659176839E+03  0.00000000000E+00 0. -1.
          1    1    1    2  502    0  0.17097542391E+02  0.81471276308E+02  0.10211548065E+03  0.13174773701E+03  0.00000000000E+00 0. -1.
         22    1    3    3    0    0  0.22611498091E+02 -0.89896067128E+02  0.21965437567E+02  0.95263126017E+02  0.00000000000E+00 0. -1.
         22    1    3    3    0    0 -0.32545709609E+02  0.31798241606E+02  0.10081811822E+02  0.46604659776E+02  0.00000000000E+00 0. -1.
</event>
<event>
 7    1  0.7802682E-006  0.7535996E+02  0.7818608E-02  0.1401068E+00
          2   -1    0    0  502    0  0.00000000000E+00  0.00000000000E+00  0.16321939062E+04  0.16321939062E+04  0.00000000000E+00 0. -1.
          1   -1    0    0  501    0 -0.00000000000E+00 -0.00000000000E+00 -0.93027843956E+02  0.93027843956E+02  0.00000000000E+00 0. -1.
         25    2    1    2    0    0 -0.73589176939E+02  0.14595951139E+02  0.15632795676E+04  0.15700624090E+04  0.12499821190E+03 0.  0.
          2    1    1    2  501    0 -0.11833433304E+02 -0.45032435761E+02 -0.42027729375E+02  0.62723842761E+02  0.00000000000E+00 0. -1.
          1    1    1    2  502    0  0.85422610243E+02  0.30436484622E+02  0.17914224009E+02  0.92435498369E+02  0.00000000000E+00 0. -1.
         22    1    3    3    0    0 -0.91347208469E+02  0.36919347726E+02  0.14464198519E+04  0.14497716161E+04  0.00000000000E+00 0.  1.
         22    1    3    3    0    0  0.17758031529E+02 -0.22323396587E+02  0.11685971566E+03  0.12029079293E+03  0.00000000000E+00 0.  1.
</event>
<event>
 7    1  0.7802682E-006  0.9936844E+02  0.7818608E-02  0.1312870E+00
          2   -1    0    0  502    0  0.00000000000E+00  0.00000000000E+00  0.72778997796E+03  0.72778997796E+03  0.00000000000E+00 0. -1.
          1   -1    0    0  501    0 -0.00000000000E+00 -0.00000000000E+00 -0.12917679285E+04  0.12917679285E+04  0.00000000000E+00 0. -1.
         25    2    1    2    0    0 -0.33790267714E+02  0.53262064690E+02 -0.21628644283E+02  0.14167330288E+03  0.12499958708E+03 0.  0.
          2    1    1    2  501    0  0.58752063736E+02  0.45659358085E+02 -0.12050659674E+04  0.12073609931E+04  0.00000000000E+00 0. -1.
          1    1    1    2  502    0 -0.24961796023E+02 -0.98921422774E+02  0.66271666116E+03  0.67052361042E+03  0.00000000000E+00 0. -1.
         22    1    3    3    0    0 -0.42403447810E+02  0.46325215253E+01 -0.63790163588E+02  0.76737849934E+02  0.00000000000E+00 0.  1.
         22    1    3    3    0    0  0.86131800959E+01  0.48629543164E+02  0.42161519305E+02  0.64935452950E+02  0.00000000000E+00 0.  1.
</event>
<event>
 7    1  0.7802682E-006  0.8197588E+02  0.7818608E-02  0.1347082E+00
          2   -1    0    0  502    0  0.00000000000E+00  0.00000000000E+00  0.61946242722E+03  0.61946242722E+03  0.00000000000E+00 0. -1.
          1   -1    0    0  501    0 -0.00000000000E+00 -0.00000000000E+00 -0.29405355782E+03  0.29405355782E+03  0.00000000000E+00 0. -1.
         25    2    1    2    0    0  0.55229849521E+02 -0.24726669859E+02  0.30642478508E+03  0.33642574902E+03  0.12499756483E+03 0.  0.
          2    1    1    2  501    0 -0.18832309251E+02  0.80681445219E+02 -0.26900087050E+03  0.28147045991E+03  0.00000000000E+00 0. -1.
          1    1    1    2  502    0 -0.36397540270E+02 -0.55954775360E+02  0.28798495482E+03  0.29561977610E+03  0.00000000000E+00 0. -1.
         22    1    3    3    0    0  0.11378908784E+02 -0.29995675677E+02  0.58340421988E+01  0.32607609124E+02  0.00000000000E+00 0.  1.
         22    1    3    3    0    0  0.43850940737E+02  0.52690058179E+01  0.30059074288E+03  0.30381813990E+03  0.00000000000E+00 0.  1.
</event>
<event>
 7    1  0.7802682E-006  0.7243967E+02  0.7818608E-02  0.1438178E+00
          2   -1    0    0  502    0  0.00000000000E+00  0.00000000000E+00  0.50578495196E+03  0.50578495196E+03  0.00000000000E+00 0. -1.
          1   -1    0    0  501    0 -0.00000000000E+00 -0.00000000000E+00 -0.23348468399E+03  0.23348468399E+03  0.00000000000E+00 0. -1.
         25    2    1    2    0    0 -0.10446885360E+03 -0.23127802067E+02  0.33010238779E+02  0.16781775208E+03  0.12499794177E+03 0.  0.
          2    1    1    2  501    0  0.34620436473E+02  0.11256204717E+02 -0.16093654338E+03  0.16500256896E+03  0.00000000000E+00 0. -1.
          1    1    1    2  502    0  0.69848417129E+02  0.11871597350E+02  0.40022657257E+03  0.40644931491E+03  0.00000000000E+00 0. -1.
         22    1    3    3    0    0 -0.10863221382E+02  0.16421435983E+01  0.64939002907E+02  0.65861827434E+02  0.00000000000E+00 0.  1.
         22    1    3    3    0    0 -0.93605632221E+02 -0.24769945665E+02 -0.31928764129E+02  0.10195592465E+03  0.00000000000E+00 0.  1.
</event>
<event>
 7    1  0.7802682E-006  0.1271065E+03  0.7818608E-02  0.1313099E+00
          2   -1    0    0  502    0  0.00000000000E+00  0.00000000000E+00  0.12335723233E+04  0.12335723233E+04  0.00000000000E+00 0. -1.
          1   -1    0    0  501    0 -0.00000000000E+00 -0.00000000000E+00 -0.10750982049E+04  0.10750982049E+04  0.00000000000E+00 0. -1.
         25    2    1    2    0    0 -0.18186568783E+03  0.14489126207E+02  0.50393303273E+02  0.22682484334E+03  0.12499984541E+03 0.  0.
          2    1    1    2  501    0  0.12552514970E+03 -0.50362942092E+00 -0.98211553006E+03  0.99010490921E+03  0.00000000000E+00 0. -1.
          1    1    1    2  502    0  0.56340538131E+02 -0.13985496786E+02  0.10901963452E+04  0.10917407757E+04  0.00000000000E+00 0. -1.
         22    1    3    3    0    0 -0.89078178695E+01 -0.11116100857E+02  0.49991536626E+02  0.51981445264E+02  0.00000000000E+00 0. -1.
         22    1    3    3    0    0 -0.17295786996E+03  0.25605227065E+02  0.40176664717E+00  0.17484339808E+03  0.00000000000E+00 0. -1.
</event>
<event>
 7    1  0.7802682E-006  0.2230508E+03  0.7818608E-02  0.1206077E+00
          2   -1    0    0  502    0  0.00000000000E+00  0.00000000000E+00  0.14246953469E+04  0.14246953469E+04  0.00000000000E+00 0. -1.
          1   -1    0    0  501    0 -0.00000000000E+00 -0.00000000000E+00 -0.37416493198E+03  0.37416493198E+03  0.00000000000E+00 0. -1.
         25    2    1    2    0    0  0.22929750872E+02 -0.13207543517E+03  0.54462834417E+03  0.57464326310E+03  0.12500060998E+03 0.  0.
          2    1    1    2  501    0 -0.44854388589E+02  0.22445993586E+03 -0.31968777991E+03  0.39318501447E+03  0.00000000000E+00 0. -1.
          1    1    1    2  502    0  0.21924637717E+02 -0.92384500694E+02  0.82558985070E+03  0.83103200136E+03  0.00000000000E+00 0. -1.
         22    1    3    3    0    0 -0.29685882610E+02 -0.98079836573E+02  0.44737638519E+03  0.45896245597E+03  0.00000000000E+00 0.  1.
         22    1    3    3    0    0  0.52615633483E+02 -0.33995598595E+02  0.97251958986E+02  0.11568080713E+03  0.00000000000E+00 0.  1.
</event>
<event>
 7    1  0.7802682E-006  0.2172108E+03  0.7818608E-02  0.1265067E+00
          2   -1    0    0  502    0  0.00000000000E+00  0.00000000000E+00  0.11729583689E+04  0.11729583689E+04  0.00000000000E+00 0. -1.
          1   -1    0    0  501    0 -0.00000000000E+00 -0.00000000000E+00 -0.49059870703E+03  0.49059870703E+03  0.00000000000E+00 0. -1.
         25    2    1    2    0    0  0.24057157473E+03  0.20525559259E+02  0.29757671821E+02  0.27350732285E+03  0.12499902187E+03 0.  0.
          2    1    1    2  501    0 -0.34153000108E+02  0.40931441168E+02 -0.35535934965E+03  0.35933560591E+03  0.00000000000E+00 0. -1.
          1    1    1    2  502    0 -0.20641857463E+03 -0.61457000426E+02  0.10079613397E+04  0.10307141472E+04  0.00000000000E+00 0. -1.
         22    1    3    3    0    0  0.16231587837E+03  0.64066365038E+02  0.50343032124E+02  0.18161873357E+03  0.00000000000E+00 0. -1.
         22    1    3    3    0    0  0.78255696365E+02 -0.43540805779E+02 -0.20585360303E+02  0.91888589282E+02  0.00000000000E+00 0. -1.
</event>
<event>
 7    1  0.7802682E-006  0.8608307E+02  0.7818608E-02  0.1344666E+00
          2   -1    0    0  502    0  0.00000000000E+00  0.00000000000E+00  0.19989152102E+04  0.19989152102E+04  0.00000000000E+00 0. -1.
          1   -1    0    0  501    0 -0.00000000000E+00 -0.00000000000E+00 -0.16570378828E+02  0.16570378828E+02  0.00000000000E+00 0. -1.
         25    2    1    2    0    0 -0.14724095675E+02  0.37138506730E+02  0.14810720624E+04  0.14868741878E+04  0.12499731500E+03 0.  0.
          2    1    1    2  501    0 -0.20774010281E+02 -0.91467845528E+02  0.20688257064E+03  0.22715264538E+03  0.00000000000E+00 0. -1.
          1    1    1    2  502    0  0.35498105956E+02  0.54329338798E+02  0.29439019832E+03  0.30145875580E+03  0.00000000000E+00 0. -1.
         22    1    3    3    0    0 -0.32020829590E+02 -0.35600726727E+01  0.13028324197E+04  0.13032307246E+04  0.00000000000E+00 0. -1.
         22    1    3    3    0    0  0.17296733915E+02  0.40698579403E+02  0.17823964264E+03  0.18364346321E+03  0.00000000000E+00 0. -1.
</event>
<event>
 7    1  0.7802682E-006  0.9815226E+02  0.7818608E-02  0.1429452E+00
          2   -1    0    0  502    0  0.00000000000E+00  0.00000000000E+00  0.99680593644E+03  0.99680593644E+03  0.00000000000E+00 0. -1.
          1   -1    0    0  501    0 -0.00000000000E+00 -0.00000000000E+00 -0.16149871719E+03  0.16149871719E+03  0.00000000000E+00 0. -1.
         25    2    1    2    0    0  0.75175354593E+02 -0.12244989351E+02  0.34819872905E+03  0.37771503027E+03  0.12500006192E+03 0.  0.
          2    1    1    2  501    0  0.28693888889E+02 -0.21425501324E+00 -0.14096878938E+03  0.14385960080E+03  0.00000000000E+00 0. -1.
          1    1    1    2  502    0 -0.10386924348E+03  0.12459244364E+02  0.62807727957E+03  0.63673002256E+03  0.00000000000E+00 0. -1.
         22    1    3    3    0    0 -0.97742806661E+01  0.12718775210E+02 -0.23008663354E+01  0.16204869369E+02  0.00000000000E+00 0. -1.
         22    1    3    3    0    0  0.84949635259E+02 -0.24963764561E+02  0.35049959538E+03  0.36151016090E+03  0.00000000000E+00 0. -1.
</event>
<event>
 7    1  0.7802682E-006  0.9460349E+02  0.7818608E-02  0.1377628E+00
          2   -1    0    0  502    0  0.00000000000E+00  0.00000000000E+00  0.11464956900E+04  0.11464956900E+04  0.00000000000E+00 0. -1.
          1   -1    0    0  501    0 -0.00000000000E+00 -0.00000000000E+00 -0.10983780931E+03  0.10983780931E+03  0.00000000000E+00 0. -1.
         25    2    1    2    0    0  0.78829221649E+02 -0.53642231069E+02  0.44359590195E+03  0.47063056602E+03  0.12499708116E+03 0.  0.
          2    1    1    2  501    0 -0.45460429157E+02  0.83513541100E+02 -0.71915948672E+02  0.11921856332E+03  0.00000000000E+00 0. -1.
          1    1    1    2  502    0 -0.33368792492E+02 -0.29871310031E+02  0.66497792741E+03  0.66648436997E+03  0.00000000000E+00 0. -1.
         22    1    3    3    0    0  0.50254452410E+02 -0.41514860672E+02  0.69635221959E+02  0.95383739604E+02  0.00000000000E+00 0.  1.
         22    1    3    3    0    0  0.28574769239E+02 -0.12127370397E+02  0.37396068000E+03  0.37524682641E+03  0.00000000000E+00 0.  1.
</event>
<event>
 7    1  0.7802682E-006  0.6043960E+02  0.7818608E-02  0.1547385E+00
          2   -1    0    0  502    0  0.00000000000E+00  0.00000000000E+00  0.28682324382E+03  0.28682324382E+03  0.00000000000E+00 0. -1.
          1   -1    0    0  501    0 -0.00000000000E+00 -0.00000000000E+00 -0.27401119213E+03  0.27401119213E+03  0.00000000000E+00 0. -1.
         25    2    1    2    0    0 -0.25606293256E+02 -0.57151746548E+02  0.65580811869E+02  0.15442791959E+03  0.12500054030E+03 0.  0.
          2    1    1    2  501    0 -0.15782632965E+02  0.12968860236E+02 -0.22392697562E+03  0.22485678386E+03  0.00000000000E+00 0. -1.
          1    1    1    2  502    0  0.41388926221E+02  0.44182886311E+02  0.17115821545E+03  0.18154973250E+03  0.00000000000E+00 0. -1.
         22    1    3    3    0    0 -0.70799934059E+02 -0.55080779495E+02  0.23706633690E+02  0.92782150295E+02  0.00000000000E+00 0. -1.
         22    1    3    3    0    0  0.45193640803E+02 -0.20709670534E+01  0.41874178179E+02  0.61645769293E+02  0.00000000000E+00 0. -1.
</event>
<event>
 7    1  0.7802682E-006  0.1201470E+03  0.7818608E-02  0.1423652E+00
          2   -1    0    0  502    0  0.00000000000E+00  0.00000000000E+00  0.12563006527E+04  0.12563006527E+04  0.00000000000E+00 0. -1.
          1   -1    0    0  501    0 -0.00000000000E+00 -0.00000000000E+00 -0.21049114354E+03  0.21049114354E+03  0.00000000000E+00 0. -1.
         25    2    1    2    0    0  0.12433955312E+03  0.45940580264E+02  0.10855524352E+03  0.21208496217E+03  0.12499971559E+03 0.  0.
          2    1    1    2  501    0 -0.10325470469E+03 -0.58419106826E+02 -0.13639938594E+03  0.18077366669E+03  0.00000000000E+00 0. -1.
          1    1    1    2  502    0 -0.21084848436E+02  0.12478526562E+02  0.10736536516E+04  0.10739331674E+04  0.00000000000E+00 0. -1.
         22    1    3    3    0    0  0.83309959308E+02  0.83507288109E+02  0.41699192145E+02  0.12511130689E+03  0.00000000000E+00 0. -1.
         22    1    3    3    0    0  0.41029593814E+02 -0.37566707845E+02  0.66856051375E+02  0.86973655277E+02  0.00000000000E+00 0. -1.
</event>
<event>
 7    1  0.7802682E-006  0.9307387E+02  0.7818608E-02  0.1404898E+00
          2   -1    0    0  502    0  0.00000000000E+00  0.00000000000E+00  0.54015066734E+03  0.54015066734E+03  0.00000000000E+00 0. -1.
          1   -1    0    0  501    0 -0.00000000000E+00 -0.00000000000E+00 -0.19720212055E+03  0.19720212055E+03  0.00000000000E+00 0. -1.
         25    2    1    2    0    0 -0.24570552003E+02  0.81041005252E+02 -0.44713696310E+02  0.15746577374E+03  0.12499919481E+03 0.  0.
          2    1    1    2  501    0 -0.35447064832E+02 -0.90265268461E+01 -0.87882135050E+02  0.95190557583E+02  0.00000000000E+00 0. -1.
          1    1    1    2  502    0  0.60017616835E+02 -0.72014478406E+02  0.47554437814E+03  0.48469645657E+03  0.00000000000E+00 0. -1.
         22    1    3    3    0    0 -0.38036939907E+02  0.68684097514E+02 -0.83484195984E+02  0.11460333777E+03  0.00000000000E+00 0. -1.
         22    1    3    3    0    0  0.13466387904E+02  0.12356907738E+02  0.38770499675E+02  0.42862435967E+02  0.00000000000E+00 0. -1.
</event>
<event>
 7    1  0.7802682E-006  0.1360395E+03  0.7818608E-02  0.1417249E+00
          2   -1    0    0  502    0  0.00000000000E+00  0.00000000000E+00  0.52670215021E+02  0.52670215021E+02  0.00000000000E+00 0. -1.
          1   -1    0    0  501    0 -0.00000000000E+00 -0.00000000000E+00 -0.22870197699E+04  0.22870197699E+04  0.00000000000E+00 0. -1.
         25    2    1    2    0    0  0.58745495857E+02  0.14312843269E+03 -0.82081356929E+03  0.84456860925E+03  0.12499775471E+03 0.  0.
          2    1    1    2  501    0 -0.84783796630E+00 -0.22714153348E+02 -0.13445691624E+04  0.13447612740E+04  0.00000000000E+00 0. -1.
          1    1    1    2  502    0 -0.57897657891E+02 -0.12041427935E+03 -0.68966823128E+02  0.15036010160E+03  0.00000000000E+00 0. -1.
         22    1    3    3    0    0  0.68936079529E+02  0.15301087997E+02 -0.28218883799E+03  0.29088974998E+03  0.00000000000E+00 0.  1.
         22    1    3    3    0    0 -0.10190583672E+02  0.12782734470E+03 -0.53862473129E+03  0.55367885928E+03  0.00000000000E+00 0.  1.
</event>
<event>
 7    1  0.7802682E-006  0.8113613E+02  0.7818608E-02  0.1326122E+00
          2   -1    0    0  502    0  0.00000000000E+00  0.00000000000E+00  0.85386210479E+03  0.85386210479E+03  0.00000000000E+00 0. -1.
          1   -1    0    0  501    0 -0.00000000000E+00 -0.00000000000E+00 -0.23135077338E+04  0.23135077338E+04  0.00000000000E+00 0. -1.
         25    2    1    2    0    0 -0.94630227562E+00  0.38489067101E+00 -0.29649602469E+03  0.32177018190E+03  0.12500045471E+03 0.  0.
          2    1    1    2  501    0 -0.52521839572E+02 -0.61842762757E+02 -0.20015787067E+04  0.20032225013E+04  0.00000000000E+00 0. -1.
          1    1    1    2  502    0  0.53468141848E+02  0.61457872086E+02  0.83842910233E+03  0.84237715535E+03  0.00000000000E+00 0. -1.
         22    1    3    3    0    0  0.35780808452E+02  0.50930526046E+02 -0.15876333612E+03  0.17052853612E+03  0.00000000000E+00 0.  1.
         22    1    3    3    0    0 -0.36727110727E+02 -0.50545635375E+02 -0.13773268857E+03  0.15124164578E+03  0.00000000000E+00 0.  1.
</event>
<event>
 7    1  0.7802682E-006  0.1017581E+03  0.7818608E-02  0.1286374E+00
          2   -1    0    0  502    0  0.00000000000E+00  0.00000000000E+00  0.15215658293E+03  0.15215658293E+03  0.00000000000E+00 0. -1.
          1   -1    0    0  501    0 -0.00000000000E+00 -0.00000000000E+00 -0.62386590313E+03  0.62386590313E+03  0.00000000000E+00 0. -1.
         25    2    1    2    0    0 -0.16038549049E+02 -0.66826394380E+02  0.79038038768E+02  0.16311151435E+03  0.12504140314E+03 0.  0.
          2    1    1    2  501    0 -0.76620645589E+02  0.71526211834E+02 -0.49212563355E+03  0.50316434841E+03  0.00000000000E+00 0. -1.
          1    1    1    2  502    0  0.92659194638E+02 -0.46998174534E+01 -0.58621725416E+02  0.10974662330E+03  0.00000000000E+00 0. -1.
         22    1    3    3    0    0 -0.30998757390E+02 -0.20847537315E+02 -0.27318540275E+02  0.46280075784E+02  0.00000000000E+00 0.  1.
         22    1    3    3    0    0  0.14960208342E+02 -0.45978857066E+02  0.10635657904E+03  0.11683143856E+03  0.00000000000E+00 0.  1.
</event>
<event>
 7    1  0.7802682E-006  0.1965184E+03  0.7818608E-02  0.1336296E+00
          2   -1    0    0  502    0  0.00000000000E+00  0.00000000000E+00  0.75487608520E+03  0.75487608520E+03  0.00000000000E+00 0. -1.
          1   -1    0    0  501    0 -0.00000000000E+00 -0.00000000000E+00 -0.24822919892E+03  0.24822919892E+03  0.00000000000E+00 0. -1.
         25    2    1    2    0    0  0.15758112707E+03  0.93079521314E+02  0.28824057715E+03  0.36360327630E+03  0.12501641222E+03 0.  0.
          2    1    1    2  501    0 -0.18332501193E+03 -0.76604423637E+02 -0.16292655578E+03  0.25694622063E+03  0.00000000000E+00 0. -1.
          1    1    1    2  502    0  0.25743884850E+02 -0.16475097677E+02  0.38133286491E+03  0.38255578719E+03  0.00000000000E+00 0. -1.
         22    1    3    3    0    0 -0.19236441136E+02  0.26041543680E+02  0.37318360132E+02  0.49405087468E+02  0.00000000000E+00 0. -1.
         22    1    3    3    0    0  0.17681756821E+03  0.67037977634E+02  0.25092221702E+03  0.31419818884E+03  0.00000000000E+00 0. -1.
</event>
<event>
 7    1  0.7802682E-006  0.2507127E+03  0.7818608E-02  0.1243099E+00
          2   -1    0    0  502    0  0.00000000000E+00  0.00000000000E+00  0.74447998232E+03  0.74447998232E+03  0.00000000000E+00 0. -1.
          1   -1    0    0  501    0 -0.00000000000E+00 -0.00000000000E+00 -0.10537624873E+04  0.10537624873E+04  0.00000000000E+00 0. -1.
         25    2    1    2    0    0  0.17550332429E+03  0.11208909220E+03  0.17422246153E+03  0.29890400502E+03  0.12499902677E+03 0.  0.
          2    1    1    2  501    0 -0.23214304141E+03 -0.10256329893E+03 -0.97347503691E+03  0.10060135533E+04  0.00000000000E+00 0. -1.
          1    1    1    2  502    0  0.56639717124E+02 -0.95257932652E+01  0.48997007036E+03  0.49332491133E+03  0.00000000000E+00 0. -1.
         22    1    3    3    0    0 -0.16233435167E+01  0.31178492175E+02 -0.79797503097E+01  0.32224370180E+02  0.00000000000E+00 0. -1.
         22    1    3    3    0    0  0.17712666780E+03  0.80910600020E+02  0.18220221183E+03  0.26667963484E+03  0.00000000000E+00 0. -1.
</event>
<event>
 7    1  0.7802682E-006  0.1361159E+03  0.7818608E-02  0.1244455E+00
          2   -1    0    0  502    0  0.00000000000E+00  0.00000000000E+00  0.38745058820E+04  0.38745058820E+04  0.00000000000E+00 0. -1.
          1   -1    0    0  501    0 -0.00000000000E+00 -0.00000000000E+00 -0.87900977344E+02  0.87900977344E+02  0.00000000000E+00 0. -1.
         25    2    1    2    0    0  0.37759229496E+01 -0.61200170562E+02  0.19405056611E+03  0.23883132353E+03  0.12500024168E+03 0.  0.
          2    1    1    2  501    0  0.97040834275E+02 -0.38374014156E+02 -0.21666267788E+02  0.10657821372E+03  0.00000000000E+00 0. -1.
          1    1    1    2  502    0 -0.10081675723E+03  0.99574184719E+02  0.36142206064E+04  0.36169973221E+04  0.00000000000E+00 0. -1.
         22    1    3    3    0    0 -0.53716528146E+01 -0.46788425648E+02  0.31843205325E+01  0.47203297828E+02  0.00000000000E+00 0.  1.
         22    1    3    3    0    0  0.91475757642E+01 -0.14411744915E+02  0.19086624557E+03  0.19162802570E+03  0.00000000000E+00 0.  1.
</event>
<event>
 7    1  0.7802682E-006  0.1392486E+03  0.7818608E-02  0.1367129E+00
          2   -1    0    0  502    0  0.00000000000E+00  0.00000000000E+00  0.26773241248E+04  0.26773241248E+04  0.00000000000E+00 0. -1.
          1   -1    0    0  501    0 -0.00000000000E+00 -0.00000000000E+00 -0.27279863597E+03  0.27279863597E+03  0.00000000000E+00 0. -1.
         25    2    1    2    0    0  0.13521459994E+03 -0.92113166867E+02  0.27253651445E+03  0.34156771907E+03  0.12499812581E+03 0.  0.
          2    1    1    2  501    0 -0.12348349846E+03  0.61076998220E+02 -0.21824435079E+03  0.25808752538E+03  0.00000000000E+00 0. -1.
          1    1    1    2  502    0 -0.11731101479E+02  0.31036168647E+02  0.23502333252E+04  0.23504675163E+04  0.00000000000E+00 0. -1.
         22    1    3    3    0    0 -0.12448938692E+02  0.17864819454E+02  0.29135509453E+02  0.36373146135E+02  0.00000000000E+00 0. -1.
         22    1    3    3    0    0  0.14766353863E+03 -0.10997798632E+03  0.24340100500E+03  0.30519457294E+03  0.00000000000E+00 0. -1.
</event>
<event>
 7    1  0.7802682E-006  0.1173748E+03  0.7818608E-02  0.1255461E+00
          2   -1    0    0  502    0  0.00000000000E+00  0.00000000000E+00  0.25091222081E+04  0.25091222081E+04  0.00000000000E+00 0. -1.
          1   -1    0    0  501    0 -0.00000000000E+00 -0.00000000000E+00 -0.56938407605E+03  0.56938407605E+03  0.00000000000E+00 0. -1.
         25    2    1    2    0    0 -0.66773576807E+02 -0.11496737501E+03  0.60234458334E+02  0.19215090514E+03  0.12497028647E+03 0.  0.
          2    1    1    2  501    0  0.10832388215E+03  0.44261001026E+01 -0.49610526584E+03  0.50781304492E+03  0.00000000000E+00 0. -1.
          1    1    1    2  502    0 -0.41550305338E+02  0.11054127491E+03  0.23756089395E+04  0.23785423340E+04  0.00000000000E+00 0. -1.
         22    1    3    3    0    0  0.53789383167E+01 -0.62408758196E+02  0.79114483518E+02  0.10091029471E+03  0.00000000000E+00 0.  1.
         22    1    3    3    0    0 -0.72152515124E+02 -0.52558616816E+02 -0.18880025184E+02  0.91240610428E+02  0.00000000000E+00 0.  1.
</event>
<event>
 7    1  0.7802682E-006  0.5443165E+02  0.7818608E-02  0.1507951E+00
          2   -1    0    0  502    0  0.00000000000E+00  0.00000000000E+00  0.76781480778E+03  0.76781480778E+03  0.00000000000E+00 0. -1.
          1   -1    0    0  501    0 -0.00000000000E+00 -0.00000000000E+00 -0.91120237634E+03  0.91120237634E+03  0.00000000000E+00 0. -1.
         25    2    1    2    0    0 -0.46200832114E+02 -0.13171098276E+02  0.12395262097E+03  0.18247540662E+03  0.12500010822E+03 0.  0.
          2    1    1    2  501    0  0.36107370243E+02  0.40833879878E+02 -0.88074523178E+03  0.88243034356E+03  0.00000000000E+00 0. -1.
          1    1    1    2  502    0  0.10093461871E+02 -0.27662781602E+02  0.61340504224E+03  0.61411143395E+03  0.00000000000E+00 0. -1.
         22    1    3    3    0    0  0.26151787141E+02 -0.32519273333E+02  0.92052735401E+02  0.10106990256E+03  0.00000000000E+00 0. -1.
         22    1    3    3    0    0 -0.72352619254E+02  0.19348175057E+02  0.31899885572E+02  0.81405504055E+02  0.00000000000E+00 0. -1.
</event>
<event>
 7    1  0.7802682E-006  0.2285673E+03  0.7818608E-02  0.1344995E+00
          2   -1    0    0  502    0  0.00000000000E+00  0.00000000000E+00  0.23462031309E+03  0.23462031309E+03  0.00000000000E+00 0. -1.
          1   -1    0    0  501    0 -0.00000000000E+00 -0.00000000000E+00 -0.10710416897E+04  0.10710416897E+04  0.00000000000E+00 0. -1.
         25    2    1    2    0    0 -0.78000954065E+02  0.19388657893E+03 -0.84280990840E+02  0.25769037615E+03  0.12499956088E+03 0.  0.
          2    1    1    2  501    0  0.78580099907E+02 -0.21825264201E+03 -0.88397437776E+03  0.91390357718E+03  0.00000000000E+00 0. -1.
          1    1    1    2  502    0 -0.57914584238E+00  0.24366063084E+02  0.13183399199E+03  0.13406804946E+03  0.00000000000E+00 0. -1.
         22    1    3    3    0    0 -0.51139800697E+02  0.18563750519E+03 -0.10812857863E+03  0.22083557699E+03  0.00000000000E+00 0. -1.
         22    1    3    3    0    0 -0.26861153368E+02  0.82490737349E+01  0.23847587785E+02  0.36854799157E+02  0.00000000000E+00 0. -1.
</event>
<event>
 7    1  0.7802682E-006  0.1488060E+03  0.7818608E-02  0.1215948E+00
          2   -1    0    0  502    0  0.00000000000E+00  0.00000000000E+00  0.14846109222E+04  0.14846109222E+04  0.00000000000E+00 0. -1.
          1   -1    0    0  501    0 -0.00000000000E+00 -0.00000000000E+00 -0.23443715409E+03  0.23443715409E+03  0.00000000000E+00 0. -1.
         25    2    1    2    0    0  0.18241243610E+02 -0.57700069110E+02  0.16196536404E+02  0.13981903798E+03  0.12499997858E+03 0.  0.
          2    1    1    2  501    0  0.12810211139E+03  0.15154618632E+01 -0.14378441479E+03  0.19257831005E+03  0.00000000000E+00 0. -1.
          1    1    1    2  502    0 -0.14634335500E+03  0.56184607246E+02  0.13777616465E+04  0.13866507283E+04  0.00000000000E+00 0. -1.
         22    1    3    3    0    0  0.71945986448E+02 -0.30317937758E+02  0.15138741799E+02  0.79527252053E+02  0.00000000000E+00 0.  1.
         22    1    3    3    0    0 -0.53704742838E+02 -0.27382131352E+02  0.10577946054E+01  0.60291785926E+02  0.00000000000E+00 0.  1.
</event>
<event>
 7    1  0.7802682E-006  0.4488860E+02  0.7818608E-02  0.1477816E+00
          2   -1    0    0  502    0  0.00000000000E+00  0.00000000000E+00  0.20695177732E+04  0.20695177732E+04  0.00000000000E+00 0. -1.
          1   -1    0    0  501    0 -0.00000000000E+00 -0.00000000000E+00 -0.39025632384E+02  0.39025632384E+02  0.00000000000E+00 0. -1.
         25    2    1    2    0    0 -0.11036635222E+02 -0.11188097367E+02  0.69017421522E+03  0.70157910472E+03  0.12500324790E+03 0.  0.
          2    1    1    2  501    0  0.33533547228E+02 -0.29841034003E+02 -0.17618170795E+02  0.48222256710E+02  0.00000000000E+00 0. -1.
          1    1    1    2  502    0 -0.22496912005E+02  0.41029131370E+02  0.13579360964E+04  0.13587420441E+04  0.00000000000E+00 0. -1.
         22    1    3    3    0    0  0.31601371650E+02 -0.34743866639E+02  0.11325457244E+03  0.12260661132E+03  0.00000000000E+00 0.  1.
         22    1    3    3    0    0 -0.42638006873E+02  0.23555769272E+02  0.57691964278E+03  0.57897249341E+03  0.00000000000E+00 0.  1.
</event>
<event>
 7    1  0.7802682E-006  0.3467961E+03  0.7818608E-02  0.1223859E+00
          2   -1    0    0  502    0  0.00000000000E+00  0.00000000000E+00  0.26949514360E+04  0.26949514360E+04  0.00000000000E+00 0. -1.
          1   -1    0    0  501    0 -0.00000000000E+00 -0.00000000000E+00 -0.58907767867E+03  0.58907767867E+03  0.00000000000E+00 0. -1.
         25    2    1    2    0    0 -0.32693269933E+03  0.85531097580E+02  0.11587650076E+04  0.12134914960E+04  0.12499883805E+03 0.  0.
          2    1    1    2  501    0 -0.25565228376E+02 -0.43654290958E+02 -0.53963639640E+03  0.54200250768E+03  0.00000000000E+00 0. -1.
          1    1    1    2  502    0  0.35249792770E+03 -0.41876806622E+02  0.14867451461E+04  0.15285351110E+04  0.00000000000E+00 0. -1.
         22    1    3    3    0    0  0.70674769599E+01  0.15730589959E+02  0.34228321687E+02  0.38327257879E+02  0.00000000000E+00 0. -1.
         22    1    3    3    0    0 -0.33400017628E+03  0.69800507621E+02  0.11245366860E+04  0.11751642382E+04  0.00000000000E+00 0. -1.
</event>
<event>
 7    1  0.7802682E-006  0.7105474E+02  0.7818608E-02  0.1454487E+00
          2   -1    0    0  502    0  0.00000000000E+00  0.00000000000E+00  0.13557636724E+03  0.13557636724E+03  0.00000000000E+00 0. -1.
          1   -1    0    0  501    0 -0.00000000000E+00 -0.00000000000E+00 -0.35870128244E+03  0.35870128244E+03  0.00000000000E+00 0. -1.
         25    2    1    2    0    0  0.72006244086E+01 -0.76707267315E+02  0.16301238711E+02  0.14772652342E+03  0.12498616518E+03 0.  0.
          2    1    1    2  501    0 -0.31296868408E+02  0.10117050107E+02 -0.26812944701E+03  0.27013931411E+03  0.00000000000E+00 0. -1.
          1    1    1    2  502    0  0.24096244000E+02  0.66590217208E+02  0.28703293094E+02  0.76411812157E+02  0.00000000000E+00 0. -1.
         22    1    3    3    0    0 -0.13378173451E+01  0.14670249578E+02  0.48328008045E+02  0.50523285122E+02  0.00000000000E+00 0. -1.
         22    1    3    3    0    0  0.85384417537E+01 -0.91377516892E+02 -0.32026769334E+02  0.97203238295E+02  0.00000000000E+00 0. -1.
</event>
<event>
 7    1  0.7802682E-006  0.9192196E+02  0.7818608E-02  0.1410521E+00
          2   -1    0    0  502    0  0.00000000000E+00  0.00000000000E+00  0.29151627358E+03  0.29151627358E+03  0.00000000000E+00 0. -1.
          1   -1    0    0  501    0 -0.00000000000E+00 -0.00000000000E+00 -0.13878610505E+04  0.13878610505E+04  0.00000000000E+00 0. -1.
         25    2    1    2    0    0  0.35238707971E+01  0.12187286158E+03 -0.34065609475E+03  0.38279886554E+03  0.12499193780E+03 0.  0.
          2    1    1    2  501    0 -0.14258749440E+02 -0.88095945529E+02 -0.10230214531E+04  0.10269065688E+04  0.00000000000E+00 0. -1.
          1    1    1    2  502    0  0.10734878643E+02 -0.33776916055E+02  0.26733277095E+03  0.26967188971E+03  0.00000000000E+00 0. -1.
         22    1    3    3    0    0  0.32806729837E+02  0.50017523047E+01 -0.17409132147E+03  0.17722609080E+03  0.00000000000E+00 0. -1.
         22    1    3    3    0    0 -0.29282859040E+02  0.11687110928E+03 -0.16656477328E+03  0.20557277474E+03  0.00000000000E+00 0. -1.
</event>
<event>
 7    1  0.7802682E-006  0.6755055E+02  0.7818608E-02  0.1372875E+00
          2   -1    0    0  502    0  0.00000000000E+00  0.00000000000E+00  0.24541561907E+04  0.24541561907E+04  0.00000000000E+00 0. -1.
          1   -1    0    0  501    0 -0.00000000000E+00 -0.00000000000E+00 -0.13842613925E+02  0.13842613925E+02  0.00000000000E+00 0. -1.
         25    2    1    2    0    0  0.62600092141E+01  0.48236171663E+02  0.15490934514E+04  0.15548887355E+04  0.12499017048E+03 0.  0.
          2    1    1    2  501    0 -0.57530764740E+02  0.30719467032E+02  0.12371730081E+03  0.13985508595E+03  0.00000000000E+00 0. -1.
          1    1    1    2  502    0  0.51270755526E+02 -0.78955638695E+02  0.76750282461E+03  0.77325498320E+03  0.00000000000E+00 0. -1.
         22    1    3    3    0    0 -0.92501904483E+01  0.89516887442E+02  0.10547671100E+04  0.10585993083E+04  0.00000000000E+00 0.  1.
         22    1    3    3    0    0  0.15510199662E+02 -0.41280715779E+02  0.49432634140E+03  0.49628942724E+03  0.00000000000E+00 0.  1.
</event>
<event>
 7    1  0.7802682E-006  0.1595348E+03  0.7818608E-02  0.1377750E+00
          2   -1    0    0  502    0  0.00000000000E+00  0.00000000000E+00  0.10543016855E+03  0.10543016855E+03  0.00000000000E+00 0. -1.
          1   -1    0    0  501    0 -0.00000000000E+00 -0.00000000000E+00 -0.10339966605E+04  0.10339966605E+04  0.00000000000E+00 0. -1.
         25    2    1    2    0    0  0.18191448487E+03 -0.21563478122E+02 -0.66977393619E+03  0.70553542032E+03  0.12500096135E+03 0.  0.
          2    1    1    2  501    0 -0.26496406132E+02 -0.13606625819E+01 -0.27470930090E+03  0.27598751954E+03  0.00000000000E+00 0. -1.
          1    1    1    2  502    0 -0.15541807874E+03  0.22924140704E+02  0.15916745186E+02  0.15790388913E+03  0.00000000000E+00 0. -1.
         22    1    3    3    0    0  0.82887614493E+02 -0.23549373900E+02 -0.12494597018E+03  0.15177755141E+03  0.00000000000E+00 0. -1.
         22    1    3    3    0    0  0.99026870377E+02  0.19858957778E+01 -0.54482796601E+03  0.55375786891E+03  0.00000000000E+00 0. -1.
</event>
<event>
 7    1  0.7802682E-006  0.1163164E+03  0.7818608E-02  0.1285995E+00
          2   -1    0    0  502    0  0.00000000000E+00  0.00000000000E+00  0.50289792253E+03  0.50289792253E+03  0.00000000000E+00 0. -1.
          1   -1    0    0  501    0 -0.00000000000E+00 -0.00000000000E+00 -0.20180295451E+03  0.20180295451E+03  0.00000000000E+00 0. -1.
         25    2    1    2    0    0  0.13548686025E+03  0.15840020744E+02 -0.90841753258E+02  0.20611892309E+03  0.12500076306E+03 0.  0.
          2    1    1    2  501    0 -0.78550914798E+02 -0.74092908417E+02  0.10438879034E+02  0.10848490904E+03  0.00000000000E+00 0. -1.
          1    1    1    2  502    0 -0.56935945449E+02  0.58252887673E+02  0.38149784225E+03  0.39009704491E+03  0.00000000000E+00 0. -1.
         22    1    3    3    0    0  0.11063651491E+03 -0.44893874124E+02 -0.59051019238E+02  0.13320255717E+03  0.00000000000E+00 0.  1.
         22    1    3    3    0    0  0.24850345340E+02  0.60733894868E+02 -0.31790734020E+02  0.72916365920E+02  0.00000000000E+00 0.  1.
</event>
<event>
 7    1  0.7802682E-006  0.2313995E+03  0.7818608E-02  0.1323283E+00
          2   -1    0    0  502    0  0.00000000000E+00  0.00000000000E+00  0.97448287994E+03  0.97448287994E+03  0.00000000000E+00 0. -1.
          1   -1    0    0  501    0 -0.00000000000E+00 -0.00000000000E+00 -0.42748596478E+03  0.42748596478E+03  0.00000000000E+00 0. -1.
         25    2    1    2    0    0 -0.22348352480E+03 -0.99418404728E+02 -0.22186129426E+03  0.35309574230E+03  0.12500105712E+03 0.  0.
          2    1    1    2  501    0  0.37374797132E+01  0.28865323908E+02 -0.12363844318E+03  0.12701826763E+03  0.00000000000E+00 0. -1.
          1    1    1    2  502    0  0.21974604509E+03  0.70553080820E+02  0.89249665260E+03  0.92185483480E+03  0.00000000000E+00 0. -1.
         22    1    3    3    0    0 -0.10822918411E+03 -0.61860734103E+02 -0.33471771540E+02  0.12907620310E+03  0.00000000000E+00 0.  1.
         22    1    3    3    0    0 -0.11525434070E+03 -0.37557670625E+02 -0.18838952272E+03  0.22401953920E+03  0.00000000000E+00 0.  1.
</event>
<event>
 7    1  0.7802682E-006  0.1093964E+03  0.7818608E-02  0.1389130E+00
          2   -1    0    0  502    0  0.00000000000E+00  0.00000000000E+00  0.14971398575E+03  0.14971398575E+03  0.00000000000E+00 0. -1.
          1   -1    0    0  501    0 -0.00000000000E+00 -0.00000000000E+00 -0.17596824669E+04  0.17596824669E+04  0.00000000000E+00 0. -1.
         25    2    1    2    0    0  0.39188129308E+02  0.13650827352E+03 -0.34970707938E+03  0.39760549424E+03  0.12499947787E+03 0.  0.
          2    1    1    2  501    0 -0.39253123801E+01 -0.35059339895E+02 -0.13628258058E+04  0.13632823414E+04  0.00000000000E+00 0. -1.
          1    1    1    2  502    0 -0.35262816928E+02 -0.10144893362E+03  0.10256440396E+03  0.14850861709E+03  0.00000000000E+00 0. -1.
         22    1    3    3    0    0  0.24854511266E+02  0.44124644314E+01 -0.19375105404E+01  0.25317395596E+02  0.00000000000E+00 0. -1.
         22    1    3    3    0    0  0.14333618042E+02  0.13209580909E+03 -0.34776956884E+03  0.37228809865E+03  0.00000000000E+00 0. -1.
</event>
<event>
 7    1  0.7802682E-006  0.8844411E+02  0.7818608E-02  0.1359107E+00
          2   -1    0    0  502    0  0.00000000000E+00  0.00000000000E+00  0.13194141217E+04  0.13194141217E+04  0.00000000000E+00 0. -1.
          1   -1    0    0  501    0 -0.00000000000E+00 -0.00000000000E+00 -0.21316765962E+02  0.21316765962E+02  0.00000000000E+00 0. -1.
         25    2    1    2    0    0 -0.74581673344E+02  0.34011212709E+02  0.67390278553E+03  0.69028198987E+03  0.12500029041E+03 0.  0.
          2    1    1    2  501    0  0.25147866614E+02  0.49883032274E+02  0.79776656591E+02  0.97391206179E+02  0.00000000000E+00 0. -1.
          1    1    1    2  502    0  0.49433806730E+02 -0.83894244982E+02  0.54441791365E+03  0.55305769165E+03  0.00000000000E+00 0. -1.
         22    1    3    3    0    0 -0.89182986788E+01  0.56251699129E+02  0.12934785753E+03  0.14133173017E+03  0.00000000000E+00 0.  1.
         22    1    3    3    0    0 -0.65663374665E+02 -0.22240486420E+02  0.54455492801E+03  0.54895025970E+03  0.00000000000E+00 0.  1.
</event>
<event>
 7    1  0.7802682E-006  0.9394972E+02  0.7818608E-02  0.1397808E+00
          2   -1    0    0  502    0  0.00000000000E+00  0.00000000000E+00  0.27446704490E+02  0.27446704490E+02  0.00000000000E+00 0. -1.
          1   -1    0    0  501    0 -0.00000000000E+00 -0.00000000000E+00 -0.26792177042E+04  0.26792177042E+04  0.00000000000E+00 0. -1.
         25    2    1    2    0    0  0.87091624033E+02 -0.68110789441E+02 -0.12049928202E+04  0.12164967061E+04  0.12503003006E+03 0.  0.
          2    1    1    2  501    0  0.10459322672E+01  0.38311432283E+02 -0.13672039949E+04  0.13677410659E+04  0.00000000000E+00 0. -1.
          1    1    1    2  502    0 -0.88137556300E+02  0.29799357158E+02 -0.79574184566E+02  0.12242663667E+03  0.00000000000E+00 0. -1.
         22    1    3    3    0    0  0.10244425528E+03 -0.13622563205E+02 -0.59747497127E+03  0.60634704664E+03  0.00000000000E+00 0. -1.
         22    1    3    3    0    0 -0.15352631243E+02 -0.54488226237E+02 -0.60751784896E+03  0.61014965942E+03  0.00000000000E+00 0. -1.
</event>
<event>
 7    1  0.7802682E-006  0.2102449E+03  0.7818608E-02  0.1168530E+00
          2   -1    0    0  502    0  0.00000000000E+00  0.00000000000E+00  0.66486018996E+03  0.66486018996E+03  0.00000000000E+00 0. -1.
          1   -1    0    0  501    0 -0.00000000000E+00 -0.00000000000E+00 -0.33335906676E+04  0.33335906676E+04  0.00000000000E+00 0. -1.
         25    2    1    2    0    0  0.44230492150E+02  0.23005037266E+03 -0.17636249037E+04  0.17835014575E+04  0.12500055053E+03 0.  0.
          2    1    1    2  501    0  0.11851061879E+03 -0.96492294931E+02 -0.15392261022E+04  0.15467942731E+04  0.00000000000E+00 0. -1.
          1    1    1    2  502    0 -0.16274111094E+03 -0.13355807773E+03  0.63412052823E+03  0.66815512693E+03  0.00000000000E+00 0. -1.
         22    1    3    3    0    0  0.21158888616E+02  0.21032513017E+03 -0.16990360875E+04  0.17121355044E+04  0.00000000000E+00 0.  1.
         22    1    3    3    0    0  0.23071603534E+02  0.19725242493E+02 -0.64588816228E+02  0.71365953106E+02  0.00000000000E+00 0.  1.
</event>
<event>
 7    1  0.7802682E-006  0.1040897E+03  0.7818608E-02  0.1293717E+00
          2   -1    0    0  502    0  0.00000000000E+00  0.00000000000E+00  0.22541319674E+04  0.22541319674E+04  0.00000000000E+00 0. -1.
          1   -1    0    0  501    0 -0.00000000000E+00 -0.00000000000E+00 -0.48091284850E+02  0.48091284850E+02  0.00000000000E+00 0. -1.
         25    2    1    2    0    0 -0.17253338230E+03  0.39794558941E+02  0.63119724727E+03  0.66737008039E+03  0.12498593645E+03 0.  0.
          2    1    1    2  501    0  0.95342450757E+02 -0.49932281509E+01  0.50211367669E+02  0.10787166767E+03  0.00000000000E+00 0. -1.
          1    1    1    2  502    0  0.77190931540E+02 -0.34801330790E+02  0.15246320676E+04  0.15269815042E+04  0.00000000000E+00 0. -1.
         22    1    3    3    0    0 -0.76965207934E+02 -0.43832860691E+02  0.22589216616E+03  0.24263601061E+03  0.00000000000E+00 0.  1.
         22    1    3    3    0    0 -0.95568174363E+02  0.83627419632E+02  0.40530508111E+03  0.42473406979E+03  0.00000000000E+00 0.  1.
</event>
<event>
 7    1  0.7802682E-006  0.7253715E+02  0.7818608E-02  0.1487373E+00
          2   -1    0    0  502    0  0.00000000000E+00  0.00000000000E+00  0.41420414524E+02  0.41420414524E+02  0.00000000000E+00 0. -1.
          1   -1    0    0  501    0 -0.00000000000E+00 -0.00000000000E+00 -0.17337746024E+04  0.17337746024E+04  0.00000000000E+00 0. -1.
         25    2    1    2    0    0 -0.28974398462E+01 -0.58221671871E+02 -0.11712581925E+04  0.11793524228E+04  0.12501290163E+03 0.  0.
          2    1    1    2  501    0  0.16948293877E+01  0.83657814021E+02 -0.55056984789E+03  0.55689196412E+03  0.00000000000E+00 0. -1.
          1    1    1    2  502    0  0.12026104585E+01 -0.25436142151E+02  0.29473852454E+02  0.38950630006E+02  0.00000000000E+00 0. -1.
         22    1    3    3    0    0 -0.32940378159E+01  0.39662041553E+02 -0.37185073130E+03  0.37397445715E+03  0.00000000000E+00 0.  1.
         22    1    3    3    0    0  0.39659796970E+00 -0.97883713423E+02 -0.79940746117E+03  0.80537796569E+03  0.00000000000E+00 0.  1.
</event>
<event>
 7    1  0.7802682E-006  0.7440516E+02  0.7818608E-02  0.1493085E+00
          2   -1    0    0  502    0  0.00000000000E+00  0.00000000000E+00  0.14540226788E+04  0.14540226788E+04  0.00000000000E+00 0. -1.
          1   -1    0    0  501    0 -0.00000000000E+00 -0.00000000000E+00 -0.60082969088E+03  0.60082969088E+03  0.00000000000E+00 0. -1.
         25    2    1    2    0    0 -0.52570631872E+02  0.20120582932E+02  0.35364164720E+03  0.37928203301E+03  0.12499574689E+03 0.  0.
          2    1    1    2  501    0  0.73926076351E+02 -0.94853304471E+01 -0.58551605451E+03  0.59024070204E+03  0.00000000000E+00 0. -1.
          1    1    1    2  502    0 -0.21355444479E+02 -0.10635252485E+02  0.10850673952E+04  0.10853296346E+04  0.00000000000E+00 0. -1.
         22    1    3    3    0    0 -0.66704920680E+01  0.22765571585E+01  0.31898565674E+03  0.31906351622E+03  0.00000000000E+00 0.  1.
         22    1    3    3    0    0 -0.45900139804E+02  0.17844025773E+02  0.34655990457E+02  0.60218516790E+02  0.00000000000E+00 0.  1.
</event>
<event>
 7    1  0.7802682E-006  0.8307611E+03  0.7818608E-02  0.1083736E+00
          2   -1    0    0  502    0  0.00000000000E+00  0.00000000000E+00  0.38179717976E+04  0.38179717976E+04  0.00000000000E+00 0. -1.
          1   -1    0    0  501    0 -0.00000000000E+00 -0.00000000000E+00 -0.34015958957E+04  0.34015958957E+04  0.00000000000E+00 0. -1.
         25    2    1    2    0    0  0.88437010331E+02  0.75714810305E+03  0.10766757537E+04  0.13251226489E+04  0.12500000493E+03 0.  0.
          2    1    1    2  501    0 -0.98325393430E+01  0.11009460353E+03 -0.32039563142E+04  0.32058623744E+04  0.00000000000E+00 0. -1.
          1    1    1    2  502    0 -0.78604470988E+02 -0.86724270658E+03  0.25436564624E+04  0.26885826701E+04  0.00000000000E+00 0. -1.
         22    1    3    3    0    0 -0.21644141360E+02  0.73905310766E+02  0.14924772869E+03  0.16794447992E+03  0.00000000000E+00 0. -1.
         22    1    3    3    0    0  0.11008115169E+03  0.68324279229E+03  0.92742802497E+03  0.11571781689E+04  0.00000000000E+00 0. -1.
</event>
<event>
 7    1  0.7802682E-006  0.6491548E+02  0.7818608E-02  0.1471022E+00
          2   -1    0    0  502    0  0.00000000000E+00  0.00000000000E+00  0.34478103025E+03  0.34478103025E+03  0.00000000000E+00 0. -1.
          1   -1    0    0  501    0 -0.00000000000E+00 -0.00000000000E+00 -0.42634755570E+03  0.42634755570E+03  0.00000000000E+00 0. -1.
         25    2    1    2    0    0  0.51909876351E+02  0.79933112655E+02 -0.36349180342E+02  0.16133531252E+03  0.12499552949E+03 0.  0.
          2    1    1    2  501    0 -0.35774182626E+02 -0.52366142502E+02 -0.32351297717E+03  0.32967051949E+03  0.00000000000E+00 0. -1.
          1    1    1    2  502    0 -0.16135693725E+02 -0.27566970153E+02  0.27829563206E+03  0.28012275395E+03  0.00000000000E+00 0. -1.
         22    1    3    3    0    0 -0.18395024029E+01  0.76922200248E+02  0.23869806541E+02  0.80561630596E+02  0.00000000000E+00 0.  1.
         22    1    3    3    0    0  0.53749378754E+02  0.30109124072E+01 -0.60218986883E+02  0.80773681922E+02  0.00000000000E+00 0.  1.
</event>
<event>
 7    1  0.7802682E-006  0.9154250E+02  0.7818608E-02  0.1316527E+00
          2   -1    0    0  502    0  0.00000000000E+00  0.00000000000E+00  0.17325577274E+03  0.17325577274E+03  0.00000000000E+00 0. -1.
          1   -1    0    0  501    0 -0.00000000000E+00 -0.00000000000E+00 -0.42423974527E+03  0.42423974527E+03  0.00000000000E+00 0. -1.
         25    2    1    2    0    0 -0.87754691992E+02  0.31700963576E+02  0.48571903228E+02  0.16336961464E+03  0.12499825657E+03 0.  0.
          2    1    1    2  501    0 -0.50233929140E+01 -0.77990707730E+02 -0.31917290429E+03  0.32860177693E+03  0.00000000000E+00 0. -1.
          1    1    1    2  502    0  0.92778084906E+02  0.46289744154E+02  0.19617028528E+02  0.10552412644E+03  0.00000000000E+00 0. -1.
         22    1    3    3    0    0 -0.10866870166E+03 -0.51076437184E+01  0.52610513367E+02  0.12084221473E+03  0.00000000000E+00 0. -1.
         22    1    3    3    0    0  0.20914009664E+02  0.36808607294E+02 -0.40386101387E+01  0.42527399909E+02  0.00000000000E+00 0. -1.
</event>
<event>
 7    1  0.7802682E-006  0.4894698E+02  0.7818608E-02  0.1526925E+00
          2   -1    0    0  502    0  0.00000000000E+00  0.00000000000E+00  0.95893754191E+03  0.95893754191E+03  0.00000000000E+00 0. -1.
          1   -1    0    0  501    0 -0.00000000000E+00 -0.00000000000E+00 -0.15112797511E+04  0.15112797511E+04  0.00000000000E+00 0. -1.
         25    2    1    2    0    0  0.19918678455E+02 -0.29556121575E+02 -0.41796162644E+03  0.43771781278E+03  0.12503857152E+03 0.  0.
          2    1    1    2  501    0 -0.46540574448E+02  0.18486100061E+02 -0.10826421515E+04  0.10837996998E+04  0.00000000000E+00 0. -1.
          1    1    1    2  502    0  0.26621895992E+02  0.11070021514E+02  0.94826156875E+03  0.94869978049E+03  0.00000000000E+00 0. -1.
         22    1    3    3    0    0  0.71823581841E+02 -0.30562124809E+02 -0.25685930677E+03  0.26845739672E+03  0.00000000000E+00 0.  1.
         22    1    3    3    0    0 -0.51904903385E+02  0.10060032341E+01 -0.16110231968E+03  0.16926041606E+03  0.00000000000E+00 0.  1.
</event>
<event>
 7    1  0.7802682E-006  0.8482393E+02  0.7818608E-02  0.1387033E+00
          2   -1    0    0  502    0  0.00000000000E+00  0.00000000000E+00  0.20267287119E+04  0.20267287119E+04  0.00000000000E+00 0. -1.
          1   -1    0    0  501    0 -0.00000000000E+00 -0.00000000000E+00 -0.25298259705E+02  0.25298259705E+02  0.00000000000E+00 0. -1.
         25    2    1    2    0    0 -0.88587013158E+02  0.42806681400E+02  0.10078084073E+04  0.10202853862E+04  0.12499765077E+03 0.  0.
          2    1    1    2  501    0  0.52044895757E+01 -0.45979864132E+02  0.13679884381E+02  0.48253226359E+02  0.00000000000E+00 0. -1.
          1    1    1    2  502    0  0.83382523583E+02  0.31731827320E+01  0.97994216052E+03  0.98348835901E+03  0.00000000000E+00 0. -1.
         22    1    3    3    0    0  0.20438774397E+02  0.12311446086E+02  0.45838178932E+02  0.51676434198E+02  0.00000000000E+00 0.  1.
         22    1    3    3    0    0 -0.10902578756E+03  0.30495235314E+02  0.96197022836E+03  0.96860895205E+03  0.00000000000E+00 0.  1.
</event>
<event>
 7    1  0.7802682E-006  0.1652898E+03  0.7818608E-02  0.1295041E+00
          2   -1    0    0  502    0  0.00000000000E+00  0.00000000000E+00  0.13502153859E+04  0.13502153859E+04  0.00000000000E+00 0. -1.
          1   -1    0    0  501    0 -0.00000000000E+00 -0.00000000000E+00 -0.28062770040E+03  0.28062770040E+03  0.00000000000E+00 0. -1.
         25    2    1    2    0    0 -0.46349742105E+02  0.18520914061E+03 -0.45679247902E+02  0.23272091646E+03  0.12498682695E+03 0.  0.
          2    1    1    2  501    0 -0.32978348056E+02 -0.41067331784E+02 -0.13092188749E+03  0.14111923258E+03  0.00000000000E+00 0. -1.
          1    1    1    2  502    0  0.79328090161E+02 -0.14414180883E+03  0.12461888209E+04  0.12570029373E+04  0.00000000000E+00 0. -1.
         22    1    3    3    0    0  0.35451157898E+02  0.96740855713E+02 -0.44482525066E+02  0.11222420771E+03  0.00000000000E+00 0.  1.
         22    1    3    3    0    0 -0.81800900003E+02  0.88468284901E+02 -0.11967228365E+01  0.12049670875E+03  0.00000000000E+00 0.  1.
</event>
<event>
 7    1  0.7802682E-006  0.1240647E+03  0.7818608E-02  0.1397918E+00
          2   -1    0    0  502    0  0.00000000000E+00  0.00000000000E+00  0.12174234376E+04  0.12174234376E+04  0.00000000000E+00 0. -1.
          1   -1    0    0  501    0 -0.00000000000E+00 -0.00000000000E+00 -0.18709311819E+04  0.18709311819E+04  0.00000000000E+00 0. -1.
         25    2    1    2    0    0  0.19466584643E+02  0.10564869203E+03 -0.25508194650E+02  0.16678246549E+03  0.12500051502E+03 0.  0.
          2    1    1    2  501    0 -0.46717433372E+02 -0.11556007841E+03 -0.17724134457E+04  0.17767909480E+04  0.00000000000E+00 0. -1.
          1    1    1    2  502    0  0.27250848730E+02  0.99113863829E+01  0.11444138960E+04  0.11447812060E+04  0.00000000000E+00 0. -1.
         22    1    3    3    0    0 -0.27892188382E+02  0.96865072159E+02  0.17380971070E+02  0.10228838904E+03  0.00000000000E+00 0. -1.
         22    1    3    3    0    0  0.47358773025E+02  0.87836198718E+01 -0.42889165720E+02  0.64494076446E+02  0.00000000000E+00 0. -1.
</event>
<event>
 7    1  0.7802682E-006  0.9079514E+02  0.7818608E-02  0.1311540E+00
          2   -1    0    0  502    0  0.00000000000E+00  0.00000000000E+00  0.75668162947E+03  0.75668162947E+03  0.00000000000E+00 0. -1.
          1   -1    0    0  501    0 -0.00000000000E+00 -0.00000000000E+00 -0.40532076708E+03  0.40532076708E+03  0.00000000000E+00 0. -1.
         25    2    1    2    0    0  0.29341343252E+01 -0.21894046197E+02 -0.29891315742E+02  0.13040372105E+03  0.12499472510E+03 0.  0.
          2    1    1    2  501    0  0.87414310810E+02  0.30889408284E+02 -0.31555928753E+03  0.32889676378E+03  0.00000000000E+00 0. -1.
          1    1    1    2  502    0 -0.90348445135E+02 -0.89953620871E+01  0.69681146566E+03  0.70270191173E+03  0.00000000000E+00 0. -1.
         22    1    3    3    0    0  0.24953913452E+02  0.16784975818E+02 -0.66364330661E+02  0.72860535229E+02  0.00000000000E+00 0.  1.
         22    1    3    3    0    0 -0.22019779127E+02 -0.38679022014E+02  0.36473014919E+02  0.57543185818E+02  0.00000000000E+00 0.  1.
</event>
<event>
 7    1  0.7802682E-006  0.1376569E+03  0.7818608E-02  0.1361188E+00
          2   -1    0    0  502    0  0.00000000000E+00  0.00000000000E+00  0.86191046075E+03  0.86191046075E+03  0.00000000000E+00 0. -1.
          1   -1    0    0  501    0 -0.00000000000E+00 -0.00000000000E+00 -0.68764698324E+03  0.68764698324E+03  0.00000000000E+00 0. -1.
         25    2    1    2    0    0 -0.12449087362E+03 -0.89868395012E+02  0.35890868109E+02  0.20121587779E+03  0.12500147609E+03 0.  0.
          2    1    1    2  501    0  0.12546391852E+03  0.54611702659E+02 -0.59681906144E+03  0.61230435652E+03  0.00000000000E+00 0. -1.
          1    1    1    2  502    0 -0.97304490476E+00  0.35256692353E+02  0.73519167083E+03  0.73603720968E+03  0.00000000000E+00 0. -1.
         22    1    3    3    0    0 -0.43290070762E+02 -0.36353010461E+02  0.77093541739E+02  0.95598042731E+02  0.00000000000E+00 0. -1.
         22    1    3    3    0    0 -0.81200802855E+02 -0.53515384551E+02 -0.41202673629E+02  0.10561783506E+03  0.00000000000E+00 0. -1.
</event>
<event>
 7    1  0.7802682E-006  0.8288577E+02  0.7818608E-02  0.1447413E+00
          2   -1    0    0  502    0  0.00000000000E+00  0.00000000000E+00  0.20449965684E+04  0.20449965684E+04  0.00000000000E+00 0. -1.
          1   -1    0    0  501    0 -0.00000000000E+00 -0.00000000000E+00 -0.19265322275E+02  0.19265322275E+02  0.00000000000E+00 0. -1.
         25    2    1    2    0    0  0.48197098040E+02  0.95401645892E+02  0.71318369635E+03  0.73190138852E+03  0.12499689388E+03 0.  0.
          2    1    1    2  501    0 -0.30594645706E+01 -0.29544893933E+02  0.16739360689E+02  0.34094974369E+02  0.00000000000E+00 0. -1.
          1    1    1    2  502    0 -0.45137633470E+02 -0.65856751959E+02  0.12958081891E+04  0.12982655278E+04  0.00000000000E+00 0. -1.
         22    1    3    3    0    0  0.34224994676E+02  0.11022549397E+03  0.35823443503E+03  0.37636806483E+03  0.00000000000E+00 0. -1.
         22    1    3    3    0    0  0.13972103364E+02 -0.14823848076E+02  0.35494926132E+03  0.35553332369E+03  0.00000000000E+00 0. -1.
</event>
<event>
 7    1  0.7802682E-006  0.1092022E+03  0.7818608E-02  0.1408605E+00
          2   -1    0    0  502    0  0.00000000000E+00  0.00000000000E+00  0.18233870170E+04  0.18233870170E+04  0.00000000000E+00 0. -1.
          1   -1    0    0  501    0 -0.00000000000E+00 -0.00000000000E+00 -0.44009529209E+02  0.44009529209E+02  0.00000000000E+00 0. -1.
         25    2    1    2    0    0  0.12332335656E+03 -0.32725370840E+01  0.40969804295E+03  0.44575406218E+03  0.12499935113E+03 0.  0.
          2    1    1    2  501    0 -0.17587360982E+02  0.24652646918E+02 -0.14282774471E+02  0.33482322395E+02  0.00000000000E+00 0. -1.
          1    1    1    2  502    0 -0.10573599557E+03 -0.21380109834E+02  0.13839622193E+04  0.13881601616E+04  0.00000000000E+00 0. -1.
         22    1    3    3    0    0  0.13214294812E+03 -0.48946847802E+01  0.22604169198E+03  0.26187890940E+03  0.00000000000E+00 0. -1.
         22    1    3    3    0    0 -0.88195915592E+01  0.16221476962E+01  0.18365635097E+03  0.18387515278E+03  0.00000000000E+00 0. -1.
</event>
<event>
 7    1  0.7802682E-006  0.1121015E+03  0.7818608E-02  0.1402589E+00
          2   -1    0    0  502    0  0.00000000000E+00  0.00000000000E+00  0.26674144978E+04  0.26674144978E+04  0.00000000000E+00 0. -1.
          1   -1    0    0  501    0 -0.00000000000E+00 -0.00000000000E+00 -0.37413943486E+03  0.37413943486E+03  0.00000000000E+00 0. -1.
         25    2    1    2    0    0 -0.98894193527E+02  0.10294943794E+03 -0.88708699922E+02  0.20945659966E+03  0.12499674161E+03 0.  0.
          2    1    1    2  501    0  0.22250484020E+02 -0.21480266513E+02 -0.22278832404E+03  0.22492470566E+03  0.00000000000E+00 0. -1.
          1    1    1    2  502    0  0.76643709507E+02 -0.81469171423E+02  0.26047720869E+04  0.26071726274E+04  0.00000000000E+00 0. -1.
         22    1    3    3    0    0 -0.10082509271E+03  0.41496386331E+02 -0.98817134136E+02  0.14714780120E+03  0.00000000000E+00 0. -1.
         22    1    3    3    0    0  0.19308991830E+01  0.61453051605E+02  0.10108434215E+02  0.62308798460E+02  0.00000000000E+00 0. -1.
</event>
<event>
 7    1  0.7802682E-006  0.2669506E+03  0.7818608E-02  0.1299685E+00
          2   -1    0    0  502    0  0.00000000000E+00  0.00000000000E+00  0.35296811149E+04  0.35296811149E+04  0.00000000000E+00 0. -1.
          1   -1    0    0  501    0 -0.00000000000E+00 -0.00000000000E+00 -0.49122092994E+03  0.49122092994E+03  0.00000000000E+00 0. -1.
         25    2    1    2    0    0  0.19141757567E+03 -0.17864080563E+03  0.75921936425E+02  0.29990462009E+03  0.12500166002E+03 0.  0.
          2    1    1    2  501    0  0.23831716925E+02  0.20198018638E+02 -0.37323179043E+03  0.37453688747E+03  0.00000000000E+00 0. -1.
          1    1    1    2  502    0 -0.21524929260E+03  0.15844278699E+03  0.33357700389E+04  0.33464605372E+04  0.00000000000E+00 0. -1.
         22    1    3    3    0    0  0.88533563614E+02 -0.14871581943E+03  0.84139456670E+02  0.19244229006E+03  0.00000000000E+00 0. -1.
         22    1    3    3    0    0  0.10288401206E+03 -0.29924986199E+02 -0.82175202450E+01  0.10746233003E+03  0.00000000000E+00 0. -1.
</event>
<event>
 7    1  0.7802682E-006  0.1404841E+03  0.7818608E-02  0.1351320E+00
          2   -1    0    0  502    0  0.00000000000E+00  0.00000000000E+00  0.16273901361E+03  0.16273901361E+03  0.00000000000E+00 0. -1.
          1   -1    0    0  501    0 -0.00000000000E+00 -0.00000000000E+00 -0.15826004768E+04  0.15826004768E+04  0.00000000000E+00 0. -1.
         25    2    1    2    0    0 -0.10703419602E+03 -0.13280702656E+02 -0.32180954466E+02  0.16820430619E+03  0.12499751441E+03 0.  0.
          2    1    1    2  501    0  0.13784541929E+03  0.34771910572E+02 -0.14751267899E+04  0.14819613665E+04  0.00000000000E+00 0. -1.
          1    1    1    2  502    0 -0.30811223273E+02 -0.21491207916E+02  0.87446281177E+02  0.95173817770E+02  0.00000000000E+00 0. -1.
         22    1    3    3    0    0 -0.70675622544E+02  0.41817330088E+02 -0.54454893459E+02  0.98534603766E+02  0.00000000000E+00 0.  1.
         22    1    3    3    0    0 -0.36358573471E+02 -0.55098032744E+02  0.22273938993E+02  0.69669702421E+02  0.00000000000E+00 0.  1.
</event>
<event>
 7    1  0.7802682E-006  0.8691553E+02  0.7818608E-02  0.1355768E+00
          2   -1    0    0  502    0  0.00000000000E+00  0.00000000000E+00  0.58752168200E+03  0.58752168200E+03  0.00000000000E+00 0. -1.
          1   -1    0    0  501    0 -0.00000000000E+00 -0.00000000000E+00 -0.32683158722E+03  0.32683158722E+03  0.00000000000E+00 0. -1.
         25    2    1    2    0    0 -0.49904105759E+02 -0.22444013111E+02  0.16489985120E+03  0.21403486219E+03  0.12499923123E+03 0.  0.
          2    1    1    2  501    0  0.38280388690E+02  0.79746714626E+02 -0.29356218624E+03  0.30660020196E+03  0.00000000000E+00 0. -1.
          1    1    1    2  502    0  0.11623717069E+02 -0.57302701515E+02  0.38935242982E+03  0.39371820508E+03  0.00000000000E+00 0. -1.
         22    1    3    3    0    0  0.31276604249E+01 -0.44661574314E+02  0.14722487788E+03  0.15388178303E+03  0.00000000000E+00 0. -1.
         22    1    3    3    0    0 -0.53031766184E+02  0.22217561203E+02  0.17674973318E+02  0.60153079158E+02  0.00000000000E+00 0. -1.
</event>
<event>
 7    1  0.7802682E-006  0.9819914E+02  0.7818608E-02  0.1475192E+00
          2   -1    0    0  502    0  0.00000000000E+00  0.00000000000E+00  0.54033847327E+03  0.54033847327E+03  0.00000000000E+00 0. -1.
          1   -1    0    0  501    0 -0.00000000000E+00 -0.00000000000E+00 -0.27959610202E+04  0.27959610202E+04  0.00000000000E+00 0. -1.
         25    2    1    2    0    0 -0.65140852217E+02  0.53394311742E+02  0.20180783042E+03  0.25188809608E+03  0.12500771726E+03 0.  0.
          2    1    1    2  501    0  0.85162862364E+02 -0.49007695307E+02 -0.27697137592E+04  0.27714560749E+04  0.00000000000E+00 0. -1.
          1    1    1    2  502    0 -0.20022010147E+02 -0.43866164351E+01  0.31228338183E+03  0.31295532247E+03  0.00000000000E+00 0. -1.
         22    1    3    3    0    0 -0.60269443600E+02  0.10950765615E+01  0.18821493813E+03  0.19763215315E+03  0.00000000000E+00 0.  1.
         22    1    3    3    0    0 -0.48714086174E+01  0.52299235180E+02  0.13592892295E+02  0.54255942931E+02  0.00000000000E+00 0.  1.
</event>
<event>
 7    1  0.7802682E-006  0.3823360E+02  0.7818608E-02  0.1584585E+00
          2   -1    0    0  502    0  0.00000000000E+00  0.00000000000E+00  0.11573689503E+02  0.11573689503E+02  0.00000000000E+00 0. -1.
          1   -1    0    0  501    0 -0.00000000000E+00 -0.00000000000E+00 -0.33001250012E+04  0.33001250012E+04  0.00000000000E+00 0. -1.
         25    2    1    2    0    0 -0.24041172448E+02  0.75984736727E+01 -0.39356305925E+03  0.41370793744E+03  0.12500664431E+03 0.  0.
          2    1    1    2  501    0  0.35296123696E+02  0.15344739267E+02 -0.27770011659E+04  0.27772678576E+04  0.00000000000E+00 0. -1.
          1    1    1    2  502    0 -0.11254951248E+02 -0.22943212940E+02 -0.11798708653E+03  0.12072289566E+03  0.00000000000E+00 0. -1.
         22    1    3    3    0    0 -0.74419271481E+02 -0.65648662468E+01 -0.21344428967E+03  0.22614108479E+03  0.00000000000E+00 0.  1.
         22    1    3    3    0    0  0.50378099033E+02  0.14163339920E+02 -0.18011876958E+03  0.18756685266E+03  0.00000000000E+00 0.  1.
</event>
<event>
 7    1  0.7802682E-006  0.9068985E+02  0.7818608E-02  0.1368747E+00
          2   -1    0    0  502    0  0.00000000000E+00  0.00000000000E+00  0.57667140340E+03  0.57667140340E+03  0.00000000000E+00 0. -1.
          1   -1    0    0  501    0 -0.00000000000E+00 -0.00000000000E+00 -0.23621110512E+03  0.23621110512E+03  0.00000000000E+00 0. -1.
         25    2    1    2    0    0  0.12267561466E+03 -0.62979511972E+02 -0.81864590209E+01  0.18629968438E+03  0.12499931571E+03 0.  0.
          2    1    1    2  501    0 -0.40257092739E+02  0.30098620962E+02 -0.13020934491E+03  0.13957447475E+03  0.00000000000E+00 0. -1.
          1    1    1    2  502    0 -0.82418521926E+02  0.32880891009E+02  0.47885610221E+03  0.48700834939E+03  0.00000000000E+00 0. -1.
         22    1    3    3    0    0  0.11568835702E+02 -0.70928790838E+02 -0.19141319172E+02  0.74371509524E+02  0.00000000000E+00 0.  1.
         22    1    3    3    0    0  0.11110677896E+03  0.79492788662E+01  0.10954860151E+02  0.11192817486E+03  0.00000000000E+00 0.  1.
</event>
<event>
 7    1  0.7802682E-006  0.2172146E+03  0.7818608E-02  0.1225379E+00
          2   -1    0    0  502    0  0.00000000000E+00  0.00000000000E+00  0.23054214173E+04  0.23054214173E+04  0.00000000000E+00 0. -1.
          1   -1    0    0  501    0 -0.00000000000E+00 -0.00000000000E+00 -0.11499571712E+03  0.11499571712E+03  0.00000000000E+00 0. -1.
         25    2    1    2    0    0  0.14286740178E+03  0.93117531481E+02  0.54178966862E+03  0.58158736982E+03  0.12500341818E+03 0.  0.
          2    1    1    2  501    0 -0.21910050433E+03 -0.70562828091E+02  0.46637639013E+02  0.23485998611E+03  0.00000000000E+00 0. -1.
          1    1    1    2  502    0  0.76233102547E+02 -0.22554703389E+02  0.16019983925E+04  0.16039697785E+04  0.00000000000E+00 0. -1.
         22    1    3    3    0    0 -0.10854749900E+02 -0.12775499942E+02  0.10867237579E+03  0.10995782943E+03  0.00000000000E+00 0.  1.
         22    1    3    3    0    0  0.15372215168E+03  0.10589303142E+03  0.43311729283E+03  0.47162954039E+03  0.00000000000E+00 0.  1.
</event>
<event>
 7    1  0.7802682E-006  0.1135088E+03  0.7818608E-02  0.1318510E+00
          2   -1    0    0  502    0  0.00000000000E+00  0.00000000000E+00  0.83240350904E+03  0.83240350904E+03  0.00000000000E+00 0. -1.
          1   -1    0    0  501    0 -0.00000000000E+00 -0.00000000000E+00 -0.83350279764E+03  0.83350279764E+03  0.00000000000E+00 0. -1.
         25    2    1    2    0    0 -0.36557404584E+02  0.72131448809E+02 -0.20319295102E+03  0.25189696638E+03  0.12500126636E+03 0.  0.
          2    1    1    2  501    0  0.24039570542E+01 -0.12377700985E+03 -0.59842660044E+03  0.61109812902E+03  0.00000000000E+00 0. -1.
          1    1    1    2  502    0  0.34153447529E+02  0.51645561040E+02  0.80052026286E+03  0.80291121128E+03  0.00000000000E+00 0. -1.
         22    1    3    3    0    0 -0.33556629063E+02 -0.15326284822E+02 -0.76637875247E+01  0.37678588080E+02  0.00000000000E+00 0.  1.
         22    1    3    3    0    0 -0.30007755212E+01  0.87457733630E+02 -0.19552916350E+03  0.21421837830E+03  0.00000000000E+00 0.  1.
</event>
<event>
 7    1  0.7802682E-006  0.1024864E+03  0.7818608E-02  0.1304051E+00
          2   -1    0    0  502    0  0.00000000000E+00  0.00000000000E+00  0.10431570425E+04  0.10431570425E+04  0.00000000000E+00 0. -1.
          1   -1    0    0  501    0 -0.00000000000E+00 -0.00000000000E+00 -0.16278034162E+03  0.16278034162E+03  0.00000000000E+00 0. -1.
         25    2    1    2    0    0  0.10319711082E+03  0.44731215655E+02  0.24345827042E+03  0.29588495822E+03  0.12500181489E+03 0.  0.
          2    1    1    2  501    0 -0.40288324116E+01 -0.78066404096E+02 -0.12148775341E+03  0.14446407570E+03  0.00000000000E+00 0. -1.
          1    1    1    2  502    0 -0.99168278407E+02  0.33335188441E+02  0.75840618391E+03  0.76558835024E+03  0.00000000000E+00 0. -1.
         22    1    3    3    0    0  0.53619054732E+02 -0.40638319932E+02  0.12244661099E+03  0.13971273607E+03  0.00000000000E+00 0.  1.
         22    1    3    3    0    0  0.49578056087E+02  0.85369535587E+02  0.12101165944E+03  0.15617222215E+03  0.00000000000E+00 0.  1.
</event>
<event>
 7    1  0.7802682E-006  0.4749486E+02  0.7818608E-02  0.1490235E+00
          2   -1    0    0  502    0  0.00000000000E+00  0.00000000000E+00  0.10553009948E+04  0.10553009948E+04  0.00000000000E+00 0. -1.
          1   -1    0    0  501    0 -0.00000000000E+00 -0.00000000000E+00 -0.55685763254E+02  0.55685763254E+02  0.00000000000E+00 0. -1.
         25    2    1    2    0    0 -0.12088437317E+02  0.12981643050E+02  0.16348556298E+03  0.20656383953E+03  0.12500574838E+03 0.  0.
          2    1    1    2  501    0  0.13633905479E+02  0.35600758854E+02 -0.22600665515E+02  0.44318026708E+02  0.00000000000E+00 0. -1.
          1    1    1    2  502    0 -0.15454681620E+01 -0.48582401904E+02  0.85873033413E+03  0.86010489186E+03  0.00000000000E+00 0. -1.
         22    1    3    3    0    0  0.47440021934E+02  0.23531069563E+02  0.32070175191E+02  0.61909313134E+02  0.00000000000E+00 0. -1.
         22    1    3    3    0    0 -0.59528459252E+02 -0.10549426513E+02  0.13141538779E+03  0.14465452640E+03  0.00000000000E+00 0. -1.
</event>
<event>
 7    1  0.7802682E-006  0.3944436E+02  0.7818608E-02  0.1603990E+00
          2   -1    0    0  502    0  0.00000000000E+00  0.00000000000E+00  0.24902097378E+04  0.24902097378E+04  0.00000000000E+00 0. -1.
          1   -1    0    0  501    0 -0.00000000000E+00 -0.00000000000E+00 -0.51656577561E+01  0.51656577561E+01  0.00000000000E+00 0. -1.
         25    2    1    2    0    0 -0.29982032594E+02 -0.24158410023E+02  0.21674873582E+04  0.21714307311E+04  0.12500968347E+03 0.  0.
          2    1    1    2  501    0  0.39704125749E+02  0.43985670307E+01  0.16282403917E+03  0.16765271464E+03  0.00000000000E+00 0. -1.
          1    1    1    2  502    0 -0.97220931549E+01  0.19759842993E+02  0.15473268264E+03  0.15629194979E+03  0.00000000000E+00 0. -1.
         22    1    3    3    0    0  0.40292770087E+02  0.22688817771E+02  0.72574832452E+03  0.72721999444E+03  0.00000000000E+00 0.  1.
         22    1    3    3    0    0 -0.70274802682E+02 -0.46847227794E+02  0.14417390337E+04  0.14442107367E+04  0.00000000000E+00 0.  1.
</event>
<event>
 7    1  0.7802682E-006  0.6384089E+02  0.7818608E-02  0.1408288E+00
          2   -1    0    0  502    0  0.00000000000E+00  0.00000000000E+00  0.80676713504E+03  0.80676713504E+03  0.00000000000E+00 0. -1.
          1   -1    0    0  501    0 -0.00000000000E+00 -0.00000000000E+00 -0.22315924297E+03  0.22315924297E+03  0.00000000000E+00 0. -1.
         25    2    1    2    0    0 -0.82216710664E+01 -0.75633142613E+02  0.11454193803E+02  0.14677830408E+03  0.12499881542E+03 0.  0.
          2    1    1    2  501    0  0.48261920076E+02  0.42567097943E+02 -0.14786388010E+03  0.16126034167E+03  0.00000000000E+00 0. -1.
          1    1    1    2  502    0 -0.40040249010E+02  0.33066044669E+02  0.72001757836E+03  0.72188773226E+03  0.00000000000E+00 0. -1.
         22    1    3    3    0    0 -0.41492092529E+02 -0.22766283437E+02  0.53539564741E+02  0.71458956028E+02  0.00000000000E+00 0.  1.
         22    1    3    3    0    0  0.33270421463E+02 -0.52866859176E+02 -0.42085370938E+02  0.75319348048E+02  0.00000000000E+00 0.  1.
</event>
<event>
 7    1  0.7802682E-006  0.1340282E+03  0.7818608E-02  0.1328785E+00
          2   -1    0    0  502    0  0.00000000000E+00  0.00000000000E+00  0.12859583965E+04  0.12859583965E+04  0.00000000000E+00 0. -1.
          1   -1    0    0  501    0 -0.00000000000E+00 -0.00000000000E+00 -0.21960658447E+03  0.21960658447E+03  0.00000000000E+00 0. -1.
         25    2    1    2    0    0  0.22506943998E+02 -0.17378949674E+03  0.10193443823E+03  0.23816807685E+03  0.12499620565E+03 0.  0.
          2    1    1    2  501    0 -0.13367477748E+02  0.12680671949E+03 -0.12403911992E+03  0.17788855174E+03  0.00000000000E+00 0. -1.
          1    1    1    2  502    0 -0.91394662501E+01  0.46982777248E+02  0.10884564938E+04  0.10895083524E+04  0.00000000000E+00 0. -1.
         22    1    3    3    0    0 -0.36512133595E+02 -0.24913859403E+02  0.56430292843E+02  0.71681338159E+02  0.00000000000E+00 0.  1.
         22    1    3    3    0    0  0.59019077593E+02 -0.14887563733E+03  0.45504145385E+02  0.16648673869E+03  0.00000000000E+00 0.  1.
</event>
<event>
 7    1  0.7802682E-006  0.1338325E+03  0.7818608E-02  0.1359554E+00
          2   -1    0    0  502    0  0.00000000000E+00  0.00000000000E+00  0.77723806701E+03  0.77723806701E+03  0.00000000000E+00 0. -1.
          1   -1    0    0  501    0 -0.00000000000E+00 -0.00000000000E+00 -0.18000547988E+04  0.18000547988E+04  0.00000000000E+00 0. -1.
         25    2    1    2    0    0 -0.23386422198E+02  0.12472046905E+03 -0.33655747827E+03  0.38078531282E+03  0.12499759253E+03 0.  0.
          2    1    1    2  501    0  0.60016099872E+02 -0.12140718161E+03 -0.14377514155E+04  0.14441159125E+04  0.00000000000E+00 0. -1.
          1    1    1    2  502    0 -0.36629677674E+02 -0.33132874373E+01  0.75149216198E+03  0.75239164049E+03  0.00000000000E+00 0. -1.
         22    1    3    3    0    0  0.33881239988E+02  0.81409389165E+02 -0.98820214640E+02  0.13244191893E+03  0.00000000000E+00 0.  1.
         22    1    3    3    0    0 -0.57267662185E+02  0.43311079884E+02 -0.23773726363E+03  0.24834339389E+03  0.00000000000E+00 0.  1.
</event>
<event>
 7    1  0.7802682E-006  0.9897773E+02  0.7818608E-02  0.1300930E+00
          2   -1    0    0  502    0  0.00000000000E+00  0.00000000000E+00  0.22346973750E+03  0.22346973750E+03  0.00000000000E+00 0. -1.
          1   -1    0    0  501    0 -0.00000000000E+00 -0.00000000000E+00 -0.96712653601E+03  0.96712653601E+03  0.00000000000E+00 0. -1.
         25    2    1    2    0    0 -0.12216191214E+03 -0.58477661330E+02 -0.46079070234E+02  0.18997596972E+03  0.12499767480E+03 0.  0.
          2    1    1    2  501    0  0.26991348096E+02  0.78800487466E+02 -0.83117413600E+03  0.83533735344E+03  0.00000000000E+00 0. -1.
          1    1    1    2  502    0  0.95170564040E+02 -0.20322826137E+02  0.13359640772E+03  0.16528295035E+03  0.00000000000E+00 0. -1.
         22    1    3    3    0    0 -0.10234390864E+02 -0.64894637729E+02  0.67471955240E+01  0.66042269872E+02  0.00000000000E+00 0.  1.
         22    1    3    3    0    0 -0.11192752127E+03  0.64169763995E+01 -0.52826265758E+02  0.12393369985E+03  0.00000000000E+00 0.  1.
</event>
<event>
 7    1  0.7802682E-006  0.1375299E+03  0.7818608E-02  0.1354804E+00
          2   -1    0    0  502    0  0.00000000000E+00  0.00000000000E+00  0.26921139574E+04  0.26921139574E+04  0.00000000000E+00 0. -1.
          1   -1    0    0  501    0 -0.00000000000E+00 -0.00000000000E+00 -0.49286228722E+02  0.49286228722E+02  0.00000000000E+00 0. -1.
         25    2    1    2    0    0  0.23748160597E+01  0.10260520704E+03  0.16975462346E+04  0.17052337974E+04  0.12500246823E+03 0.  0.
          2    1    1    2  501    0 -0.68831580114E+01 -0.13958562445E+03  0.63340738080E+02  0.15343915249E+03  0.00000000000E+00 0. -1.
          1    1    1    2  502    0  0.45083419517E+01  0.36980417411E+02  0.88194075601E+03  0.88272723620E+03  0.00000000000E+00 0. -1.
         22    1    3    3    0    0 -0.37227919676E+02  0.35359262074E+01  0.17484362931E+03  0.17879797394E+03  0.00000000000E+00 0. -1.
         22    1    3    3    0    0  0.39602735735E+02  0.99069280832E+02  0.15227026053E+04  0.15264358235E+04  0.00000000000E+00 0. -1.
</event>
<event>
 7    1  0.7802682E-006  0.1295348E+03  0.7818608E-02  0.1382029E+00
          2   -1    0    0  502    0  0.00000000000E+00  0.00000000000E+00  0.19366839995E+04  0.19366839995E+04  0.00000000000E+00 0. -1.
          1   -1    0    0  501    0 -0.00000000000E+00 -0.00000000000E+00 -0.92249700936E+03  0.92249700936E+03  0.00000000000E+00 0. -1.
         25    2    1    2    0    0 -0.67905753692E+02  0.14257362078E+03  0.38299361331E+03  0.43272065410E+03  0.12499851167E+03 0.  0.
          2    1    1    2  501    0  0.66029860609E+02 -0.11107432133E+03 -0.89281891295E+03  0.90212142124E+03  0.00000000000E+00 0. -1.
          1    1    1    2  502    0  0.18758930833E+01 -0.31499299454E+02  0.15240122898E+04  0.15243389335E+04  0.00000000000E+00 0. -1.
         22    1    3    3    0    0 -0.81734099067E+02  0.15670020574E+03  0.30739500314E+03  0.35458018189E+03  0.00000000000E+00 0.  1.
         22    1    3    3    0    0  0.13828345375E+02 -0.14126584961E+02  0.75598610162E+02  0.78140472208E+02  0.00000000000E+00 0.  1.
</event>
<event>
 7    1  0.7802682E-006  0.6305609E+02  0.7818608E-02  0.1444276E+00
          2   -1    0    0  502    0  0.00000000000E+00  0.00000000000E+00  0.17241522811E+04  0.17241522811E+04  0.00000000000E+00 0. -1.
          1   -1    0    0  501    0 -0.00000000000E+00 -0.00000000000E+00 -0.50129944041E+03  0.50129944041E+03  0.00000000000E+00 0. -1.
         25    2    1    2    0    0  0.34541220742E+02  0.83462490531E+02  0.19228307992E+03  0.24649117151E+03  0.12500412614E+03 0.  0.
          2    1    1    2  501    0  0.93191424278E+01 -0.38860069182E+02 -0.47270182749E+03  0.47438799426E+03  0.00000000000E+00 0. -1.
          1    1    1    2  502    0 -0.43860363170E+02 -0.44602421350E+02  0.15032715882E+04  0.15045725557E+04  0.00000000000E+00 0. -1.
         22    1    3    3    0    0  0.50915659098E+02  0.42411933086E+02  0.19111781443E+03  0.20227999259E+03  0.00000000000E+00 0. -1.
         22    1    3    3    0    0 -0.16374438356E+02  0.41050557445E+02  0.11652654923E+01  0.44211178923E+02  0.00000000000E+00 0. -1.
</event>
<event>
 7    1  0.7802682E-006  0.1420478E+03  0.7818608E-02  0.1297622E+00
          2   -1    0    0  502    0  0.00000000000E+00  0.00000000000E+00  0.11363192600E+04  0.11363192600E+04  0.00000000000E+00 0. -1.
          1   -1    0    0  501    0 -0.00000000000E+00 -0.00000000000E+00 -0.31443118850E+03  0.31443118850E+03  0.00000000000E+00 0. -1.
         25    2    1    2    0    0 -0.14260636130E+03 -0.33257199311E+02 -0.12875489484E+03  0.23161772095E+03  0.12500532038E+03 0.  0.
          2    1    1    2  501    0  0.28474404237E+01  0.59770446265E+02 -0.12264233930E+03  0.13646156071E+03  0.00000000000E+00 0. -1.
          1    1    1    2  502    0  0.13975892087E+03 -0.26513246954E+02  0.10732853056E+04  0.10826711669E+04  0.00000000000E+00 0. -1.
         22    1    3    3    0    0 -0.11007862210E+03 -0.79439672555E+01 -0.14922070792E+03  0.18559964798E+03  0.00000000000E+00 0.  1.
         22    1    3    3    0    0 -0.32527739199E+02 -0.25313232056E+02  0.20465813080E+02  0.46018072966E+02  0.00000000000E+00 0.  1.
</event>
<event>
 7    1  0.7802682E-006  0.1016019E+03  0.7818608E-02  0.1294220E+00
          2   -1    0    0  502    0  0.00000000000E+00  0.00000000000E+00  0.47638253214E+03  0.47638253214E+03  0.00000000000E+00 0. -1.
          1   -1    0    0  501    0 -0.00000000000E+00 -0.00000000000E+00 -0.23715535959E+03  0.23715535959E+03  0.00000000000E+00 0. -1.
         25    2    1    2    0    0 -0.23969591217E+02  0.99460704660E+02  0.68185179403E+02  0.17532948540E+03  0.12499694671E+03 0.  0.
          2    1    1    2  501    0 -0.61314471284E+02 -0.85990835640E+02 -0.16242693276E+03  0.19374312037E+03  0.00000000000E+00 0. -1.
          1    1    1    2  502    0  0.85284062501E+02 -0.13469869021E+02  0.33346892591E+03  0.34446528597E+03  0.00000000000E+00 0. -1.
         22    1    3    3    0    0 -0.46507259969E+02  0.11532087107E+03  0.29440531647E+02  0.12778330657E+03  0.00000000000E+00 0.  1.
         22    1    3    3    0    0  0.22537668753E+02 -0.15860166413E+02  0.38744647756E+02  0.47546178828E+02  0.00000000000E+00 0.  1.
</event>
<event>
 7    1  0.7802682E-006  0.5657198E+02  0.7818608E-02  0.1420913E+00
          2   -1    0    0  502    0  0.00000000000E+00  0.00000000000E+00  0.93259910887E+03  0.93259910887E+03  0.00000000000E+00 0. -1.
          1   -1    0    0  501    0 -0.00000000000E+00 -0.00000000000E+00 -0.29067937413E+03  0.29067937413E+03  0.00000000000E+00 0. -1.
         25    2    1    2    0    0 -0.10885355661E+02 -0.21359394824E+02  0.15642683854E+03  0.20166233578E+03  0.12499450844E+03 0.  0.
          2    1    1    2  501    0  0.46629289669E+02 -0.25483270479E+02 -0.26426090337E+03  0.26955057555E+03  0.00000000000E+00 0. -1.
          1    1    1    2  502    0 -0.35743934008E+02  0.46842665303E+02  0.74975379958E+03  0.75206557167E+03  0.00000000000E+00 0. -1.
         22    1    3    3    0    0 -0.74009989150E+01  0.48134306377E+02  0.10301017091E+03  0.11394200957E+03  0.00000000000E+00 0.  1.
         22    1    3    3    0    0 -0.34843567457E+01 -0.69493701201E+02  0.53416667636E+02  0.87720326207E+02  0.00000000000E+00 0.  1.
</event>
<event>
 7    1  0.7802682E-006  0.4569399E+02  0.7818608E-02  0.1484743E+00
          2   -1    0    0  502    0  0.00000000000E+00  0.00000000000E+00  0.30917971280E+03  0.30917971280E+03  0.00000000000E+00 0. -1.
          1   -1    0    0  501    0 -0.00000000000E+00 -0.00000000000E+00 -0.54163132387E+03  0.54163132387E+03  0.00000000000E+00 0. -1.
         25    2    1    2    0    0 -0.26200978905E+02 -0.36165699880E+02 -0.12072594266E+03  0.17942065147E+03  0.12499027083E+03 0.  0.
          2    1    1    2  501    0 -0.19736301811E+02  0.36137207539E+02 -0.38857766269E+03  0.39075314371E+03  0.00000000000E+00 0. -1.
          1    1    1    2  502    0  0.45937280716E+02  0.28492341615E-01  0.27685199428E+03  0.28063724148E+03  0.00000000000E+00 0. -1.
         22    1    3    3    0    0  0.81884172234E+01 -0.88514657102E+01 -0.13321720534E+03  0.13376181226E+03  0.00000000000E+00 0. -1.
         22    1    3    3    0    0 -0.34389396128E+02 -0.27314234170E+02  0.12491262684E+02  0.45658839208E+02  0.00000000000E+00 0. -1.
</event>
<event>
 7    1  0.7802682E-006  0.8178906E+02  0.7818608E-02  0.1350568E+00
          2   -1    0    0  502    0  0.00000000000E+00  0.00000000000E+00  0.44517654364E+04  0.44517654364E+04  0.00000000000E+00 0. -1.
          1   -1    0    0  501    0 -0.00000000000E+00 -0.00000000000E+00 -0.10071963829E+03  0.10071963829E+03  0.00000000000E+00 0. -1.
         25    2    1    2    0    0  0.19635336698E+02 -0.52602248521E+01  0.18630108184E+03  0.22528396308E+03  0.12502621530E+03 0.  0.
          2    1    1    2  501    0  0.45590529465E+02 -0.46245600801E+02 -0.67775399807E+02  0.93865098889E+02  0.00000000000E+00 0. -1.
          1    1    1    2  502    0 -0.65225866163E+02  0.51505825653E+02  0.42325201161E+04  0.42333360127E+04  0.00000000000E+00 0. -1.
         22    1    3    3    0    0  0.39097979966E+02 -0.28926828744E+02  0.14470315747E+02  0.50742521581E+02  0.00000000000E+00 0. -1.
         22    1    3    3    0    0 -0.19462643268E+02  0.23666603892E+02  0.17183076610E+03  0.17454144150E+03  0.00000000000E+00 0. -1.
</event>
<event>
 7    1  0.7802682E-006  0.7727541E+02  0.7818608E-02  0.1428906E+00
          2   -1    0    0  502    0  0.00000000000E+00  0.00000000000E+00  0.98651979926E+02  0.98651979926E+02  0.00000000000E+00 0. -1.
          1   -1    0    0  501    0 -0.00000000000E+00 -0.00000000000E+00 -0.19086538938E+04  0.19086538938E+04  0.00000000000E+00 0. -1.
         25    2    1    2    0    0  0.56882035423E+02 -0.22535167062E+02 -0.14356556169E+03  0.19994779046E+03  0.12499859478E+03 0.  0.
          2    1    1    2  501    0 -0.26596400494E+01 -0.36501445817E+02 -0.17138407452E+04  0.17142314690E+04  0.00000000000E+00 0. -1.
          1    1    1    2  502    0 -0.54222395374E+02  0.59036612879E+02  0.47404393008E+02  0.93126614331E+02  0.00000000000E+00 0. -1.
         22    1    3    3    0    0  0.55885947050E+02 -0.39231105118E+02 -0.16155035541E+03  0.17538767351E+03  0.00000000000E+00 0. -1.
         22    1    3    3    0    0  0.99608837307E+00  0.16695938056E+02  0.17984793714E+02  0.24560116949E+02  0.00000000000E+00 0. -1.
</event>
<event>
 7    1  0.7802682E-006  0.1998676E+03  0.7818608E-02  0.1201785E+00
          2   -1    0    0  502    0  0.00000000000E+00  0.00000000000E+00  0.14100315521E+04  0.14100315521E+04  0.00000000000E+00 0. -1.
          1   -1    0    0  501    0 -0.00000000000E+00 -0.00000000000E+00 -0.14121004024E+04  0.14121004024E+04  0.00000000000E+00 0. -1.
         25    2    1    2    0    0 -0.12005286649E+03  0.43483171704E+02  0.10193157782E+03  0.20571566075E+03  0.12500163817E+03 0.  0.
          2    1    1    2  501    0 -0.93769030602E+02 -0.59371589719E+02 -0.13487634391E+04  0.13533219984E+04  0.00000000000E+00 0. -1.
          1    1    1    2  502    0  0.21382189709E+03  0.15888418015E+02  0.12447630110E+04  0.12630942954E+04  0.00000000000E+00 0. -1.
         22    1    3    3    0    0 -0.78219696671E+02  0.18695098344E+02  0.12752468806E+03  0.15076595675E+03  0.00000000000E+00 0. -1.
         22    1    3    3    0    0 -0.41833169815E+02  0.24788073360E+02 -0.25593110238E+02  0.54949703997E+02  0.00000000000E+00 0. -1.
</event>
<event>
 7    1  0.7802682E-006  0.1420296E+03  0.7818608E-02  0.1262515E+00
          2   -1    0    0  502    0  0.00000000000E+00  0.00000000000E+00  0.30706311733E+04  0.30706311733E+04  0.00000000000E+00 0. -1.
          1   -1    0    0  501    0 -0.00000000000E+00 -0.00000000000E+00 -0.14550633417E+04  0.14550633417E+04  0.00000000000E+00 0. -1.
         25    2    1    2    0    0 -0.19502956184E+03 -0.50078010289E+02 -0.19118363615E+02  0.23776918287E+03  0.12499734153E+03 0.  0.
          2    1    1    2  501    0  0.11641430644E+03  0.78468800742E+02 -0.13223131056E+04  0.13297449352E+04  0.00000000000E+00 0. -1.
          1    1    1    2  502    0  0.78615255403E+02 -0.28390790452E+02  0.29569993008E+04  0.29581803969E+04  0.00000000000E+00 0. -1.
         22    1    3    3    0    0 -0.13715845668E+03 -0.92332049765E+02 -0.12780058330E+02  0.16583419292E+03  0.00000000000E+00 0.  1.
         22    1    3    3    0    0 -0.57871105165E+02  0.42254039475E+02 -0.63383052858E+01  0.71934989949E+02  0.00000000000E+00 0.  1.
</event>
<event>
 7    1  0.7802682E-006  0.1545225E+03  0.7818608E-02  0.1324866E+00
          2   -1    0    0  502    0  0.00000000000E+00  0.00000000000E+00  0.34412319269E+03  0.34412319269E+03  0.00000000000E+00 0. -1.
          1   -1    0    0  501    0 -0.00000000000E+00 -0.00000000000E+00 -0.84504233295E+03  0.84504233295E+03  0.00000000000E+00 0. -1.
         25    2    1    2    0    0 -0.46063459528E+02  0.19038131206E+03  0.16178169131E+03  0.28313261905E+03  0.12499551209E+03 0.  0.
          2    1    1    2  501    0  0.32166476882E+02 -0.14971153309E+03 -0.77280917935E+03  0.78783389941E+03  0.00000000000E+00 0. -1.
          1    1    1    2  502    0  0.13896982646E+02 -0.40669778972E+02  0.11010834778E+03  0.11819900719E+03  0.00000000000E+00 0. -1.
         22    1    3    3    0    0 -0.57237742877E+02  0.12647370607E+03  0.16802644585E+03  0.21795560108E+03  0.00000000000E+00 0.  1.
         22    1    3    3    0    0  0.11174283349E+02  0.63907605991E+02 -0.62447545443E+01  0.65177017968E+02  0.00000000000E+00 0.  1.
</event>
<event>
 7    1  0.7802682E-006  0.9404734E+02  0.7818608E-02  0.1347456E+00
          2   -1    0    0  502    0  0.00000000000E+00  0.00000000000E+00  0.12945275473E+04  0.12945275473E+04  0.00000000000E+00 0. -1.
          1   -1    0    0  501    0 -0.00000000000E+00 -0.00000000000E+00 -0.35239102957E+03  0.35239102957E+03  0.00000000000E+00 0. -1.
         25    2    1    2    0    0  0.46078276756E+02  0.13241736545E+03  0.76091844682E+02  0.20266548640E+03  0.12500305712E+03 0.  0.
          2    1    1    2  501    0 -0.47037928952E+01 -0.91775185056E+02 -0.28105048176E+03  0.29569271813E+03  0.00000000000E+00 0. -1.
          1    1    1    2  502    0 -0.41374483861E+02 -0.40642180393E+02  0.11470951548E+04  0.11485603723E+04  0.00000000000E+00 0. -1.
         22    1    3    3    0    0  0.72104815545E+02  0.13272296083E+03  0.36680174233E+02  0.15543462914E+03  0.00000000000E+00 0. -1.
         22    1    3    3    0    0 -0.26026538789E+02 -0.30559537649E+00  0.39411670449E+02  0.47230857259E+02  0.00000000000E+00 0. -1.
</event>
<event>
 7    1  0.7802682E-006  0.2109813E+03  0.7818608E-02  0.1247967E+00
          2   -1    0    0  502    0  0.00000000000E+00  0.00000000000E+00  0.21716336366E+04  0.21716336366E+04  0.00000000000E+00 0. -1.
          1   -1    0    0  501    0 -0.00000000000E+00 -0.00000000000E+00 -0.13399850431E+04  0.13399850431E+04  0.00000000000E+00 0. -1.
         25    2    1    2    0    0 -0.10086540040E+02 -0.26639375195E+03 -0.91564849402E+02  0.30834447147E+03  0.12499928830E+03 0.  0.
          2    1    1    2  501    0  0.29079079729E+02  0.20424231516E+03 -0.11301788907E+04  0.11488537075E+04  0.00000000000E+00 0. -1.
          1    1    1    2  502    0 -0.18992539689E+02  0.62151436787E+02  0.20533923337E+04  0.20544205007E+04  0.00000000000E+00 0. -1.
         22    1    3    3    0    0 -0.69150394146E+01 -0.20820085001E+03 -0.12321290731E+03  0.24202651145E+03  0.00000000000E+00 0. -1.
         22    1    3    3    0    0 -0.31715006252E+01 -0.58192901934E+02  0.31648057912E+02  0.66317960021E+02  0.00000000000E+00 0. -1.
</event>
<event>
 7    1  0.7802682E-006  0.5606304E+03  0.7818608E-02  0.1253751E+00
          2   -1    0    0  502    0  0.00000000000E+00  0.00000000000E+00  0.21544951219E+04  0.21544951219E+04  0.00000000000E+00 0. -1.
          1   -1    0    0  501    0 -0.00000000000E+00 -0.00000000000E+00 -0.65151751674E+03  0.65151751674E+03  0.00000000000E+00 0. -1.
         25    2    1    2    0    0 -0.46254133779E+03 -0.30970580390E+03  0.12394867689E+04  0.13644848398E+04  0.12501701288E+03 0.  0.
          2    1    1    2  501    0  0.47849143427E+03  0.29301575510E+03 -0.45517374775E+03  0.72249250934E+03  0.00000000000E+00 0. -1.
          1    1    1    2  502    0 -0.15950096487E+02  0.16690048805E+02  0.71866458394E+03  0.71903528948E+03  0.00000000000E+00 0. -1.
         22    1    3    3    0    0 -0.29311860387E+02 -0.68296123985E+02  0.17548441172E+03  0.19057367202E+03  0.00000000000E+00 0. -1.
         22    1    3    3    0    0 -0.43322947740E+03 -0.24140967992E+03  0.10640023572E+04  0.11739111678E+04  0.00000000000E+00 0. -1.
</event>
<event>
 7    1  0.7802682E-006  0.3596535E+02  0.7818608E-02  0.1599859E+00
          2   -1    0    0  502    0  0.00000000000E+00  0.00000000000E+00  0.24362986305E+02  0.24362986305E+02  0.00000000000E+00 0. -1.
          1   -1    0    0  501    0 -0.00000000000E+00 -0.00000000000E+00 -0.10687130409E+04  0.10687130409E+04  0.00000000000E+00 0. -1.
         25    2    1    2    0    0  0.18138150373E+02 -0.22907842498E+02 -0.44051083051E+03  0.45883826920E+03  0.12501601394E+03 0.  0.
          2    1    1    2  501    0  0.23984412949E+01  0.36736666623E+02 -0.60801581849E+03  0.60912935467E+03  0.00000000000E+00 0. -1.
          1    1    1    2  502    0 -0.20536591668E+02 -0.13828824124E+02  0.41765944499E+01  0.25108403278E+02  0.00000000000E+00 0. -1.
         22    1    3    3    0    0  0.36899633684E+01  0.10830897282E+02  0.45155578918E+01  0.12300992996E+02  0.00000000000E+00 0.  1.
         22    1    3    3    0    0  0.14448187004E+02 -0.33738739781E+02 -0.44502638840E+03  0.44653727621E+03  0.00000000000E+00 0.  1.
</event>
<event>
 7    1  0.7802682E-006  0.3343515E+02  0.7818608E-02  0.1609442E+00
          2   -1    0    0  502    0  0.00000000000E+00  0.00000000000E+00  0.87463418347E+03  0.87463418347E+03  0.00000000000E+00 0. -1.
          1   -1    0    0  501    0 -0.00000000000E+00 -0.00000000000E+00 -0.16177252807E+03  0.16177252807E+03  0.00000000000E+00 0. -1.
         25    2    1    2    0    0 -0.36611340779E+02  0.45444833644E+02  0.29760765355E+02  0.14112398504E+03  0.12499861128E+03 0.  0.
          2    1    1    2  501    0  0.16848829607E+02 -0.18670243960E+02 -0.10424410993E+03  0.10723476826E+03  0.00000000000E+00 0. -1.
          1    1    1    2  502    0  0.19762511172E+02 -0.26774589684E+02  0.78734499997E+03  0.78804795824E+03  0.00000000000E+00 0. -1.
         22    1    3    3    0    0 -0.24116931650E+02 -0.16464765316E+02 -0.38372883791E+02  0.48220256113E+02  0.00000000000E+00 0.  1.
         22    1    3    3    0    0 -0.12494409129E+02  0.61909598961E+02  0.68133649146E+02  0.92903728929E+02  0.00000000000E+00 0.  1.
</event>
<event>
 7    1  0.7802682E-006  0.1223986E+03  0.7818608E-02  0.1353687E+00
          2   -1    0    0  502    0  0.00000000000E+00  0.00000000000E+00  0.34518783477E+03  0.34518783477E+03  0.00000000000E+00 0. -1.
          1   -1    0    0  501    0 -0.00000000000E+00 -0.00000000000E+00 -0.41800136178E+03  0.41800136178E+03  0.00000000000E+00 0. -1.
         25    2    1    2    0    0  0.14648681025E+03 -0.71012960767E+01 -0.76038344432E+02  0.20715717531E+03  0.12499380575E+03 0.  0.
          2    1    1    2  501    0 -0.11349322301E+03  0.33505228372E+02 -0.26198808447E+03  0.28747359601E+03  0.00000000000E+00 0. -1.
          1    1    1    2  502    0 -0.32993587238E+02 -0.26403932295E+02  0.26521290188E+03  0.26855842523E+03  0.00000000000E+00 0. -1.
         22    1    3    3    0    0  0.14947009067E+03  0.39225833402E+01 -0.21050723148E+02  0.15099611786E+03  0.00000000000E+00 0.  1.
         22    1    3    3    0    0 -0.29832804164E+01 -0.11023879417E+02 -0.54987621284E+02  0.56161057450E+02  0.00000000000E+00 0.  1.
</event>
<event>
 7    1  0.7802682E-006  0.3277526E+03  0.7818608E-02  0.1194862E+00
          2   -1    0    0  502    0  0.00000000000E+00  0.00000000000E+00  0.22905983878E+04  0.22905983878E+04  0.00000000000E+00 0. -1.
          1   -1    0    0  501    0 -0.00000000000E+00 -0.00000000000E+00 -0.19691021042E+03  0.19691021042E+03  0.00000000000E+00 0. -1.
         25    2    1    2    0    0 -0.14883070796E+03  0.27547945707E+03  0.75457060454E+03  0.82646297624E+03  0.12499897180E+03 0.  0.
          2    1    1    2  501    0 -0.70633492856E+02 -0.18357620288E+02 -0.13240885158E+03  0.15118927380E+03  0.00000000000E+00 0. -1.
          1    1    1    2  502    0  0.21946420082E+03 -0.25712183678E+03  0.14715264244E+04  0.15098563482E+04  0.00000000000E+00 0. -1.
         22    1    3    3    0    0 -0.12811123637E+03  0.13471410678E+03  0.33099122599E+03  0.37962556702E+03  0.00000000000E+00 0. -1.
         22    1    3    3    0    0 -0.20719471592E+02  0.14076535029E+03  0.42357937855E+03  0.44683740922E+03  0.00000000000E+00 0. -1.
</event>
<event>
 7    1  0.7802682E-006  0.2770506E+03  0.7818608E-02  0.1165697E+00
          2   -1    0    0  502    0  0.00000000000E+00  0.00000000000E+00  0.20247797832E+04  0.20247797832E+04  0.00000000000E+00 0. -1.
          1   -1    0    0  501    0 -0.00000000000E+00 -0.00000000000E+00 -0.52606705452E+03  0.52606705452E+03  0.00000000000E+00 0. -1.
         25    2    1    2    0    0  0.29698950394E+03 -0.18271540156E+02  0.26316544567E+03  0.41643567176E+03  0.12500400910E+03 0.  0.
          2    1    1    2  501    0 -0.24651003395E+03  0.12693222139E+03 -0.40427278690E+03  0.49021981997E+03  0.00000000000E+00 0. -1.
          1    1    1    2  502    0 -0.50479469991E+02 -0.10866068123E+03  0.16398200699E+04  0.16441913460E+04  0.00000000000E+00 0. -1.
         22    1    3    3    0    0 -0.68806662239E+01 -0.66289193188E+01  0.34948513264E+02  0.36230991132E+02  0.00000000000E+00 0.  1.
         22    1    3    3    0    0  0.30387017017E+03 -0.11642620838E+02  0.22821693240E+03  0.38020468063E+03  0.00000000000E+00 0.  1.
</event>
<event>
 7    1  0.7802682E-006  0.9918644E+02  0.7818608E-02  0.1399671E+00
          2   -1    0    0  502    0  0.00000000000E+00  0.00000000000E+00  0.16573146018E+04  0.16573146018E+04  0.00000000000E+00 0. -1.
          1   -1    0    0  501    0 -0.00000000000E+00 -0.00000000000E+00 -0.68665576528E+03  0.68665576528E+03  0.00000000000E+00 0. -1.
         25    2    1    2    0    0  0.53852046741E+02 -0.76593290875E+02  0.19289190205E+03  0.24819081987E+03  0.12499928817E+03 0.  0.
          2    1    1    2  501    0 -0.24082621204E+02  0.96423909173E+02 -0.65503468977E+03  0.66253149941E+03  0.00000000000E+00 0. -1.
          1    1    1    2  502    0 -0.29769425537E+02 -0.19830618299E+02  0.14328016243E+04  0.14332480478E+04  0.00000000000E+00 0. -1.
         22    1    3    3    0    0  0.23884006785E+02 -0.42973734881E+02 -0.96168767908E+00  0.49174307448E+02  0.00000000000E+00 0. -1.
         22    1    3    3    0    0  0.29968039956E+02 -0.33619555993E+02  0.19385358973E+03  0.19901651242E+03  0.00000000000E+00 0. -1.
</event>
<event>
 7    1  0.7802682E-006  0.7397072E+02  0.7818608E-02  0.1359633E+00
          2   -1    0    0  502    0  0.00000000000E+00  0.00000000000E+00  0.21682701575E+04  0.21682701575E+04  0.00000000000E+00 0. -1.
          1   -1    0    0  501    0 -0.00000000000E+00 -0.00000000000E+00 -0.95925534144E+02  0.95925534144E+02  0.00000000000E+00 0. -1.
         25    2    1    2    0    0  0.83852569265E+01 -0.14447896787E+02  0.46601088758E+03  0.48277240453E+03  0.12499597185E+03 0.  0.
          2    1    1    2  501    0 -0.50248957716E+01 -0.66309177335E+02 -0.73803258269E+02  0.99343230809E+02  0.00000000000E+00 0. -1.
          1    1    1    2  502    0 -0.33603611549E+01  0.80757074122E+02  0.16801369941E+04  0.16820800563E+04  0.00000000000E+00 0. -1.
         22    1    3    3    0    0 -0.49471699819E+02 -0.77798485882E+01  0.34340041873E+03  0.34703288419E+03  0.00000000000E+00 0.  1.
         22    1    3    3    0    0  0.57856956745E+02 -0.66680481985E+01  0.12261046885E+03  0.13573952034E+03  0.00000000000E+00 0.  1.
</event>
<event>
 7    1  0.7802682E-006  0.4665019E+02  0.7818608E-02  0.1575428E+00
          2   -1    0    0  502    0  0.00000000000E+00  0.00000000000E+00  0.25754224903E+03  0.25754224903E+03  0.00000000000E+00 0. -1.
          1   -1    0    0  501    0 -0.00000000000E+00 -0.00000000000E+00 -0.22587014875E+03  0.22587014875E+03  0.00000000000E+00 0. -1.
         25    2    1    2    0    0  0.18826049838E+02  0.17483702676E+02  0.17583242237E+03  0.21726882076E+03  0.12501439800E+03 0.  0.
          2    1    1    2  501    0 -0.39593590307E+02 -0.25223156684E+02 -0.20033134168E+03  0.20575836917E+03  0.00000000000E+00 0. -1.
          1    1    1    2  502    0  0.20767540469E+02  0.77394540081E+01  0.56171019579E+02  0.60385207841E+02  0.00000000000E+00 0. -1.
         22    1    3    3    0    0  0.43376289777E+02  0.59690342979E+02  0.13400041353E+03  0.15297238439E+03  0.00000000000E+00 0. -1.
         22    1    3    3    0    0 -0.24550239939E+02 -0.42206640302E+02  0.41832008847E+02  0.64296436377E+02  0.00000000000E+00 0. -1.
</event>
<event>
 7    1  0.7802682E-006  0.4577659E+02  0.7818608E-02  0.1475025E+00
          2   -1    0    0  502    0  0.00000000000E+00  0.00000000000E+00  0.10462632929E+04  0.10462632929E+04  0.00000000000E+00 0. -1.
          1   -1    0    0  501    0 -0.00000000000E+00 -0.00000000000E+00 -0.82773925038E+02  0.82773925038E+02  0.00000000000E+00 0. -1.
         25    2    1    2    0    0 -0.79492749773E+02  0.29912387672E+02  0.13665225877E+03  0.20374862498E+03  0.12500325657E+03 0.  0.
          2    1    1    2  501    0  0.34402536160E+02 -0.27466302289E+02 -0.38675980906E+02  0.58598325528E+02  0.00000000000E+00 0. -1.
          1    1    1    2  502    0  0.45090213613E+02 -0.24460853838E+01  0.86551309002E+03  0.86669026745E+03  0.00000000000E+00 0. -1.
         22    1    3    3    0    0 -0.83079381432E+02 -0.26844195497E+02  0.11136671284E+03  0.14151091541E+03  0.00000000000E+00 0. -1.
         22    1    3    3    0    0  0.35866316588E+01  0.56756583169E+02  0.25285545925E+02  0.62237709569E+02  0.00000000000E+00 0. -1.
</event>
<event>
 7    1  0.7802682E-006  0.1042377E+03  0.7818608E-02  0.1422868E+00
          2   -1    0    0  502    0  0.00000000000E+00  0.00000000000E+00  0.67855234910E+03  0.67855234910E+03  0.00000000000E+00 0. -1.
          1   -1    0    0  501    0 -0.00000000000E+00 -0.00000000000E+00 -0.11137547859E+04  0.11137547859E+04  0.00000000000E+00 0. -1.
         25    2    1    2    0    0 -0.73593286466E+02  0.58764218115E+02 -0.12620959083E+03  0.20105503388E+03  0.12500024274E+03 0.  0.
          2    1    1    2  501    0  0.96521455425E+02 -0.41988238246E+02 -0.94689007694E+03  0.95272253113E+03  0.00000000000E+00 0. -1.
          1    1    1    2  502    0 -0.22928168958E+02 -0.16775979869E+02  0.63789723099E+03  0.63852956997E+03  0.00000000000E+00 0. -1.
         22    1    3    3    0    0 -0.57841757407E+02  0.21070923742E+02  0.67799433974E+01  0.61932385387E+02  0.00000000000E+00 0. -1.
         22    1    3    3    0    0 -0.15751529059E+02  0.37693294373E+02 -0.13298953423E+03  0.13912264849E+03  0.00000000000E+00 0. -1.
</event>
<event>
 7    1  0.7802682E-006  0.5563939E+02  0.7818608E-02  0.1520310E+00
          2   -1    0    0  502    0  0.00000000000E+00  0.00000000000E+00  0.10319317856E+03  0.10319317856E+03  0.00000000000E+00 0. -1.
          1   -1    0    0  501    0 -0.00000000000E+00 -0.00000000000E+00 -0.62792556247E+03  0.62792556247E+03  0.00000000000E+00 0. -1.
         25    2    1    2    0    0 -0.33622100620E+02 -0.85272985295E+01 -0.32073239535E+03  0.34597232472E+03  0.12499767828E+03 0.  0.
          2    1    1    2  501    0  0.60075913630E+02  0.10174694857E+02 -0.28939122227E+03  0.29573623271E+03  0.00000000000E+00 0. -1.
          1    1    1    2  502    0 -0.26453813010E+02 -0.16473963277E+01  0.85391233708E+02  0.89410183601E+02  0.00000000000E+00 0. -1.
         22    1    3    3    0    0 -0.81918628009E+01 -0.49305809654E+02 -0.48898804692E+02  0.69923262096E+02  0.00000000000E+00 0.  1.
         22    1    3    3    0    0 -0.25430237819E+02  0.40778511125E+02 -0.27183359066E+03  0.27604906262E+03  0.00000000000E+00 0.  1.
</event>
<event>
 7    1  0.7802682E-006  0.3716630E+02  0.7818608E-02  0.1606967E+00
          2   -1    0    0  502    0  0.00000000000E+00  0.00000000000E+00  0.55287162653E+02  0.55287162653E+02  0.00000000000E+00 0. -1.
          1   -1    0    0  501    0 -0.00000000000E+00 -0.00000000000E+00 -0.86149731242E+03  0.86149731242E+03  0.00000000000E+00 0. -1.
         25    2    1    2    0    0 -0.15402145961E+02 -0.15470436322E+02 -0.73178153049E+03  0.74270564311E+03  0.12502361155E+03 0.  0.
          2    1    1    2  501    0  0.86528590582E+01 -0.21267048169E+02 -0.11596593934E+03  0.11821699706E+03  0.00000000000E+00 0. -1.
          1    1    1    2  502    0  0.67492869029E+01  0.36737484491E+02  0.41537320060E+02  0.55861834899E+02  0.00000000000E+00 0. -1.
         22    1    3    3    0    0  0.42160365774E+02 -0.38165593476E+02 -0.22139831968E+03  0.22858548713E+03  0.00000000000E+00 0. -1.
         22    1    3    3    0    0 -0.57562511735E+02  0.22695157153E+02 -0.51038321081E+03  0.51412015598E+03  0.00000000000E+00 0. -1.
</event>
<event>
 7    1  0.7802682E-006  0.3052524E+03  0.7818608E-02  0.1238518E+00
          2   -1    0    0  502    0  0.00000000000E+00  0.00000000000E+00  0.15945717011E+04  0.15945717011E+04  0.00000000000E+00 0. -1.
          1   -1    0    0  501    0 -0.00000000000E+00 -0.00000000000E+00 -0.26434322934E+03  0.26434322934E+03  0.00000000000E+00 0. -1.
         25    2    1    2    0    0 -0.11378956337E+03 -0.28722046029E+03  0.35929720321E+03  0.49006440535E+03  0.12499993449E+03 0.  0.
          2    1    1    2  501    0  0.65555921284E+02  0.29796719207E+03 -0.81076734210E+02  0.31568253546E+03  0.00000000000E+00 0. -1.
          1    1    1    2  502    0  0.48233642085E+02 -0.10746731787E+02  0.10520080028E+04  0.10531679896E+04  0.00000000000E+00 0. -1.
         22    1    3    3    0    0 -0.10143267221E+03 -0.90216469357E+02  0.13970302473E+03  0.19479356626E+03  0.00000000000E+00 0. -1.
         22    1    3    3    0    0 -0.12356891155E+02 -0.19700399093E+03  0.21959417848E+03  0.29527083910E+03  0.00000000000E+00 0. -1.
</event>
<event>
 7    1  0.7802682E-006  0.1622406E+03  0.7818608E-02  0.1245894E+00
          2   -1    0    0  502    0  0.00000000000E+00  0.00000000000E+00  0.45237621724E+03  0.45237621724E+03  0.00000000000E+00 0. -1.
          1   -1    0    0  501    0 -0.00000000000E+00 -0.00000000000E+00 -0.84632190187E+03  0.84632190187E+03  0.00000000000E+00 0. -1.
         25    2    1    2    0    0 -0.96158233853E+02  0.18136756325E+03 -0.34012190861E+03  0.41648032615E+03  0.12502939821E+03 0.  0.
          2    1    1    2  501    0  0.11623478983E+03 -0.97445703402E+02 -0.45097578828E+03  0.47579969850E+03  0.00000000000E+00 0. -1.
          1    1    1    2  502    0 -0.20076555977E+02 -0.83921859850E+02  0.39715201226E+03  0.40641809446E+03  0.00000000000E+00 0. -1.
         22    1    3    3    0    0 -0.45244153699E+02  0.77165495076E+02 -0.26147636739E+03  0.27635382714E+03  0.00000000000E+00 0.  1.
         22    1    3    3    0    0 -0.50914080154E+02  0.10420206818E+03 -0.78645541222E+02  0.14012649901E+03  0.00000000000E+00 0.  1.
</event>
<event>
 7    1  0.7802682E-006  0.1433584E+03  0.7818608E-02  0.1400574E+00
          2   -1    0    0  502    0  0.00000000000E+00  0.00000000000E+00  0.12609299230E+04  0.12609299230E+04  0.00000000000E+00 0. -1.
          1   -1    0    0  501    0 -0.00000000000E+00 -0.00000000000E+00 -0.11472043134E+04  0.11472043134E+04  0.00000000000E+00 0. -1.
         25    2    1    2    0    0 -0.56110609400E+02 -0.10662610485E+03 -0.45598103669E+02  0.17950439814E+03  0.12500046068E+03 0.  0.
          2    1    1    2  501    0 -0.49264941448E+01 -0.24072865481E+02 -0.10301492070E+04  0.10304422166E+04  0.00000000000E+00 0. -1.
          1    1    1    2  502    0  0.61037103545E+02  0.13069897033E+03  0.11894729202E+04  0.11981876217E+04  0.00000000000E+00 0. -1.
         22    1    3    3    0    0  0.10004531701E+02 -0.35444913484E+02  0.36839427465E+02  0.52091995186E+02  0.00000000000E+00 0. -1.
         22    1    3    3    0    0 -0.66115141102E+02 -0.71181191361E+02 -0.82437531134E+02  0.12741240295E+03  0.00000000000E+00 0. -1.
</event>
<event>
 7    1  0.7802682E-006  0.1289693E+03  0.7818608E-02  0.1350056E+00
          2   -1    0    0  502    0  0.00000000000E+00  0.00000000000E+00  0.14631735490E+03  0.14631735490E+03  0.00000000000E+00 0. -1.
          1   -1    0    0  501    0 -0.00000000000E+00 -0.00000000000E+00 -0.61648542584E+03  0.61648542584E+03  0.00000000000E+00 0. -1.
         25    2    1    2    0    0 -0.94742678138E+02 -0.11878605780E+03 -0.23128253287E+03  0.30364855926E+03  0.12499813974E+03 0.  0.
          2    1    1    2  501    0  0.41126321017E+02  0.44187965253E+01 -0.31097833021E+03  0.31371710490E+03  0.00000000000E+00 0. -1.
          1    1    1    2  502    0  0.53616357120E+02  0.11436726128E+03  0.72092792139E+02  0.14543711659E+03  0.00000000000E+00 0. -1.
         22    1    3    3    0    0  0.19481109110E+02  0.62960796641E+01 -0.51534894524E+01  0.21111908602E+02  0.00000000000E+00 0.  1.
         22    1    3    3    0    0 -0.11422378725E+03 -0.12508213747E+03 -0.22612904341E+03  0.28253665065E+03  0.00000000000E+00 0.  1.
</event>
<event>
 7    1  0.7802682E-006  0.9747491E+02  0.7818608E-02  0.1335186E+00
          2   -1    0    0  502    0  0.00000000000E+00  0.00000000000E+00  0.60692836448E+03  0.60692836448E+03  0.00000000000E+00 0. -1.
          1   -1    0    0  501    0 -0.00000000000E+00 -0.00000000000E+00 -0.79518455300E+03  0.79518455300E+03  0.00000000000E+00 0. -1.
         25    2    1    2    0    0 -0.10884707655E+03 -0.41192736664E+02 -0.40760076754E+01  0.17084642653E+03  0.12500943961E+03 0.  0.
          2    1    1    2  501    0  0.50301067433E+02 -0.36620382036E+02 -0.70180702151E+03  0.70455968179E+03  0.00000000000E+00 0. -1.
          1    1    1    2  502    0  0.58546009121E+02  0.77813118700E+02  0.51762684067E+03  0.52670680916E+03  0.00000000000E+00 0. -1.
         22    1    3    3    0    0 -0.11073511986E+03 -0.73418968173E+02  0.14417135457E+02  0.13364305239E+03  0.00000000000E+00 0.  1.
         22    1    3    3    0    0  0.18880433005E+01  0.32226231509E+02 -0.18493143133E+02  0.37203374144E+02  0.00000000000E+00 0.  1.
</event>
<event>
 7    1  0.7802682E-006  0.1043021E+03  0.7818608E-02  0.1290623E+00
          2   -1    0    0  502    0  0.00000000000E+00  0.00000000000E+00  0.88315372227E+03  0.88315372227E+03  0.00000000000E+00 0. -1.
          1   -1    0    0  501    0 -0.00000000000E+00 -0.00000000000E+00 -0.12687923698E+04  0.12687923698E+04  0.00000000000E+00 0. -1.
         25    2    1    2    0    0  0.73656948532E+02  0.49512027456E+01 -0.29487128484E+02  0.14815395482E+03  0.12502097067E+03 0.  0.
          2    1    1    2  501    0 -0.53032471342E+01 -0.86814486964E+02 -0.11749060526E+04  0.11781210091E+04  0.00000000000E+00 0. -1.
          1    1    1    2  502    0 -0.68353701397E+02  0.81863284218E+02  0.81875453352E+03  0.82567112821E+03  0.00000000000E+00 0. -1.
         22    1    3    3    0    0  0.93263141645E+02  0.32120635928E+02  0.66637609004E+01  0.98864323956E+02  0.00000000000E+00 0. -1.
         22    1    3    3    0    0 -0.19606193113E+02 -0.27169433183E+02 -0.36150889384E+02  0.49289630868E+02  0.00000000000E+00 0. -1.
</event>
<event>
 7    1  0.7802682E-006  0.1054806E+03  0.7818608E-02  0.1290113E+00
          2   -1    0    0  502    0  0.00000000000E+00  0.00000000000E+00  0.52104641246E+03  0.52104641246E+03  0.00000000000E+00 0. -1.
          1   -1    0    0  501    0 -0.00000000000E+00 -0.00000000000E+00 -0.78408194605E+03  0.78408194605E+03  0.00000000000E+00 0. -1.
         25    2    1    2    0    0  0.12550552371E+03 -0.22417542569E+01  0.17362858953E+03  0.24803792465E+03  0.12497704998E+03 0.  0.
          2    1    1    2  501    0 -0.76232177777E+02  0.73234021276E+02 -0.73701377176E+03  0.74455615407E+03  0.00000000000E+00 0. -1.
          1    1    1    2  502    0 -0.49273345932E+02 -0.70992267019E+02  0.30034964864E+03  0.31253427978E+03  0.00000000000E+00 0. -1.
         22    1    3    3    0    0  0.32647055306E+02 -0.55828802524E+02  0.37497332036E+02  0.74757844546E+02  0.00000000000E+00 0.  1.
         22    1    3    3    0    0  0.92858468403E+02  0.53587048267E+02  0.13613125749E+03  0.17328008011E+03  0.00000000000E+00 0.  1.
</event>
<event>
 7    1  0.7802682E-006  0.6512998E+02  0.7818608E-02  0.1474852E+00
          2   -1    0    0  502    0  0.00000000000E+00  0.00000000000E+00  0.72673238730E+03  0.72673238730E+03  0.00000000000E+00 0. -1.
          1   -1    0    0  501    0 -0.00000000000E+00 -0.00000000000E+00 -0.10330246337E+03  0.10330246337E+03  0.00000000000E+00 0. -1.
         25    2    1    2    0    0  0.16435061338E+02 -0.68653006984E+02  0.15211457808E+03  0.20916912619E+03  0.12501812619E+03 0.  0.
          2    1    1    2  501    0  0.14140287701E+02  0.63668476375E+02 -0.60016321065E+02  0.88631717879E+02  0.00000000000E+00 0. -1.
          1    1    1    2  502    0 -0.30575349038E+02  0.49845306094E+01  0.53133166692E+03  0.53223400660E+03  0.00000000000E+00 0. -1.
         22    1    3    3    0    0  0.23185745841E+02 -0.44573151934E+02 -0.46173466469E+01  0.50454579313E+02  0.00000000000E+00 0.  1.
         22    1    3    3    0    0 -0.67506845036E+01 -0.24079855049E+02  0.15673192473E+03  0.15871454687E+03  0.00000000000E+00 0.  1.
</event>
<event>
 7    1  0.7802682E-006  0.1160724E+03  0.7818608E-02  0.1423792E+00
          2   -1    0    0  502    0  0.00000000000E+00  0.00000000000E+00  0.49875536882E+04  0.49875536882E+04  0.00000000000E+00 0. -1.
          1   -1    0    0  501    0 -0.00000000000E+00 -0.00000000000E+00 -0.32805433510E+03  0.32805433510E+03  0.00000000000E+00 0. -1.
         25    2    1    2    0    0  0.11877584319E+03 -0.67168813914E+02  0.50105201869E+03  0.53413281806E+03  0.12500156563E+03 0.  0.
          2    1    1    2  501    0 -0.25332736367E+02 -0.19437610704E+00 -0.31025542245E+03  0.31128798961E+03  0.00000000000E+00 0. -1.
          1    1    1    2  502    0 -0.93443106826E+02  0.67363190021E+02  0.44687027569E+04  0.44701872156E+04  0.00000000000E+00 0. -1.
         22    1    3    3    0    0  0.10252001789E+02 -0.43031454373E+01 -0.54158202418E+01  0.12367364724E+02  0.00000000000E+00 0.  1.
         22    1    3    3    0    0  0.10852384140E+03 -0.62865668477E+02  0.50646783893E+03  0.52176545334E+03  0.00000000000E+00 0.  1.
</event>
<event>
 7    1  0.7802682E-006  0.6592476E+02  0.7818608E-02  0.1498776E+00
          2   -1    0    0  502    0  0.00000000000E+00  0.00000000000E+00  0.44225668643E+03  0.44225668643E+03  0.00000000000E+00 0. -1.
          1   -1    0    0  501    0 -0.00000000000E+00 -0.00000000000E+00 -0.99237183272E+03  0.99237183272E+03  0.00000000000E+00 0. -1.
         25    2    1    2    0    0  0.19047065828E+01 -0.54622091538E+02 -0.19209399673E+03  0.23560665438E+03  0.12499276465E+03 0.  0.
          2    1    1    2  501    0 -0.24809185091E+02 -0.73942657512E+01 -0.77570576682E+03  0.77613762150E+03  0.00000000000E+00 0. -1.
          1    1    1    2  502    0  0.22904478508E+02  0.62016357289E+02  0.41768461726E+03  0.42288424327E+03  0.00000000000E+00 0. -1.
         22    1    3    3    0    0 -0.33152774400E+02  0.10780433449E+02 -0.14165448498E+03  0.14588117531E+03  0.00000000000E+00 0.  1.
         22    1    3    3    0    0  0.35057480982E+02 -0.65402524987E+02 -0.50439511749E+02  0.89725479062E+02  0.00000000000E+00 0.  1.
</event>
<event>
 7    1  0.7802682E-006  0.1556814E+03  0.7818608E-02  0.1267217E+00
          2   -1    0    0  502    0  0.00000000000E+00  0.00000000000E+00  0.82557950308E+03  0.82557950308E+03  0.00000000000E+00 0. -1.
          1   -1    0    0  501    0 -0.00000000000E+00 -0.00000000000E+00 -0.16082801213E+03  0.16082801213E+03  0.00000000000E+00 0. -1.
         25    2    1    2    0    0 -0.11614493521E+03  0.70353705776E+02  0.39847020479E+03  0.43913860073E+03  0.12499966660E+03 0.  0.
          2    1    1    2  501    0  0.83782544705E+02 -0.13560736640E+03 -0.90383152763E+02  0.18324297237E+03  0.00000000000E+00 0. -1.
          1    1    1    2  502    0  0.32362390506E+02  0.65253660624E+02  0.35666443892E+03  0.36402594212E+03  0.00000000000E+00 0. -1.
         22    1    3    3    0    0 -0.51014780303E+02  0.99793199959E+02  0.22040706977E+03  0.24726598426E+03  0.00000000000E+00 0.  1.
         22    1    3    3    0    0 -0.65130154908E+02 -0.29439494183E+02  0.17806313502E+03  0.19187261647E+03  0.00000000000E+00 0.  1.
</event>
<event>
 7    1  0.1437109E-005  0.5744615E+02  0.7818608E-02  0.1439552E+00
          2   -1    0    0  502    0  0.00000000000E+00  0.00000000000E+00  0.22570139475E+04  0.22570139475E+04  0.00000000000E+00 0. -1.
          1   -1    0    0  501    0 -0.00000000000E+00 -0.00000000000E+00 -0.81086885743E+03  0.81086885743E+03  0.00000000000E+00 0. -1.
         25    2    1    2    0    0 -0.20060934119E+02 -0.69170647574E+02 -0.26616428743E+03  0.30274934510E+03  0.12500687376E+03 0.  0.
          2    1    1    2  501    0 -0.22371145417E+02  0.52922892180E+02 -0.52461281973E+03  0.52774985674E+03  0.00000000000E+00 0. -1.
          1    1    1    2  502    0  0.42432079536E+02  0.16247755394E+02  0.22369221972E+04  0.22373836031E+04  0.00000000000E+00 0. -1.
         22    1    3    3    0    0 -0.48411702727E+02  0.54328808950E+01 -0.40380964520E+02  0.63275836236E+02  0.00000000000E+00 0.  1.
         22    1    3    3    0    0  0.28350768608E+02 -0.74603528469E+02 -0.22578332291E+03  0.23947350886E+03  0.00000000000E+00 0.  1.
</event>
<event>
 7    1  0.8429880E-006  0.6464174E+02  0.7818608E-02  0.1411444E+00
          2   -1    0    0  502    0  0.00000000000E+00  0.00000000000E+00  0.67151308022E+03  0.67151308022E+03  0.00000000000E+00 0. -1.
          1   -1    0    0  501    0 -0.00000000000E+00 -0.00000000000E+00 -0.10816407729E+04  0.10816407729E+04  0.00000000000E+00 0. -1.
         25    2    1    2    0    0  0.25369680625E+02  0.99102765921E+02 -0.28535885063E+03  0.32790240205E+03  0.12500133090E+03 0.  0.
          2    1    1    2  501    0 -0.37312326268E+02 -0.50511194866E+02 -0.77277193262E+03  0.77531932153E+03  0.00000000000E+00 0. -1.
          1    1    1    2  502    0  0.11942645643E+02 -0.48591571055E+02  0.64800309059E+03  0.64993212952E+03  0.00000000000E+00 0. -1.
         22    1    3    3    0    0  0.95705090651E+01  0.12811685804E+03 -0.22873489343E+03  0.26234552680E+03  0.00000000000E+00 0. -1.
         22    1    3    3    0    0  0.15799171559E+02 -0.29014092121E+02 -0.56623957205E+02  0.65556875254E+02  0.00000000000E+00 0. -1.
</event>
<event>
 7    1  0.7802682E-006  0.1152170E+03  0.7818608E-02  0.1273375E+00
          2   -1    0    0  502    0  0.00000000000E+00  0.00000000000E+00  0.15965741276E+03  0.15965741276E+03  0.00000000000E+00 0. -1.
          1   -1    0    0  501    0 -0.00000000000E+00 -0.00000000000E+00 -0.82621953499E+03  0.82621953499E+03  0.00000000000E+00 0. -1.
         25    2    1    2    0    0 -0.17653881482E+03  0.79993672334E+02 -0.35457449796E+03  0.42298077184E+03  0.12499887196E+03 0.  0.
          2    1    1    2  501    0  0.93525483473E+02 -0.38664559144E+02 -0.41332433302E+03  0.42553374538E+03  0.00000000000E+00 0. -1.
          1    1    1    2  502    0  0.83013331351E+02 -0.41329113189E+02  0.10133670876E+03  0.13736243053E+03  0.00000000000E+00 0. -1.
         22    1    3    3    0    0 -0.32787373987E+02  0.74429844239E+02 -0.17430147992E+03  0.19234297364E+03  0.00000000000E+00 0.  1.
         22    1    3    3    0    0 -0.14375144084E+03  0.55638280944E+01 -0.18027301804E+03  0.23063779820E+03  0.00000000000E+00 0.  1.
</event>
<event>
 7    1  0.7802682E-006  0.1062247E+03  0.7818608E-02  0.1414548E+00
          2   -1    0    0  502    0  0.00000000000E+00  0.00000000000E+00  0.38156724188E+03  0.38156724188E+03  0.00000000000E+00 0. -1.
          1   -1    0    0  501    0 -0.00000000000E+00 -0.00000000000E+00 -0.97507645058E+03  0.97507645058E+03  0.00000000000E+00 0. -1.
         25    2    1    2    0    0  0.11471849012E+03  0.40616519347E+01  0.98244401826E+02  0.19609879258E+03  0.12500377982E+03 0.  0.
          2    1    1    2  501    0 -0.10349830173E+03  0.23463704968E+02 -0.92215123795E+03  0.92823776564E+03  0.00000000000E+00 0. -1.
          1    1    1    2  502    0 -0.11220188388E+02 -0.27525356902E+02  0.23039762742E+03  0.23230713424E+03  0.00000000000E+00 0. -1.
         22    1    3    3    0    0  0.26200943191E+02  0.17390842180E+02  0.10176597401E+03  0.10651405673E+03  0.00000000000E+00 0. -1.
         22    1    3    3    0    0  0.88517546928E+02 -0.13329190246E+02 -0.35215721802E+01  0.89584735851E+02  0.00000000000E+00 0. -1.
</event>
<event>
 7    1  0.7802682E-006  0.1112854E+03  0.7818608E-02  0.1329354E+00
          2   -1    0    0  502    0  0.00000000000E+00  0.00000000000E+00  0.13642498570E+03  0.13642498570E+03  0.00000000000E+00 0. -1.
          1   -1    0    0  501    0 -0.00000000000E+00 -0.00000000000E+00 -0.28394141698E+03  0.28394141698E+03  0.00000000000E+00 0. -1.
         25    2    1    2    0    0  0.34273125409E+02  0.79214668787E+02 -0.13930057700E+03  0.20610478693E+03  0.12499968626E+03 0.  0.
          2    1    1    2  501    0  0.57238044083E+02 -0.36867030401E+01 -0.61585092694E+02  0.84157644405E+02  0.00000000000E+00 0. -1.
          1    1    1    2  502    0 -0.91511169492E+02 -0.75527965747E+02  0.53369238419E+02  0.13010397135E+03  0.00000000000E+00 0. -1.
         22    1    3    3    0    0  0.13004655841E+02  0.96690431524E+02 -0.14797590210E+03  0.17724285098E+03  0.00000000000E+00 0.  1.
         22    1    3    3    0    0  0.21268469567E+02 -0.17475762737E+02  0.86753250998E+01  0.28861935946E+02  0.00000000000E+00 0.  1.
</event>
<event>
 7    1  0.7802682E-006  0.1293092E+03  0.7818608E-02  0.1324752E+00
          2   -1    0    0  502    0  0.00000000000E+00  0.00000000000E+00  0.35000732871E+03  0.35000732871E+03  0.00000000000E+00 0. -1.
          1   -1    0    0  501    0 -0.00000000000E+00 -0.00000000000E+00 -0.35262543439E+03  0.35262543439E+03  0.00000000000E+00 0. -1.
         25    2    1    2    0    0 -0.14547118171E+03  0.79825347595E+01 -0.66293269540E+02  0.20312400283E+03  0.12505589700E+03 0.  0.
          2    1    1    2  501    0  0.27745037983E+02  0.43281487455E+02 -0.19985471340E+03  0.20636128696E+03  0.00000000000E+00 0. -1.
          1    1    1    2  502    0  0.11772614372E+03 -0.51264022214E+02  0.26352987727E+03  0.29314747330E+03  0.00000000000E+00 0. -1.
         22    1    3    3    0    0 -0.13444808938E+03 -0.41393466176E+02 -0.40803697770E+02  0.14647405754E+03  0.00000000000E+00 0. -1.
         22    1    3    3    0    0 -0.11023092322E+02  0.49376000936E+02 -0.25489571770E+02  0.56649945293E+02  0.00000000000E+00 0. -1.
</event>
<event>
 7    1  0.7802682E-006  0.1143437E+03  0.7818608E-02  0.1297800E+00
          2   -1    0    0  502    0  0.00000000000E+00  0.00000000000E+00  0.74676355513E+03  0.74676355513E+03  0.00000000000E+00 0. -1.
          1   -1    0    0  501    0 -0.00000000000E+00 -0.00000000000E+00 -0.18858986404E+04  0.18858986404E+04  0.00000000000E+00 0. -1.
         25    2    1    2    0    0 -0.14945172937E+02 -0.54193534090E+02 -0.81420727172E+02  0.15939702955E+03  0.12497112020E+03 0.  0.
          2    1    1    2  501    0 -0.28994774491E+02  0.11400179867E+03 -0.17615773581E+04  0.17655004661E+04  0.00000000000E+00 0. -1.
          1    1    1    2  502    0  0.43939947428E+02 -0.59808264575E+02  0.70386300008E+03  0.70776469986E+03  0.00000000000E+00 0. -1.
         22    1    3    3    0    0  0.51820461499E+02 -0.23631733368E+02 -0.11704561179E+02  0.58144783122E+02  0.00000000000E+00 0.  1.
         22    1    3    3    0    0 -0.66765634436E+02 -0.30561800722E+02 -0.69716165993E+02  0.10125224642E+03  0.00000000000E+00 0.  1.
</event>
<event>
 7    1  0.7802682E-006  0.4411077E+02  0.7818608E-02  0.1564316E+00
          2   -1    0    0  502    0  0.00000000000E+00  0.00000000000E+00  0.64489161897E+03  0.64489161897E+03  0.00000000000E+00 0. -1.
          1   -1    0    0  501    0 -0.00000000000E+00 -0.00000000000E+00 -0.54373377066E+03  0.54373377066E+03  0.00000000000E+00 0. -1.
         25    2    1    2    0    0  0.57120849966E+02  0.31887542871E+02  0.42436164059E+03  0.44719694021E+03  0.12499077742E+03 0.  0.
          2    1    1    2  501    0 -0.42569211519E+02 -0.11403991884E+02 -0.53064459882E+03  0.53247148192E+03  0.00000000000E+00 0. -1.
          1    1    1    2  502    0 -0.14551638447E+02 -0.20483550987E+02  0.20744080655E+03  0.20895696749E+03  0.00000000000E+00 0. -1.
         22    1    3    3    0    0 -0.21556918920E+02  0.44362529094E+02  0.82009276334E+02  0.95698778183E+02  0.00000000000E+00 0.  1.
         22    1    3    3    0    0  0.78677768887E+02 -0.12474986223E+02  0.34235236425E+03  0.35149816203E+03  0.00000000000E+00 0.  1.
</event>
<event>
 7    1  0.1652915E-005  0.7661137E+02  0.7818608E-02  0.1347683E+00
          2   -1    0    0  502    0  0.00000000000E+00  0.00000000000E+00  0.86622291857E+03  0.86622291857E+03  0.00000000000E+00 0. -1.
          1   -1    0    0  501    0 -0.00000000000E+00 -0.00000000000E+00 -0.20100769225E+04  0.20100769225E+04  0.00000000000E+00 0. -1.
         25    2    1    2    0    0  0.23741987695E+02 -0.31500010580E+02 -0.10829487159E+04  0.10908558139E+04  0.12503020753E+03 0.  0.
          2    1    1    2  501    0 -0.61775946107E+02 -0.35113999887E+02 -0.92009607836E+03  0.92283587594E+03  0.00000000000E+00 0. -1.
          1    1    1    2  502    0  0.38033958413E+02  0.66614010467E+02  0.85919079033E+03  0.86260815123E+03  0.00000000000E+00 0. -1.
         22    1    3    3    0    0  0.32008063562E+02 -0.41354439173E+02 -0.17102577266E+03  0.17884216697E+03  0.00000000000E+00 0. -1.
         22    1    3    3    0    0 -0.82660758672E+01  0.98544285927E+01 -0.91192294328E+03  0.91201364696E+03  0.00000000000E+00 0. -1.
</event>
<event>
 7    1  0.7802682E-006  0.3541123E+02  0.7818608E-02  0.1569269E+00
          2   -1    0    0  502    0  0.00000000000E+00  0.00000000000E+00  0.46206286475E+03  0.46206286475E+03  0.00000000000E+00 0. -1.
          1   -1    0    0  501    0 -0.00000000000E+00 -0.00000000000E+00 -0.57071726624E+03  0.57071726624E+03  0.00000000000E+00 0. -1.
         25    2    1    2    0    0  0.31698771300E+01  0.67125803108E+01 -0.12618698985E+03  0.17777102504E+03  0.12499709630E+03 0.  0.
          2    1    1    2  501    0 -0.30851784071E+02 -0.19131747494E+02 -0.41742201284E+03  0.41899760518E+03  0.00000000000E+00 0. -1.
          1    1    1    2  502    0  0.27681906941E+02  0.12419167184E+02  0.43495460120E+03  0.43601150076E+03  0.00000000000E+00 0. -1.
         22    1    3    3    0    0 -0.37632128910E+02 -0.32162345149E+02 -0.10757834178E+03  0.11842167535E+03  0.00000000000E+00 0. -1.
         22    1    3    3    0    0  0.40802006040E+02  0.38874925460E+02 -0.18608648064E+02  0.59349349694E+02  0.00000000000E+00 0. -1.
</event>
<event>
 7    1  0.7802682E-006  0.1837506E+03  0.7818608E-02  0.1259076E+00
          2   -1    0    0  502    0  0.00000000000E+00  0.00000000000E+00  0.19443184647E+04  0.19443184647E+04  0.00000000000E+00 0. -1.
          1   -1    0    0  501    0 -0.00000000000E+00 -0.00000000000E+00 -0.78312720215E+03  0.78312720215E+03  0.00000000000E+00 0. -1.
         25    2    1    2    0    0 -0.13810205045E+03  0.77928260637E+02 -0.17936295055E+03  0.27007689854E+03  0.12500189179E+03 0.  0.
          2    1    1    2  501    0 -0.44239072146E+02 -0.50083448286E+02 -0.55190790588E+03  0.55593865117E+03  0.00000000000E+00 0. -1.
          1    1    1    2  502    0  0.18234112259E+03 -0.27844812351E+02  0.18924621190E+04  0.19014301172E+04  0.00000000000E+00 0. -1.
         22    1    3    3    0    0 -0.67007758734E+02 -0.28825172695E+02 -0.76096610215E+02  0.10541169004E+03  0.00000000000E+00 0.  1.
         22    1    3    3    0    0 -0.71094291712E+02  0.10675343333E+03 -0.10326634034E+03  0.16466520850E+03  0.00000000000E+00 0.  1.
</event>
<event>
 7    1  0.7802682E-006  0.9193018E+02  0.7818608E-02  0.1465096E+00
          2   -1    0    0  502    0  0.00000000000E+00  0.00000000000E+00  0.98969164343E+03  0.98969164343E+03  0.00000000000E+00 0. -1.
          1   -1    0    0  501    0 -0.00000000000E+00 -0.00000000000E+00 -0.40937056419E+03  0.40937056419E+03  0.00000000000E+00 0. -1.
         25    2    1    2    0    0 -0.74066684862E+02 -0.87332254359E+02  0.14846620919E+03  0.22534601357E+03  0.12500325636E+03 0.  0.
          2    1    1    2  501    0  0.56526506892E+02  0.71638137068E+02 -0.36514188826E+03  0.37637197986E+03  0.00000000000E+00 0. -1.
          1    1    1    2  502    0  0.17540177970E+02  0.15694117290E+02  0.79699675831E+03  0.79734421420E+03  0.00000000000E+00 0. -1.
         22    1    3    3    0    0 -0.21315673661E+01 -0.47554624448E+02  0.13358019185E+03  0.14180851012E+03  0.00000000000E+00 0.  1.
         22    1    3    3    0    0 -0.71935117496E+02 -0.39777629911E+02  0.14886017333E+02  0.83537503449E+02  0.00000000000E+00 0.  1.
</event>
<event>
 7    1  0.7802682E-006  0.6106143E+02  0.7818608E-02  0.1460081E+00
          2   -1    0    0  502    0  0.00000000000E+00  0.00000000000E+00  0.65199998784E+03  0.65199998784E+03  0.00000000000E+00 0. -1.
          1   -1    0    0  501    0 -0.00000000000E+00 -0.00000000000E+00 -0.42535440287E+03  0.42535440287E+03  0.00000000000E+00 0. -1.
         25    2    1    2    0    0  0.11914375778E+02  0.48534690859E+02  0.29428272799E+03  0.32360732478E+03  0.12498723170E+03 0.  0.
          2    1    1    2  501    0  0.23996321866E+02 -0.56317900490E+02 -0.40741483705E+03  0.41198832366E+03  0.00000000000E+00 0. -1.
          1    1    1    2  502    0 -0.35910697644E+02  0.77832096310E+01  0.33977769404E+03  0.34175874227E+03  0.00000000000E+00 0. -1.
         22    1    3    3    0    0 -0.23984141301E+02 -0.35719054694E+02  0.93423502402E+02  0.10285446370E+03  0.00000000000E+00 0. -1.
         22    1    3    3    0    0  0.35898517079E+02  0.84253745553E+02  0.20085922559E+03  0.22075286107E+03  0.00000000000E+00 0. -1.
</event>
<event>
 7    1  0.7802682E-006  0.6317967E+02  0.7818608E-02  0.1470591E+00
          2   -1    0    0  502    0  0.00000000000E+00  0.00000000000E+00  0.12087308564E+04  0.12087308564E+04  0.00000000000E+00 0. -1.
          1   -1    0    0  501    0 -0.00000000000E+00 -0.00000000000E+00 -0.16371908320E+03  0.16371908320E+03  0.00000000000E+00 0. -1.
         25    2    1    2    0    0  0.17932449808E+02  0.85192923055E+02  0.39065887958E+03  0.41930724345E+03  0.12499918930E+03 0.  0.
          2    1    1    2  501    0 -0.30696110514E+02 -0.54846772762E+02 -0.14242921539E+03  0.15568076657E+03  0.00000000000E+00 0. -1.
          1    1    1    2  502    0  0.12763660705E+02 -0.30346150293E+02  0.79678210905E+03  0.79746192961E+03  0.00000000000E+00 0. -1.
         22    1    3    3    0    0  0.30517876651E+01  0.10382912437E+03  0.37858520242E+03  0.39257681537E+03  0.00000000000E+00 0.  1.
         22    1    3    3    0    0  0.14880662143E+02 -0.18636201320E+02  0.12073677161E+02  0.26730428086E+02  0.00000000000E+00 0.  1.
</event>
<event>
 7    1  0.7802682E-006  0.1076979E+03  0.7818608E-02  0.1315269E+00
          2   -1    0    0  502    0  0.00000000000E+00  0.00000000000E+00  0.47616733457E+03  0.47616733457E+03  0.00000000000E+00 0. -1.
          1   -1    0    0  501    0 -0.00000000000E+00 -0.00000000000E+00 -0.69402446616E+03  0.69402446616E+03  0.00000000000E+00 0. -1.
         25    2    1    2    0    0 -0.38176726644E+02 -0.14332739994E+03 -0.59116319444E+02  0.20278159668E+03  0.12500172278E+03 0.  0.
          2    1    1    2  501    0 -0.28602968374E+02  0.60791829613E+02 -0.55404178144E+03  0.55810041384E+03  0.00000000000E+00 0. -1.
          1    1    1    2  502    0  0.66779695018E+02  0.82535570326E+02  0.39530096929E+03  0.40930979021E+03  0.00000000000E+00 0. -1.
         22    1    3    3    0    0 -0.16185223989E+02 -0.12201662713E+02 -0.66597989315E+02  0.69614181237E+02  0.00000000000E+00 0.  1.
         22    1    3    3    0    0 -0.21991502655E+02 -0.13112573723E+03  0.74816698703E+01  0.13316741544E+03  0.00000000000E+00 0.  1.
</event>
<event>
 7    1  0.7802682E-006  0.1428769E+03  0.7818608E-02  0.1360206E+00
          2   -1    0    0  502    0  0.00000000000E+00  0.00000000000E+00  0.14150446847E+04  0.14150446847E+04  0.00000000000E+00 0. -1.
          1   -1    0    0  501    0 -0.00000000000E+00 -0.00000000000E+00 -0.41658498752E+03  0.41658498752E+03  0.00000000000E+00 0. -1.
         25    2    1    2    0    0 -0.11704574937E+03  0.10986859155E+03  0.41683241345E+03  0.46383736622E+03  0.12500010619E+03 0.  0.
          2    1    1    2  501    0  0.12060599473E+03 -0.75791429340E+02 -0.37986283735E+03  0.40569190518E+03  0.00000000000E+00 0. -1.
          1    1    1    2  502    0 -0.35602453568E+01 -0.34077162207E+02  0.96149012111E+03  0.96210040085E+03  0.00000000000E+00 0. -1.
         22    1    3    3    0    0 -0.84302023296E+02  0.56932727084E+02  0.10631539111E+03  0.14714322591E+03  0.00000000000E+00 0. -1.
         22    1    3    3    0    0 -0.32743726076E+02  0.52935864464E+02  0.31051702234E+03  0.31669414031E+03  0.00000000000E+00 0. -1.
</event>
<event>
 7    1  0.7802682E-006  0.2451164E+03  0.7818608E-02  0.1277495E+00
          2   -1    0    0  502    0  0.00000000000E+00  0.00000000000E+00  0.11044956242E+04  0.11044956242E+04  0.00000000000E+00 0. -1.
          1   -1    0    0  501    0 -0.00000000000E+00 -0.00000000000E+00 -0.22755235467E+03  0.22755235467E+03  0.00000000000E+00 0. -1.
         25    2    1    2    0    0  0.13808442587E+02 -0.22745149662E+03 -0.10235180281E+03  0.27933199731E+03  0.12500246712E+03 0.  0.
          2    1    1    2  501    0 -0.37795074986E+02 -0.18089126290E+02 -0.93974710508E+00  0.41911422163E+02  0.00000000000E+00 0. -1.
          1    1    1    2  502    0  0.23986632399E+02  0.24554062291E+03  0.98023481947E+03  0.10108045594E+04  0.00000000000E+00 0. -1.
         22    1    3    3    0    0 -0.12213060162E+02 -0.17134613850E+02 -0.59515260798E+02  0.63125431469E+02  0.00000000000E+00 0. -1.
         22    1    3    3    0    0  0.26021502750E+02 -0.21031688277E+03 -0.42836542008E+02  0.21620656584E+03  0.00000000000E+00 0. -1.
</event>
<event>
 7    1  0.7802682E-006  0.1332233E+03  0.7818608E-02  0.1348362E+00
          2   -1    0    0  502    0  0.00000000000E+00  0.00000000000E+00  0.12989876457E+04  0.12989876457E+04  0.00000000000E+00 0. -1.
          1   -1    0    0  501    0 -0.00000000000E+00 -0.00000000000E+00 -0.36856280584E+02  0.36856280584E+02  0.00000000000E+00 0. -1.
         25    2    1    2    0    0  0.87739078098E+02  0.10268913663E+03  0.68030357732E+03  0.70475607793E+03  0.12499986984E+03 0.  0.
          2    1    1    2  501    0  0.26087519782E+02 -0.31143357904E+02  0.75993136432E+01  0.41330581871E+02  0.00000000000E+00 0. -1.
          1    1    1    2  502    0 -0.11382659788E+03 -0.71545778730E+02  0.57422847418E+03  0.58975726651E+03  0.00000000000E+00 0. -1.
         22    1    3    3    0    0  0.54785389422E+02  0.61908900969E+01  0.44373090890E+03  0.44714302581E+03  0.00000000000E+00 0. -1.
         22    1    3    3    0    0  0.32953688676E+02  0.96498246537E+02  0.23657266842E+03  0.25761305213E+03  0.00000000000E+00 0. -1.
</event>
<event>
 7    1  0.7802682E-006  0.1568910E+03  0.7818608E-02  0.1353518E+00
          2   -1    0    0  502    0  0.00000000000E+00  0.00000000000E+00  0.21376399572E+03  0.21376399572E+03  0.00000000000E+00 0. -1.
          1   -1    0    0  501    0 -0.00000000000E+00 -0.00000000000E+00 -0.19676471607E+04  0.19676471607E+04  0.00000000000E+00 0. -1.
         25    2    1    2    0    0  0.13361221742E+03 -0.52432544352E+02  0.63041360567E+02  0.20049724522E+03  0.12499414326E+03 0.  0.
          2    1    1    2  501    0  0.25643006198E+02 -0.20794753849E+02 -0.18049172582E+04  0.18052191819E+04  0.00000000000E+00 0. -1.
          1    1    1    2  502    0 -0.15925522362E+03  0.73227298201E+02 -0.12007267352E+02  0.17569472935E+03  0.00000000000E+00 0. -1.
         22    1    3    3    0    0  0.16496004717E+01  0.32473827705E+02  0.18363775955E+02  0.37342990438E+02  0.00000000000E+00 0.  1.
         22    1    3    3    0    0  0.13196261695E+03 -0.84906372057E+02  0.44677584612E+02  0.16315425479E+03  0.00000000000E+00 0.  1.
</event>
<event>
 7    1  0.7802682E-006  0.1825272E+03  0.7818608E-02  0.1328634E+00
          2   -1    0    0  502    0  0.00000000000E+00  0.00000000000E+00  0.14385049533E+03  0.14385049533E+03  0.00000000000E+00 0. -1.
          1   -1    0    0  501    0 -0.00000000000E+00 -0.00000000000E+00 -0.17165037190E+04  0.17165037190E+04  0.00000000000E+00 0. -1.
         25    2    1    2    0    0  0.12704375051E+02  0.19563877764E+03 -0.36180208988E+03  0.43006475367E+03  0.12497602830E+03 0.  0.
          2    1    1    2  501    0  0.28899447259E+02 -0.20082922958E+02 -0.12459852179E+04  0.12464821158E+04  0.00000000000E+00 0. -1.
          1    1    1    2  502    0 -0.41603822310E+02 -0.17555585468E+03  0.35134084118E+02  0.18380734482E+03  0.00000000000E+00 0. -1.
         22    1    3    3    0    0  0.57355064660E+00  0.21163889110E+03 -0.31948639555E+03  0.38322696425E+03  0.00000000000E+00 0.  1.
         22    1    3    3    0    0  0.12130824405E+02 -0.16000113461E+02 -0.42315694334E+02  0.46837789428E+02  0.00000000000E+00 0.  1.
</event>
<event>
 7    1  0.7802682E-006  0.1558689E+03  0.7818608E-02  0.1246884E+00
          2   -1    0    0  502    0  0.00000000000E+00  0.00000000000E+00  0.16151722813E+04  0.16151722813E+04  0.00000000000E+00 0. -1.
          1   -1    0    0  501    0 -0.00000000000E+00 -0.00000000000E+00 -0.79297524093E+03  0.79297524093E+03  0.00000000000E+00 0. -1.
         25    2    1    2    0    0 -0.19731128840E+03  0.17736271299E+02  0.19573765422E+02  0.23506275926E+03  0.12500019460E+03 0.  0.
          2    1    1    2  501    0  0.14451014642E+03  0.53819705619E+02 -0.67520136687E+03  0.69258691076E+03  0.00000000000E+00 0. -1.
          1    1    1    2  502    0  0.52801141978E+02 -0.71555976918E+02  0.14778246419E+04  0.14804978523E+04  0.00000000000E+00 0. -1.
         22    1    3    3    0    0 -0.35786087719E+02  0.29130965489E+02  0.52422125296E+02  0.69837929846E+02  0.00000000000E+00 0.  1.
         22    1    3    3    0    0 -0.16152520068E+03 -0.11394694190E+02 -0.32848359874E+02  0.16522482942E+03  0.00000000000E+00 0.  1.
</event>
<event>
 7    1  0.7802682E-006  0.9307986E+02  0.7818608E-02  0.1401807E+00
          2   -1    0    0  502    0  0.00000000000E+00  0.00000000000E+00  0.27784954198E+04  0.27784954198E+04  0.00000000000E+00 0. -1.
          1   -1    0    0  501    0 -0.00000000000E+00 -0.00000000000E+00 -0.21650895164E+04  0.21650895164E+04  0.00000000000E+00 0. -1.
         25    2    1    2    0    0  0.69252577498E+02  0.84537702022E+02 -0.65778057361E+02  0.17858964271E+03  0.12499986039E+03 0.  0.
          2    1    1    2  501    0 -0.79268442541E+02 -0.48423210499E+02 -0.20417206669E+04  0.20438325702E+04  0.00000000000E+00 0. -1.
          1    1    1    2  502    0  0.10015865044E+02 -0.36114491523E+02  0.27209046277E+04  0.27211627234E+04  0.00000000000E+00 0. -1.
         22    1    3    3    0    0 -0.63250499299E+01 -0.35861330099E+01  0.28264576982E+02  0.29184806296E+02  0.00000000000E+00 0.  1.
         22    1    3    3    0    0  0.75577627428E+02  0.88123835032E+02 -0.94042634343E+02  0.14940483641E+03  0.00000000000E+00 0.  1.
</event>
<event>
 7    1  0.7802682E-006  0.1161021E+03  0.7818608E-02  0.1293926E+00
          2   -1    0    0  502    0  0.00000000000E+00  0.00000000000E+00  0.12847312644E+04  0.12847312644E+04  0.00000000000E+00 0. -1.
          1   -1    0    0  501    0 -0.00000000000E+00 -0.00000000000E+00 -0.34381596388E+03  0.34381596388E+03  0.00000000000E+00 0. -1.
         25    2    1    2    0    0 -0.18032390770E+03 -0.26516073533E+02 -0.26006829579E+01  0.22102479131E+03  0.12500152389E+03 0.  0.
          2    1    1    2  501    0  0.10459571994E+03  0.28882256581E+02 -0.21801335605E+03  0.24352468620E+03  0.00000000000E+00 0. -1.
          1    1    1    2  502    0  0.75728187769E+02 -0.23661830477E+01  0.11615293395E+04  0.11639977508E+04  0.00000000000E+00 0. -1.
         22    1    3    3    0    0 -0.14724199134E+03  0.12801847515E+02  0.41279883757E+02  0.15345396742E+03  0.00000000000E+00 0.  1.
         22    1    3    3    0    0 -0.33081916364E+02 -0.39317921049E+02 -0.43880566715E+02  0.67570823890E+02  0.00000000000E+00 0.  1.
</event>
<event>
 7    1  0.7802682E-006  0.3610691E+02  0.7818608E-02  0.1545266E+00
          2   -1    0    0  502    0  0.00000000000E+00  0.00000000000E+00  0.36428674806E+03  0.36428674806E+03  0.00000000000E+00 0. -1.
          1   -1    0    0  501    0 -0.00000000000E+00 -0.00000000000E+00 -0.99327805917E+03  0.99327805917E+03  0.00000000000E+00 0. -1.
         25    2    1    2    0    0  0.48778327796E+02 -0.35720881225E+02 -0.57284143393E+03  0.58943029006E+03  0.12500180717E+03 0.  0.
          2    1    1    2  501    0 -0.12870067168E+02  0.32186822047E+02 -0.41049553013E+03  0.41195656372E+03  0.00000000000E+00 0. -1.
          1    1    1    2  502    0 -0.35908260628E+02  0.35340591782E+01  0.35434565294E+03  0.35617795344E+03  0.00000000000E+00 0. -1.
         22    1    3    3    0    0  0.24435875224E+02 -0.11659258734E+02 -0.54399493532E+03  0.54466828434E+03  0.00000000000E+00 0. -1.
         22    1    3    3    0    0  0.24342452573E+02 -0.24061622492E+02 -0.28846498613E+02  0.44762005724E+02  0.00000000000E+00 0. -1.
</event>
<event>
 7    1  0.7802682E-006  0.1008716E+03  0.7818608E-02  0.1298543E+00
          2   -1    0    0  502    0  0.00000000000E+00  0.00000000000E+00  0.13102535457E+04  0.13102535457E+04  0.00000000000E+00 0. -1.
          1   -1    0    0  501    0 -0.00000000000E+00 -0.00000000000E+00 -0.25716175040E+03  0.25716175040E+03  0.00000000000E+00 0. -1.
         25    2    1    2    0    0  0.17309414883E+02  0.13372972258E+02  0.27479955585E+03  0.30268406076E+03  0.12499757002E+03 0.  0.
          2    1    1    2  501    0 -0.57598819045E+02 -0.86566794009E+02 -0.23029985709E+03  0.25268450281E+03  0.00000000000E+00 0. -1.
          1    1    1    2  502    0  0.40289404162E+02  0.73193821752E+02  0.10085920965E+04  0.10120467325E+04  0.00000000000E+00 0. -1.
         22    1    3    3    0    0  0.58420609333E+02 -0.12052849435E+02  0.68660484928E+02  0.90953290017E+02  0.00000000000E+00 0.  1.
         22    1    3    3    0    0 -0.41111194450E+02  0.25425821693E+02  0.20613907092E+03  0.21173077074E+03  0.00000000000E+00 0.  1.
</event>
<event>
 7    1  0.7802682E-006  0.2051880E+03  0.7818608E-02  0.1366772E+00
          2   -1    0    0  502    0  0.00000000000E+00  0.00000000000E+00  0.51650511883E+03  0.51650511883E+03  0.00000000000E+00 0. -1.
          1   -1    0    0  501    0 -0.00000000000E+00 -0.00000000000E+00 -0.16031524822E+03  0.16031524822E+03  0.00000000000E+00 0. -1.
         25    2    1    2    0    0  0.20662728148E+03 -0.33010420494E+02  0.30886984427E+03  0.39346277816E+03  0.12501142262E+03 0.  0.
          2    1    1    2  501    0 -0.70441243506E+01  0.21457031332E+02 -0.54507851761E+02  0.59001099863E+02  0.00000000000E+00 0. -1.
          1    1    1    2  502    0 -0.19958315713E+03  0.11553389162E+02  0.10182787810E+03  0.22435648903E+03  0.00000000000E+00 0. -1.
         22    1    3    3    0    0  0.11803156348E+03 -0.17038634813E+02  0.70208278415E+02  0.13838702039E+03  0.00000000000E+00 0.  1.
         22    1    3    3    0    0  0.88595717993E+02 -0.15971785681E+02  0.23866156586E+03  0.25507575777E+03  0.00000000000E+00 0.  1.
</event>
<event>
 7    1  0.7802682E-006  0.1190167E+03  0.7818608E-02  0.1253452E+00
          2   -1    0    0  502    0  0.00000000000E+00  0.00000000000E+00  0.39693163218E+03  0.39693163218E+03  0.00000000000E+00 0. -1.
          1   -1    0    0  501    0 -0.00000000000E+00 -0.00000000000E+00 -0.11673384559E+04  0.11673384559E+04  0.00000000000E+00 0. -1.
         25    2    1    2    0    0 -0.98408418997E+01 -0.99755327167E+02 -0.23666174166E+01  0.16024235478E+03  0.12499617562E+03 0.  0.
          2    1    1    2  501    0 -0.96295141526E+02  0.74630270718E+02 -0.10731323486E+04  0.10800256798E+04  0.00000000000E+00 0. -1.
          1    1    1    2  502    0  0.10613598343E+03  0.25125056449E+02  0.30509214221E+03  0.32400205350E+03  0.00000000000E+00 0. -1.
         22    1    3    3    0    0  0.50178926338E+02 -0.35154327939E+02 -0.29475925994E+02  0.67989570042E+02  0.00000000000E+00 0.  1.
         22    1    3    3    0    0 -0.60019768238E+02 -0.64600999229E+02  0.27109308577E+02  0.92252784740E+02  0.00000000000E+00 0.  1.
</event>
<event>
 7    1  0.7802682E-006  0.3156647E+03  0.7818608E-02  0.1274403E+00
          2   -1    0    0  502    0  0.00000000000E+00  0.00000000000E+00  0.68130159862E+03  0.68130159862E+03  0.00000000000E+00 0. -1.
          1   -1    0    0  501    0 -0.00000000000E+00 -0.00000000000E+00 -0.22951748405E+03  0.22951748405E+03  0.00000000000E+00 0. -1.
         25    2    1    2    0    0 -0.43781371854E+02  0.30336276052E+03  0.20026269238E+02  0.33162026867E+03  0.12500071257E+03 0.  0.
          2    1    1    2  501    0  0.63203992844E+02 -0.33067522265E+03  0.32746456040E+03  0.46965294197E+03  0.00000000000E+00 0. -1.
          1    1    1    2  502    0 -0.19422620990E+02  0.27312462135E+02  0.10429328493E+03  0.10954587202E+03  0.00000000000E+00 0. -1.
         22    1    3    3    0    0 -0.27308658866E+02  0.15970156868E+03  0.72886131633E+02  0.17765906133E+03  0.00000000000E+00 0. -1.
         22    1    3    3    0    0 -0.16472712988E+02  0.14366119184E+03 -0.52859862395E+02  0.15396120734E+03  0.00000000000E+00 0. -1.
</event>
<event>
 7    1  0.7802682E-006  0.6164978E+02  0.7818608E-02  0.1487262E+00
          2   -1    0    0  502    0  0.00000000000E+00  0.00000000000E+00  0.11275237712E+03  0.11275237712E+03  0.00000000000E+00 0. -1.
          1   -1    0    0  501    0 -0.00000000000E+00 -0.00000000000E+00 -0.93686055623E+03  0.93686055623E+03  0.00000000000E+00 0. -1.
         25    2    1    2    0    0 -0.40456771219E+02 -0.47985933554E+01 -0.16395537101E+03  0.21015459983E+03  0.12499526115E+03 0.  0.
          2    1    1    2  501    0 -0.20177208091E+02  0.22180558222E+02 -0.73836898655E+03  0.73897757556E+03  0.00000000000E+00 0. -1.
          1    1    1    2  502    0  0.60633979311E+02 -0.17381964867E+02  0.78216178442E+02  0.10048075796E+03  0.00000000000E+00 0. -1.
         22    1    3    3    0    0 -0.68585564126E+02 -0.29934036160E+02 -0.15387692196E+03  0.17110854227E+03  0.00000000000E+00 0.  1.
         22    1    3    3    0    0  0.28128792907E+02  0.25135442805E+02 -0.10078449051E+02  0.39046057556E+02  0.00000000000E+00 0.  1.
</event>
<event>
 7    1  0.7802682E-006  0.7563417E+02  0.7818608E-02  0.1438159E+00
          2   -1    0    0  502    0  0.00000000000E+00  0.00000000000E+00  0.13352647350E+04  0.13352647350E+04  0.00000000000E+00 0. -1.
          1   -1    0    0  501    0 -0.00000000000E+00 -0.00000000000E+00 -0.65259804021E+03  0.65259804021E+03  0.00000000000E+00 0. -1.
         25    2    1    2    0    0  0.18924467226E+02  0.69283236023E+02  0.16818954320E+03  0.22151574258E+03  0.12499279786E+03 0.  0.
          2    1    1    2  501    0  0.32371179980E+02 -0.12967026275E+02 -0.62417564463E+03  0.62514900017E+03  0.00000000000E+00 0. -1.
          1    1    1    2  502    0 -0.51295647206E+02 -0.56316209749E+02  0.11386527962E+04  0.11411980324E+04  0.00000000000E+00 0. -1.
         22    1    3    3    0    0 -0.24180145398E+02  0.72869916344E+02  0.16003662658E+03  0.17750049574E+03  0.00000000000E+00 0. -1.
         22    1    3    3    0    0  0.43104612624E+02 -0.35866803203E+01  0.81529166140E+01  0.44015246841E+02  0.00000000000E+00 0. -1.
</event>
<event>
 7    1  0.7802682E-006  0.9180024E+02  0.7818608E-02  0.1299229E+00
          2   -1    0    0  502    0  0.00000000000E+00  0.00000000000E+00  0.12412900883E+04  0.12412900883E+04  0.00000000000E+00 0. -1.
          1   -1    0    0  501    0 -0.00000000000E+00 -0.00000000000E+00 -0.44059027547E+03  0.44059027547E+03  0.00000000000E+00 0. -1.
         25    2    1    2    0    0 -0.41093934441E+02 -0.47524625335E+02 -0.15379961045E+02  0.14074315622E+03  0.12499916544E+03 0.  0.
          2    1    1    2  501    0 -0.39470986405E+02  0.90320318341E+02 -0.35402038192E+03  0.36748625755E+03  0.00000000000E+00 0. -1.
          1    1    1    2  502    0  0.80564920845E+02 -0.42795693006E+02  0.11701001558E+04  0.11736509500E+04  0.00000000000E+00 0. -1.
         22    1    3    3    0    0  0.20668473348E+02 -0.64878194007E+02 -0.30844952835E+02  0.74751434525E+02  0.00000000000E+00 0. -1.
         22    1    3    3    0    0 -0.61762407788E+02  0.17353568672E+02  0.15464991791E+02  0.65991721697E+02  0.00000000000E+00 0. -1.
</event>
<event>
 7    1  0.7802682E-006  0.7052665E+02  0.7818608E-02  0.1411017E+00
          2   -1    0    0  502    0  0.00000000000E+00  0.00000000000E+00  0.34681308848E+03  0.34681308848E+03  0.00000000000E+00 0. -1.
          1   -1    0    0  501    0 -0.00000000000E+00 -0.00000000000E+00 -0.82010077032E+03  0.82010077032E+03  0.00000000000E+00 0. -1.
         25    2    1    2    0    0 -0.31281336070E+02 -0.41910940341E+02  0.71886769223E+02  0.15338644763E+03  0.12499858327E+03 0.  0.
          2    1    1    2  501    0  0.32345550389E+02 -0.32728867126E+02 -0.77270027535E+03  0.77406920162E+03  0.00000000000E+00 0. -1.
          1    1    1    2  502    0 -0.10642143181E+01  0.74639807467E+02  0.22752582428E+03  0.23945820956E+03  0.00000000000E+00 0. -1.
         22    1    3    3    0    0 -0.30053592963E+02  0.41553293633E+02  0.19664280361E+02  0.54923388314E+02  0.00000000000E+00 0.  1.
         22    1    3    3    0    0 -0.12277431075E+01 -0.83464233975E+02  0.52222488863E+02  0.98463059312E+02  0.00000000000E+00 0.  1.
</event>
<event>
 7    1  0.7802682E-006  0.1118272E+03  0.7818608E-02  0.1402277E+00
          2   -1    0    0  502    0  0.00000000000E+00  0.00000000000E+00  0.70765793288E+03  0.70765793288E+03  0.00000000000E+00 0. -1.
          1   -1    0    0  501    0 -0.00000000000E+00 -0.00000000000E+00 -0.59762040247E+03  0.59762040247E+03  0.00000000000E+00 0. -1.
         25    2    1    2    0    0 -0.13831707660E+03 -0.62308801791E+01  0.67165244395E+02  0.19824924834E+03  0.12498462652E+03 0.  0.
          2    1    1    2  501    0  0.28718128599E+02  0.11882145410E+02 -0.52637895349E+03  0.52729566561E+03  0.00000000000E+00 0. -1.
          1    1    1    2  502    0  0.10959894800E+03 -0.56512652308E+01  0.56925123951E+03  0.57973342139E+03  0.00000000000E+00 0. -1.
         22    1    3    3    0    0 -0.10006115892E+03  0.44511071052E+02  0.54259879262E+01  0.10964904156E+03  0.00000000000E+00 0. -1.
         22    1    3    3    0    0 -0.38255917679E+02 -0.50741951231E+02  0.61739256469E+02  0.88600206780E+02  0.00000000000E+00 0. -1.
</event>
<event>
 7    1  0.7802682E-006  0.1564640E+03  0.7818608E-02  0.1350620E+00
          2   -1    0    0  502    0  0.00000000000E+00  0.00000000000E+00  0.79957929078E+03  0.79957929078E+03  0.00000000000E+00 0. -1.
          1   -1    0    0  501    0 -0.00000000000E+00 -0.00000000000E+00 -0.11439658056E+04  0.11439658056E+04  0.00000000000E+00 0. -1.
         25    2    1    2    0    0  0.81447322114E+02 -0.12188445523E+03 -0.11286773078E+03  0.22327381992E+03  0.12499034885E+03 0.  0.
          2    1    1    2  501    0 -0.58374253277E+02  0.14676300263E+03 -0.96911167365E+03  0.98189834932E+03  0.00000000000E+00 0. -1.
          1    1    1    2  502    0 -0.23073068836E+02 -0.24878547398E+02  0.73759288965E+03  0.73837292711E+03  0.00000000000E+00 0. -1.
         22    1    3    3    0    0 -0.17737106751E+02  0.98319026737E+01  0.46377416274E+01  0.20803363033E+02  0.00000000000E+00 0.  1.
         22    1    3    3    0    0  0.99184428865E+02 -0.13171635790E+03 -0.11750547241E+03  0.20247045689E+03  0.00000000000E+00 0.  1.
</event>
<event>
 7    1  0.7802682E-006  0.2241804E+03  0.7818608E-02  0.1199179E+00
          2   -1    0    0  502    0  0.00000000000E+00  0.00000000000E+00  0.17267796627E+04  0.17267796627E+04  0.00000000000E+00 0. -1.
          1   -1    0    0  501    0 -0.00000000000E+00 -0.00000000000E+00 -0.18432718835E+04  0.18432718835E+04  0.00000000000E+00 0. -1.
         25    2    1    2    0    0 -0.27765924326E+03 -0.60031886985E+02 -0.23033485526E+03  0.38649397341E+03  0.12499985244E+03 0.  0.
          2    1    1    2  501    0  0.18941113349E+03  0.11075326671E+03 -0.15254293021E+04  0.15411286186E+04  0.00000000000E+00 0. -1.
          1    1    1    2  502    0  0.88248109772E+02 -0.50721379729E+02  0.16392719365E+04  0.16424289541E+04  0.00000000000E+00 0. -1.
         22    1    3    3    0    0 -0.27907804933E+03 -0.75745998905E+02 -0.19785181059E+03  0.35038172458E+03  0.00000000000E+00 0.  1.
         22    1    3    3    0    0  0.14188060694E+01  0.15714111920E+02 -0.32483044675E+02  0.36112248828E+02  0.00000000000E+00 0.  1.
</event>
<event>
 7    1  0.7802682E-006  0.7602175E+02  0.7818608E-02  0.1390102E+00
          2   -1    0    0  502    0  0.00000000000E+00  0.00000000000E+00  0.34040671243E+03  0.34040671243E+03  0.00000000000E+00 0. -1.
          1   -1    0    0  501    0 -0.00000000000E+00 -0.00000000000E+00 -0.11844073368E+04  0.11844073368E+04  0.00000000000E+00 0. -1.
         25    2    1    2    0    0 -0.40720632681E+02 -0.11580937053E+02  0.29185295570E+02  0.13516225286E+03  0.12499906036E+03 0.  0.
          2    1    1    2  501    0  0.71191234937E+02 -0.28529036584E+02 -0.11276474708E+04  0.11302525896E+04  0.00000000000E+00 0. -1.
          1    1    1    2  502    0 -0.30470602256E+02  0.40109973636E+02  0.25446155089E+03  0.25939920676E+03  0.00000000000E+00 0. -1.
         22    1    3    3    0    0 -0.53098391097E+02  0.23269389561E+02 -0.30073831639E+02  0.65309562677E+02  0.00000000000E+00 0. -1.
         22    1    3    3    0    0  0.12377758415E+02 -0.34850326613E+02  0.59259127209E+02  0.69852690185E+02  0.00000000000E+00 0. -1.
</event>
<event>
 7    1  0.7802682E-006  0.1144950E+03  0.7818608E-02  0.1394557E+00
          2   -1    0    0  502    0  0.00000000000E+00  0.00000000000E+00  0.83542722048E+03  0.83542722048E+03  0.00000000000E+00 0. -1.
          1   -1    0    0  501    0 -0.00000000000E+00 -0.00000000000E+00 -0.58232468236E+03  0.58232468236E+03  0.00000000000E+00 0. -1.
         25    2    1    2    0    0 -0.13760802643E+03 -0.82026131484E+01 -0.77016910800E+02  0.20139392784E+03  0.12499863128E+03 0.  0.
          2    1    1    2  501    0  0.24481961794E+02  0.21027989979E+02 -0.43833199713E+03  0.43951846665E+03  0.00000000000E+00 0. -1.
          1    1    1    2  502    0  0.11312606463E+03 -0.12825376831E+02  0.76845144606E+03  0.77683950835E+03  0.00000000000E+00 0. -1.
         22    1    3    3    0    0 -0.10347875307E+03 -0.12991357982E+02 -0.11147829930E+03  0.15265660462E+03  0.00000000000E+00 0. -1.
         22    1    3    3    0    0 -0.34129273352E+02  0.47887448331E+01  0.34461388502E+02  0.48737323215E+02  0.00000000000E+00 0. -1.
</event>
<event>
 7    1  0.7802682E-006  0.4077050E+02  0.7818608E-02  0.1572040E+00
          2   -1    0    0  502    0  0.00000000000E+00  0.00000000000E+00  0.56398778649E+03  0.56398778649E+03  0.00000000000E+00 0. -1.
          1   -1    0    0  501    0 -0.00000000000E+00 -0.00000000000E+00 -0.21980442786E+03  0.21980442786E+03  0.00000000000E+00 0. -1.
         25    2    1    2    0    0 -0.38562259931E+02 -0.42510333548E+01  0.53725005178E+01  0.13099715695E+03  0.12500508866E+03 0.  0.
          2    1    1    2  501    0  0.36912928641E+01  0.25634999618E+02 -0.15507259960E+03  0.15722051391E+03  0.00000000000E+00 0. -1.
          1    1    1    2  502    0  0.34870967067E+02 -0.21383966263E+02  0.49388345771E+03  0.49557454349E+03  0.00000000000E+00 0. -1.
         22    1    3    3    0    0 -0.25111971415E+02 -0.56442712577E+02 -0.27763475864E+02  0.67728882343E+02  0.00000000000E+00 0.  1.
         22    1    3    3    0    0 -0.13450288516E+02  0.52191679222E+02  0.33135976382E+02  0.63268274609E+02  0.00000000000E+00 0.  1.
</event>
<event>
 7    1  0.7802682E-006  0.1717001E+03  0.7818608E-02  0.1309328E+00
          2   -1    0    0  502    0  0.00000000000E+00  0.00000000000E+00  0.37032365404E+04  0.37032365404E+04  0.00000000000E+00 0. -1.
          1   -1    0    0  501    0 -0.00000000000E+00 -0.00000000000E+00 -0.33893977790E+02  0.33893977790E+02  0.00000000000E+00 0. -1.
         25    2    1    2    0    0  0.11740269311E+03  0.85456027586E+02  0.81629203855E+03  0.83847816199E+03  0.12500724353E+03 0.  0.
          2    1    1    2  501    0 -0.13334888319E+03 -0.12696514107E+03  0.35236561955E+03  0.39757213375E+03  0.00000000000E+00 0. -1.
          1    1    1    2  502    0  0.15946190082E+02  0.41509113479E+02  0.25006849045E+04  0.25010802224E+04  0.00000000000E+00 0. -1.
         22    1    3    3    0    0  0.86390543633E+01 -0.25659288512E+02  0.53052019758E+02  0.59561305791E+02  0.00000000000E+00 0.  1.
         22    1    3    3    0    0  0.10876363875E+03  0.11111531610E+03  0.76324001879E+03  0.77891685620E+03  0.00000000000E+00 0.  1.
</event>
<event>
 7    1  0.7802682E-006  0.7929122E+02  0.7818608E-02  0.1354585E+00
          2   -1    0    0  502    0  0.00000000000E+00  0.00000000000E+00  0.35770362424E+03  0.35770362424E+03  0.00000000000E+00 0. -1.
          1   -1    0    0  501    0 -0.00000000000E+00 -0.00000000000E+00 -0.45832404674E+03  0.45832404674E+03  0.00000000000E+00 0. -1.
         25    2    1    2    0    0  0.69176423543E+02  0.11453209351E+03  0.47879130965E+02  0.18926086240E+03  0.12499713931E+03 0.  0.
          2    1    1    2  501    0 -0.58947627878E+02 -0.50608204384E+02 -0.37924037039E+03  0.38711661255E+03  0.00000000000E+00 0. -1.
          1    1    1    2  502    0 -0.10228795665E+02 -0.63923889127E+02  0.23074081692E+03  0.23965019603E+03  0.00000000000E+00 0. -1.
         22    1    3    3    0    0 -0.13820541727E+02  0.94276644610E+02  0.10001648369E+02  0.95807755754E+02  0.00000000000E+00 0. -1.
         22    1    3    3    0    0  0.82996965270E+02  0.20255448901E+02  0.37877482596E+02  0.93453106648E+02  0.00000000000E+00 0. -1.
</event>
<event>
 7    1  0.7802682E-006  0.7818875E+02  0.7818608E-02  0.1431504E+00
          2   -1    0    0  502    0  0.00000000000E+00  0.00000000000E+00  0.34367704521E+02  0.34367704521E+02  0.00000000000E+00 0. -1.
          1   -1    0    0  501    0 -0.00000000000E+00 -0.00000000000E+00 -0.11261565050E+04  0.11261565050E+04  0.00000000000E+00 0. -1.
         25    2    1    2    0    0  0.25586645777E+01  0.92543971237E+02 -0.84444170194E+03  0.85864880477E+03  0.12500019436E+03 0.  0.
          2    1    1    2  501    0  0.22012880414E+02 -0.66969835820E+02 -0.25586733982E+03  0.26540086926E+03  0.00000000000E+00 0. -1.
          1    1    1    2  502    0 -0.24571544992E+02 -0.25574135417E+02  0.85202413068E+01  0.36474535467E+02  0.00000000000E+00 0. -1.
         22    1    3    3    0    0 -0.59403282454E+02  0.26698017620E+02 -0.35786797853E+03  0.36374582358E+03  0.00000000000E+00 0. -1.
         22    1    3    3    0    0  0.61961947031E+02  0.65845953618E+02 -0.48657372340E+03  0.49490298119E+03  0.00000000000E+00 0. -1.
</event>
<event>
 7    1  0.7802682E-006  0.1056208E+03  0.7818608E-02  0.1339422E+00
          2   -1    0    0  502    0  0.00000000000E+00  0.00000000000E+00  0.10525791172E+03  0.10525791172E+03  0.00000000000E+00 0. -1.
          1   -1    0    0  501    0 -0.00000000000E+00 -0.00000000000E+00 -0.10416345007E+04  0.10416345007E+04  0.00000000000E+00 0. -1.
         25    2    1    2    0    0  0.10425061969E+02  0.95485855505E+02 -0.30023693178E+03  0.33910797231E+03  0.12500308461E+03 0.  0.
          2    1    1    2  501    0 -0.55275320284E+02  0.27467567305E+01 -0.68643276603E+03  0.68866018325E+03  0.00000000000E+00 0. -1.
          1    1    1    2  502    0  0.44850258315E+02 -0.98232612236E+02  0.50293108823E+02  0.11912425686E+03  0.00000000000E+00 0. -1.
         22    1    3    3    0    0 -0.49070880195E+02  0.62610019054E+02 -0.10081741035E+03  0.12842163369E+03  0.00000000000E+00 0. -1.
         22    1    3    3    0    0  0.59495942164E+02  0.32875836451E+02 -0.19941952143E+03  0.21068633862E+03  0.00000000000E+00 0. -1.
</event>
<event>
 7    1  0.7802682E-006  0.8210284E+02  0.7818608E-02  0.1431981E+00
          2   -1    0    0  502    0  0.00000000000E+00  0.00000000000E+00  0.19269515553E+02  0.19269515553E+02  0.00000000000E+00 0. -1.
          1   -1    0    0  501    0 -0.00000000000E+00 -0.00000000000E+00 -0.20930568830E+04  0.20930568830E+04  0.00000000000E+00 0. -1.
         25    2    1    2    0    0 -0.63476212250E+02 -0.69725577668E+02 -0.37038803712E+03  0.40212394593E+03  0.12500193656E+03 0.  0.
          2    1    1    2  501    0  0.30376517888E+02  0.75802990893E+02 -0.15852988520E+04  0.15874007926E+04  0.00000000000E+00 0. -1.
          1    1    1    2  502    0  0.33099694362E+02 -0.60774132250E+01 -0.11810047833E+03  0.12280166000E+03  0.00000000000E+00 0. -1.
         22    1    3    3    0    0  0.73267270767E+01  0.48694222467E+01 -0.21858477993E+03  0.21876173847E+03  0.00000000000E+00 0.  1.
         22    1    3    3    0    0 -0.70802939327E+02 -0.74594999914E+02 -0.15180325720E+03  0.18336220746E+03  0.00000000000E+00 0.  1.
</event>
<event>
 7    1  0.7802682E-006  0.1060761E+03  0.7818608E-02  0.1322735E+00
          2   -1    0    0  502    0  0.00000000000E+00  0.00000000000E+00  0.39655491798E+03  0.39655491798E+03  0.00000000000E+00 0. -1.
          1   -1    0    0  501    0 -0.00000000000E+00 -0.00000000000E+00 -0.12591808489E+03  0.12591808489E+03  0.00000000000E+00 0. -1.
         25    2    1    2    0    0 -0.11340661656E+03 -0.36221048061E+02  0.22826741124E+03  0.28618863817E+03  0.12499960233E+03 0.  0.
          2    1    1    2  501    0  0.46642681548E+02 -0.43536234646E+02 -0.61978472188E+02  0.88950966739E+02  0.00000000000E+00 0. -1.
          1    1    1    2  502    0  0.66763935015E+02  0.79757282707E+02  0.10434789405E+03  0.14733339796E+03  0.00000000000E+00 0. -1.
         22    1    3    3    0    0 -0.38271408275E+02  0.41068594428E+02  0.38918624420E+02  0.68308048329E+02  0.00000000000E+00 0.  1.
         22    1    3    3    0    0 -0.75135208287E+02 -0.77289642490E+02  0.18934878682E+03  0.21788058984E+03  0.00000000000E+00 0.  1.
</event>
<event>
 7    1  0.7802682E-006  0.7405633E+02  0.7818608E-02  0.1456536E+00
          2   -1    0    0  502    0  0.00000000000E+00  0.00000000000E+00  0.17428442949E+03  0.17428442949E+03  0.00000000000E+00 0. -1.
          1   -1    0    0  501    0 -0.00000000000E+00 -0.00000000000E+00 -0.10742030512E+04  0.10742030512E+04  0.00000000000E+00 0. -1.
         25    2    1    2    0    0 -0.15790678424E+02 -0.94861723258E+02 -0.28101814670E+03  0.32223162871E+03  0.12495571897E+03 0.  0.
          2    1    1    2  501    0 -0.55217830789E+01  0.72227408571E+02 -0.76928674039E+03  0.77268970330E+03  0.00000000000E+00 0. -1.
          1    1    1    2  502    0  0.21312461503E+02  0.22634314687E+02  0.15038626537E+03  0.15356614870E+03  0.00000000000E+00 0. -1.
         22    1    3    3    0    0  0.13981115646E+02 -0.10407912822E+03 -0.12558923868E+03  0.16370886781E+03  0.00000000000E+00 0. -1.
         22    1    3    3    0    0 -0.29771794070E+02  0.92174049668E+01 -0.15542890802E+03  0.15852276090E+03  0.00000000000E+00 0. -1.
</event>
<event>
 7    1  0.7802682E-006  0.8256636E+02  0.7818608E-02  0.1371640E+00
          2   -1    0    0  502    0  0.00000000000E+00  0.00000000000E+00  0.92661835010E+03  0.92661835010E+03  0.00000000000E+00 0. -1.
          1   -1    0    0  501    0 -0.00000000000E+00 -0.00000000000E+00 -0.99494662638E+03  0.99494662638E+03  0.00000000000E+00 0. -1.
         25    2    1    2    0    0  0.48960830829E+02  0.10377524204E+02  0.18762564931E+03  0.23093847420E+03  0.12499735446E+03 0.  0.
          2    1    1    2  501    0  0.32228092810E+02 -0.43208732627E+02 -0.96986609917E+03  0.97136290585E+03  0.00000000000E+00 0. -1.
          1    1    1    2  502    0 -0.81188923639E+02  0.32831208423E+02  0.71391217358E+03  0.71926359644E+03  0.00000000000E+00 0. -1.
         22    1    3    3    0    0  0.36297743161E+02  0.67223005827E+02  0.10513039370E+03  0.12995714044E+03  0.00000000000E+00 0.  1.
         22    1    3    3    0    0  0.12663087669E+02 -0.56845481624E+02  0.82495255604E+02  0.10098133376E+03  0.00000000000E+00 0.  1.
</event>
<event>
 7    1  0.7802682E-006  0.1122415E+03  0.7818608E-02  0.1389276E+00
          2   -1    0    0  502    0  0.00000000000E+00  0.00000000000E+00  0.31555640646E+03  0.31555640646E+03  0.00000000000E+00 0. -1.
          1   -1    0    0  501    0 -0.00000000000E+00 -0.00000000000E+00 -0.36349954489E+03  0.36349954489E+03  0.00000000000E+00 0. -1.
         25    2    1    2    0    0  0.79445939086E+02  0.92916352897E+01 -0.15406462728E+03  0.21391218996E+03  0.12499809563E+03 0.  0.
          2    1    1    2  501    0  0.33697302841E+02  0.66323338041E+01 -0.16625907765E+03  0.16976918734E+03  0.00000000000E+00 0. -1.
          1    1    1    2  502    0 -0.11314324193E+03 -0.15923969094E+02  0.27238056651E+03  0.29537457405E+03  0.00000000000E+00 0. -1.
         22    1    3    3    0    0  0.46073237082E+02 -0.49798686169E+02 -0.33740493280E+02  0.75769870042E+02  0.00000000000E+00 0. -1.
         22    1    3    3    0    0  0.33372702004E+02  0.59090321459E+02 -0.12032413400E+03  0.13814231992E+03  0.00000000000E+00 0. -1.
</event>
<event>
 7    1  0.7802682E-006  0.1309671E+03  0.7818608E-02  0.1330311E+00
          2   -1    0    0  502    0  0.00000000000E+00  0.00000000000E+00  0.77178060953E+03  0.77178060953E+03  0.00000000000E+00 0. -1.
          1   -1    0    0  501    0 -0.00000000000E+00 -0.00000000000E+00 -0.21247316734E+03  0.21247316734E+03  0.00000000000E+00 0. -1.
         25    2    1    2    0    0 -0.13447947048E+03  0.76439777024E+02 -0.43426457710E+02  0.20356998757E+03  0.12500846019E+03 0.  0.
          2    1    1    2  501    0  0.11601398169E+03 -0.31777829593E+02 -0.47008337505E+02  0.12914665383E+03  0.00000000000E+00 0. -1.
          1    1    1    2  502    0  0.18465488785E+02 -0.44661947432E+02  0.64974223740E+03  0.65153713546E+03  0.00000000000E+00 0. -1.
         22    1    3    3    0    0 -0.12492868563E+03  0.26635685135E+02 -0.70692174520E+02  0.14599321818E+03  0.00000000000E+00 0. -1.
         22    1    3    3    0    0 -0.95507848446E+01  0.49804091889E+02  0.27265716810E+02  0.57576769388E+02  0.00000000000E+00 0. -1.
</event>
<event>
 7    1  0.7802682E-006  0.8442972E+02  0.7818608E-02  0.1406311E+00
          2   -1    0    0  502    0  0.00000000000E+00  0.00000000000E+00  0.10181862336E+04  0.10181862336E+04  0.00000000000E+00 0. -1.
          1   -1    0    0  501    0 -0.00000000000E+00 -0.00000000000E+00 -0.24634939209E+03  0.24634939209E+03  0.00000000000E+00 0. -1.
         25    2    1    2    0    0  0.82607940957E+02 -0.66111769688E+02  0.64360914640E+02  0.17596109064E+03  0.12500056034E+03 0.  0.
          2    1    1    2  501    0 -0.39448941745E+02 -0.58368770090E+01 -0.18647684540E+03  0.19069321438E+03  0.00000000000E+00 0. -1.
          1    1    1    2  502    0 -0.43158999212E+02  0.71948646697E+02  0.89395277229E+03  0.89788132070E+03  0.00000000000E+00 0. -1.
         22    1    3    3    0    0  0.66775600250E+02  0.53214928728E+01  0.76620605150E+02  0.10177433964E+03  0.00000000000E+00 0.  1.
         22    1    3    3    0    0  0.15832340707E+02 -0.71433262561E+02 -0.12259690510E+02  0.74186750998E+02  0.00000000000E+00 0.  1.
</event>
<event>
 7    1  0.7802682E-006  0.5002707E+02  0.7818608E-02  0.1557100E+00
          2   -1    0    0  502    0  0.00000000000E+00  0.00000000000E+00  0.57862990370E+03  0.57862990370E+03  0.00000000000E+00 0. -1.
          1   -1    0    0  501    0 -0.00000000000E+00 -0.00000000000E+00 -0.21279716296E+02  0.21279716296E+02  0.00000000000E+00 0. -1.
         25    2    1    2    0    0 -0.13033767892E+02  0.46750224991E+02  0.40450451991E+03  0.42615076247E+03  0.12500041234E+03 0.  0.
          2    1    1    2  501    0 -0.21855428437E+02 -0.77551390639E+01  0.18770239179E+02  0.29834942818E+02  0.00000000000E+00 0. -1.
          1    1    1    2  502    0  0.34889196329E+02 -0.38995085927E+02  0.13407542832E+03  0.14392391471E+03  0.00000000000E+00 0. -1.
         22    1    3    3    0    0  0.28178118324E+01  0.18229106961E+02 -0.18044487027E+01  0.18533656931E+02  0.00000000000E+00 0. -1.
         22    1    3    3    0    0 -0.15851579725E+02  0.28521118031E+02  0.40630896861E+03  0.40761710554E+03  0.00000000000E+00 0. -1.
</event>
<event>
 7    1  0.7802682E-006  0.5749854E+02  0.7818608E-02  0.1421233E+00
          2   -1    0    0  502    0  0.00000000000E+00  0.00000000000E+00  0.14686860082E+03  0.14686860082E+03  0.00000000000E+00 0. -1.
          1   -1    0    0  501    0 -0.00000000000E+00 -0.00000000000E+00 -0.82249731414E+03  0.82249731414E+03  0.00000000000E+00 0. -1.
         25    2    1    2    0    0 -0.48510204803E+02 -0.15453524202E+02 -0.60930887585E+03  0.62408034311E+03  0.12500766814E+03 0.  0.
          2    1    1    2  501    0  0.31674975934E+02  0.64815338105E+02 -0.19420683779E+03  0.20717294225E+03  0.00000000000E+00 0. -1.
          1    1    1    2  502    0  0.16835228869E+02 -0.49361813903E+02  0.12788700032E+03  0.13811262959E+03  0.00000000000E+00 0. -1.
         22    1    3    3    0    0  0.24525980642E+01 -0.53582921331E+02 -0.13101331252E+03  0.14156847372E+03  0.00000000000E+00 0. -1.
         22    1    3    3    0    0 -0.50962802868E+02  0.38129397129E+02 -0.47829556333E+03  0.48251186939E+03  0.00000000000E+00 0. -1.
</event>
<event>
 7    1  0.7802682E-006  0.9319707E+02  0.7818608E-02  0.1362397E+00
          2   -1    0    0  502    0  0.00000000000E+00  0.00000000000E+00  0.38167014687E+03  0.38167014687E+03  0.00000000000E+00 0. -1.
          1   -1    0    0  501    0 -0.00000000000E+00 -0.00000000000E+00 -0.34700718535E+03  0.34700718535E+03  0.00000000000E+00 0. -1.
         25    2    1    2    0    0  0.40079152773E+02 -0.81973828517E+02  0.12550371268E+03  0.19925277775E+03  0.12499776197E+03 0.  0.
          2    1    1    2  501    0  0.10226396553E+02  0.93325212478E+02 -0.29982042566E+03  0.31417584584E+03  0.00000000000E+00 0. -1.
          1    1    1    2  502    0 -0.50305549326E+02 -0.11351383961E+02  0.20897967450E+03  0.21524870862E+03  0.00000000000E+00 0. -1.
         22    1    3    3    0    0 -0.26565813777E+02 -0.83125205755E+02  0.60806296903E+02  0.10636234313E+03  0.00000000000E+00 0. -1.
         22    1    3    3    0    0  0.66644966550E+02  0.11513772382E+01  0.64697415777E+02  0.92890434622E+02  0.00000000000E+00 0. -1.
</event>
<event>
 7    1  0.7802682E-006  0.2733793E+03  0.7818608E-02  0.1203887E+00
          2   -1    0    0  502    0  0.00000000000E+00  0.00000000000E+00  0.93562454697E+03  0.93562454697E+03  0.00000000000E+00 0. -1.
          1   -1    0    0  501    0 -0.00000000000E+00 -0.00000000000E+00 -0.45638195546E+03  0.45638195546E+03  0.00000000000E+00 0. -1.
         25    2    1    2    0    0 -0.33577758647E+03  0.86466385056E+02  0.54973895838E+03  0.66186184333E+03  0.12500061586E+03 0.  0.
          2    1    1    2  501    0  0.26121447910E+03 -0.59414731140E+02 -0.34934578054E+03  0.44023356159E+03  0.00000000000E+00 0. -1.
          1    1    1    2  502    0  0.74563107371E+02 -0.27051653915E+02  0.27884941366E+03  0.28991109751E+03  0.00000000000E+00 0. -1.
         22    1    3    3    0    0 -0.30788374069E+03  0.10219898952E+03  0.43441985430E+03  0.54217860623E+03  0.00000000000E+00 0.  1.
         22    1    3    3    0    0 -0.27893845783E+02 -0.15732604467E+02  0.11531910408E+03  0.11968323710E+03  0.00000000000E+00 0.  1.
</event>
<event>
 7    1  0.7802682E-006  0.6720545E+02  0.7818608E-02  0.1501047E+00
          2   -1    0    0  502    0  0.00000000000E+00  0.00000000000E+00  0.80868736924E+03  0.80868736924E+03  0.00000000000E+00 0. -1.
          1   -1    0    0  501    0 -0.00000000000E+00 -0.00000000000E+00 -0.26430102745E+02  0.26430102745E+02  0.00000000000E+00 0. -1.
         25    2    1    2    0    0  0.48035086683E+02 -0.66153059406E+02  0.37806199826E+03  0.40649741046E+03  0.12500269340E+03 0.  0.
          2    1    1    2  501    0 -0.23857707499E+02  0.59787802892E+02  0.76533006183E+02  0.10000536294E+03  0.00000000000E+00 0. -1.
          1    1    1    2  502    0 -0.24177379184E+02  0.63652565140E+01  0.32766226205E+03  0.32861469859E+03  0.00000000000E+00 0. -1.
         22    1    3    3    0    0 -0.41785513308E+02 -0.34114891200E+02  0.14199470713E+03  0.15189585833E+03  0.00000000000E+00 0. -1.
         22    1    3    3    0    0  0.89820599991E+02 -0.32038168206E+02  0.23606729113E+03  0.25460155213E+03  0.00000000000E+00 0. -1.
</event>
<event>
 7    1  0.7802682E-006  0.9859864E+02  0.7818608E-02  0.1367040E+00
          2   -1    0    0  502    0  0.00000000000E+00  0.00000000000E+00  0.24102228961E+03  0.24102228961E+03  0.00000000000E+00 0. -1.
          1   -1    0    0  501    0 -0.00000000000E+00 -0.00000000000E+00 -0.10338119471E+04  0.10338119471E+04  0.00000000000E+00 0. -1.
         25    2    1    2    0    0 -0.11056630656E+03 -0.21527972670E+01 -0.12887278472E+03  0.21086155784E+03  0.12499943701E+03 0.  0.
          2    1    1    2  501    0  0.20612200611E+02  0.42119793995E+02 -0.85115050634E+03  0.85244127323E+03  0.00000000000E+00 0. -1.
          1    1    1    2  502    0  0.89954105950E+02 -0.39966996728E+02  0.18723363361E+03  0.21153140561E+03  0.00000000000E+00 0. -1.
         22    1    3    3    0    0 -0.50886971542E+02 -0.49036827404E+02 -0.12255433647E+02  0.71723705764E+02  0.00000000000E+00 0. -1.
         22    1    3    3    0    0 -0.59679335019E+02  0.46884030137E+02 -0.11661735107E+03  0.13913785208E+03  0.00000000000E+00 0. -1.
</event>
<event>
 7    1  0.7802682E-006  0.5469626E+02  0.7818608E-02  0.1451945E+00
          2   -1    0    0  502    0  0.00000000000E+00  0.00000000000E+00  0.64698611604E+03  0.64698611604E+03  0.00000000000E+00 0. -1.
          1   -1    0    0  501    0 -0.00000000000E+00 -0.00000000000E+00 -0.84711023571E+03  0.84711023571E+03  0.00000000000E+00 0. -1.
         25    2    1    2    0    0 -0.67242421123E+02  0.42510820341E+02  0.22781087982E+03  0.27175861879E+03  0.12500494742E+03 0.  0.
          2    1    1    2  501    0  0.24196330174E+02 -0.48999622249E+02 -0.82303473392E+03  0.82484701528E+03  0.00000000000E+00 0. -1.
          1    1    1    2  502    0  0.43046090948E+02  0.64888019082E+01  0.39509973444E+03  0.39749071769E+03  0.00000000000E+00 0. -1.
         22    1    3    3    0    0 -0.16475421713E+02  0.83943256804E+01 -0.13450018371E+02  0.22864977989E+02  0.00000000000E+00 0.  1.
         22    1    3    3    0    0 -0.50766999409E+02  0.34116494660E+02  0.24126089819E+03  0.24889364080E+03  0.00000000000E+00 0.  1.
</event>
<event>
 7    1  0.7802682E-006  0.1264316E+03  0.7818608E-02  0.1311617E+00
          2   -1    0    0  502    0  0.00000000000E+00  0.00000000000E+00  0.29114644934E+03  0.29114644934E+03  0.00000000000E+00 0. -1.
          1   -1    0    0  501    0 -0.00000000000E+00 -0.00000000000E+00 -0.21638865375E+04  0.21638865375E+04  0.00000000000E+00 0. -1.
         25    2    1    2    0    0  0.51942031609E+02 -0.50509914427E+02  0.11850946306E+03  0.18686169281E+03  0.12499429308E+03 0.  0.
          2    1    1    2  501    0 -0.10931028899E+03  0.64908117957E+02 -0.21214028644E+04  0.21252086759E+04  0.00000000000E+00 0. -1.
          1    1    1    2  502    0  0.57368257378E+02 -0.14398203530E+02  0.13015331324E+03  0.14296261808E+03  0.00000000000E+00 0. -1.
         22    1    3    3    0    0 -0.42843183558E+01  0.29751521396E+02 -0.36210428751E+01  0.30275738812E+02  0.00000000000E+00 0.  1.
         22    1    3    3    0    0  0.56226349965E+02 -0.80261435823E+02  0.12213050593E+03  0.15658595400E+03  0.00000000000E+00 0.  1.
</event>
<event>
 7    1  0.7802682E-006  0.6028862E+02  0.7818608E-02  0.1536195E+00
          2   -1    0    0  502    0  0.00000000000E+00  0.00000000000E+00  0.22738918414E+04  0.22738918414E+04  0.00000000000E+00 0. -1.
          1   -1    0    0  501    0 -0.00000000000E+00 -0.00000000000E+00 -0.77794473029E+03  0.77794473029E+03  0.00000000000E+00 0. -1.
         25    2    1    2    0    0  0.66020572901E+02  0.11441302268E+02  0.14023741115E+04  0.14095275595E+04  0.12500069210E+03 0.  0.
          2    1    1    2  501    0 -0.14097041588E+02  0.16918792724E+02 -0.77320281637E+03  0.77351636529E+03  0.00000000000E+00 0. -1.
          1    1    1    2  502    0 -0.51923531312E+02 -0.28360094991E+02  0.86677581605E+03  0.86879264694E+03  0.00000000000E+00 0. -1.
         22    1    3    3    0    0  0.63417602866E+02 -0.34704238499E+02  0.42835308870E+03  0.43441057206E+03  0.00000000000E+00 0. -1.
         22    1    3    3    0    0  0.26029700348E+01  0.46145540767E+02  0.97402102278E+03  0.97511698744E+03  0.00000000000E+00 0. -1.
</event>
<event>
 7    1  0.7802682E-006  0.1002479E+03  0.7818608E-02  0.1354590E+00
          2   -1    0    0  502    0  0.00000000000E+00  0.00000000000E+00  0.39043208206E+03  0.39043208206E+03  0.00000000000E+00 0. -1.
          1   -1    0    0  501    0 -0.00000000000E+00 -0.00000000000E+00 -0.42147068017E+03  0.42147068017E+03  0.00000000000E+00 0. -1.
         25    2    1    2    0    0  0.29503453353E+02  0.42310815468E+02 -0.22186314668E+03  0.25982837858E+03  0.12500748615E+03 0.  0.
          2    1    1    2  501    0  0.40160583344E+02  0.31760862488E+02 -0.16981893956E+03  0.17736994411E+03  0.00000000000E+00 0. -1.
          1    1    1    2  502    0 -0.69664036696E+02 -0.74071677956E+02  0.36064348813E+03  0.37470443954E+03  0.00000000000E+00 0. -1.
         22    1    3    3    0    0  0.73432029998E+02  0.32170106638E+02 -0.90289724353E+02  0.12074524055E+03  0.00000000000E+00 0. -1.
         22    1    3    3    0    0 -0.43928576645E+02  0.10140708830E+02 -0.13157342233E+03  0.13908313803E+03  0.00000000000E+00 0. -1.
</event>
<event>
 7    1  0.7802682E-006  0.4171874E+03  0.7818608E-02  0.1182946E+00
          2   -1    0    0  502    0  0.00000000000E+00  0.00000000000E+00  0.22767421344E+04  0.22767421344E+04  0.00000000000E+00 0. -1.
          1   -1    0    0  501    0 -0.00000000000E+00 -0.00000000000E+00 -0.31234725538E+03  0.31234725538E+03  0.00000000000E+00 0. -1.
         25    2    1    2    0    0  0.42047921168E+03  0.18344044522E+03  0.35739983922E+03  0.59482140335E+03  0.12499876959E+03 0.  0.
          2    1    1    2  501    0 -0.35506282075E+03 -0.18293656434E+03  0.13724026416E+02  0.39965452851E+03  0.00000000000E+00 0. -1.
          1    1    1    2  502    0 -0.65416390929E+02 -0.50388087728E+00  0.15932710134E+04  0.15946134579E+04  0.00000000000E+00 0. -1.
         22    1    3    3    0    0  0.93013443642E+02 -0.81205138152E+01  0.97241552569E+02  0.13480861615E+03  0.00000000000E+00 0.  1.
         22    1    3    3    0    0  0.32746576804E+03  0.19156095904E+03  0.26015828665E+03  0.46001278719E+03  0.00000000000E+00 0.  1.
</event>
<event>
 7    1  0.7802682E-006  0.9115004E+02  0.7818608E-02  0.1398285E+00
          2   -1    0    0  502    0  0.00000000000E+00  0.00000000000E+00  0.16081342360E+04  0.16081342360E+04  0.00000000000E+00 0. -1.
          1   -1    0    0  501    0 -0.00000000000E+00 -0.00000000000E+00 -0.58826797634E+02  0.58826797634E+02  0.00000000000E+00 0. -1.
         25    2    1    2    0    0 -0.79086449406E+02 -0.72116914784E+02  0.16482897596E+03  0.23291089336E+03  0.12499350805E+03 0.  0.
          2    1    1    2  501    0  0.40031511316E+02  0.76954107461E+02  0.52299717201E+02  0.10129026100E+03  0.00000000000E+00 0. -1.
          1    1    1    2  502    0  0.39054938090E+02 -0.48371926775E+01  0.13321787452E+04  0.13327598793E+04  0.00000000000E+00 0. -1.
         22    1    3    3    0    0 -0.17363260695E+02  0.11910410964E+02 -0.14437520474E+02  0.25530035424E+02  0.00000000000E+00 0. -1.
         22    1    3    3    0    0 -0.61723188711E+02 -0.84027325748E+02  0.17926649643E+03  0.20738085794E+03  0.00000000000E+00 0. -1.
</event>
<event>
 7    1  0.7802682E-006  0.6878550E+02  0.7818608E-02  0.1366835E+00
          2   -1    0    0  502    0  0.00000000000E+00  0.00000000000E+00  0.23258252897E+04  0.23258252897E+04  0.00000000000E+00 0. -1.
          1   -1    0    0  501    0 -0.00000000000E+00 -0.00000000000E+00 -0.10676386132E+04  0.10676386132E+04  0.00000000000E+00 0. -1.
         25    2    1    2    0    0  0.18839707700E+02  0.25405254631E+01  0.95671488011E+02  0.15855686019E+03  0.12500342171E+03 0.  0.
          2    1    1    2  501    0 -0.76942957146E+01 -0.68943711064E+02 -0.10345185094E+04  0.10368418316E+04  0.00000000000E+00 0. -1.
          1    1    1    2  502    0 -0.11145411985E+02  0.66403185601E+02  0.21970336978E+04  0.21980652112E+04  0.00000000000E+00 0. -1.
         22    1    3    3    0    0  0.70617701898E+02 -0.59610171452E+01  0.37362214905E+02  0.80114472159E+02  0.00000000000E+00 0. -1.
         22    1    3    3    0    0 -0.51777994198E+02  0.85015426083E+01  0.58309273106E+02  0.78442388031E+02  0.00000000000E+00 0. -1.
</event>
<event>
 7    1  0.7802682E-006  0.7068407E+02  0.7818608E-02  0.1359178E+00
          2   -1    0    0  502    0  0.00000000000E+00  0.00000000000E+00  0.73282556678E+02  0.73282556678E+02  0.00000000000E+00 0. -1.
          1   -1    0    0  501    0 -0.00000000000E+00 -0.00000000000E+00 -0.30708668773E+03  0.30708668773E+03  0.00000000000E+00 0. -1.
         25    2    1    2    0    0 -0.17900944029E+02  0.46702015152E+02 -0.11204582287E+03  0.17515837580E+03  0.12499867269E+03 0.  0.
          2    1    1    2  501    0  0.64190701515E+02  0.27563075184E+02 -0.85694092282E+02  0.11056060205E+03  0.00000000000E+00 0. -1.
          1    1    1    2  502    0 -0.46289757486E+02 -0.74265090336E+02 -0.36064215909E+02  0.94650266560E+02  0.00000000000E+00 0. -1.
         22    1    3    3    0    0  0.68693651804E+01 -0.17605692705E+02 -0.10408498912E+03  0.10578673619E+03  0.00000000000E+00 0.  1.
         22    1    3    3    0    0 -0.24770309209E+02  0.64307707857E+02 -0.79608337459E+01  0.69371639609E+02  0.00000000000E+00 0.  1.
</event>
<event>
 7    1  0.7802682E-006  0.1283971E+03  0.7818608E-02  0.1265213E+00
          2   -1    0    0  502    0  0.00000000000E+00  0.00000000000E+00  0.47598863266E+03  0.47598863266E+03  0.00000000000E+00 0. -1.
          1   -1    0    0  501    0 -0.00000000000E+00 -0.00000000000E+00 -0.72879671264E+03  0.72879671264E+03  0.00000000000E+00 0. -1.
         25    2    1    2    0    0  0.35376440082E+02  0.24397154615E+02 -0.24952803048E+03  0.28237542400E+03  0.12499971367E+03 0.  0.
          2    1    1    2  501    0 -0.10674207452E+03  0.82339763679E+02 -0.44366235972E+03  0.46369170424E+03  0.00000000000E+00 0. -1.
          1    1    1    2  502    0  0.71365634442E+02 -0.10673691829E+03  0.44038231022E+03  0.45871821706E+03  0.00000000000E+00 0. -1.
         22    1    3    3    0    0 -0.36153887565E+02  0.30178413987E+02 -0.16451299345E+03  0.17112090834E+03  0.00000000000E+00 0. -1.
         22    1    3    3    0    0  0.71530327647E+02 -0.57812593720E+01 -0.85015037029E+02  0.11125451566E+03  0.00000000000E+00 0. -1.
</event>
<event>
 7    1  0.7802682E-006  0.1090972E+03  0.7818608E-02  0.1362580E+00
          2   -1    0    0  502    0  0.00000000000E+00  0.00000000000E+00  0.50131730659E+03  0.50131730659E+03  0.00000000000E+00 0. -1.
          1   -1    0    0  501    0 -0.00000000000E+00 -0.00000000000E+00 -0.18412070904E+03  0.18412070904E+03  0.00000000000E+00 0. -1.
         25    2    1    2    0    0 -0.80833322956E+02 -0.45982663353E+02  0.89979468833E+02  0.17991466082E+03  0.12499819574E+03 0.  0.
          2    1    1    2  501    0  0.69948059322E+02  0.88601402310E+02 -0.11461590997E+03  0.16087183194E+03  0.00000000000E+00 0. -1.
          1    1    1    2  502    0  0.10885263634E+02 -0.42618738956E+02  0.34183303869E+03  0.34465152286E+03  0.00000000000E+00 0. -1.
         22    1    3    3    0    0 -0.11878885953E+02 -0.71884576921E+02  0.14190745555E+02  0.74228549696E+02  0.00000000000E+00 0.  1.
         22    1    3    3    0    0 -0.68954437003E+02  0.25901913568E+02  0.75788723279E+02  0.10568611113E+03  0.00000000000E+00 0.  1.
</event>
<event>
 7    1  0.7802682E-006  0.5124057E+02  0.7818608E-02  0.1459974E+00
          2   -1    0    0  502    0  0.00000000000E+00  0.00000000000E+00  0.68772249038E+03  0.68772249038E+03  0.00000000000E+00 0. -1.
          1   -1    0    0  501    0 -0.00000000000E+00 -0.00000000000E+00 -0.46876042626E+03  0.46876042626E+03  0.00000000000E+00 0. -1.
         25    2    1    2    0    0  0.34922820062E+02 -0.31593790419E+02  0.53377131886E+02  0.14384779418E+03  0.12500119490E+03 0.  0.
          2    1    1    2  501    0  0.16056082471E+02  0.40773712601E+02 -0.42124768186E+03  0.42352084115E+03  0.00000000000E+00 0. -1.
          1    1    1    2  502    0 -0.50978902533E+02 -0.91799221816E+01  0.58683261410E+03  0.58911428131E+03  0.00000000000E+00 0. -1.
         22    1    3    3    0    0  0.26135692441E+02  0.46379891081E+02  0.99296378965E+01  0.54155022157E+02  0.00000000000E+00 0. -1.
         22    1    3    3    0    0  0.87871276210E+01 -0.77973681500E+02  0.43447493990E+02  0.89692772019E+02  0.00000000000E+00 0. -1.
</event>
<event>
 7    1  0.7802682E-006  0.4349236E+02  0.7818608E-02  0.1542269E+00
          2   -1    0    0  502    0  0.00000000000E+00  0.00000000000E+00  0.99293271329E+03  0.99293271329E+03  0.00000000000E+00 0. -1.
          1   -1    0    0  501    0 -0.00000000000E+00 -0.00000000000E+00 -0.13521556660E+03  0.13521556660E+03  0.00000000000E+00 0. -1.
         25    2    1    2    0    0 -0.12996302791E+02  0.51008585100E+02  0.16254612667E+03  0.21170010729E+03  0.12499964996E+03 0.  0.
          2    1    1    2  501    0  0.32400620172E+02 -0.28998740124E+02 -0.10608733844E+03  0.11465273871E+03  0.00000000000E+00 0. -1.
          1    1    1    2  502    0 -0.19404317382E+02 -0.22009844975E+02  0.80125835846E+03  0.80179543389E+03  0.00000000000E+00 0. -1.
         22    1    3    3    0    0 -0.48864250472E+02 -0.19820226219E+02  0.89157553898E+02  0.10358390685E+03  0.00000000000E+00 0. -1.
         22    1    3    3    0    0  0.35867947681E+02  0.70828811319E+02  0.73388572773E+02  0.10811620044E+03  0.00000000000E+00 0. -1.
</event>
<event>
 7    1  0.7802682E-006  0.1620542E+03  0.7818608E-02  0.1266484E+00
          2   -1    0    0  502    0  0.00000000000E+00  0.00000000000E+00  0.10039250190E+04  0.10039250190E+04  0.00000000000E+00 0. -1.
          1   -1    0    0  501    0 -0.00000000000E+00 -0.00000000000E+00 -0.40210067297E+03  0.40210067297E+03  0.00000000000E+00 0. -1.
         25    2    1    2    0    0 -0.35590961300E+02 -0.97955795513E+02  0.68333698000E+02  0.17651326415E+03  0.12500153494E+03 0.  0.
          2    1    1    2  501    0  0.36455584343E+02  0.16842421828E+03 -0.32514593092E+03  0.36798859130E+03  0.00000000000E+00 0. -1.
          1    1    1    2  502    0 -0.86462304268E+00 -0.70468422769E+02  0.85863657892E+03  0.86152383649E+03  0.00000000000E+00 0. -1.
         22    1    3    3    0    0 -0.57589436814E+02 -0.27835590926E+02  0.79653116173E+02  0.10215665554E+03  0.00000000000E+00 0.  1.
         22    1    3    3    0    0  0.21998475514E+02 -0.70120204587E+02 -0.11319418173E+02  0.74356608610E+02  0.00000000000E+00 0.  1.
</event>
<event>
 7    1  0.7802682E-006  0.5499495E+02  0.7818608E-02  0.1521991E+00
          2   -1    0    0  502    0  0.00000000000E+00  0.00000000000E+00  0.44950577667E+03  0.44950577667E+03  0.00000000000E+00 0. -1.
          1   -1    0    0  501    0 -0.00000000000E+00 -0.00000000000E+00 -0.98532102436E+02  0.98532102436E+02  0.00000000000E+00 0. -1.
         25    2    1    2    0    0 -0.73378712671E+02  0.10726070631E+02  0.15089550281E+03  0.20951006655E+03  0.12500212458E+03 0.  0.
          2    1    1    2  501    0  0.49353832625E+02 -0.21947628793E+02 -0.57904470341E+02  0.79186027113E+02  0.00000000000E+00 0. -1.
          1    1    1    2  502    0  0.24024880045E+02  0.11221558161E+02  0.25798264176E+03  0.25934178545E+03  0.00000000000E+00 0. -1.
         22    1    3    3    0    0 -0.83994385392E+02  0.32943951668E+02  0.45064498826E+02  0.10085221754E+03  0.00000000000E+00 0.  1.
         22    1    3    3    0    0  0.10615672721E+02 -0.22217881037E+02  0.10583100399E+03  0.10865784900E+03  0.00000000000E+00 0.  1.
</event>
<event>
 7    1  0.7802682E-006  0.2012235E+03  0.7818608E-02  0.1235972E+00
          2   -1    0    0  502    0  0.00000000000E+00  0.00000000000E+00  0.93919057492E+03  0.93919057492E+03  0.00000000000E+00 0. -1.
          1   -1    0    0  501    0 -0.00000000000E+00 -0.00000000000E+00 -0.18104166831E+03  0.18104166831E+03  0.00000000000E+00 0. -1.
         25    2    1    2    0    0  0.15759231460E+03  0.43516764252E+01  0.21626309671E+03  0.29537920404E+03  0.12499948990E+03 0.  0.
          2    1    1    2  501    0  0.61307438854E+02 -0.46481768723E+02 -0.11094583185E+03  0.13501160871E+03  0.00000000000E+00 0. -1.
          1    1    1    2  502    0 -0.21889975345E+03  0.42130092298E+02  0.65283164175E+03  0.68984143048E+03  0.00000000000E+00 0. -1.
         22    1    3    3    0    0  0.16762636144E+03 -0.20392781276E+02  0.20694887809E+03  0.26709979543E+03  0.00000000000E+00 0. -1.
         22    1    3    3    0    0 -0.10034046845E+02  0.24744457701E+02  0.93142186228E+01  0.28279408614E+02  0.00000000000E+00 0. -1.
</event>
<event>
 7    1  0.7802682E-006  0.2370244E+03  0.7818608E-02  0.1230922E+00
          2   -1    0    0  502    0  0.00000000000E+00  0.00000000000E+00  0.22807206731E+04  0.22807206731E+04  0.00000000000E+00 0. -1.
          1   -1    0    0  501    0 -0.00000000000E+00 -0.00000000000E+00 -0.17342792698E+03  0.17342792698E+03  0.00000000000E+00 0. -1.
         25    2    1    2    0    0  0.99079356523E+02  0.21629556858E+03  0.40398854828E+03  0.48521383369E+03  0.12500090155E+03 0.  0.
          2    1    1    2  501    0 -0.65869053885E+02  0.19836062598E+02 -0.11557127178E+03  0.13449505753E+03  0.00000000000E+00 0. -1.
          1    1    1    2  502    0 -0.33210302638E+02 -0.23613163118E+03  0.18188754697E+04  0.18344397089E+04  0.00000000000E+00 0. -1.
         22    1    3    3    0    0 -0.68498326759E+01 -0.88095678932E+01  0.58017156641E+02  0.59080615762E+02  0.00000000000E+00 0.  1.
         22    1    3    3    0    0  0.10592918920E+03  0.22510513648E+03  0.34597139164E+03  0.42613321793E+03  0.00000000000E+00 0.  1.
</event>
<event>
 7    1  0.7802682E-006  0.5792077E+02  0.7818608E-02  0.1500024E+00
          2   -1    0    0  502    0  0.00000000000E+00  0.00000000000E+00  0.19629645258E+04  0.19629645258E+04  0.00000000000E+00 0. -1.
          1   -1    0    0  501    0 -0.00000000000E+00 -0.00000000000E+00 -0.46202187012E+03  0.46202187012E+03  0.00000000000E+00 0. -1.
         25    2    1    2    0    0 -0.95967751547E+01 -0.36916700190E+02 -0.38276779739E+03  0.40446346447E+03  0.12499826609E+03 0.  0.
          2    1    1    2  501    0  0.21481227705E+02 -0.19798264444E+02 -0.64836839950E+02  0.71114205566E+02  0.00000000000E+00 0. -1.
          1    1    1    2  502    0 -0.11884452550E+02  0.56714964633E+02  0.19485472930E+04  0.19494087259E+04  0.00000000000E+00 0. -1.
         22    1    3    3    0    0 -0.45944677351E+02 -0.68472425430E+02 -0.23414725648E+03  0.24824247045E+03  0.00000000000E+00 0. -1.
         22    1    3    3    0    0  0.36347902196E+02  0.31555725241E+02 -0.14862054091E+03  0.15622099402E+03  0.00000000000E+00 0. -1.
</event>
<event>
 7    1  0.7802682E-006  0.5121383E+02  0.7818608E-02  0.1440115E+00
          2   -1    0    0  502    0  0.00000000000E+00  0.00000000000E+00  0.66207983986E+03  0.66207983986E+03  0.00000000000E+00 0. -1.
          1   -1    0    0  501    0 -0.00000000000E+00 -0.00000000000E+00 -0.91052186838E+03  0.91052186838E+03  0.00000000000E+00 0. -1.
         25    2    1    2    0    0 -0.22110657397E+02 -0.72583704044E+02  0.10346851663E+03  0.17913116209E+03  0.12499985615E+03 0.  0.
          2    1    1    2  501    0  0.43697551208E+02  0.26652126110E+02 -0.87070072931E+03  0.87220385910E+03  0.00000000000E+00 0. -1.
          1    1    1    2  502    0 -0.21586893810E+02  0.45931577934E+02  0.51879018417E+03  0.52126668705E+03  0.00000000000E+00 0. -1.
         22    1    3    3    0    0  0.12235542796E+02 -0.85972281090E+02  0.11157615783E+03  0.14138663522E+03  0.00000000000E+00 0. -1.
         22    1    3    3    0    0 -0.34346200194E+02  0.13388577046E+02 -0.81076412027E+01  0.37744526874E+02  0.00000000000E+00 0. -1.
</event>
<event>
 7    1  0.7802682E-006  0.9260924E+02  0.7818608E-02  0.1431264E+00
          2   -1    0    0  502    0  0.00000000000E+00  0.00000000000E+00  0.34775412907E+02  0.34775412907E+02  0.00000000000E+00 0. -1.
          1   -1    0    0  501    0 -0.00000000000E+00 -0.00000000000E+00 -0.16322090754E+04  0.16322090754E+04  0.00000000000E+00 0. -1.
         25    2    1    2    0    0  0.59182235958E+02  0.31990245610E+02 -0.55341797381E+03  0.57133368813E+03  0.12499926634E+03 0.  0.
          2    1    1    2  501    0  0.28898249461E+02  0.80463854369E+01 -0.97814204713E+03  0.97860191984E+03  0.00000000000E+00 0. -1.
          1    1    1    2  502    0 -0.88080485419E+02 -0.40036631047E+02 -0.65873641540E+02  0.11704888033E+03  0.00000000000E+00 0. -1.
         22    1    3    3    0    0  0.18533215978E+02  0.65242023352E+02 -0.45263829137E+03  0.45769140752E+03  0.00000000000E+00 0. -1.
         22    1    3    3    0    0  0.40649019980E+02 -0.33251777742E+02 -0.10077968245E+03  0.11364228061E+03  0.00000000000E+00 0. -1.
</event>
<event>
 7    1  0.7802682E-006  0.1080271E+03  0.7818608E-02  0.1280319E+00
          2   -1    0    0  502    0  0.00000000000E+00  0.00000000000E+00  0.22896038446E+04  0.22896038446E+04  0.00000000000E+00 0. -1.
          1   -1    0    0  501    0 -0.00000000000E+00 -0.00000000000E+00 -0.11340312653E+03  0.11340312653E+03  0.00000000000E+00 0. -1.
         25    2    1    2    0    0 -0.41122278603E+02 -0.13748444546E+03  0.65590116694E+03  0.68295253283E+03  0.12499922705E+03 0.  0.
          2    1    1    2  501    0 -0.43015522520E+02  0.98933235322E+02 -0.69002224777E+02  0.12806024853E+03  0.00000000000E+00 0. -1.
          1    1    1    2  502    0  0.84137801123E+02  0.38551210139E+02  0.15893017759E+04  0.15919941898E+04  0.00000000000E+00 0. -1.
         22    1    3    3    0    0 -0.13172678856E+02  0.21760202169E+02  0.14061228084E+03  0.14289450440E+03  0.00000000000E+00 0. -1.
         22    1    3    3    0    0 -0.27949599748E+02 -0.15924464763E+03  0.51528888610E+03  0.54005802842E+03  0.00000000000E+00 0. -1.
</event>
<event>
 7    1  0.7802682E-006  0.5461059E+02  0.7818608E-02  0.1514634E+00
          2   -1    0    0  502    0  0.00000000000E+00  0.00000000000E+00  0.62799968535E+03  0.62799968535E+03  0.00000000000E+00 0. -1.
          1   -1    0    0  501    0 -0.00000000000E+00 -0.00000000000E+00 -0.45598473481E+03  0.45598473481E+03  0.00000000000E+00 0. -1.
         25    2    1    2    0    0  0.99029234000E+01  0.30791065459E+02 -0.16433298782E+03  0.20898618553E+03  0.12499494891E+03 0.  0.
          2    1    1    2  501    0 -0.14923173731E+02  0.23754039342E+02 -0.26735133371E+03  0.26881906766E+03  0.00000000000E+00 0. -1.
          1    1    1    2  502    0  0.50202503313E+01 -0.54545104801E+02  0.60369927207E+03  0.60617916697E+03  0.00000000000E+00 0. -1.
         22    1    3    3    0    0 -0.41042181204E+01 -0.32839358380E+02 -0.13231326387E+03  0.13638939790E+03  0.00000000000E+00 0. -1.
         22    1    3    3    0    0  0.14007141520E+02  0.63630423839E+02 -0.32019723949E+02  0.72596787624E+02  0.00000000000E+00 0. -1.
</event>
<event>
 7    1  0.7802682E-006  0.3533724E+02  0.7818608E-02  0.1551089E+00
          2   -1    0    0  502    0  0.00000000000E+00  0.00000000000E+00  0.12601537003E+04  0.12601537003E+04  0.00000000000E+00 0. -1.
          1   -1    0    0  501    0 -0.00000000000E+00 -0.00000000000E+00 -0.18460970701E+03  0.18460970701E+03  0.00000000000E+00 0. -1.
         25    2    1    2    0    0  0.40156036465E+01  0.20629443982E+02  0.17414424586E+02  0.12795153457E+03  0.12500653576E+03 0.  0.
          2    1    1    2  501    0  0.30098544283E+02 -0.20261953786E+02 -0.12654617730E+03  0.13164499280E+03  0.00000000000E+00 0. -1.
          1    1    1    2  502    0 -0.34114147929E+02 -0.36749019642E+00  0.11846757460E+04  0.11851668800E+04  0.00000000000E+00 0. -1.
         22    1    3    3    0    0  0.48513813326E+02 -0.46152077742E+01 -0.30801646731E+02  0.57650946806E+02  0.00000000000E+00 0.  1.
         22    1    3    3    0    0 -0.44498209680E+02  0.25244651756E+02  0.48216071317E+02  0.70300587766E+02  0.00000000000E+00 0.  1.
</event>
<event>
 7    1  0.7802682E-006  0.1349503E+03  0.7818608E-02  0.1255092E+00
          2   -1    0    0  502    0  0.00000000000E+00  0.00000000000E+00  0.98486346110E+03  0.98486346110E+03  0.00000000000E+00 0. -1.
          1   -1    0    0  501    0 -0.00000000000E+00 -0.00000000000E+00 -0.21912760653E+03  0.21912760653E+03  0.00000000000E+00 0. -1.
         25    2    1    2    0    0  0.67495615973E+02  0.17398082377E+03  0.19066534844E+03  0.29462401682E+03  0.12500020389E+03 0.  0.
          2    1    1    2  501    0 -0.83931403637E+02 -0.43728078220E+02 -0.14734424810E+03  0.17511982409E+03  0.00000000000E+00 0. -1.
          1    1    1    2  502    0  0.16435787664E+02 -0.13025274555E+03  0.72241475422E+03  0.73424722673E+03  0.00000000000E+00 0. -1.
         22    1    3    3    0    0  0.69050297896E+02  0.11908875847E+03  0.54952950965E+02  0.14822247755E+03  0.00000000000E+00 0.  1.
         22    1    3    3    0    0 -0.15546819238E+01  0.54892065300E+02  0.13571239748E+03  0.14640153926E+03  0.00000000000E+00 0.  1.
</event>
<event>
 7    1  0.7802682E-006  0.6963406E+03  0.7818608E-02  0.1105189E+00
          2   -1    0    0  502    0  0.00000000000E+00  0.00000000000E+00  0.20968739750E+04  0.20968739750E+04  0.00000000000E+00 0. -1.
          1   -1    0    0  501    0 -0.00000000000E+00 -0.00000000000E+00 -0.15073102396E+04  0.15073102396E+04  0.00000000000E+00 0. -1.
         25    2    1    2    0    0  0.72905788428E+03  0.15342818179E+02 -0.87875343377E+02  0.74505510599E+03  0.12499693715E+03 0.  0.
          2    1    1    2  501    0 -0.68306574256E+03  0.72937693470E+02 -0.98105476337E+03  0.11976506855E+04  0.00000000000E+00 0. -1.
          1    1    1    2  502    0 -0.45992141718E+02 -0.88280511649E+02  0.16584938422E+04  0.16614784231E+04  0.00000000000E+00 0. -1.
         22    1    3    3    0    0  0.64992948236E+03 -0.13920927687E+02 -0.10626833472E+03  0.65870713009E+03  0.00000000000E+00 0. -1.
         22    1    3    3    0    0  0.79128401918E+02  0.29263745866E+02  0.18392991342E+02  0.86347975904E+02  0.00000000000E+00 0. -1.
</event>
<event>
 7    1  0.7802682E-006  0.1484848E+03  0.7818608E-02  0.1330472E+00
          2   -1    0    0  502    0  0.00000000000E+00  0.00000000000E+00  0.11718197707E+03  0.11718197707E+03  0.00000000000E+00 0. -1.
          1   -1    0    0  501    0 -0.00000000000E+00 -0.00000000000E+00 -0.12007478715E+04  0.12007478715E+04  0.00000000000E+00 0. -1.
         25    2    1    2    0    0 -0.64690668203E+02 -0.17041694042E+03 -0.70762801094E+03  0.74134287281E+03  0.12500014827E+03 0.  0.
          2    1    1    2  501    0  0.32046160860E+02  0.28017219476E+02 -0.42143002459E+03  0.42357429884E+03  0.00000000000E+00 0. -1.
          1    1    1    2  502    0  0.32644507342E+02  0.14239972094E+03  0.45492141129E+02  0.15301267689E+03  0.00000000000E+00 0. -1.
         22    1    3    3    0    0 -0.71799937184E+02 -0.14714324256E+03 -0.69480675017E+03  0.71383666542E+03  0.00000000000E+00 0.  1.
         22    1    3    3    0    0  0.71092689810E+01 -0.23273697860E+02 -0.12821260767E+02  0.27506207394E+02  0.00000000000E+00 0.  1.
</event>
<event>
 7    1  0.7802682E-006  0.6216265E+02  0.7818608E-02  0.1447540E+00
          2   -1    0    0  502    0  0.00000000000E+00  0.00000000000E+00  0.18670763997E+04  0.18670763997E+04  0.00000000000E+00 0. -1.
          1   -1    0    0  501    0 -0.00000000000E+00 -0.00000000000E+00 -0.16885518630E+03  0.16885518630E+03  0.00000000000E+00 0. -1.
         25    2    1    2    0    0 -0.61358623607E+02  0.63864779588E+01  0.17284269784E+03  0.22204825340E+03  0.12500064340E+03 0.  0.
          2    1    1    2  501    0  0.45735339704E+02 -0.42739064128E+02 -0.13721514212E+03  0.15081891170E+03  0.00000000000E+00 0. -1.
          1    1    1    2  502    0  0.15623283903E+02  0.36352586169E+02  0.16625936577E+04  0.16630644209E+04  0.00000000000E+00 0. -1.
         22    1    3    3    0    0 -0.79624196884E+02  0.24248931080E+02  0.51133403512E+02  0.97686479836E+02  0.00000000000E+00 0. -1.
         22    1    3    3    0    0  0.18265573278E+02 -0.17862453122E+02  0.12170929432E+03  0.12436177356E+03  0.00000000000E+00 0. -1.
</event>
<event>
 7    1  0.7802682E-006  0.1368788E+03  0.7818608E-02  0.1249781E+00
          2   -1    0    0  502    0  0.00000000000E+00  0.00000000000E+00  0.12282880232E+04  0.12282880232E+04  0.00000000000E+00 0. -1.
          1   -1    0    0  501    0 -0.00000000000E+00 -0.00000000000E+00 -0.14316993866E+04  0.14316993866E+04  0.00000000000E+00 0. -1.
         25    2    1    2    0    0 -0.20924749920E+03 -0.68972610785E+02  0.42153654880E+03  0.49179219323E+03  0.12499904953E+03 0.  0.
          2    1    1    2  501    0  0.97551926118E+02  0.12657144902E+02 -0.13897519753E+04  0.13932290316E+04  0.00000000000E+00 0. -1.
          1    1    1    2  502    0  0.11169557308E+03  0.56315465883E+02  0.76480406312E+03  0.77496618489E+03  0.00000000000E+00 0. -1.
         22    1    3    3    0    0 -0.78443610299E+02 -0.12102866654E+01  0.26701362825E+03  0.27830045358E+03  0.00000000000E+00 0. -1.
         22    1    3    3    0    0 -0.13080388890E+03 -0.67762324120E+02  0.15452292055E+03  0.21349173965E+03  0.00000000000E+00 0. -1.
</event>
<event>
 7    1  0.7802682E-006  0.1647463E+03  0.7818608E-02  0.1289416E+00
          2   -1    0    0  502    0  0.00000000000E+00  0.00000000000E+00  0.32538448970E+03  0.32538448970E+03  0.00000000000E+00 0. -1.
          1   -1    0    0  501    0 -0.00000000000E+00 -0.00000000000E+00 -0.16107096718E+04  0.16107096718E+04  0.00000000000E+00 0. -1.
         25    2    1    2    0    0  0.51509599856E+02 -0.10181316793E+03 -0.21628792105E+03  0.27463488537E+03  0.12499878172E+03 0.  0.
          2    1    1    2  501    0  0.23634326817E+02 -0.50427637231E+02 -0.13402952727E+04  0.13414518054E+04  0.00000000000E+00 0. -1.
          1    1    1    2  502    0 -0.75143926673E+02  0.15224080516E+03  0.27125801165E+03  0.32000747078E+03  0.00000000000E+00 0. -1.
         22    1    3    3    0    0 -0.38563389223E+02 -0.27737856901E+02 -0.95918777967E+02  0.10703707610E+03  0.00000000000E+00 0. -1.
         22    1    3    3    0    0  0.90072989079E+02 -0.74075311030E+02 -0.12036914308E+03  0.16759780927E+03  0.00000000000E+00 0. -1.
</event>
<event>
 7    1  0.7802682E-006  0.8389573E+02  0.7818608E-02  0.1391364E+00
          2   -1    0    0  502    0  0.00000000000E+00  0.00000000000E+00  0.11941772658E+04  0.11941772658E+04  0.00000000000E+00 0. -1.
          1   -1    0    0  501    0 -0.00000000000E+00 -0.00000000000E+00 -0.12078136898E+03  0.12078136898E+03  0.00000000000E+00 0. -1.
         25    2    1    2    0    0  0.10185152898E+02 -0.51888865423E+02  0.36821063022E+03  0.39242875716E+03  0.12500027815E+03 0.  0.
          2    1    1    2  501    0 -0.52613939164E+02  0.67424474136E+02 -0.91105637608E+02  0.12495808702E+03  0.00000000000E+00 0. -1.
          1    1    1    2  502    0  0.42428786266E+02 -0.15535608713E+02  0.79629090422E+03  0.79757179062E+03  0.00000000000E+00 0. -1.
         22    1    3    3    0    0  0.21952130605E+02 -0.31263811766E+02  0.36664698783E+03  0.36863170733E+03  0.00000000000E+00 0.  1.
         22    1    3    3    0    0 -0.11766977707E+02 -0.20625053657E+02  0.15636423900E+01  0.23797049822E+02  0.00000000000E+00 0.  1.
</event>
<event>
 7    1  0.7802682E-006  0.7328821E+02  0.7818608E-02  0.1447997E+00
          2   -1    0    0  502    0  0.00000000000E+00  0.00000000000E+00  0.33778680323E+03  0.33778680323E+03  0.00000000000E+00 0. -1.
          1   -1    0    0  501    0 -0.00000000000E+00 -0.00000000000E+00 -0.22121933659E+04  0.22121933659E+04  0.00000000000E+00 0. -1.
         25    2    1    2    0    0 -0.63640743023E+02  0.85116533338E+02  0.26497183766E+02  0.16619675084E+03  0.12499716326E+03 0.  0.
          2    1    1    2  501    0  0.41025892416E+02 -0.60472284250E+02 -0.21405586571E+04  0.21418056368E+04  0.00000000000E+00 0. -1.
          1    1    1    2  502    0  0.22614850607E+02 -0.24644249087E+02  0.23965491075E+03  0.24197778148E+03  0.00000000000E+00 0. -1.
         22    1    3    3    0    0 -0.10005393793E+03  0.45614772708E+02  0.23124901352E+02  0.11236662782E+03  0.00000000000E+00 0.  1.
         22    1    3    3    0    0  0.36413194907E+02  0.39501760629E+02  0.33722824136E+01  0.53830123024E+02  0.00000000000E+00 0.  1.
</event>
<event>
 7    1  0.7802682E-006  0.1184158E+03  0.7818608E-02  0.1287751E+00
          2   -1    0    0  502    0  0.00000000000E+00  0.00000000000E+00  0.24765336220E+04  0.24765336220E+04  0.00000000000E+00 0. -1.
          1   -1    0    0  501    0 -0.00000000000E+00 -0.00000000000E+00 -0.15816511366E+03  0.15816511366E+03  0.00000000000E+00 0. -1.
         25    2    1    2    0    0  0.15504640675E+03  0.74276383054E+02  0.70183511721E+03  0.73331697757E+03  0.12499955409E+03 0.  0.
          2    1    1    2  501    0 -0.11692324502E+03 -0.54254031530E+01 -0.11733118024E+03  0.16573197061E+03  0.00000000000E+00 0. -1.
          1    1    1    2  502    0 -0.38123161733E+02 -0.68850979901E+02  0.17338645714E+04  0.17356497875E+04  0.00000000000E+00 0. -1.
         22    1    3    3    0    0  0.13358880212E+03 -0.12568125827E+01  0.41881793024E+03  0.43960892429E+03  0.00000000000E+00 0. -1.
         22    1    3    3    0    0  0.21457604625E+02  0.75533195637E+02  0.28301718697E+03  0.29370805328E+03  0.00000000000E+00 0. -1.
</event>
<event>
 7    1  0.7802682E-006  0.7718989E+02  0.7818608E-02  0.1426716E+00
          2   -1    0    0  502    0  0.00000000000E+00  0.00000000000E+00  0.32384754441E+03  0.32384754441E+03  0.00000000000E+00 0. -1.
          1   -1    0    0  501    0 -0.00000000000E+00 -0.00000000000E+00 -0.10924301831E+04  0.10924301831E+04  0.00000000000E+00 0. -1.
         25    2    1    2    0    0 -0.99362353993E+02  0.50646365690E+02  0.22385317674E+02  0.16901387501E+03  0.12500662282E+03 0.  0.
          2    1    1    2  501    0  0.32237589848E+02 -0.18671003159E+02 -0.10127066534E+04  0.10133916491E+04  0.00000000000E+00 0. -1.
          1    1    1    2  502    0  0.67124764144E+02 -0.31975362531E+02  0.22173869705E+03  0.23387220343E+03  0.00000000000E+00 0. -1.
         22    1    3    3    0    0 -0.66087599873E+02  0.26202022381E+02 -0.49143044167E+02  0.86424276820E+02  0.00000000000E+00 0.  1.
         22    1    3    3    0    0 -0.33274754119E+02  0.24444343309E+02  0.71528361841E+02  0.82589598190E+02  0.00000000000E+00 0.  1.
</event>
<event>
 7    1  0.7802682E-006  0.9586250E+02  0.7818608E-02  0.1431199E+00
          2   -1    0    0  502    0  0.00000000000E+00  0.00000000000E+00  0.13398321037E+04  0.13398321037E+04  0.00000000000E+00 0. -1.
          1   -1    0    0  501    0 -0.00000000000E+00 -0.00000000000E+00 -0.10585795138E+04  0.10585795138E+04  0.00000000000E+00 0. -1.
         25    2    1    2    0    0 -0.58474996217E+02  0.57559412036E+02 -0.14559987789E+03  0.20870672275E+03  0.12500704213E+03 0.  0.
          2    1    1    2  501    0  0.11915661375E+02  0.26432118265E+02 -0.87942467621E+03  0.87990249516E+03  0.00000000000E+00 0. -1.
          1    1    1    2  502    0  0.46559334842E+02 -0.83991530301E+02  0.13062771441E+04  0.13098023996E+04  0.00000000000E+00 0. -1.
         22    1    3    3    0    0 -0.47354169241E+02 -0.16282805639E+02 -0.11955789705E+03  0.12962113196E+03  0.00000000000E+00 0. -1.
         22    1    3    3    0    0 -0.11120826976E+02  0.73842217676E+02 -0.26041980837E+02  0.79085590785E+02  0.00000000000E+00 0. -1.
</event>
<event>
 7    1  0.7802682E-006  0.1616202E+03  0.7818608E-02  0.1335148E+00
          2   -1    0    0  502    0  0.00000000000E+00  0.00000000000E+00  0.70394948069E+02  0.70394948069E+02  0.00000000000E+00 0. -1.
          1   -1    0    0  501    0 -0.00000000000E+00 -0.00000000000E+00 -0.99467037937E+03  0.99467037937E+03  0.00000000000E+00 0. -1.
         25    2    1    2    0    0  0.14149363961E+03 -0.22362136614E+02 -0.51016090157E+03  0.54443508696E+03  0.12499961288E+03 0.  0.
          2    1    1    2  501    0 -0.17876384775E+03  0.26836473246E+02 -0.43956159875E+03  0.47528003183E+03  0.00000000000E+00 0. -1.
          1    1    1    2  502    0  0.37270208134E+02 -0.44743366317E+01  0.25447069020E+02  0.45350208648E+02  0.00000000000E+00 0. -1.
         22    1    3    3    0    0  0.13982600902E+03  0.16084337140E+02 -0.30788272391E+03  0.33852886197E+03  0.00000000000E+00 0.  1.
         22    1    3    3    0    0  0.16676305903E+01 -0.38446473754E+02 -0.20227817766E+03  0.20590622500E+03  0.00000000000E+00 0.  1.
</event>
<event>
 7    1  0.7802682E-006  0.4313656E+02  0.7818608E-02  0.1547401E+00
          2   -1    0    0  502    0  0.00000000000E+00  0.00000000000E+00  0.15796556830E+03  0.15796556830E+03  0.00000000000E+00 0. -1.
          1   -1    0    0  501    0 -0.00000000000E+00 -0.00000000000E+00 -0.25709550296E+03  0.25709550296E+03  0.00000000000E+00 0. -1.
         25    2    1    2    0    0 -0.88254294535E+01 -0.60892986228E+02 -0.13070376327E+03  0.19103471182E+03  0.12499977364E+03 0.  0.
          2    1    1    2  501    0  0.20722270132E+02  0.19738435854E+02 -0.90361177170E+02  0.94784812438E+02  0.00000000000E+00 0. -1.
          1    1    1    2  502    0 -0.11896840679E+02  0.41154550374E+02  0.12193500579E+03  0.12924154700E+03  0.00000000000E+00 0. -1.
         22    1    3    3    0    0 -0.46343170858E+02 -0.76390470499E+02 -0.54403336166E+02  0.10460839572E+03  0.00000000000E+00 0.  1.
         22    1    3    3    0    0  0.37517741405E+02  0.15497484272E+02 -0.76300427107E+02  0.86426316106E+02  0.00000000000E+00 0.  1.
</event>
<event>
 7    1  0.7802682E-006  0.2141759E+03  0.7818608E-02  0.1265798E+00
          2   -1    0    0  502    0  0.00000000000E+00  0.00000000000E+00  0.22148868219E+04  0.22148868219E+04  0.00000000000E+00 0. -1.
          1   -1    0    0  501    0 -0.00000000000E+00 -0.00000000000E+00 -0.22702609724E+03  0.22702609724E+03  0.00000000000E+00 0. -1.
         25    2    1    2    0    0  0.80127709991E+02 -0.15292303420E+03  0.20660436520E+03  0.29684025564E+03  0.12499147710E+03 0.  0.
          2    1    1    2  501    0 -0.11237313253E+03  0.19583925416E+03 -0.11131686120E+03  0.25173831249E+03  0.00000000000E+00 0. -1.
          1    1    1    2  502    0  0.32245422537E+02 -0.42916219958E+02  0.18925732206E+04  0.18933343510E+04  0.00000000000E+00 0. -1.
         22    1    3    3    0    0  0.87412076345E+02 -0.44517136630E+02  0.62300788491E+02  0.11620686207E+03  0.00000000000E+00 0. -1.
         22    1    3    3    0    0 -0.72843663547E+01 -0.10840589758E+03  0.14430357671E+03  0.18063339357E+03  0.00000000000E+00 0. -1.
</event>
<event>
 7    1  0.7802682E-006  0.8002892E+02  0.7818608E-02  0.1475696E+00
          2   -1    0    0  502    0  0.00000000000E+00  0.00000000000E+00  0.58050536685E+03  0.58050536685E+03  0.00000000000E+00 0. -1.
          1   -1    0    0  501    0 -0.00000000000E+00 -0.00000000000E+00 -0.32933371847E+03  0.32933371847E+03  0.00000000000E+00 0. -1.
         25    2    1    2    0    0 -0.49103641907E-01 -0.79624848013E+02  0.25298441946E+03  0.29320480333E+03  0.12501128498E+03 0.  0.
          2    1    1    2  501    0  0.24926704139E+02  0.25884537226E+01 -0.30336828105E+03  0.30440163373E+03  0.00000000000E+00 0. -1.
          1    1    1    2  502    0 -0.24877600497E+02  0.77036394291E+02  0.30155550996E+03  0.31223264826E+03  0.00000000000E+00 0. -1.
         22    1    3    3    0    0  0.25103132634E+02 -0.87396260390E+02  0.25081614233E+03  0.26679020006E+03  0.00000000000E+00 0. -1.
         22    1    3    3    0    0 -0.25152236275E+02  0.77714123764E+01  0.21682771379E+01  0.26414603267E+02  0.00000000000E+00 0. -1.
</event>
<event>
 7    1  0.7802682E-006  0.7295578E+02  0.7818608E-02  0.1367227E+00
          2   -1    0    0  502    0  0.00000000000E+00  0.00000000000E+00  0.17854990483E+03  0.17854990483E+03  0.00000000000E+00 0. -1.
          1   -1    0    0  501    0 -0.00000000000E+00 -0.00000000000E+00 -0.66305491869E+03  0.66305491869E+03  0.00000000000E+00 0. -1.
         25    2    1    2    0    0 -0.48639672019E+02 -0.32921924244E+01 -0.27092292039E+03  0.30233762867E+03  0.12502862351E+03 0.  0.
          2    1    1    2  501    0  0.20341100125E+02  0.70536049813E+02 -0.36440501835E+03  0.37172585608E+03  0.00000000000E+00 0. -1.
          1    1    1    2  502    0  0.28298571894E+02 -0.67243857389E+02  0.15082292487E+03  0.16754133877E+03  0.00000000000E+00 0. -1.
         22    1    3    3    0    0 -0.60688790794E+02  0.36050068830E+02 -0.78521741198E+02  0.10558598691E+03  0.00000000000E+00 0.  1.
         22    1    3    3    0    0  0.12049118775E+02 -0.39342261254E+02 -0.19240117919E+03  0.19675164177E+03  0.00000000000E+00 0.  1.
</event>
<event>
 7    1  0.7802682E-006  0.1192016E+03  0.7818608E-02  0.1286258E+00
          2   -1    0    0  502    0  0.00000000000E+00  0.00000000000E+00  0.59826788878E+03  0.59826788878E+03  0.00000000000E+00 0. -1.
          1   -1    0    0  501    0 -0.00000000000E+00 -0.00000000000E+00 -0.36239814435E+03  0.36239814435E+03  0.00000000000E+00 0. -1.
         25    2    1    2    0    0 -0.11064593631E+03  0.48603681302E+02  0.40293027123E+03  0.43884209201E+03  0.12499894873E+03 0.  0.
          2    1    1    2  501    0 -0.17804507417E+02 -0.77263091891E+02 -0.31441205584E+03  0.32425534184E+03  0.00000000000E+00 0. -1.
          1    1    1    2  502    0  0.12845044373E+03  0.28659410589E+02  0.14735152905E+03  0.19756859928E+03  0.00000000000E+00 0. -1.
         22    1    3    3    0    0 -0.41922772558E+01 -0.29627857835E+02  0.26741365713E+02  0.40130858310E+02  0.00000000000E+00 0. -1.
         22    1    3    3    0    0 -0.10645365905E+03  0.78231539137E+02  0.37618890552E+03  0.39871123370E+03  0.00000000000E+00 0. -1.
</event>
<event>
 7    1  0.7802682E-006  0.5589273E+02  0.7818608E-02  0.1416102E+00
          2   -1    0    0  502    0  0.00000000000E+00  0.00000000000E+00  0.74774975419E+03  0.74774975419E+03  0.00000000000E+00 0. -1.
          1   -1    0    0  501    0 -0.00000000000E+00 -0.00000000000E+00 -0.76965738460E+02  0.76965738460E+02  0.00000000000E+00 0. -1.
         25    2    1    2    0    0 -0.26066552323E+02 -0.22256911251E+02  0.20769452658E+03  0.24481987683E+03  0.12499968188E+03 0.  0.
          2    1    1    2  501    0 -0.18609616941E+02  0.55714521132E+02 -0.41695411557E+02  0.72034249164E+02  0.00000000000E+00 0. -1.
          1    1    1    2  502    0  0.44676169264E+02 -0.33457609882E+02  0.50478490071E+03  0.50786136666E+03  0.00000000000E+00 0. -1.
         22    1    3    3    0    0  0.22420969966E+02 -0.52738519460E+02  0.46647536123E+02  0.73892110238E+02  0.00000000000E+00 0. -1.
         22    1    3    3    0    0 -0.48487522289E+02  0.30481608210E+02  0.16104699046E+03  0.17092776659E+03  0.00000000000E+00 0. -1.
</event>
<event>
 7    1  0.7802682E-006  0.1080572E+03  0.7818608E-02  0.1402007E+00
          2   -1    0    0  502    0  0.00000000000E+00  0.00000000000E+00  0.55361358050E+02  0.55361358050E+02  0.00000000000E+00 0. -1.
          1   -1    0    0  501    0 -0.00000000000E+00 -0.00000000000E+00 -0.19950245422E+04  0.19950245422E+04  0.00000000000E+00 0. -1.
         25    2    1    2    0    0 -0.13723172525E+02  0.75667589907E+02 -0.67840507794E+02  0.16168256593E+03  0.12500003201E+03 0.  0.
          2    1    1    2  501    0  0.18901875746E+02 -0.10748097498E+03 -0.18405866493E+04  0.18438190406E+04  0.00000000000E+00 0. -1.
          1    1    1    2  502    0 -0.51787032213E+01  0.31813385075E+02 -0.31236027079E+02  0.44884293742E+02  0.00000000000E+00 0. -1.
         22    1    3    3    0    0  0.21407031362E+02  0.86246228496E+02 -0.83364066943E+02  0.12184515000E+03  0.00000000000E+00 0.  1.
         22    1    3    3    0    0 -0.35130203887E+02 -0.10578638589E+02  0.15523559149E+02  0.39837415933E+02  0.00000000000E+00 0.  1.
</event>
<event>
 7    1  0.7802682E-006  0.1084629E+03  0.7818608E-02  0.1444743E+00
          2   -1    0    0  502    0  0.00000000000E+00  0.00000000000E+00  0.85093881100E+03  0.85093881100E+03  0.00000000000E+00 0. -1.
          1   -1    0    0  501    0 -0.00000000000E+00 -0.00000000000E+00 -0.35279652933E+03  0.35279652933E+03  0.00000000000E+00 0. -1.
         25    2    1    2    0    0 -0.87448068452E+02 -0.23540252393E+02  0.14234568076E+03  0.20997186351E+03  0.12499832990E+03 0.  0.
          2    1    1    2  501    0  0.10093002861E+03  0.42361798086E+02 -0.30938581920E+03  0.32817827127E+03  0.00000000000E+00 0. -1.
          1    1    1    2  502    0 -0.13481960154E+02 -0.18821545692E+02  0.66518242011E+03  0.66558520555E+03  0.00000000000E+00 0. -1.
         22    1    3    3    0    0 -0.16056033869E+01  0.62505598904E+01 -0.21592431400E+02  0.22536205424E+02  0.00000000000E+00 0.  1.
         22    1    3    3    0    0 -0.85842465065E+02 -0.29790812284E+02  0.16393811216E+03  0.18743565809E+03  0.00000000000E+00 0.  1.
</event>
<event>
 7    1  0.7802682E-006  0.5968531E+02  0.7818608E-02  0.1411014E+00
          2   -1    0    0  502    0  0.00000000000E+00  0.00000000000E+00  0.53852491976E+03  0.53852491976E+03  0.00000000000E+00 0. -1.
          1   -1    0    0  501    0 -0.00000000000E+00 -0.00000000000E+00 -0.17229271231E+03  0.17229271231E+03  0.00000000000E+00 0. -1.
         25    2    1    2    0    0  0.48034538442E+02  0.98106692177E+02  0.10043359232E+03  0.19402089202E+03  0.12499984056E+03 0.  0.
          2    1    1    2  501    0 -0.35646477104E+02 -0.45161782702E+02 -0.11688044055E+03  0.13027392422E+03  0.00000000000E+00 0. -1.
          1    1    1    2  502    0 -0.12388061338E+02 -0.52944909475E+02  0.38267905568E+03  0.38652281583E+03  0.00000000000E+00 0. -1.
         22    1    3    3    0    0 -0.12153020538E+02  0.10468137862E+03  0.60994586614E+02  0.12176299329E+03  0.00000000000E+00 0. -1.
         22    1    3    3    0    0  0.60187558980E+02 -0.65746864438E+01  0.39439005707E+02  0.72257898731E+02  0.00000000000E+00 0. -1.
</event>
<event>
 7    1  0.7802682E-006  0.1223053E+03  0.7818608E-02  0.1324965E+00
          2   -1    0    0  502    0  0.00000000000E+00  0.00000000000E+00  0.76625337555E+03  0.76625337555E+03  0.00000000000E+00 0. -1.
          1   -1    0    0  501    0 -0.00000000000E+00 -0.00000000000E+00 -0.78436048848E+03  0.78436048848E+03  0.00000000000E+00 0. -1.
         25    2    1    2    0    0 -0.77940673950E+01 -0.97281389971E+02  0.33523202018E+03  0.37085172154E+03  0.12500430271E+03 0.  0.
          2    1    1    2  501    0  0.61274878365E+02  0.10639717321E+03 -0.75982031908E+03  0.76967648169E+03  0.00000000000E+00 0. -1.
          1    1    1    2  502    0 -0.53480810970E+02 -0.91157832379E+01  0.40648118596E+03  0.41008566079E+03  0.00000000000E+00 0. -1.
         22    1    3    3    0    0  0.29284532601E+01 -0.12516659129E+03  0.23511938153E+03  0.26637637843E+03  0.00000000000E+00 0.  1.
         22    1    3    3    0    0 -0.10722520655E+02  0.27885201317E+02  0.10011263865E+03  0.10447534312E+03  0.00000000000E+00 0.  1.
</event>
<event>
 7    1  0.7802682E-006  0.1871171E+03  0.7818608E-02  0.1330321E+00
          2   -1    0    0  502    0  0.00000000000E+00  0.00000000000E+00  0.16055452182E+04  0.16055452182E+04  0.00000000000E+00 0. -1.
          1   -1    0    0  501    0 -0.00000000000E+00 -0.00000000000E+00 -0.25625125511E+03  0.25625125511E+03  0.00000000000E+00 0. -1.
         25    2    1    2    0    0  0.17656878026E+03 -0.87567322805E+02 -0.20525889859E+02  0.23429875836E+03  0.12502010170E+03 0.  0.
          2    1    1    2  501    0 -0.14810132127E+03  0.10583218926E+03 -0.64245526887E+02  0.19303352395E+03  0.00000000000E+00 0. -1.
          1    1    1    2  502    0 -0.28467458993E+02 -0.18264866456E+02  0.14340653798E+04  0.14344641910E+04  0.00000000000E+00 0. -1.
         22    1    3    3    0    0  0.13913192392E+03 -0.68149074350E+02 -0.69386894176E+02  0.16975432151E+03  0.00000000000E+00 0. -1.
         22    1    3    3    0    0  0.37436856343E+02 -0.19418248455E+02  0.48861004317E+02  0.64544436854E+02  0.00000000000E+00 0. -1.
</event>
<event>
 7    1  0.7802682E-006  0.7230369E+02  0.7818608E-02  0.1514349E+00
          2   -1    0    0  502    0  0.00000000000E+00  0.00000000000E+00  0.81008320640E+03  0.81008320640E+03  0.00000000000E+00 0. -1.
          1   -1    0    0  501    0 -0.00000000000E+00 -0.00000000000E+00 -0.29695050146E+03  0.29695050146E+03  0.00000000000E+00 0. -1.
         25    2    1    2    0    0  0.68565436568E+02  0.53503735866E+02  0.47724965414E+03  0.50095465815E+03  0.12499787316E+03 0.  0.
          2    1    1    2  501    0 -0.20534610052E+02 -0.53841992963E+01 -0.28109301271E+03  0.28189349338E+03  0.00000000000E+00 0. -1.
          1    1    1    2  502    0 -0.48030826516E+02 -0.48119536570E+02  0.31697606351E+03  0.32418555633E+03  0.00000000000E+00 0. -1.
         22    1    3    3    0    0  0.72447183387E+02 -0.15394747464E+02  0.16035366597E+03  0.17663207755E+03  0.00000000000E+00 0. -1.
         22    1    3    3    0    0 -0.38817468183E+01  0.68898483330E+02  0.31689598817E+03  0.32432258059E+03  0.00000000000E+00 0. -1.
</event>
<event>
 7    1  0.7802682E-006  0.3629919E+02  0.7818608E-02  0.1597737E+00
          2   -1    0    0  502    0  0.00000000000E+00  0.00000000000E+00  0.17609333767E+04  0.17609333767E+04  0.00000000000E+00 0. -1.
          1   -1    0    0  501    0 -0.00000000000E+00 -0.00000000000E+00 -0.28587393229E+02  0.28587393229E+02  0.00000000000E+00 0. -1.
         25    2    1    2    0    0  0.53776639062E+02  0.22842321213E+01  0.12127533219E+04  0.12203646888E+04  0.12498883705E+03 0.  0.
          2    1    1    2  501    0 -0.21259133841E+02 -0.12860937741E+02 -0.17870852863E+02  0.30605912391E+02  0.00000000000E+00 0. -1.
          1    1    1    2  502    0 -0.32517505221E+02  0.10576705619E+02  0.53746351446E+03  0.53855016872E+03  0.00000000000E+00 0. -1.
         22    1    3    3    0    0  0.58132756290E+02  0.18862062890E+02  0.24664113053E+03  0.25410045659E+03  0.00000000000E+00 0. -1.
         22    1    3    3    0    0 -0.43561172278E+01 -0.16577830768E+02  0.96611219134E+03  0.96626423223E+03  0.00000000000E+00 0. -1.
</event>
<event>
 7    1  0.7802682E-006  0.8752455E+02  0.7818608E-02  0.1429908E+00
          2   -1    0    0  502    0  0.00000000000E+00  0.00000000000E+00  0.13311364188E+04  0.13311364188E+04  0.00000000000E+00 0. -1.
          1   -1    0    0  501    0 -0.00000000000E+00 -0.00000000000E+00 -0.79368060219E+03  0.79368060219E+03  0.00000000000E+00 0. -1.
         25    2    1    2    0    0 -0.30970784733E+02 -0.11229794729E+03  0.38214931895E+03  0.41860845050E+03  0.12499965755E+03 0.  0.
          2    1    1    2  501    0  0.10081498117E+02  0.30441797075E+02 -0.77320106936E+03  0.77386577213E+03  0.00000000000E+00 0. -1.
          1    1    1    2  502    0  0.20889286616E+02  0.81856150211E+02  0.92850756698E+03  0.93234279831E+03  0.00000000000E+00 0. -1.
         22    1    3    3    0    0  0.17344541222E+02 -0.44135812879E+02  0.28725206389E+02  0.55443129158E+02  0.00000000000E+00 0. -1.
         22    1    3    3    0    0 -0.48315325956E+02 -0.68162134407E+02  0.35342411256E+03  0.36316532134E+03  0.00000000000E+00 0. -1.
</event>
<event>
 7    1  0.7802682E-006  0.1527936E+03  0.7818608E-02  0.1213456E+00
          2   -1    0    0  502    0  0.00000000000E+00  0.00000000000E+00  0.27207374169E+04  0.27207374169E+04  0.00000000000E+00 0. -1.
          1   -1    0    0  501    0 -0.00000000000E+00 -0.00000000000E+00 -0.11785099790E+04  0.11785099790E+04  0.00000000000E+00 0. -1.
         25    2    1    2    0    0  0.12655211642E+03 -0.23491026590E+03 -0.15863979549E+03  0.33464801486E+03  0.12499775176E+03 0.  0.
          2    1    1    2  501    0 -0.94630077214E+02  0.11084586923E+03 -0.92459607185E+03  0.93601258235E+03  0.00000000000E+00 0. -1.
          1    1    1    2  502    0 -0.31922039202E+02  0.12406439667E+03  0.26254633053E+04  0.26285867987E+04  0.00000000000E+00 0. -1.
         22    1    3    3    0    0  0.37095985757E+02 -0.70339686928E+02  0.13013105711E+02  0.80579927008E+02  0.00000000000E+00 0.  1.
         22    1    3    3    0    0  0.89456130659E+02 -0.16457057897E+03 -0.17165290120E+03  0.25406808786E+03  0.00000000000E+00 0.  1.
</event>
<event>
 7    1  0.7802682E-006  0.2124776E+03  0.7818608E-02  0.1224704E+00
          2   -1    0    0  502    0  0.00000000000E+00  0.00000000000E+00  0.59523397242E+03  0.59523397242E+03  0.00000000000E+00 0. -1.
          1   -1    0    0  501    0 -0.00000000000E+00 -0.00000000000E+00 -0.78435291998E+03  0.78435291998E+03  0.00000000000E+00 0. -1.
         25    2    1    2    0    0 -0.86864752779E+02  0.18438515720E+03  0.12333196928E+03  0.26903388898E+03  0.12500034921E+03 0.  0.
          2    1    1    2  501    0  0.10609750127E+02 -0.21411431249E+03 -0.69087926299E+03  0.72337518733E+03  0.00000000000E+00 0. -1.
          1    1    1    2  502    0  0.76255002652E+02  0.29729155293E+02  0.37842834615E+03  0.38717781609E+03  0.00000000000E+00 0. -1.
         22    1    3    3    0    0 -0.22201168570E+02 -0.35405171436E+01  0.54092428802E+02  0.58578306575E+02  0.00000000000E+00 0.  1.
         22    1    3    3    0    0 -0.64663584210E+02  0.18792567434E+03  0.69239540481E+02  0.21045558241E+03  0.00000000000E+00 0.  1.
</event>
<event>
 7    1  0.7802682E-006  0.3105846E+03  0.7818608E-02  0.1165081E+00
          2   -1    0    0  502    0  0.00000000000E+00  0.00000000000E+00  0.20803750562E+04  0.20803750562E+04  0.00000000000E+00 0. -1.
          1   -1    0    0  501    0 -0.00000000000E+00 -0.00000000000E+00 -0.36281195181E+03  0.36281195181E+03  0.00000000000E+00 0. -1.
         25    2    1    2    0    0  0.22988550053E+03 -0.19511828521E+02  0.22834206639E+03  0.34784119835E+03  0.12500138071E+03 0.  0.
          2    1    1    2  501    0 -0.33303034700E+03  0.50291819590E+02 -0.20725020685E+03  0.39546318082E+03  0.00000000000E+00 0. -1.
          1    1    1    2  502    0  0.10314484647E+03 -0.30779991069E+02  0.16964712449E+04  0.16998826289E+04  0.00000000000E+00 0. -1.
         22    1    3    3    0    0  0.85404519888E+01 -0.81384602251E+01 -0.14743821106E+02  0.18882640595E+02  0.00000000000E+00 0. -1.
         22    1    3    3    0    0  0.22134504854E+03 -0.11373368296E+02  0.24308588750E+03  0.32895855776E+03  0.00000000000E+00 0. -1.
</event>
<event>
 7    1  0.7802682E-006  0.5582530E+02  0.7818608E-02  0.1437916E+00
          2   -1    0    0  502    0  0.00000000000E+00  0.00000000000E+00  0.27250281369E+03  0.27250281369E+03  0.00000000000E+00 0. -1.
          1   -1    0    0  501    0 -0.00000000000E+00 -0.00000000000E+00 -0.24007770367E+03  0.24007770367E+03  0.00000000000E+00 0. -1.
         25    2    1    2    0    0  0.11437948615E+02 -0.13762447836E+02 -0.21928793702E+02  0.12812166480E+03  0.12495622177E+03 0.  0.
          2    1    1    2  501    0 -0.20628500853E+01  0.60156332146E+02 -0.15685704258E+03  0.16800943858E+03  0.00000000000E+00 0. -1.
          1    1    1    2  502    0 -0.93750985293E+01 -0.46393884310E+02  0.21121094630E+03  0.21644941397E+03  0.00000000000E+00 0. -1.
         22    1    3    3    0    0 -0.25594104444E+02  0.34669868493E+02 -0.45580745155E+02  0.62726886520E+02  0.00000000000E+00 0.  1.
         22    1    3    3    0    0  0.37032053058E+02 -0.48432316329E+02  0.23651951452E+02  0.65394778279E+02  0.00000000000E+00 0.  1.
</event>
<event>
 7    1  0.1429760E-005  0.6354177E+02  0.7818608E-02  0.1479214E+00
          2   -1    0    0  502    0  0.00000000000E+00  0.00000000000E+00  0.15495759183E+04  0.15495759183E+04  0.00000000000E+00 0. -1.
          1   -1    0    0  501    0 -0.00000000000E+00 -0.00000000000E+00 -0.95910593228E+03  0.95910593228E+03  0.00000000000E+00 0. -1.
         25    2    1    2    0    0  0.68963314220E+02 -0.37127490420E+02 -0.45240861861E+03  0.47584914279E+03  0.12499783697E+03 0.  0.
          2    1    1    2  501    0 -0.28436416145E+02 -0.11795923523E+02 -0.49384141876E+03  0.49480008130E+03  0.00000000000E+00 0. -1.
          1    1    1    2  502    0 -0.40526898075E+02  0.48923413943E+02  0.15367200234E+04  0.15380326265E+04  0.00000000000E+00 0. -1.
         22    1    3    3    0    0 -0.19197600278E+02 -0.47423552598E+02 -0.98679666786E+02  0.11115402752E+03  0.00000000000E+00 0.  1.
         22    1    3    3    0    0  0.88160914498E+02  0.10296062178E+02 -0.35372895182E+03  0.36469511527E+03  0.00000000000E+00 0.  1.
</event>
<event>
 7    1  0.7802682E-006  0.1265274E+03  0.7818608E-02  0.1365331E+00
          2   -1    0    0  502    0  0.00000000000E+00  0.00000000000E+00  0.16051826251E+04  0.16051826251E+04  0.00000000000E+00 0. -1.
          1   -1    0    0  501    0 -0.00000000000E+00 -0.00000000000E+00 -0.10170593601E+04  0.10170593601E+04  0.00000000000E+00 0. -1.
         25    2    1    2    0    0 -0.55169820322E+02 -0.73331097354E+02  0.89989372523E+02  0.17928811657E+03  0.12499993066E+03 0.  0.
          2    1    1    2  501    0 -0.19493075884E+02 -0.31526015249E+02 -0.96923815986E+03  0.96994663779E+03  0.00000000000E+00 0. -1.
          1    1    1    2  502    0  0.74662896206E+02  0.10485711260E+03  0.14673720524E+04  0.14730072309E+04  0.00000000000E+00 0. -1.
         22    1    3    3    0    0  0.11232048041E+02 -0.33886704969E+02 -0.22968675471E+02  0.42450297169E+02  0.00000000000E+00 0.  1.
         22    1    3    3    0    0 -0.66401868363E+02 -0.39444392385E+02  0.11295804799E+03  0.13683781940E+03  0.00000000000E+00 0.  1.
</event>
<event>
 7    1  0.7802682E-006  0.1279206E+03  0.7818608E-02  0.1302165E+00
          2   -1    0    0  502    0  0.00000000000E+00  0.00000000000E+00  0.14121596890E+04  0.14121596890E+04  0.00000000000E+00 0. -1.
          1   -1    0    0  501    0 -0.00000000000E+00 -0.00000000000E+00 -0.66707161666E+02  0.66707161666E+02  0.00000000000E+00 0. -1.
         25    2    1    2    0    0 -0.60956661685E+02 -0.12094833264E+03  0.11551843512E+04  0.11697948057E+04  0.12499915366E+03 0.  0.
          2    1    1    2  501    0 -0.23302006007E+01  0.12837176593E+03  0.23474768251E+02  0.13052128128E+03  0.00000000000E+00 0. -1.
          1    1    1    2  502    0  0.63286862285E+02 -0.74234332900E+01  0.16679340792E+03  0.17855076372E+03  0.00000000000E+00 0. -1.
         22    1    3    3    0    0 -0.56598407445E+02 -0.98605511905E+02  0.11305522554E+04  0.11362547377E+04  0.00000000000E+00 0.  1.
         22    1    3    3    0    0 -0.43582542397E+01 -0.22342820736E+02  0.24632095737E+02  0.33540067961E+02  0.00000000000E+00 0.  1.
</event>
<event>
 7    1  0.7802682E-006  0.1522789E+03  0.7818608E-02  0.1325005E+00
          2   -1    0    0  502    0  0.00000000000E+00  0.00000000000E+00  0.45484728227E+03  0.45484728227E+03  0.00000000000E+00 0. -1.
          1   -1    0    0  501    0 -0.00000000000E+00 -0.00000000000E+00 -0.77075587159E+03  0.77075587159E+03  0.00000000000E+00 0. -1.
         25    2    1    2    0    0  0.53747882408E+02 -0.12209899075E+03 -0.34004556308E+03  0.38607708873E+03  0.12501013985E+03 0.  0.
          2    1    1    2  501    0 -0.94092288503E+02  0.13851952529E+03 -0.38930719770E+03  0.42379371376E+03  0.00000000000E+00 0. -1.
          1    1    1    2  502    0  0.40344406095E+02 -0.16420534541E+02  0.41344417146E+03  0.41573235137E+03  0.00000000000E+00 0. -1.
         22    1    3    3    0    0 -0.10991869234E+01 -0.42836735970E+01 -0.17937001681E+03  0.17942452731E+03  0.00000000000E+00 0. -1.
         22    1    3    3    0    0  0.54847069331E+02 -0.11781531715E+03 -0.16067554627E+03  0.20665256142E+03  0.00000000000E+00 0. -1.
</event>
<event>
 7    1  0.7802682E-006  0.1062349E+03  0.7818608E-02  0.1280214E+00
          2   -1    0    0  502    0  0.00000000000E+00  0.00000000000E+00  0.29451083026E+04  0.29451083026E+04  0.00000000000E+00 0. -1.
          1   -1    0    0  501    0 -0.00000000000E+00 -0.00000000000E+00 -0.19951015539E+04  0.19951015539E+04  0.00000000000E+00 0. -1.
         25    2    1    2    0    0 -0.74297833239E+01 -0.17270951717E+03  0.65505293091E+03  0.68891559356E+03  0.12500629482E+03 0.  0.
          2    1    1    2  501    0 -0.43687416475E+02  0.83461592494E+02 -0.19758840481E+04  0.19781284588E+04  0.00000000000E+00 0. -1.
          1    1    1    2  502    0  0.51117199799E+02  0.89247924679E+02  0.22708378658E+04  0.22731658041E+04  0.00000000000E+00 0. -1.
         22    1    3    3    0    0 -0.58621674327E+02 -0.84733180335E+02  0.42568634406E+03  0.43797839680E+03  0.00000000000E+00 0.  1.
         22    1    3    3    0    0  0.51191891003E+02 -0.87976336838E+02  0.22936658685E+03  0.25093719675E+03  0.00000000000E+00 0.  1.
</event>
<event>
 7    1  0.7802682E-006  0.8629185E+02  0.7818608E-02  0.1484031E+00
          2   -1    0    0  502    0  0.00000000000E+00  0.00000000000E+00  0.77893344953E+03  0.77893344953E+03  0.00000000000E+00 0. -1.
          1   -1    0    0  501    0 -0.00000000000E+00 -0.00000000000E+00 -0.78442608681E+03  0.78442608681E+03  0.00000000000E+00 0. -1.
         25    2    1    2    0    0 -0.90786421050E+02  0.57795860319E+02  0.71978859677E+02  0.17997427419E+03  0.12500898932E+03 0.  0.
          2    1    1    2  501    0  0.73657511903E+02 -0.44129479562E+02 -0.72771971970E+03  0.73276792402E+03  0.00000000000E+00 0. -1.
          1    1    1    2  502    0  0.17128909147E+02 -0.13666380756E+02  0.65024822275E+03  0.65061733814E+03  0.00000000000E+00 0. -1.
         22    1    3    3    0    0  0.27891610135E+00  0.46845052891E+02  0.74744086983E+02  0.88211197212E+02  0.00000000000E+00 0.  1.
         22    1    3    3    0    0 -0.91065337151E+02  0.10950807427E+02 -0.27652273068E+01  0.91763076975E+02  0.00000000000E+00 0.  1.
</event>
<event>
 7    1  0.7802682E-006  0.5350413E+02  0.7818608E-02  0.1446830E+00
          2   -1    0    0  502    0  0.00000000000E+00  0.00000000000E+00  0.26189555965E+04  0.26189555965E+04  0.00000000000E+00 0. -1.
          1   -1    0    0  501    0 -0.00000000000E+00 -0.00000000000E+00 -0.96270201978E+03  0.96270201978E+03  0.00000000000E+00 0. -1.
         25    2    1    2    0    0  0.36756217662E+02 -0.65580674466E+02  0.20932123739E+03  0.25513106409E+03  0.12499854016E+03 0.  0.
          2    1    1    2  501    0 -0.49161410096E+02  0.21063776133E+02 -0.93881221142E+03  0.94033445923E+03  0.00000000000E+00 0. -1.
          1    1    1    2  502    0  0.12405192434E+02  0.44516898333E+02  0.23857445508E+04  0.23861920930E+04  0.00000000000E+00 0. -1.
         22    1    3    3    0    0  0.79977920567E+02 -0.26752756337E+02  0.15009294627E+03  0.17216291781E+03  0.00000000000E+00 0.  1.
         22    1    3    3    0    0 -0.43221702905E+02 -0.38827918130E+02  0.59228291125E+02  0.82968146285E+02  0.00000000000E+00 0.  1.
</event>
<event>
 7    1  0.7802682E-006  0.9985382E+02  0.7818608E-02  0.1386861E+00
          2   -1    0    0  502    0  0.00000000000E+00  0.00000000000E+00  0.37648390068E+03  0.37648390068E+03  0.00000000000E+00 0. -1.
          1   -1    0    0  501    0 -0.00000000000E+00 -0.00000000000E+00 -0.93538378665E+03  0.93538378665E+03  0.00000000000E+00 0. -1.
         25    2    1    2    0    0 -0.83170425940E+01 -0.10155430828E+03 -0.21320195660E+02  0.16267367147E+03  0.12500288764E+03 0.  0.
          2    1    1    2  501    0 -0.37400806527E+02  0.12273058903E+02 -0.83468536537E+03  0.83561301298E+03  0.00000000000E+00 0. -1.
          1    1    1    2  502    0  0.45717849121E+02  0.89281249378E+02  0.29710567506E+03  0.31358100288E+03  0.00000000000E+00 0. -1.
         22    1    3    3    0    0  0.56002050995E+01  0.28393900287E+02 -0.12974475499E+02  0.31716129731E+02  0.00000000000E+00 0. -1.
         22    1    3    3    0    0 -0.13917247693E+02 -0.12994820857E+03 -0.83457201609E+01  0.13095754174E+03  0.00000000000E+00 0. -1.
</event>
<event>
 7    1  0.7802682E-006  0.6842834E+02  0.7818608E-02  0.1411061E+00
          2   -1    0    0  502    0  0.00000000000E+00  0.00000000000E+00  0.96957754579E+03  0.96957754579E+03  0.00000000000E+00 0. -1.
          1   -1    0    0  501    0 -0.00000000000E+00 -0.00000000000E+00 -0.20853330195E+02  0.20853330195E+02  0.00000000000E+00 0. -1.
         25    2    1    2    0    0 -0.48377026750E+02 -0.56605664103E+02  0.60263090299E+03  0.61995042624E+03  0.12501994973E+03 0.  0.
          2    1    1    2  501    0 -0.20928877120E+02  0.42540298898E+02  0.63936717368E+02  0.79596474518E+02  0.00000000000E+00 0. -1.
          1    1    1    2  502    0  0.69305903869E+02  0.14065365205E+02  0.28215659523E+03  0.29088397523E+03  0.00000000000E+00 0. -1.
         22    1    3    3    0    0  0.27358762365E+02 -0.73451441661E+01  0.35885262822E+03  0.35996897339E+03  0.00000000000E+00 0. -1.
         22    1    3    3    0    0 -0.75735789115E+02 -0.49260519937E+02  0.24377827478E+03  0.25998145286E+03  0.00000000000E+00 0. -1.
</event>
<event>
 7    1  0.7802682E-006  0.1432278E+03  0.7818608E-02  0.1360116E+00
          2   -1    0    0  502    0  0.00000000000E+00  0.00000000000E+00  0.74933676233E+02  0.74933676233E+02  0.00000000000E+00 0. -1.
          1   -1    0    0  501    0 -0.00000000000E+00 -0.00000000000E+00 -0.84168917538E+03  0.84168917538E+03  0.00000000000E+00 0. -1.
         25    2    1    2    0    0  0.10069850591E+03 -0.11018603559E+03 -0.52848061700E+03  0.56320333257E+03  0.12500031897E+03 0.  0.
          2    1    1    2  501    0 -0.11465796659E+03  0.78959725857E+02 -0.27189181514E+03  0.30546071229E+03  0.00000000000E+00 0. -1.
          1    1    1    2  502    0  0.13959460673E+02  0.31226309735E+02  0.33616932992E+02  0.47958806758E+02  0.00000000000E+00 0. -1.
         22    1    3    3    0    0  0.99562980282E+02 -0.13452730209E+03 -0.48858120767E+03  0.51645133221E+03  0.00000000000E+00 0.  1.
         22    1    3    3    0    0  0.11355256328E+01  0.24341266497E+02 -0.39899409327E+02  0.46752000362E+02  0.00000000000E+00 0.  1.
</event>
<event>
 7    1  0.7802682E-006  0.3302833E+03  0.7818608E-02  0.1134470E+00
          2   -1    0    0  502    0  0.00000000000E+00  0.00000000000E+00  0.19151457092E+04  0.19151457092E+04  0.00000000000E+00 0. -1.
          1   -1    0    0  501    0 -0.00000000000E+00 -0.00000000000E+00 -0.55791540491E+03  0.55791540491E+03  0.00000000000E+00 0. -1.
         25    2    1    2    0    0  0.17186144085E+03  0.34815472997E+03  0.30841352396E+02  0.40905218239E+03  0.12499771217E+03 0.  0.
          2    1    1    2  501    0 -0.23308716772E+03 -0.21616672892E+03 -0.29644289277E+03  0.43466777097E+03  0.00000000000E+00 0. -1.
          1    1    1    2  502    0  0.61225726867E+02 -0.13198800104E+03  0.16228318446E+04  0.16293411607E+04  0.00000000000E+00 0. -1.
         22    1    3    3    0    0  0.17253460157E+03  0.35710197167E+03  0.36768355347E+02  0.39829878090E+03  0.00000000000E+00 0.  1.
         22    1    3    3    0    0 -0.67316071475E+00 -0.89472417081E+01 -0.59270029509E+01  0.10753401486E+02  0.00000000000E+00 0.  1.
</event>
<event>
 7    1  0.7802682E-006  0.1488451E+03  0.7818608E-02  0.1250176E+00
          2   -1    0    0  502    0  0.00000000000E+00  0.00000000000E+00  0.13167181312E+04  0.13167181312E+04  0.00000000000E+00 0. -1.
          1   -1    0    0  501    0 -0.00000000000E+00 -0.00000000000E+00 -0.10220393581E+04  0.10220393581E+04  0.00000000000E+00 0. -1.
         25    2    1    2    0    0 -0.13482552493E+02  0.13708002445E+03  0.23982808425E+03  0.30350531913E+03  0.12500102567E+03 0.  0.
          2    1    1    2  501    0 -0.76235679319E+02 -0.12874436473E+03 -0.98258464343E+03  0.99391124943E+03  0.00000000000E+00 0. -1.
          1    1    1    2  502    0  0.89718231812E+02 -0.83356597238E+01  0.10374353323E+04  0.10413409207E+04  0.00000000000E+00 0. -1.
         22    1    3    3    0    0 -0.69084184171E+02  0.81311666128E+02  0.14948786174E+03  0.18365955559E+03  0.00000000000E+00 0.  1.
         22    1    3    3    0    0  0.55601631679E+02  0.55768358326E+02  0.90340222505E+02  0.11984576354E+03  0.00000000000E+00 0.  1.
</event>
<event>
 7    1  0.7802682E-006  0.8941738E+02  0.7818608E-02  0.1426007E+00
          2   -1    0    0  502    0  0.00000000000E+00  0.00000000000E+00  0.12365106943E+04  0.12365106943E+04  0.00000000000E+00 0. -1.
          1   -1    0    0  501    0 -0.00000000000E+00 -0.00000000000E+00 -0.13956231790E+04  0.13956231790E+04  0.00000000000E+00 0. -1.
         25    2    1    2    0    0 -0.10922918963E+03 -0.22953586076E+02  0.19843310888E+03  0.25972892221E+03  0.12500212538E+03 0.  0.
          2    1    1    2  501    0  0.29153942879E+02 -0.13983295043E+02 -0.13628533924E+04  0.13632369032E+04  0.00000000000E+00 0. -1.
          1    1    1    2  502    0  0.80075246748E+02  0.36936881119E+02  0.10053077989E+04  0.10091680479E+04  0.00000000000E+00 0. -1.
         22    1    3    3    0    0 -0.11099872435E+03 -0.42195359230E+02  0.88471120840E+02  0.14808208660E+03  0.00000000000E+00 0.  1.
         22    1    3    3    0    0  0.17695347257E+01  0.19241773154E+02  0.10996198804E+03  0.11164683561E+03  0.00000000000E+00 0.  1.
</event>
<event>
 7    1  0.7802682E-006  0.6421611E+02  0.7818608E-02  0.1461253E+00
          2   -1    0    0  502    0  0.00000000000E+00  0.00000000000E+00  0.53188392953E+03  0.53188392953E+03  0.00000000000E+00 0. -1.
          1   -1    0    0  501    0 -0.00000000000E+00 -0.00000000000E+00 -0.17321371338E+04  0.17321371338E+04  0.00000000000E+00 0. -1.
         25    2    1    2    0    0 -0.25881541386E+02 -0.37823128238E+02  0.89642444701E+02  0.16050225904E+03  0.12499905620E+03 0.  0.
          2    1    1    2  501    0  0.34741749209E+01  0.64244349073E+02 -0.16953583883E+04  0.16965787547E+04  0.00000000000E+00 0. -1.
          1    1    1    2  502    0  0.22407366466E+02 -0.26421220834E+02  0.40546273930E+03  0.40694004957E+03  0.00000000000E+00 0. -1.
         22    1    3    3    0    0 -0.17874337287E+02 -0.71724879121E+02  0.99821814016E+02  0.12421088830E+03  0.00000000000E+00 0. -1.
         22    1    3    3    0    0 -0.80072040993E+01  0.33901750883E+02 -0.10179369315E+02  0.36291370738E+02  0.00000000000E+00 0. -1.
</event>
<event>
 7    1  0.7802682E-006  0.9580994E+02  0.7818608E-02  0.1318273E+00
          2   -1    0    0  502    0  0.00000000000E+00  0.00000000000E+00  0.10966603745E+04  0.10966603745E+04  0.00000000000E+00 0. -1.
          1   -1    0    0  501    0 -0.00000000000E+00 -0.00000000000E+00 -0.13638851068E+04  0.13638851068E+04  0.00000000000E+00 0. -1.
         25    2    1    2    0    0  0.78064021084E+02  0.12222303777E+03  0.18756486193E+02  0.19237395882E+03  0.12499388748E+03 0.  0.
          2    1    1    2  501    0 -0.68031305959E+02 -0.27849794509E+02 -0.12737422190E+04  0.12758617127E+04  0.00000000000E+00 0. -1.
          1    1    1    2  502    0 -0.10032715125E+02 -0.94373243262E+02  0.98776100046E+03  0.99230980971E+03  0.00000000000E+00 0. -1.
         22    1    3    3    0    0  0.14410601852E+02 -0.22640682939E+02 -0.14763970741E+02  0.30630716638E+02  0.00000000000E+00 0. -1.
         22    1    3    3    0    0  0.63653419232E+02  0.14486372071E+03  0.33520456935E+02  0.16174324218E+03  0.00000000000E+00 0. -1.
</event>
<event>
 7    1  0.7802682E-006  0.1415237E+03  0.7818608E-02  0.1251632E+00
          2   -1    0    0  502    0  0.00000000000E+00  0.00000000000E+00  0.64219551660E+03  0.64219551660E+03  0.00000000000E+00 0. -1.
          1   -1    0    0  501    0 -0.00000000000E+00 -0.00000000000E+00 -0.14053194388E+03  0.14053194388E+03  0.00000000000E+00 0. -1.
         25    2    1    2    0    0 -0.97839898180E+02 -0.12871023858E+03  0.12454395129E+03  0.23932307443E+03  0.12500146783E+03 0.  0.
          2    1    1    2  501    0  0.13521923087E+03  0.43116299979E+02 -0.12754325274E+02  0.14249887205E+03  0.00000000000E+00 0. -1.
          1    1    1    2  502    0 -0.37379332693E+02  0.85593938602E+02  0.38987394670E+03  0.40090551400E+03  0.00000000000E+00 0. -1.
         22    1    3    3    0    0 -0.66027898031E+02 -0.11281985354E+02  0.25507382517E+01  0.67033370627E+02  0.00000000000E+00 0. -1.
         22    1    3    3    0    0 -0.31812000149E+02 -0.11742825323E+03  0.12199321304E+03  0.17228970380E+03  0.00000000000E+00 0. -1.
</event>
<event>
 7    1  0.7802682E-006  0.5935269E+02  0.7818608E-02  0.1435462E+00
          2   -1    0    0  502    0  0.00000000000E+00  0.00000000000E+00  0.67368060366E+03  0.67368060366E+03  0.00000000000E+00 0. -1.
          1   -1    0    0  501    0 -0.00000000000E+00 -0.00000000000E+00 -0.76137990504E+03  0.76137990504E+03  0.00000000000E+00 0. -1.
         25    2    1    2    0    0  0.15655395193E+02  0.47778101105E+01 -0.10935524521E+03  0.16688731926E+03  0.12499955523E+03 0.  0.
          2    1    1    2  501    0 -0.60257388674E+02 -0.12961645362E+02 -0.62093382171E+03  0.62398539092E+03  0.00000000000E+00 0. -1.
          1    1    1    2  502    0  0.44601993482E+02  0.81838352516E+01  0.64258976554E+03  0.64418779852E+03  0.00000000000E+00 0. -1.
         22    1    3    3    0    0 -0.58171202571E+01  0.49652010248E+02 -0.37264740420E+01  0.50130306388E+02  0.00000000000E+00 0. -1.
         22    1    3    3    0    0  0.21472515450E+02 -0.44874200138E+02 -0.10562877117E+03  0.11675701288E+03  0.00000000000E+00 0. -1.
</event>
<event>
 7    1  0.7802682E-006  0.6007535E+02  0.7818608E-02  0.1509200E+00
          2   -1    0    0  502    0  0.00000000000E+00  0.00000000000E+00  0.48027892015E+03  0.48027892015E+03  0.00000000000E+00 0. -1.
          1   -1    0    0  501    0 -0.00000000000E+00 -0.00000000000E+00 -0.14590219808E+04  0.14590219808E+04  0.00000000000E+00 0. -1.
         25    2    1    2    0    0 -0.64948120980E+02  0.38902100614E+02 -0.43256713870E+03  0.45658547618E+03  0.12499734285E+03 0.  0.
          2    1    1    2  501    0  0.39081677914E+02 -0.44451924111E+02 -0.10132076497E+04  0.10149350189E+04  0.00000000000E+00 0. -1.
          1    1    1    2  502    0  0.25866443066E+02  0.55498234965E+01  0.46703172775E+03  0.46778040590E+03  0.00000000000E+00 0. -1.
         22    1    3    3    0    0 -0.74985695228E+02  0.25368936695E+01 -0.39929913571E+03  0.40628695537E+03  0.00000000000E+00 0. -1.
         22    1    3    3    0    0  0.10037574248E+02  0.36365206945E+02 -0.33268002988E+02  0.50298520811E+02  0.00000000000E+00 0. -1.
</event>
<event>
 7    1  0.7802682E-006  0.7444592E+02  0.7818608E-02  0.1399424E+00
          2   -1    0    0  502    0  0.00000000000E+00  0.00000000000E+00  0.12806131695E+04  0.12806131695E+04  0.00000000000E+00 0. -1.
          1   -1    0    0  501    0 -0.00000000000E+00 -0.00000000000E+00 -0.25954526718E+03  0.25954526718E+03  0.00000000000E+00 0. -1.
         25    2    1    2    0    0  0.95829881917E+02 -0.30539444922E+02 -0.16557488860E+03  0.23055546998E+03  0.12499902815E+03 0.  0.
          2    1    1    2  501    0 -0.22387592738E+02  0.42176874136E+02 -0.50921064518E+02  0.69807219054E+02  0.00000000000E+00 0. -1.
          1    1    1    2  502    0 -0.73442289179E+02 -0.11637429214E+02  0.12375638554E+04  0.12397957476E+04  0.00000000000E+00 0. -1.
         22    1    3    3    0    0  0.55334089305E+02 -0.13143741011E+02 -0.17625676657E+03  0.18520547273E+03  0.00000000000E+00 0.  1.
         22    1    3    3    0    0  0.40495792612E+02 -0.17395703911E+02  0.10681877968E+02  0.45349997253E+02  0.00000000000E+00 0.  1.
</event>
<event>
 7    1  0.7802682E-006  0.1871366E+03  0.7818608E-02  0.1350762E+00
          2   -1    0    0  502    0  0.00000000000E+00  0.00000000000E+00  0.67333173723E+03  0.67333173723E+03  0.00000000000E+00 0. -1.
          1   -1    0    0  501    0 -0.00000000000E+00 -0.00000000000E+00 -0.48937064114E+03  0.48937064114E+03  0.00000000000E+00 0. -1.
         25    2    1    2    0    0 -0.79089995930E+02 -0.16358813372E+03  0.25026309400E+03  0.33357647425E+03  0.12500137202E+03 0.  0.
          2    1    1    2  501    0  0.21486373516E+02 -0.18472367058E+02 -0.42330978799E+03  0.42425707914E+03  0.00000000000E+00 0. -1.
          1    1    1    2  502    0  0.57603622414E+02  0.18206050078E+03  0.35700779008E+03  0.40486882498E+03  0.00000000000E+00 0. -1.
         22    1    3    3    0    0  0.39542925088E+01 -0.12577121011E+02 -0.13262876140E+02  0.18700916707E+02  0.00000000000E+00 0. -1.
         22    1    3    3    0    0 -0.83044288438E+02 -0.15101101271E+03  0.26352597014E+03  0.31487555755E+03  0.00000000000E+00 0. -1.
</event>
<event>
 7    1  0.7802682E-006  0.6598064E+02  0.7818608E-02  0.1394299E+00
          2   -1    0    0  502    0  0.00000000000E+00  0.00000000000E+00  0.66569239864E+02  0.66569239864E+02  0.00000000000E+00 0. -1.
          1   -1    0    0  501    0 -0.00000000000E+00 -0.00000000000E+00 -0.13370754352E+04  0.13370754352E+04  0.00000000000E+00 0. -1.
         25    2    1    2    0    0 -0.37179943995E+02 -0.20251561901E+02 -0.72584559857E+02  0.15061696397E+03  0.12499791003E+03 0.  0.
          2    1    1    2  501    0  0.26908494337E+01 -0.56053807689E+02 -0.11595668099E+04  0.11609239668E+04  0.00000000000E+00 0. -1.
          1    1    1    2  502    0  0.34489094561E+02  0.76305369590E+02 -0.38354825585E+02  0.92103744319E+02  0.00000000000E+00 0. -1.
         22    1    3    3    0    0 -0.75002916732E+02 -0.26107827877E+02 -0.78759217110E+02  0.11184842634E+03  0.00000000000E+00 0.  1.
         22    1    3    3    0    0  0.37822972737E+02  0.58562659763E+01  0.61746572528E+01  0.38768537631E+02  0.00000000000E+00 0.  1.
</event>
<event>
 7    1  0.7802682E-006  0.7506182E+02  0.7818608E-02  0.1442319E+00
          2   -1    0    0  502    0  0.00000000000E+00  0.00000000000E+00  0.13842081126E+04  0.13842081126E+04  0.00000000000E+00 0. -1.
          1   -1    0    0  501    0 -0.00000000000E+00 -0.00000000000E+00 -0.42213867919E+02  0.42213867919E+02  0.00000000000E+00 0. -1.
         25    2    1    2    0    0 -0.71685461012E+02 -0.69204217913E+02  0.30106334414E+03  0.34086536448E+03  0.12498812113E+03 0.  0.
          2    1    1    2  501    0  0.33490251530E+02  0.62178911126E+01 -0.72209197888E+01  0.34819546235E+02  0.00000000000E+00 0. -1.
          1    1    1    2  502    0  0.38195209482E+02  0.62986326800E+02  0.10481518203E+04  0.10507370698E+04  0.00000000000E+00 0. -1.
         22    1    3    3    0    0 -0.92561533911E+02 -0.69635094429E+02  0.15596551309E+03  0.19427281130E+03  0.00000000000E+00 0.  1.
         22    1    3    3    0    0  0.20876072899E+02  0.43087651690E+00  0.14509783105E+03  0.14659255318E+03  0.00000000000E+00 0.  1.
</event>
<event>
 7    1  0.7802682E-006  0.1237229E+03  0.7818608E-02  0.1264112E+00
          2   -1    0    0  502    0  0.00000000000E+00  0.00000000000E+00  0.79039755184E+03  0.79039755184E+03  0.00000000000E+00 0. -1.
          1   -1    0    0  501    0 -0.00000000000E+00 -0.00000000000E+00 -0.16881326561E+04  0.16881326561E+04  0.00000000000E+00 0. -1.
         25    2    1    2    0    0  0.38331902969E+02  0.17536593029E+02 -0.12009038418E+03  0.17838996770E+03  0.12499765328E+03 0.  0.
          2    1    1    2  501    0  0.87085811445E+02 -0.36605331935E+02 -0.15321424843E+04  0.15350519473E+04  0.00000000000E+00 0. -1.
          1    1    1    2  502    0 -0.12541771441E+03  0.19068738905E+02  0.75449776416E+03  0.76508829295E+03  0.00000000000E+00 0. -1.
         22    1    3    3    0    0  0.60219078674E+02 -0.37496227371E+02 -0.50884175014E+02  0.87301224334E+02  0.00000000000E+00 0. -1.
         22    1    3    3    0    0 -0.21887175705E+02  0.55032820400E+02 -0.69206209166E+02  0.91088743370E+02  0.00000000000E+00 0. -1.
</event>
<event>
 7    1  0.7802682E-006  0.8892592E+02  0.7818608E-02  0.1425937E+00
          2   -1    0    0  502    0  0.00000000000E+00  0.00000000000E+00  0.68249418077E+03  0.68249418077E+03  0.00000000000E+00 0. -1.
          1   -1    0    0  501    0 -0.00000000000E+00 -0.00000000000E+00 -0.17013178477E+03  0.17013178477E+03  0.00000000000E+00 0. -1.
         25    2    1    2    0    0 -0.91707808699E+01 -0.65570894081E+02  0.13519893031E+03  0.19567301081E+03  0.12500212409E+03 0.  0.
          2    1    1    2  501    0 -0.11842206944E+02  0.90403187208E+02 -0.12445598905E+03  0.15427983450E+03  0.00000000000E+00 0. -1.
          1    1    1    2  502    0  0.21012987814E+02 -0.24832293127E+02  0.50161945474E+03  0.50267312024E+03  0.00000000000E+00 0. -1.
         22    1    3    3    0    0  0.49748801100E+02 -0.63883928631E+02  0.63787610648E+02  0.10307744089E+03  0.00000000000E+00 0.  1.
         22    1    3    3    0    0 -0.58919581969E+02 -0.16869654495E+01  0.71411319664E+02  0.92595569916E+02  0.00000000000E+00 0.  1.
</event>
<event>
 7    1  0.7802682E-006  0.4091311E+02  0.7818608E-02  0.1519265E+00
          2   -1    0    0  502    0  0.00000000000E+00  0.00000000000E+00  0.21285306136E+04  0.21285306136E+04  0.00000000000E+00 0. -1.
          1   -1    0    0  501    0 -0.00000000000E+00 -0.00000000000E+00 -0.15910507972E+03  0.15910507972E+03  0.00000000000E+00 0. -1.
         25    2    1    2    0    0  0.56098609115E+02 -0.43025329920E+02 -0.23847872304E+02  0.14557483872E+03  0.12500031879E+03 0.  0.
          2    1    1    2  501    0 -0.16696199348E+02  0.32230235886E+02 -0.69751784081E+02  0.78631180586E+02  0.00000000000E+00 0. -1.
          1    1    1    2  502    0 -0.39402409767E+02  0.10795094034E+02  0.20630251902E+04  0.20634296740E+04  0.00000000000E+00 0. -1.
         22    1    3    3    0    0 -0.89450501641E+01  0.24619846221E+01  0.41648478433E+02  0.42669322077E+02  0.00000000000E+00 0. -1.
         22    1    3    3    0    0  0.65043659279E+02 -0.45487314542E+02 -0.65496350737E+02  0.10290551665E+03  0.00000000000E+00 0. -1.
</event>
<event>
 7    1  0.7802682E-006  0.1739385E+03  0.7818608E-02  0.1201270E+00
          2   -1    0    0  502    0  0.00000000000E+00  0.00000000000E+00  0.19833022192E+04  0.19833022192E+04  0.00000000000E+00 0. -1.
          1   -1    0    0  501    0 -0.00000000000E+00 -0.00000000000E+00 -0.16486062823E+03  0.16486062823E+03  0.00000000000E+00 0. -1.
         25    2    1    2    0    0 -0.22497535294E+03 -0.32652246752E+02  0.55036831480E+03  0.60844972346E+03  0.12500282153E+03 0.  0.
          2    1    1    2  501    0  0.15503256455E+03 -0.74838591278E+02 -0.76966903054E+02  0.18857310249E+03  0.00000000000E+00 0. -1.
          1    1    1    2  502    0  0.69942788382E+02  0.10749083803E+03  0.13450401792E+04  0.13511400215E+04  0.00000000000E+00 0. -1.
         22    1    3    3    0    0 -0.10821120736E+03  0.18090489088E+02  0.13473098111E+03  0.17375088047E+03  0.00000000000E+00 0.  1.
         22    1    3    3    0    0 -0.11676414557E+03 -0.50742735840E+02  0.41563733370E+03  0.43469884299E+03  0.00000000000E+00 0.  1.
</event>
<event>
 7    1  0.7802682E-006  0.2784766E+03  0.7818608E-02  0.1118227E+00
          2   -1    0    0  502    0  0.00000000000E+00  0.00000000000E+00  0.35657029702E+04  0.35657029702E+04  0.00000000000E+00 0. -1.
          1   -1    0    0  501    0 -0.00000000000E+00 -0.00000000000E+00 -0.12093459684E+04  0.12093459684E+04  0.00000000000E+00 0. -1.
         25    2    1    2    0    0 -0.32529532386E+02 -0.12083918894E+03  0.51651744019E+02  0.18426252058E+03  0.12499797507E+03 0.  0.
          2    1    1    2  501    0 -0.20280334123E+03 -0.58013978085E+02 -0.11269011740E+04  0.11464733197E+04  0.00000000000E+00 0. -1.
          1    1    1    2  502    0  0.23533287362E+03  0.17885316702E+03  0.34316064318E+04  0.34443130984E+04  0.00000000000E+00 0. -1.
         22    1    3    3    0    0 -0.64230989506E+02 -0.35005137177E+02  0.56804986346E+02  0.92616338275E+02  0.00000000000E+00 0.  1.
         22    1    3    3    0    0  0.31701457119E+02 -0.85834051761E+02 -0.51532423277E+01  0.91646182308E+02  0.00000000000E+00 0.  1.
</event>
<event>
 7    1  0.7802682E-006  0.4499342E+02  0.7818608E-02  0.1556322E+00
          2   -1    0    0  502    0  0.00000000000E+00  0.00000000000E+00  0.87320075773E+03  0.87320075773E+03  0.00000000000E+00 0. -1.
          1   -1    0    0  501    0 -0.00000000000E+00 -0.00000000000E+00 -0.12319680429E+03  0.12319680429E+03  0.00000000000E+00 0. -1.
         25    2    1    2    0    0 -0.52561800802E+02  0.31318133314E+01  0.30925684913E+01  0.13566234751E+03  0.12498862905E+03 0.  0.
          2    1    1    2  501    0  0.40230477345E+02  0.19659061615E+02 -0.47860612699E+02  0.65540889976E+02  0.00000000000E+00 0. -1.
          1    1    1    2  502    0  0.12331323457E+02 -0.22790874947E+02  0.79477199766E+03  0.79519432454E+03  0.00000000000E+00 0. -1.
         22    1    3    3    0    0 -0.46073170633E+02  0.50075723162E+02 -0.33445900425E+02  0.75821786827E+02  0.00000000000E+00 0. -1.
         22    1    3    3    0    0 -0.64886301687E+01 -0.46943909830E+02  0.36538468917E+02  0.59840560679E+02  0.00000000000E+00 0. -1.
</event>
<event>
 7    1  0.7802682E-006  0.6014110E+02  0.7818608E-02  0.1473906E+00
          2   -1    0    0  502    0  0.00000000000E+00  0.00000000000E+00  0.74947051237E+03  0.74947051237E+03  0.00000000000E+00 0. -1.
          1   -1    0    0  501    0 -0.00000000000E+00 -0.00000000000E+00 -0.13553958958E+04  0.13553958958E+04  0.00000000000E+00 0. -1.
         25    2    1    2    0    0  0.36926010075E+02 -0.51776239066E+02  0.95628625998E+02  0.16974825486E+03  0.12500130706E+03 0.  0.
          2    1    1    2  501    0 -0.41736593471E+01  0.60026617231E+02 -0.13171863429E+04  0.13185600010E+04  0.00000000000E+00 0. -1.
          1    1    1    2  502    0 -0.32752350728E+02 -0.82503781649E+01  0.61563233347E+03  0.61655815235E+03  0.00000000000E+00 0. -1.
         22    1    3    3    0    0  0.58872657810E+02 -0.33606337158E+01  0.10033748944E+03  0.11638253943E+03  0.00000000000E+00 0. -1.
         22    1    3    3    0    0 -0.21946647735E+02 -0.48415605350E+02 -0.47088634448E+01  0.53365715428E+02  0.00000000000E+00 0. -1.
</event>
<event>
 7    1  0.7802682E-006  0.1114903E+03  0.7818608E-02  0.1335685E+00
          2   -1    0    0  502    0  0.00000000000E+00  0.00000000000E+00  0.13301101396E+03  0.13301101396E+03  0.00000000000E+00 0. -1.
          1   -1    0    0  501    0 -0.00000000000E+00 -0.00000000000E+00 -0.32327771424E+04  0.32327771424E+04  0.00000000000E+00 0. -1.
         25    2    1    2    0    0 -0.76051325995E+02  0.82774414376E+02 -0.63512529418E+02  0.17970861697E+03  0.12500375098E+03 0.  0.
          2    1    1    2  501    0  0.28169012215E+02 -0.10808772868E+03 -0.31002379598E+04  0.31022494834E+04  0.00000000000E+00 0. -1.
          1    1    1    2  502    0  0.47882313779E+02  0.25313314300E+02  0.63984360763E+02  0.83830055923E+02  0.00000000000E+00 0. -1.
         22    1    3    3    0    0 -0.52503347506E+02  0.10830585715E+03 -0.16844153099E+02  0.12153388698E+03  0.00000000000E+00 0.  1.
         22    1    3    3    0    0 -0.23547978489E+02 -0.25531442769E+02 -0.46668376319E+02  0.58174729987E+02  0.00000000000E+00 0.  1.
</event>
<event>
 7    1  0.7802682E-006  0.1698127E+03  0.7818608E-02  0.1290113E+00
          2   -1    0    0  502    0  0.00000000000E+00  0.00000000000E+00  0.65010648157E+03  0.65010648157E+03  0.00000000000E+00 0. -1.
          1   -1    0    0  501    0 -0.00000000000E+00 -0.00000000000E+00 -0.17088080388E+04  0.17088080388E+04  0.00000000000E+00 0. -1.
         25    2    1    2    0    0 -0.21953218498E+03  0.27772337743E+02  0.29133994179E+03  0.38661316929E+03  0.12500039200E+03 0.  0.
          2    1    1    2  501    0  0.16604741809E+03 -0.32321984441E+02 -0.16545109120E+04  0.16631364387E+04  0.00000000000E+00 0. -1.
          1    1    1    2  502    0  0.53484766887E+02  0.45496466981E+01  0.30446941302E+03  0.30916491237E+03  0.00000000000E+00 0. -1.
         22    1    3    3    0    0 -0.87576621340E+02 -0.12465609661E+02  0.34268994880E+02  0.94865273096E+02  0.00000000000E+00 0.  1.
         22    1    3    3    0    0 -0.13195556364E+03  0.40237947404E+02  0.25707094691E+03  0.29174789619E+03  0.00000000000E+00 0.  1.
</event>
<event>
 7    1  0.7802682E-006  0.8328214E+02  0.7818608E-02  0.1413566E+00
          2   -1    0    0  502    0  0.00000000000E+00  0.00000000000E+00  0.40076808719E+03  0.40076808719E+03  0.00000000000E+00 0. -1.
          1   -1    0    0  501    0 -0.00000000000E+00 -0.00000000000E+00 -0.44954884149E+03  0.44954884149E+03  0.00000000000E+00 0. -1.
         25    2    1    2    0    0  0.98639775683E+02 -0.29686157181E+02 -0.34261447974E+02  0.16555648251E+03  0.12499611517E+03 0.  0.
          2    1    1    2  501    0 -0.82110325365E+02 -0.47553251112E+01 -0.34368288924E+03  0.35338738942E+03  0.00000000000E+00 0. -1.
          1    1    1    2  502    0 -0.16529450317E+02  0.34441482292E+02  0.32916358290E+03  0.33137305675E+03  0.00000000000E+00 0. -1.
         22    1    3    3    0    0  0.12257001433E+02  0.42213105478E+02 -0.29746876594E+02  0.53075955246E+02  0.00000000000E+00 0.  1.
         22    1    3    3    0    0  0.86382774249E+02 -0.71899262658E+02 -0.45145713801E+01  0.11248052726E+03  0.00000000000E+00 0.  1.
</event>
<event>
 7    1  0.7802682E-006  0.9678863E+02  0.7818608E-02  0.1418043E+00
          2   -1    0    0  502    0  0.00000000000E+00  0.00000000000E+00  0.52315017632E+03  0.52315017632E+03  0.00000000000E+00 0. -1.
          1   -1    0    0  501    0 -0.00000000000E+00 -0.00000000000E+00 -0.12707756235E+03  0.12707756235E+03  0.00000000000E+00 0. -1.
         25    2    1    2    0    0  0.10564816663E+03 -0.17355905872E+02  0.12665656588E+03  0.20769074967E+03  0.12502319479E+03 0.  0.
          2    1    1    2  501    0 -0.10704870583E+02  0.29893633123E+02 -0.76913705934E+02  0.83210226030E+02  0.00000000000E+00 0. -1.
          1    1    1    2  502    0 -0.94943296043E+02 -0.12537727252E+02  0.34632975402E+03  0.35932676297E+03  0.00000000000E+00 0. -1.
         22    1    3    3    0    0  0.38726212980E+02 -0.69606309282E+02  0.58924387089E+02  0.99079974048E+02  0.00000000000E+00 0.  1.
         22    1    3    3    0    0  0.66921953646E+02  0.52250403410E+02  0.67732178796E+02  0.10861077562E+03  0.00000000000E+00 0.  1.
</event>
<event>
 7    1  0.7802682E-006  0.9489681E+02  0.7818608E-02  0.1406915E+00
          2   -1    0    0  502    0  0.00000000000E+00  0.00000000000E+00  0.24794631659E+04  0.24794631659E+04  0.00000000000E+00 0. -1.
          1   -1    0    0  501    0 -0.00000000000E+00 -0.00000000000E+00 -0.69781420701E+03  0.69781420701E+03  0.00000000000E+00 0. -1.
         25    2    1    2    0    0 -0.88969679741E+02  0.87000392012E+01 -0.51711009126E+03  0.53946189170E+03  0.12499996610E+03 0.  0.
          2    1    1    2  501    0  0.47087924634E+01  0.34996771415E+02 -0.16676621820E+03  0.17046383273E+03  0.00000000000E+00 0. -1.
          1    1    1    2  502    0  0.84260887278E+02 -0.43696810616E+02  0.24655252684E+04  0.24673516485E+04  0.00000000000E+00 0. -1.
         22    1    3    3    0    0 -0.17414149543E+02  0.25668367839E+01 -0.21724391310E+00  0.17603648778E+02  0.00000000000E+00 0.  1.
         22    1    3    3    0    0 -0.71555530198E+02  0.61332024174E+01 -0.51689284734E+03  0.52185824293E+03  0.00000000000E+00 0.  1.
</event>
<event>
 7    1  0.1059792E-005  0.3821908E+02  0.7818608E-02  0.1530086E+00
          2   -1    0    0  502    0  0.00000000000E+00  0.00000000000E+00  0.14582181822E+04  0.14582181822E+04  0.00000000000E+00 0. -1.
          1   -1    0    0  501    0 -0.00000000000E+00 -0.00000000000E+00 -0.74806401301E+03  0.74806401301E+03  0.00000000000E+00 0. -1.
         25    2    1    2    0    0  0.67111624310E+02 -0.30378067425E+01 -0.34778016298E+03  0.37561647338E+03  0.12499397958E+03 0.  0.
          2    1    1    2  501    0 -0.33207998637E+02  0.15614136380E+02 -0.38526739870E+03  0.38701103463E+03  0.00000000000E+00 0. -1.
          1    1    1    2  502    0 -0.33903625673E+02 -0.12576329638E+02  0.14432017309E+04  0.14436546872E+04  0.00000000000E+00 0. -1.
         22    1    3    3    0    0  0.89450126640E+02  0.84475530869E+01 -0.33612438266E+03  0.34792569168E+03  0.00000000000E+00 0.  1.
         22    1    3    3    0    0 -0.22338502330E+02 -0.11485359829E+02 -0.11655780313E+02  0.27690781705E+02  0.00000000000E+00 0.  1.
</event>
<event>
 7    1  0.7802682E-006  0.1238076E+03  0.7818608E-02  0.1401598E+00
          2   -1    0    0  502    0  0.00000000000E+00  0.00000000000E+00  0.10489484004E+03  0.10489484004E+03  0.00000000000E+00 0. -1.
          1   -1    0    0  501    0 -0.00000000000E+00 -0.00000000000E+00 -0.20225111175E+04  0.20225111175E+04  0.00000000000E+00 0. -1.
         25    2    1    2    0    0  0.11218310686E+03 -0.13094338762E+02 -0.93872536165E+03  0.95372249715E+03  0.12499914320E+03 0.  0.
          2    1    1    2  501    0 -0.12438182302E+03  0.38544466965E+02 -0.10702098450E+04  0.10781027901E+04  0.00000000000E+00 0. -1.
          1    1    1    2  502    0  0.12198716156E+02 -0.25450128203E+02  0.91318929167E+02  0.95580670251E+02  0.00000000000E+00 0. -1.
         22    1    3    3    0    0  0.37508175535E+02  0.52270336677E+02 -0.26334585118E+03  0.27109055436E+03  0.00000000000E+00 0.  1.
         22    1    3    3    0    0  0.74674931327E+02 -0.65364675439E+02 -0.67537951046E+03  0.68263194279E+03  0.00000000000E+00 0.  1.
</event>
<event>
 7    1  0.7802682E-006  0.4574514E+02  0.7818608E-02  0.1580580E+00
          2   -1    0    0  502    0  0.00000000000E+00  0.00000000000E+00  0.26797600170E+04  0.26797600170E+04  0.00000000000E+00 0. -1.
          1   -1    0    0  501    0 -0.00000000000E+00 -0.00000000000E+00 -0.75120173097E+01  0.75120173097E+01  0.00000000000E+00 0. -1.
         25    2    1    2    0    0  0.40247984479E+02  0.74427126683E+01  0.12214358295E+04  0.12284971938E+04  0.12499830149E+03 0.  0.
          2    1    1    2  501    0 -0.44653295066E+02  0.14001219636E+02  0.13684648012E+03  0.14462679569E+03  0.00000000000E+00 0. -1.
          1    1    1    2  502    0  0.44053105871E+01 -0.21443932304E+02  0.13139656901E+04  0.13141480448E+04  0.00000000000E+00 0. -1.
         22    1    3    3    0    0  0.53382420459E+02 -0.40673453674E+02  0.96020796875E+03  0.96255044330E+03  0.00000000000E+00 0.  1.
         22    1    3    3    0    0 -0.13134435981E+02  0.48116166342E+02  0.26122786072E+03  0.26594675048E+03  0.00000000000E+00 0.  1.
</event>
<event>
 7    1  0.7802682E-006  0.1559395E+03  0.7818608E-02  0.1337150E+00
          2   -1    0    0  502    0  0.00000000000E+00  0.00000000000E+00  0.42018797650E+03  0.42018797650E+03  0.00000000000E+00 0. -1.
          1   -1    0    0  501    0 -0.00000000000E+00 -0.00000000000E+00 -0.10817439089E+04  0.10817439089E+04  0.00000000000E+00 0. -1.
         25    2    1    2    0    0 -0.12585575840E+03 -0.38943614586E+02  0.48902736017E+02  0.18807757875E+03  0.12500168400E+03 0.  0.
          2    1    1    2  501    0  0.15649317595E+03  0.16073170059E+02 -0.10047998911E+04  0.10170404525E+04  0.00000000000E+00 0. -1.
          1    1    1    2  502    0 -0.30637417549E+02  0.22870444527E+02  0.29434122272E+03  0.29681385409E+03  0.00000000000E+00 0. -1.
         22    1    3    3    0    0  0.24793673095E+02 -0.96316409317E+01  0.16243923238E+02  0.31166645228E+02  0.00000000000E+00 0.  1.
         22    1    3    3    0    0 -0.15064943149E+03 -0.29311973654E+02  0.32658812779E+02  0.15691093353E+03  0.00000000000E+00 0.  1.
</event>
<event>
 7    1  0.7802682E-006  0.2167476E+03  0.7818608E-02  0.1263677E+00
          2   -1    0    0  502    0  0.00000000000E+00  0.00000000000E+00  0.23045672252E+04  0.23045672252E+04  0.00000000000E+00 0. -1.
          1   -1    0    0  501    0 -0.00000000000E+00 -0.00000000000E+00 -0.13751237320E+04  0.13751237320E+04  0.00000000000E+00 0. -1.
         25    2    1    2    0    0  0.56616037783E+00  0.17270598573E+03  0.89557121175E+03  0.92059808178E+03  0.12500141923E+03 0.  0.
          2    1    1    2  501    0  0.33820414690E+02 -0.21453888932E+03 -0.13534242149E+04  0.13707398954E+04  0.00000000000E+00 0. -1.
          1    1    1    2  502    0 -0.34386575068E+02  0.41832903597E+02  0.13872964963E+04  0.13883529800E+04  0.00000000000E+00 0. -1.
         22    1    3    3    0    0 -0.31797603579E+02  0.78291703147E+02  0.18923452684E+03  0.20724474546E+03  0.00000000000E+00 0.  1.
         22    1    3    3    0    0  0.32363763957E+02  0.94414282578E+02  0.70633668491E+03  0.71335333631E+03  0.00000000000E+00 0.  1.
</event>
<event>
 7    1  0.7927017E-006  0.6263562E+02  0.7818608E-02  0.1455298E+00
          2   -1    0    0  502    0  0.00000000000E+00  0.00000000000E+00  0.13169626697E+04  0.13169626697E+04  0.00000000000E+00 0. -1.
          1   -1    0    0  501    0 -0.00000000000E+00 -0.00000000000E+00 -0.12291269818E+04  0.12291269818E+04  0.00000000000E+00 0. -1.
         25    2    1    2    0    0  0.53529228995E+02 -0.74998197391E+02 -0.13591491063E+03  0.20636868320E+03  0.12500025003E+03 0.  0.
          2    1    1    2  501    0 -0.20281025019E+02  0.58555876179E+02 -0.10568090074E+04  0.10586242906E+04  0.00000000000E+00 0. -1.
          1    1    1    2  502    0 -0.33248203976E+02  0.16442321213E+02  0.12805596060E+04  0.12810966777E+04  0.00000000000E+00 0. -1.
         22    1    3    3    0    0  0.12736838706E+02  0.31207795561E+02 -0.69921274201E+01  0.34424459471E+02  0.00000000000E+00 0.  1.
         22    1    3    3    0    0  0.40792390290E+02 -0.10620599295E+03 -0.12892278321E+03  0.17194422373E+03  0.00000000000E+00 0.  1.
</event>
<event>
 7    1  0.7802682E-006  0.6287905E+02  0.7818608E-02  0.1482243E+00
          2   -1    0    0  502    0  0.00000000000E+00  0.00000000000E+00  0.10926141628E+04  0.10926141628E+04  0.00000000000E+00 0. -1.
          1   -1    0    0  501    0 -0.00000000000E+00 -0.00000000000E+00 -0.15373312785E+03  0.15373312785E+03  0.00000000000E+00 0. -1.
         25    2    1    2    0    0  0.23230376944E+02 -0.89442526010E+02  0.14389298927E+03  0.21183399386E+03  0.12501532996E+03 0.  0.
          2    1    1    2  501    0 -0.71227728106E+01  0.29607733254E+02 -0.11675804697E+03  0.12066396850E+03  0.00000000000E+00 0. -1.
          1    1    1    2  502    0 -0.16107604133E+02  0.59834792756E+02  0.91174609262E+03  0.91384932825E+03  0.00000000000E+00 0. -1.
         22    1    3    3    0    0 -0.49441995182E+02 -0.55513552762E+02  0.80750578185E+02  0.10975846803E+03  0.00000000000E+00 0.  1.
         22    1    3    3    0    0  0.72672372127E+02 -0.33928973248E+02  0.63142411083E+02  0.10207552583E+03  0.00000000000E+00 0.  1.
</event>
<event>
 7    1  0.7802682E-006  0.4392461E+02  0.7818608E-02  0.1494973E+00
          2   -1    0    0  502    0  0.00000000000E+00  0.00000000000E+00  0.54791748089E+02  0.54791748089E+02  0.00000000000E+00 0. -1.
          1   -1    0    0  501    0 -0.00000000000E+00 -0.00000000000E+00 -0.13939135385E+04  0.13939135385E+04  0.00000000000E+00 0. -1.
         25    2    1    2    0    0  0.78465948346E+02  0.56678474313E+00 -0.13015769408E+03  0.19678080687E+03  0.12499773730E+03 0.  0.
          2    1    1    2  501    0 -0.39203135079E+02  0.73548135760E+01 -0.12111540644E+04  0.12118106893E+04  0.00000000000E+00 0. -1.
          1    1    1    2  502    0 -0.39262813267E+02 -0.79215983191E+01  0.21899679864E+01  0.40113790464E+02  0.00000000000E+00 0. -1.
         22    1    3    3    0    0  0.63780798859E+02 -0.26288121417E+02 -0.63861503415E+01  0.69280867106E+02  0.00000000000E+00 0. -1.
         22    1    3    3    0    0  0.14685149487E+02  0.26854906160E+02 -0.12377154374E+03  0.12749993976E+03  0.00000000000E+00 0. -1.
</event>
<event>
 7    1  0.7802682E-006  0.6512831E+02  0.7818608E-02  0.1499843E+00
          2   -1    0    0  502    0  0.00000000000E+00  0.00000000000E+00  0.16194174286E+03  0.16194174286E+03  0.00000000000E+00 0. -1.
          1   -1    0    0  501    0 -0.00000000000E+00 -0.00000000000E+00 -0.10523857825E+04  0.10523857825E+04  0.00000000000E+00 0. -1.
         25    2    1    2    0    0 -0.87823636800E+02 -0.21059042483E+02 -0.37003369814E+03  0.40088141863E+03  0.12499799837E+03 0.  0.
          2    1    1    2  501    0  0.24188684756E+02  0.95690312808E+01 -0.65952465098E+03  0.66003744142E+03  0.00000000000E+00 0. -1.
          1    1    1    2  502    0  0.63634952044E+02  0.11490011203E+02  0.13911430949E+03  0.15340866528E+03  0.00000000000E+00 0. -1.
         22    1    3    3    0    0  0.26369368328E+01  0.37129036554E+02 -0.16720647012E+03  0.17129951092E+03  0.00000000000E+00 0.  1.
         22    1    3    3    0    0 -0.90460573633E+02 -0.58188079037E+02 -0.20282722801E+03  0.22958190771E+03  0.00000000000E+00 0.  1.
</event>
<event>
 7    1  0.7802682E-006  0.6642373E+02  0.7818608E-02  0.1437700E+00
          2   -1    0    0  502    0  0.00000000000E+00  0.00000000000E+00  0.70907597451E+03  0.70907597451E+03  0.00000000000E+00 0. -1.
          1   -1    0    0  501    0 -0.00000000000E+00 -0.00000000000E+00 -0.30435384406E+03  0.30435384406E+03  0.00000000000E+00 0. -1.
         25    2    1    2    0    0  0.62755895662E+02 -0.20870138070E+02 -0.12964267868E+03  0.19185318493E+03  0.12500622116E+03 0.  0.
          2    1    1    2  501    0 -0.66358065542E+02 -0.18810753568E+02 -0.13469715919E+03  0.15132931641E+03  0.00000000000E+00 0. -1.
          1    1    1    2  502    0  0.36021698794E+01  0.39680891638E+02  0.66906196832E+03  0.67024731723E+03  0.00000000000E+00 0. -1.
         22    1    3    3    0    0  0.43404870475E+02  0.50731552219E+02 -0.53499847650E+02  0.85556454286E+02  0.00000000000E+00 0.  1.
         22    1    3    3    0    0  0.19351025187E+02 -0.71601690289E+02 -0.76142831033E+02  0.10629673064E+03  0.00000000000E+00 0.  1.
</event>
<event>
 7    1  0.7802682E-006  0.1394859E+03  0.7818608E-02  0.1267302E+00
          2   -1    0    0  502    0  0.00000000000E+00  0.00000000000E+00  0.67193629684E+03  0.67193629684E+03  0.00000000000E+00 0. -1.
          1   -1    0    0  501    0 -0.00000000000E+00 -0.00000000000E+00 -0.48789322661E+03  0.48789322661E+03  0.00000000000E+00 0. -1.
         25    2    1    2    0    0 -0.30948157185E+02  0.10530153976E+03  0.22474177032E+02  0.16785776815E+03  0.12499975595E+03 0.  0.
          2    1    1    2  501    0 -0.42806878893E+02 -0.13933336674E+03 -0.39939272775E+03  0.42515969582E+03  0.00000000000E+00 0. -1.
          1    1    1    2  502    0  0.73755036078E+02  0.34031826982E+02  0.56096162095E+03  0.56681205948E+03  0.00000000000E+00 0. -1.
         22    1    3    3    0    0 -0.62609781153E+02  0.11691273600E+03  0.17686468558E+02  0.13379605265E+03  0.00000000000E+00 0. -1.
         22    1    3    3    0    0  0.31661623968E+02 -0.11611196242E+02  0.47877084741E+01  0.34061715501E+02  0.00000000000E+00 0. -1.
</event>
<event>
 7    1  0.7802682E-006  0.8286982E+02  0.7818608E-02  0.1453889E+00
          2   -1    0    0  502    0  0.00000000000E+00  0.00000000000E+00  0.58963542799E+03  0.58963542799E+03  0.00000000000E+00 0. -1.
          1   -1    0    0  501    0 -0.00000000000E+00 -0.00000000000E+00 -0.10428596516E+03  0.10428596516E+03  0.00000000000E+00 0. -1.
         25    2    1    2    0    0  0.42083650699E+02  0.96076884107E+02  0.24310780128E+03  0.29279519352E+03  0.12500328390E+03 0.  0.
          2    1    1    2  501    0 -0.19249609263E+02 -0.20779751714E+02 -0.71901091596E+02  0.77279444297E+02  0.00000000000E+00 0. -1.
          1    1    1    2  502    0 -0.22834041436E+02 -0.75297132393E+02  0.31414275313E+03  0.32384675534E+03  0.00000000000E+00 0. -1.
         22    1    3    3    0    0  0.39681533669E+02  0.10161173819E+03  0.25615792385E+03  0.27841776416E+03  0.00000000000E+00 0. -1.
         22    1    3    3    0    0  0.24021170300E+01 -0.55348540867E+01 -0.13050122562E+02  0.14377429355E+02  0.00000000000E+00 0. -1.
</event>
<event>
 7    1  0.7802682E-006  0.1155585E+03  0.7818608E-02  0.1407760E+00
          2   -1    0    0  502    0  0.00000000000E+00  0.00000000000E+00  0.24955568872E+03  0.24955568872E+03  0.00000000000E+00 0. -1.
          1   -1    0    0  501    0 -0.00000000000E+00 -0.00000000000E+00 -0.81001383021E+03  0.81001383021E+03  0.00000000000E+00 0. -1.
         25    2    1    2    0    0  0.11393561495E+03  0.36149742764E+02  0.34034249429E+02  0.17626744567E+03  0.12499501596E+03 0.  0.
          2    1    1    2  501    0 -0.15817086584E+02  0.24076260452E+02 -0.71561467231E+03  0.71619425142E+03  0.00000000000E+00 0. -1.
          1    1    1    2  502    0 -0.98118528365E+02 -0.60226003216E+02  0.12112228138E+03  0.16710782184E+03  0.00000000000E+00 0. -1.
         22    1    3    3    0    0  0.37932611071E+02 -0.18340814852E+02 -0.39151619953E+02  0.57516239594E+02  0.00000000000E+00 0. -1.
         22    1    3    3    0    0  0.76003003879E+02  0.54490557616E+02  0.73185869382E+02  0.11875120608E+03  0.00000000000E+00 0. -1.
</event>
<event>
 7    1  0.7802682E-006  0.1511061E+03  0.7818608E-02  0.1279172E+00
          2   -1    0    0  502    0  0.00000000000E+00  0.00000000000E+00  0.10133056717E+03  0.10133056717E+03  0.00000000000E+00 0. -1.
          1   -1    0    0  501    0 -0.00000000000E+00 -0.00000000000E+00 -0.22379985943E+04  0.22379985943E+04  0.00000000000E+00 0. -1.
         25    2    1    2    0    0 -0.81555114368E+02 -0.93050640028E+02 -0.45113713925E+03  0.48421057768E+03  0.12500202733E+03 0.  0.
          2    1    1    2  501    0  0.35247458532E+02 -0.56850555802E+02 -0.16965247514E+04  0.16978429260E+04  0.00000000000E+00 0. -1.
          1    1    1    2  502    0  0.46307655836E+02  0.14990119583E+03  0.10993863578E+02  0.15727565780E+03  0.00000000000E+00 0. -1.
         22    1    3    3    0    0 -0.36280310776E+02 -0.11470935144E+03 -0.36726644955E+03  0.38647010391E+03  0.00000000000E+00 0. -1.
         22    1    3    3    0    0 -0.45274803592E+02  0.21658711411E+02 -0.83870689707E+02  0.97740473767E+02  0.00000000000E+00 0. -1.
</event>
<event>
 7    1  0.1432796E-005  0.6530592E+02  0.7818608E-02  0.1492274E+00
          2   -1    0    0  502    0  0.00000000000E+00  0.00000000000E+00  0.12747016242E+04  0.12747016242E+04  0.00000000000E+00 0. -1.
          1   -1    0    0  501    0 -0.00000000000E+00 -0.00000000000E+00 -0.15671006671E+04  0.15671006671E+04  0.00000000000E+00 0. -1.
         25    2    1    2    0    0  0.12202528123E+02  0.85480978075E+02 -0.52017722073E+03  0.54190906647E+03  0.12500078417E+03 0.  0.
          2    1    1    2  501    0 -0.18112071990E+02 -0.20472831294E+02 -0.10350340943E+04  0.10353949779E+04  0.00000000000E+00 0. -1.
          1    1    1    2  502    0  0.59095438675E+01 -0.65008146781E+02  0.12628122722E+04  0.12644982470E+04  0.00000000000E+00 0. -1.
         22    1    3    3    0    0  0.25689328352E+02  0.10979941515E+03 -0.30946335305E+03  0.32936821346E+03  0.00000000000E+00 0. -1.
         22    1    3    3    0    0 -0.13486800229E+02 -0.24318437073E+02 -0.21071386769E+03  0.21254085301E+03  0.00000000000E+00 0. -1.
</event>
<event>
 7    1  0.7802682E-006  0.1141311E+03  0.7818608E-02  0.1357022E+00
          2   -1    0    0  502    0  0.00000000000E+00  0.00000000000E+00  0.96002303590E+03  0.96002303590E+03  0.00000000000E+00 0. -1.
          1   -1    0    0  501    0 -0.00000000000E+00 -0.00000000000E+00 -0.47276097080E+03  0.47276097080E+03  0.00000000000E+00 0. -1.
         25    2    1    2    0    0 -0.11689028111E+03 -0.99679767845E+02  0.34676556061E+03  0.39933751002E+03  0.12499879578E+03 0.  0.
          2    1    1    2  501    0  0.75487285246E+02  0.84616477568E+02 -0.43842455062E+03  0.45285137197E+03  0.00000000000E+00 0. -1.
          1    1    1    2  502    0  0.41402995862E+02  0.15063290276E+02  0.57892105511E+03  0.58059512470E+03  0.00000000000E+00 0. -1.
         22    1    3    3    0    0 -0.88635451118E+02  0.49520981035E+01  0.17518875657E+03  0.19639721714E+03  0.00000000000E+00 0. -1.
         22    1    3    3    0    0 -0.28254829990E+02 -0.10463186595E+03  0.17157680404E+03  0.20294029288E+03  0.00000000000E+00 0. -1.
</event>
<event>
 7    1  0.7802682E-006  0.6606935E+02  0.7818608E-02  0.1411156E+00
          2   -1    0    0  502    0  0.00000000000E+00  0.00000000000E+00  0.28414026690E+04  0.28414026690E+04  0.00000000000E+00 0. -1.
          1   -1    0    0  501    0 -0.00000000000E+00 -0.00000000000E+00 -0.27808061931E+03  0.27808061931E+03  0.00000000000E+00 0. -1.
         25    2    1    2    0    0  0.50751039930E+02 -0.80517291813E+02  0.49006973335E+03  0.51463767138E+03  0.12499954768E+03 0.  0.
          2    1    1    2  501    0 -0.46636600543E+02  0.15249678570E+02 -0.26307075121E+03  0.26760744637E+03  0.00000000000E+00 0. -1.
          1    1    1    2  502    0 -0.41144393872E+01  0.65267613243E+02  0.23363230676E+04  0.23372381706E+04  0.00000000000E+00 0. -1.
         22    1    3    3    0    0  0.60594086391E+02  0.12706142191E+02  0.23008454194E+03  0.23826872601E+03  0.00000000000E+00 0. -1.
         22    1    3    3    0    0 -0.98430464608E+01 -0.93223434004E+02  0.25998519141E+03  0.27636894537E+03  0.00000000000E+00 0. -1.
</event>
<event>
 7    1  0.7802682E-006  0.1222646E+03  0.7818608E-02  0.1309696E+00
          2   -1    0    0  502    0  0.00000000000E+00  0.00000000000E+00  0.97478735421E+03  0.97478735421E+03  0.00000000000E+00 0. -1.
          1   -1    0    0  501    0 -0.00000000000E+00 -0.00000000000E+00 -0.11562274520E+04  0.11562274520E+04  0.00000000000E+00 0. -1.
         25    2    1    2    0    0 -0.60549544828E+02  0.14028897140E+02 -0.14890671621E+03  0.20411189127E+03  0.12500158675E+03 0.  0.
          2    1    1    2  501    0 -0.62234957840E+02  0.56443920881E+00 -0.97468601934E+03  0.97667105254E+03  0.00000000000E+00 0. -1.
          1    1    1    2  502    0  0.12278450267E+03 -0.14593336348E+02  0.94215263774E+03  0.95023186242E+03  0.00000000000E+00 0. -1.
         22    1    3    3    0    0  0.33300639499E+02 -0.75005271513E+01 -0.10896693183E+02  0.35831946932E+02  0.00000000000E+00 0. -1.
         22    1    3    3    0    0 -0.93850184327E+02  0.21529424291E+02 -0.13801002303E+03  0.16827994433E+03  0.00000000000E+00 0. -1.
</event>
<event>
 7    1  0.7802682E-006  0.9017932E+02  0.7818608E-02  0.1321805E+00
          2   -1    0    0  502    0  0.00000000000E+00  0.00000000000E+00  0.38764484906E+04  0.38764484906E+04  0.00000000000E+00 0. -1.
          1   -1    0    0  501    0 -0.00000000000E+00 -0.00000000000E+00 -0.75178531200E+02  0.75178531200E+02  0.00000000000E+00 0. -1.
         25    2    1    2    0    0 -0.14289365278E+02  0.24539922022E+02  0.88293098949E+03  0.89218731842E+03  0.12499874087E+03 0.  0.
          2    1    1    2  501    0 -0.61917762022E+02  0.43507596827E+02 -0.49122179095E+02  0.90220334262E+02  0.00000000000E+00 0. -1.
          1    1    1    2  502    0  0.76207127300E+02 -0.68047518849E+02  0.29674611490E+04  0.29692193691E+04  0.00000000000E+00 0. -1.
         22    1    3    3    0    0  0.45012428357E+02  0.62819761074E+01  0.15257234139E+03  0.15919767990E+03  0.00000000000E+00 0.  1.
         22    1    3    3    0    0 -0.59301793635E+02  0.18257945915E+02  0.73035864810E+03  0.73298963852E+03  0.00000000000E+00 0.  1.
</event>
<event>
 7    1  0.7802682E-006  0.7941458E+02  0.7818608E-02  0.1478126E+00
          2   -1    0    0  502    0  0.00000000000E+00  0.00000000000E+00  0.75904598485E+02  0.75904598485E+02  0.00000000000E+00 0. -1.
          1   -1    0    0  501    0 -0.00000000000E+00 -0.00000000000E+00 -0.26854575773E+03  0.26854575773E+03  0.00000000000E+00 0. -1.
         25    2    1    2    0    0 -0.56401468333E+02 -0.54324869688E+02 -0.13986548753E+03  0.20330285077E+03  0.12504949992E+03 0.  0.
          2    1    1    2  501    0  0.38651080268E+02  0.71677308852E+02 -0.72818335094E+02  0.10924308919E+03  0.00000000000E+00 0. -1.
          1    1    1    2  502    0  0.17750388064E+02 -0.17352439164E+02  0.20042663380E+02  0.31904416257E+02  0.00000000000E+00 0. -1.
         22    1    3    3    0    0  0.82863165657E+01 -0.20176551110E+02 -0.12721222555E+03  0.12906861193E+03  0.00000000000E+00 0. -1.
         22    1    3    3    0    0 -0.64687784898E+02 -0.34148318578E+02 -0.12653261983E+02  0.74234238836E+02  0.00000000000E+00 0. -1.
</event>
<event>
 7    1  0.7802682E-006  0.5623850E+02  0.7818608E-02  0.1467137E+00
          2   -1    0    0  502    0  0.00000000000E+00  0.00000000000E+00  0.88161518722E+03  0.88161518722E+03  0.00000000000E+00 0. -1.
          1   -1    0    0  501    0 -0.00000000000E+00 -0.00000000000E+00 -0.76195738507E+02  0.76195738507E+02  0.00000000000E+00 0. -1.
         25    2    1    2    0    0 -0.34844497516E+02 -0.37223731228E+02  0.82537858019E+02  0.15821397328E+03  0.12497767065E+03 0.  0.
          2    1    1    2  501    0 -0.21562536603E+02  0.31183192452E+02 -0.27650309913E+02  0.46924131473E+02  0.00000000000E+00 0. -1.
          1    1    1    2  502    0  0.56407034118E+02  0.60405387763E+01  0.75053190061E+03  0.75267282098E+03  0.00000000000E+00 0. -1.
         22    1    3    3    0    0 -0.88042361088E+01 -0.44210452914E+02 -0.22067340281E+02  0.50190100890E+02  0.00000000000E+00 0.  1.
         22    1    3    3    0    0 -0.26040261407E+02  0.69867216856E+01  0.10460519830E+03  0.10802387239E+03  0.00000000000E+00 0.  1.
</event>
<event>
 7    1  0.7802682E-006  0.6765054E+02  0.7818608E-02  0.1507565E+00
          2   -1    0    0  502    0  0.00000000000E+00  0.00000000000E+00  0.12102084755E+04  0.12102084755E+04  0.00000000000E+00 0. -1.
          1   -1    0    0  501    0 -0.00000000000E+00 -0.00000000000E+00 -0.31856368846E+04  0.31856368846E+04  0.00000000000E+00 0. -1.
         25    2    1    2    0    0 -0.86010590014E+02  0.16410356526E+02  0.18113786777E+03  0.23685974193E+03  0.12499795523E+03 0.  0.
          2    1    1    2  501    0  0.67603816773E+02 -0.13937651695E+01 -0.31572729931E+04  0.31579969873E+04  0.00000000000E+00 0. -1.
          1    1    1    2  502    0  0.18406773241E+02 -0.15016591356E+02  0.10007067162E+04  0.10009886309E+04  0.00000000000E+00 0. -1.
         22    1    3    3    0    0  0.21185849588E+02 -0.80839061479E+01  0.93610054925E+02  0.96317351211E+02  0.00000000000E+00 0.  1.
         22    1    3    3    0    0 -0.10719643960E+03  0.24494262673E+02  0.87527812842E+02  0.14054239072E+03  0.00000000000E+00 0.  1.
</event>
<event>
 7    1  0.7802682E-006  0.6007883E+02  0.7818608E-02  0.1521092E+00
          2   -1    0    0  502    0  0.00000000000E+00  0.00000000000E+00  0.11150725723E+04  0.11150725723E+04  0.00000000000E+00 0. -1.
          1   -1    0    0  501    0 -0.00000000000E+00 -0.00000000000E+00 -0.30234131599E+02  0.30234131599E+02  0.00000000000E+00 0. -1.
         25    2    1    2    0    0  0.57165983838E+02  0.39670518228E+02  0.93861020706E+03  0.94945142853E+03  0.12500877820E+03 0.  0.
          2    1    1    2  501    0 -0.57880397497E+02 -0.15262325707E+02  0.14109928540E+02  0.61499342141E+02  0.00000000000E+00 0. -1.
          1    1    1    2  502    0  0.71441365826E+00 -0.24408192521E+02  0.13211830507E+03  0.13435593319E+03  0.00000000000E+00 0. -1.
         22    1    3    3    0    0  0.77038692086E+02 -0.20252661351E+02  0.55292639738E+03  0.55863470291E+03  0.00000000000E+00 0. -1.
         22    1    3    3    0    0 -0.19872708247E+02  0.59923179578E+02  0.38568380967E+03  0.39081672562E+03  0.00000000000E+00 0. -1.
</event>
<event>
 7    1  0.7802682E-006  0.8104476E+02  0.7818608E-02  0.1390716E+00
          2   -1    0    0  502    0  0.00000000000E+00  0.00000000000E+00  0.19008496415E+04  0.19008496415E+04  0.00000000000E+00 0. -1.
          1   -1    0    0  501    0 -0.00000000000E+00 -0.00000000000E+00 -0.76732996816E+03  0.76732996816E+03  0.00000000000E+00 0. -1.
         25    2    1    2    0    0  0.35407665318E+02  0.11025205744E+00 -0.31738174480E+02  0.13372525744E+03  0.12498567054E+03 0.  0.
          2    1    1    2  501    0  0.44939663720E+02  0.13821019031E+02 -0.68289085024E+03  0.68450749250E+03  0.00000000000E+00 0. -1.
          1    1    1    2  502    0 -0.80347329038E+02 -0.13931271089E+02  0.18481486980E+04  0.18499468597E+04  0.00000000000E+00 0. -1.
         22    1    3    3    0    0 -0.65800105443E+01 -0.49169517333E+02  0.17268234635E+02  0.52527420467E+02  0.00000000000E+00 0. -1.
         22    1    3    3    0    0  0.41987675862E+02  0.49279769390E+02 -0.49006409115E+02  0.81197836977E+02  0.00000000000E+00 0. -1.
</event>
<event>
 7    1  0.7802682E-006  0.1916814E+03  0.7818608E-02  0.1316168E+00
          2   -1    0    0  502    0  0.00000000000E+00  0.00000000000E+00  0.25143652806E+04  0.25143652806E+04  0.00000000000E+00 0. -1.
          1   -1    0    0  501    0 -0.00000000000E+00 -0.00000000000E+00 -0.41301181472E+03  0.41301181472E+03  0.00000000000E+00 0. -1.
         25    2    1    2    0    0  0.84032369007E+02 -0.21156221291E+03  0.82047028781E+02  0.27235212047E+03  0.12499581440E+03 0.  0.
          2    1    1    2  501    0 -0.14912435677E+02  0.34346541678E+02 -0.31287069015E+03  0.31510337100E+03  0.00000000000E+00 0. -1.
          1    1    1    2  502    0 -0.69119933331E+02  0.17721567124E+03  0.23321771272E+04  0.23399216038E+04  0.00000000000E+00 0. -1.
         22    1    3    3    0    0  0.22072133526E+02 -0.30715345047E+02  0.71508273188E+02  0.80895269541E+02  0.00000000000E+00 0.  1.
         22    1    3    3    0    0  0.61960235481E+02 -0.18084686787E+03  0.10538755592E+02  0.19145685093E+03  0.00000000000E+00 0.  1.
</event>
<event>
 7    1  0.7802682E-006  0.5090698E+02  0.7818608E-02  0.1442347E+00
          2   -1    0    0  502    0  0.00000000000E+00  0.00000000000E+00  0.15577917189E+04  0.15577917189E+04  0.00000000000E+00 0. -1.
          1   -1    0    0  501    0 -0.00000000000E+00 -0.00000000000E+00 -0.29207742254E+02  0.29207742254E+02  0.00000000000E+00 0. -1.
         25    2    1    2    0    0 -0.10188386629E+02 -0.44600741227E+02  0.28580259925E+03  0.31527876083E+03  0.12499816778E+03 0.  0.
          2    1    1    2  501    0  0.52556057302E+02  0.17647578334E+02  0.41155323208E+02  0.69045903633E+02  0.00000000000E+00 0. -1.
          1    1    1    2  502    0 -0.42367670672E+02  0.26953162893E+02  0.12016260541E+04  0.12026747967E+04  0.00000000000E+00 0. -1.
         22    1    3    3    0    0  0.38470801870E+02 -0.47539118499E+02  0.24244454925E+03  0.25003865670E+03  0.00000000000E+00 0. -1.
         22    1    3    3    0    0 -0.48659188500E+02  0.29383772718E+01  0.43358050007E+02  0.65240104130E+02  0.00000000000E+00 0. -1.
</event>
<event>
 7    1  0.7802682E-006  0.1172009E+03  0.7818608E-02  0.1280518E+00
          2   -1    0    0  502    0  0.00000000000E+00  0.00000000000E+00  0.11771662856E+04  0.11771662856E+04  0.00000000000E+00 0. -1.
          1   -1    0    0  501    0 -0.00000000000E+00 -0.00000000000E+00 -0.21043108993E+03  0.21043108993E+03  0.00000000000E+00 0. -1.
         25    2    1    2    0    0  0.40850258247E+02  0.67667682171E+02  0.77742956924E+03  0.79137233891E+03  0.12500313936E+03 0.  0.
          2    1    1    2  501    0 -0.10745761137E+03  0.46785931326E+02 -0.17385703085E+03  0.20967195518E+03  0.00000000000E+00 0. -1.
          1    1    1    2  502    0  0.66607353128E+02 -0.11445361350E+03  0.36316265732E+03  0.38655308149E+03  0.00000000000E+00 0. -1.
         22    1    3    3    0    0  0.26561734263E+02  0.64021298420E+02  0.16763391062E+03  0.18139840233E+03  0.00000000000E+00 0.  1.
         22    1    3    3    0    0  0.14288523983E+02  0.36463837514E+01  0.60979565862E+03  0.60997393658E+03  0.00000000000E+00 0.  1.
</event>
<event>
 7    1  0.7802682E-006  0.8199034E+02  0.7818608E-02  0.1428007E+00
          2   -1    0    0  502    0  0.00000000000E+00  0.00000000000E+00  0.30860045680E+04  0.30860045680E+04  0.00000000000E+00 0. -1.
          1   -1    0    0  501    0 -0.00000000000E+00 -0.00000000000E+00 -0.12413406724E+03  0.12413406724E+03  0.00000000000E+00 0. -1.
         25    2    1    2    0    0 -0.98040290865E+02  0.53841122009E+02  0.76146158155E+03  0.77971829803E+03  0.12500447611E+03 0.  0.
          2    1    1    2  501    0  0.77175858917E+02 -0.26076994062E+02 -0.10043256411E+03  0.12931675357E+03  0.00000000000E+00 0. -1.
          1    1    1    2  502    0  0.20864431948E+02 -0.27764127947E+02  0.23008414833E+04  0.23011035836E+04  0.00000000000E+00 0. -1.
         22    1    3    3    0    0  0.19507230406E+01 -0.29530491387E+02  0.68290703570E+02  0.74427652362E+02  0.00000000000E+00 0. -1.
         22    1    3    3    0    0 -0.99991013905E+02  0.83371613396E+02  0.69317087798E+03  0.70529064566E+03  0.00000000000E+00 0. -1.
</event>
<event>
 7    1  0.7802682E-006  0.3300904E+03  0.7818608E-02  0.1234742E+00
          2   -1    0    0  502    0  0.00000000000E+00  0.00000000000E+00  0.56288237888E+03  0.56288237888E+03  0.00000000000E+00 0. -1.
          1   -1    0    0  501    0 -0.00000000000E+00 -0.00000000000E+00 -0.30084474520E+04  0.30084474520E+04  0.00000000000E+00 0. -1.
         25    2    1    2    0    0  0.25562318177E+03 -0.17710971473E+03 -0.88544125613E+03  0.94675298702E+03  0.12499575295E+03 0.  0.
          2    1    1    2  501    0 -0.29964574153E+03  0.15928496740E+03 -0.20774959185E+04  0.21050293496E+04  0.00000000000E+00 0. -1.
          1    1    1    2  502    0  0.44022559765E+02  0.17824747330E+02  0.51737210151E+03  0.51954749427E+03  0.00000000000E+00 0. -1.
         22    1    3    3    0    0  0.24036872426E+03 -0.10932714818E+03 -0.73638727417E+03  0.78230158282E+03  0.00000000000E+00 0.  1.
         22    1    3    3    0    0  0.15254457508E+02 -0.67782566546E+02 -0.14905398197E+03  0.16445140419E+03  0.00000000000E+00 0.  1.
</event>
<event>
 7    1  0.7802682E-006  0.6814798E+02  0.7818608E-02  0.1531360E+00
          2   -1    0    0  502    0  0.00000000000E+00  0.00000000000E+00  0.33949923828E+04  0.33949923828E+04  0.00000000000E+00 0. -1.
          1   -1    0    0  501    0 -0.00000000000E+00 -0.00000000000E+00 -0.54404544781E+02  0.54404544781E+02  0.00000000000E+00 0. -1.
         25    2    1    2    0    0  0.15947615327E+02 -0.86318876673E+02  0.18864559193E+04  0.18926296558E+04  0.12500321383E+03 0.  0.
          2    1    1    2  501    0 -0.15039646161E+02  0.66228878271E+02 -0.28749493117E+02  0.73749499173E+02  0.00000000000E+00 0. -1.
          1    1    1    2  502    0 -0.90796916521E+00  0.20089998402E+02  0.14828814118E+04  0.14830177726E+04  0.00000000000E+00 0. -1.
         22    1    3    3    0    0 -0.43631488660E+02 -0.41329051744E+02  0.13074303516E+04  0.13088108808E+04  0.00000000000E+00 0. -1.
         22    1    3    3    0    0  0.59579103987E+02 -0.44989824929E+02  0.57902556770E+03  0.58381877499E+03  0.00000000000E+00 0. -1.
</event>
<event>
 7    1  0.7802682E-006  0.6792619E+02  0.7818608E-02  0.1462421E+00
          2   -1    0    0  502    0  0.00000000000E+00  0.00000000000E+00  0.20172083119E+04  0.20172083119E+04  0.00000000000E+00 0. -1.
          1   -1    0    0  501    0 -0.00000000000E+00 -0.00000000000E+00 -0.44606665923E+03  0.44606665923E+03  0.00000000000E+00 0. -1.
         25    2    1    2    0    0 -0.55746094526E+02 -0.47510068801E+02  0.84431526491E+02  0.16766962538E+03  0.12497834580E+03 0.  0.
          2    1    1    2  501    0  0.26898041747E+02  0.62424500014E+02 -0.40145104747E+03  0.40716491298E+03  0.00000000000E+00 0. -1.
          1    1    1    2  502    0  0.28848052779E+02 -0.14914431214E+02  0.18881611736E+04  0.18884404328E+04  0.00000000000E+00 0. -1.
         22    1    3    3    0    0  0.38458817343E+02 -0.89118139282E+01  0.77878398866E+01  0.40238681750E+02  0.00000000000E+00 0.  1.
         22    1    3    3    0    0 -0.94204911869E+02 -0.38598254872E+02  0.76643686604E+02  0.12743094363E+03  0.00000000000E+00 0.  1.
</event>
<event>
 7    1  0.7802682E-006  0.2109434E+03  0.7818608E-02  0.1336410E+00
          2   -1    0    0  502    0  0.00000000000E+00  0.00000000000E+00  0.47198179278E+03  0.47198179278E+03  0.00000000000E+00 0. -1.
          1   -1    0    0  501    0 -0.00000000000E+00 -0.00000000000E+00 -0.56461412088E+03  0.56461412088E+03  0.00000000000E+00 0. -1.
         25    2    1    2    0    0 -0.21552688852E+03 -0.62284907046E+02 -0.34667221016E+03  0.43143777901E+03  0.12500274615E+03 0.  0.
          2    1    1    2  501    0  0.21555872268E+02 -0.18561085983E+02 -0.14842860748E+03  0.15112981526E+03  0.00000000000E+00 0. -1.
          1    1    1    2  502    0  0.19397101625E+03  0.80845993029E+02  0.40246848954E+03  0.45402831939E+03  0.00000000000E+00 0. -1.
         22    1    3    3    0    0 -0.28718300906E+02  0.35122348819E+02 -0.49298734215E+02  0.66997652113E+02  0.00000000000E+00 0.  1.
         22    1    3    3    0    0 -0.18680858761E+03 -0.97407255865E+02 -0.29737347594E+03  0.36444012690E+03  0.00000000000E+00 0.  1.
</event>
<event>
 7    1  0.7802682E-006  0.2827343E+03  0.7818608E-02  0.1265739E+00
          2   -1    0    0  502    0  0.00000000000E+00  0.00000000000E+00  0.11022679884E+04  0.11022679884E+04  0.00000000000E+00 0. -1.
          1   -1    0    0  501    0 -0.00000000000E+00 -0.00000000000E+00 -0.48933457277E+03  0.48933457277E+03  0.00000000000E+00 0. -1.
         25    2    1    2    0    0 -0.12776774960E+03 -0.23574254659E+03 -0.11611560368E+03  0.31782138604E+03  0.12501381482E+03 0.  0.
          2    1    1    2  501    0  0.27261756206E+02 -0.30203330646E+02 -0.25051303901E+03  0.25379564072E+03  0.00000000000E+00 0. -1.
          1    1    1    2  502    0  0.10050599339E+03  0.26594587723E+03  0.97956205830E+03  0.10199855344E+04  0.00000000000E+00 0. -1.
         22    1    3    3    0    0 -0.23333438994E+02 -0.30021930899E+02 -0.74141966497E+02  0.83323447518E+02  0.00000000000E+00 0. -1.
         22    1    3    3    0    0 -0.10443431060E+03 -0.20572061569E+03 -0.41973637182E+02  0.23449793852E+03  0.00000000000E+00 0. -1.
</event>
<event>
 7    1  0.7802682E-006  0.6269791E+02  0.7818608E-02  0.1454800E+00
          2   -1    0    0  502    0  0.00000000000E+00  0.00000000000E+00  0.15826221359E+04  0.15826221359E+04  0.00000000000E+00 0. -1.
          1   -1    0    0  501    0 -0.00000000000E+00 -0.00000000000E+00 -0.15348693525E+04  0.15348693525E+04  0.00000000000E+00 0. -1.
         25    2    1    2    0    0 -0.22523104703E+02  0.43361411678E+02  0.22034838974E+03  0.25801034563E+03  0.12501369254E+03 0.  0.
          2    1    1    2  501    0 -0.34207230267E+02 -0.14593327491E+02 -0.15150571514E+04  0.15155135340E+04  0.00000000000E+00 0. -1.
          1    1    1    2  502    0  0.56730334970E+02 -0.28768084187E+02  0.13424615450E+04  0.13439676088E+04  0.00000000000E+00 0. -1.
         22    1    3    3    0    0  0.36764810288E+02 -0.16164960686E+02  0.30588440844E+02  0.50483759198E+02  0.00000000000E+00 0. -1.
         22    1    3    3    0    0 -0.59287914991E+02  0.59526372364E+02  0.18975994889E+03  0.20752658643E+03  0.00000000000E+00 0. -1.
</event>
<event>
 7    1  0.7802682E-006  0.3394034E+02  0.7818608E-02  0.1640805E+00
          2   -1    0    0  502    0  0.00000000000E+00  0.00000000000E+00  0.96680869014E+03  0.96680869014E+03  0.00000000000E+00 0. -1.
          1   -1    0    0  501    0 -0.00000000000E+00 -0.00000000000E+00 -0.95111648845E+03  0.95111648845E+03  0.00000000000E+00 0. -1.
         25    2    1    2    0    0 -0.28872773047E+02 -0.45486587237E+02  0.32089958461E+03  0.34857514445E+03  0.12500168510E+03 0.  0.
          2    1    1    2  501    0  0.21561314563E+02  0.26188567987E+02 -0.93680319473E+03  0.93741717342E+03  0.00000000000E+00 0. -1.
          1    1    1    2  502    0  0.73114584844E+01  0.19298019250E+02  0.63159581180E+03  0.63193286072E+03  0.00000000000E+00 0. -1.
         22    1    3    3    0    0 -0.42506511272E+01 -0.80444254318E+02  0.12992221808E+03  0.15286964656E+03  0.00000000000E+00 0.  1.
         22    1    3    3    0    0 -0.24622121920E+02  0.34957667081E+02  0.19097736653E+03  0.19570549789E+03  0.00000000000E+00 0.  1.
</event>
<event>
 7    1  0.7802682E-006  0.1668697E+03  0.7818608E-02  0.1338608E+00
          2   -1    0    0  502    0  0.00000000000E+00  0.00000000000E+00  0.65800439500E+03  0.65800439500E+03  0.00000000000E+00 0. -1.
          1   -1    0    0  501    0 -0.00000000000E+00 -0.00000000000E+00 -0.68902765473E+03  0.68902765473E+03  0.00000000000E+00 0. -1.
         25    2    1    2    0    0 -0.74703424992E+02  0.17777604314E+03 -0.78944179339E+02  0.24298546227E+03  0.12499931281E+03 0.  0.
          2    1    1    2  501    0  0.29751832693E+02 -0.18957678989E+02 -0.51562277254E+03  0.51682821972E+03  0.00000000000E+00 0. -1.
          1    1    1    2  502    0  0.44951592299E+02 -0.15881836415E+03  0.56354369216E+03  0.58721836774E+03  0.00000000000E+00 0. -1.
         22    1    3    3    0    0 -0.25031615008E+02  0.11220585802E+03 -0.10601655979E+03  0.15638493301E+03  0.00000000000E+00 0. -1.
         22    1    3    3    0    0 -0.49671809983E+02  0.65570185121E+02  0.27072380452E+02  0.86600529254E+02  0.00000000000E+00 0. -1.
</event>
<event>
 7    1  0.7802682E-006  0.2412833E+03  0.7818608E-02  0.1238369E+00
          2   -1    0    0  502    0  0.00000000000E+00  0.00000000000E+00  0.71102827042E+03  0.71102827042E+03  0.00000000000E+00 0. -1.
          1   -1    0    0  501    0 -0.00000000000E+00 -0.00000000000E+00 -0.42715539913E+03  0.42715539913E+03  0.00000000000E+00 0. -1.
         25    2    1    2    0    0  0.32279396435E+02  0.28142252089E+03  0.37372650797E+03  0.48532167865E+03  0.12500013726E+03 0.  0.
          2    1    1    2  501    0 -0.65815458452E+02 -0.22854866641E+03 -0.32882590675E+03  0.40582341534E+03  0.00000000000E+00 0. -1.
          1    1    1    2  502    0  0.33536062017E+02 -0.52873854483E+02  0.23897227008E+03  0.24703857555E+03  0.00000000000E+00 0. -1.
         22    1    3    3    0    0  0.61824146423E+02  0.12269586327E+03  0.23612072488E+03  0.27318399782E+03  0.00000000000E+00 0.  1.
         22    1    3    3    0    0 -0.29544749988E+02  0.15872665762E+03  0.13760578308E+03  0.21213768083E+03  0.00000000000E+00 0.  1.
</event>
<event>
 7    1  0.7802682E-006  0.8891697E+02  0.7818608E-02  0.1346353E+00
          2   -1    0    0  502    0  0.00000000000E+00  0.00000000000E+00  0.70227953572E+03  0.70227953572E+03  0.00000000000E+00 0. -1.
          1   -1    0    0  501    0 -0.00000000000E+00 -0.00000000000E+00 -0.70471074378E+03  0.70471074378E+03  0.00000000000E+00 0. -1.
         25    2    1    2    0    0  0.29288933172E+02  0.87486044090E+02  0.53035985537E+02  0.16416291277E+03  0.12499998660E+03 0.  0.
          2    1    1    2  501    0  0.47176945061E+02 -0.40114428224E+02 -0.64424687284E+03  0.64721624258E+03  0.00000000000E+00 0. -1.
          1    1    1    2  502    0 -0.76465878233E+02 -0.47371615866E+02  0.58877967924E+03  0.59561112415E+03  0.00000000000E+00 0. -1.
         22    1    3    3    0    0 -0.10895331558E+02  0.99948806869E+02  0.55125969893E+01  0.10069191114E+03  0.00000000000E+00 0. -1.
         22    1    3    3    0    0  0.40184264730E+02 -0.12462762778E+02  0.47523388548E+02  0.63471001623E+02  0.00000000000E+00 0. -1.
</event>
<event>
 7    1  0.7802682E-006  0.5874564E+02  0.7818608E-02  0.1464681E+00
          2   -1    0    0  502    0  0.00000000000E+00  0.00000000000E+00  0.15898532593E+03  0.15898532593E+03  0.00000000000E+00 0. -1.
          1   -1    0    0  501    0 -0.00000000000E+00 -0.00000000000E+00 -0.30104627913E+03  0.30104627913E+03  0.00000000000E+00 0. -1.
         25    2    1    2    0    0 -0.25802250299E+02 -0.10764878034E+02 -0.50983536045E+02  0.13786116671E+03  0.12499896647E+03 0.  0.
          2    1    1    2  501    0  0.46647160437E+02  0.41264052996E+02 -0.19878029703E+03  0.20830815186E+03  0.00000000000E+00 0. -1.
          1    1    1    2  502    0 -0.20844910138E+02 -0.30499174962E+02  0.10770287987E+03  0.11386228649E+03  0.00000000000E+00 0. -1.
         22    1    3    3    0    0 -0.24152516609E+02 -0.67157810817E+02 -0.33154604451E+02  0.78693985848E+02  0.00000000000E+00 0. -1.
         22    1    3    3    0    0 -0.16497336902E+01  0.56392932783E+02 -0.17828931594E+02  0.59167180860E+02  0.00000000000E+00 0. -1.
</event>
<event>
 7    1  0.7802682E-006  0.4319921E+02  0.7818608E-02  0.1588235E+00
          2   -1    0    0  502    0  0.00000000000E+00  0.00000000000E+00  0.23708644912E+04  0.23708644912E+04  0.00000000000E+00 0. -1.
          1   -1    0    0  501    0 -0.00000000000E+00 -0.00000000000E+00 -0.23222787504E+03  0.23222787504E+03  0.00000000000E+00 0. -1.
         25    2    1    2    0    0 -0.22312729766E+02 -0.35693570574E+02  0.11301331490E+03  0.17369197848E+03  0.12500002062E+03 0.  0.
          2    1    1    2  501    0 -0.15875709086E+02  0.15399998061E+02 -0.20107218175E+03  0.20228499785E+03  0.00000000000E+00 0. -1.
          1    1    1    2  502    0  0.38188438852E+02  0.20293572512E+02  0.22266954830E+04  0.22271153899E+04  0.00000000000E+00 0. -1.
         22    1    3    3    0    0 -0.35189482780E+02 -0.39605455122E+02  0.13661204590E+03  0.14652557066E+03  0.00000000000E+00 0.  1.
         22    1    3    3    0    0  0.12876753014E+02  0.39118845480E+01 -0.23598731002E+02  0.27166407819E+02  0.00000000000E+00 0.  1.
</event>
<event>
 7    1  0.7802682E-006  0.8908367E+02  0.7818608E-02  0.1353259E+00
          2   -1    0    0  502    0  0.00000000000E+00  0.00000000000E+00  0.52589993181E+03  0.52589993181E+03  0.00000000000E+00 0. -1.
          1   -1    0    0  501    0 -0.00000000000E+00 -0.00000000000E+00 -0.25066910321E+03  0.25066910321E+03  0.00000000000E+00 0. -1.
         25    2    1    2    0    0  0.51166666887E+02 -0.10443082915E+03 -0.41487609748E+02  0.17568900147E+03  0.12498630965E+03 0.  0.
          2    1    1    2  501    0 -0.70379963460E+02  0.49416683634E+02 -0.12698628282E+03  0.15336513262E+03  0.00000000000E+00 0. -1.
          1    1    1    2  502    0  0.19213296573E+02  0.55014145514E+02  0.44370472117E+03  0.44751490093E+03  0.00000000000E+00 0. -1.
         22    1    3    3    0    0  0.58731338696E+01  0.22004368252E+02 -0.34326981525E+02  0.41194994650E+02  0.00000000000E+00 0.  1.
         22    1    3    3    0    0  0.45293533017E+02 -0.12643519740E+03 -0.71606282229E+01  0.13449400682E+03  0.00000000000E+00 0.  1.
</event>
<event>
 7    1  0.7802682E-006  0.1434853E+03  0.7818608E-02  0.1232088E+00
          2   -1    0    0  502    0  0.00000000000E+00  0.00000000000E+00  0.25482719485E+04  0.25482719485E+04  0.00000000000E+00 0. -1.
          1   -1    0    0  501    0 -0.00000000000E+00 -0.00000000000E+00 -0.62394523646E+02  0.62394523646E+02  0.00000000000E+00 0. -1.
         25    2    1    2    0    0 -0.17738308140E+03  0.52932118629E+02  0.14895479373E+04  0.15062021960E+04  0.12500172308E+03 0.  0.
          2    1    1    2  501    0  0.52811421019E+02 -0.99083795104E+02  0.13949337740E+02  0.11314251485E+03  0.00000000000E+00 0. -1.
          1    1    1    2  502    0  0.12457166038E+03  0.46151676475E+02  0.98238014974E+03  0.99132176129E+03  0.00000000000E+00 0. -1.
         22    1    3    3    0    0 -0.48567095610E+02 -0.36509032616E+02  0.27904476988E+03  0.28558301041E+03  0.00000000000E+00 0.  1.
         22    1    3    3    0    0 -0.12881598579E+03  0.89441151246E+02  0.12105031675E+04  0.12206191856E+04  0.00000000000E+00 0.  1.
</event>
<event>
 7    1  0.7802682E-006  0.2057843E+03  0.7818608E-02  0.1176679E+00
          2   -1    0    0  502    0  0.00000000000E+00  0.00000000000E+00  0.16161216613E+04  0.16161216613E+04  0.00000000000E+00 0. -1.
          1   -1    0    0  501    0 -0.00000000000E+00 -0.00000000000E+00 -0.52321030975E+03  0.52321030975E+03  0.00000000000E+00 0. -1.
         25    2    1    2    0    0  0.25226878419E+03  0.96480220215E+02  0.15931729236E+03  0.33757207018E+03  0.12499972220E+03 0.  0.
          2    1    1    2  501    0 -0.19974778157E+03  0.35777980362E+02 -0.40639148679E+03  0.45423923285E+03  0.00000000000E+00 0. -1.
          1    1    1    2  502    0 -0.52521002618E+02 -0.13225820058E+03  0.13399855460E+04  0.13475206681E+04  0.00000000000E+00 0. -1.
         22    1    3    3    0    0  0.17406072404E+03  0.39292429759E+02  0.16148368284E+03  0.24066160997E+03  0.00000000000E+00 0.  1.
         22    1    3    3    0    0  0.78208060149E+02  0.57187790456E+02 -0.21663904813E+01  0.96910460205E+02  0.00000000000E+00 0.  1.
</event>
<event>
 7    1  0.7802682E-006  0.2597850E+03  0.7818608E-02  0.1246201E+00
          2   -1    0    0  502    0  0.00000000000E+00  0.00000000000E+00  0.61459991790E+03  0.61459991790E+03  0.00000000000E+00 0. -1.
          1   -1    0    0  501    0 -0.00000000000E+00 -0.00000000000E+00 -0.76193202754E+03  0.76193202754E+03  0.00000000000E+00 0. -1.
         25    2    1    2    0    0  0.12681954237E+03 -0.23285433407E+03 -0.34008490301E+03  0.44898386155E+03  0.12499771780E+03 0.  0.
          2    1    1    2  501    0  0.41069381269E+02  0.34634326497E+02 -0.33502612491E+03  0.33930625550E+03  0.00000000000E+00 0. -1.
          1    1    1    2  502    0 -0.16788892364E+03  0.19822000757E+03  0.52777891829E+03  0.58824182839E+03  0.00000000000E+00 0. -1.
         22    1    3    3    0    0 -0.23028724461E+02 -0.58116281265E+02 -0.82918147913E+02  0.10384239766E+03  0.00000000000E+00 0. -1.
         22    1    3    3    0    0  0.14984826683E+03 -0.17473805280E+03 -0.25716675510E+03  0.34514146389E+03  0.00000000000E+00 0. -1.
</event>
<event>
 7    1  0.7802682E-006  0.1386492E+03  0.7818608E-02  0.1285514E+00
          2   -1    0    0  502    0  0.00000000000E+00  0.00000000000E+00  0.12300887114E+04  0.12300887114E+04  0.00000000000E+00 0. -1.
          1   -1    0    0  501    0 -0.00000000000E+00 -0.00000000000E+00 -0.77613204859E+03  0.77613204859E+03  0.00000000000E+00 0. -1.
         25    2    1    2    0    0  0.56288183783E+02  0.18026512166E+03  0.21463651463E+03  0.31201575515E+03  0.12498449636E+03 0.  0.
          2    1    1    2  501    0 -0.76190517196E+02 -0.11456679259E+03 -0.71969871411E+03  0.73273240953E+03  0.00000000000E+00 0. -1.
          1    1    1    2  502    0  0.19902333413E+02 -0.65698329071E+02  0.95901886224E+03  0.96147259527E+03  0.00000000000E+00 0. -1.
         22    1    3    3    0    0  0.94683321340E+02  0.10209286507E+03  0.12689080543E+03  0.18838567074E+03  0.00000000000E+00 0.  1.
         22    1    3    3    0    0 -0.38395137558E+02  0.78172256589E+02  0.87745709199E+02  0.12363008441E+03  0.00000000000E+00 0.  1.
</event>
<event>
 7    1  0.7802682E-006  0.2914390E+03  0.7818608E-02  0.1326641E+00
          2   -1    0    0  502    0  0.00000000000E+00  0.00000000000E+00  0.17014123984E+04  0.17014123984E+04  0.00000000000E+00 0. -1.
          1   -1    0    0  501    0 -0.00000000000E+00 -0.00000000000E+00 -0.13831153523E+03  0.13831153523E+03  0.00000000000E+00 0. -1.
         25    2    1    2    0    0  0.30934418425E+03 -0.27747435150E+02  0.22825178476E+03  0.40520069172E+03  0.12499991533E+03 0.  0.
          2    1    1    2  501    0 -0.22209978503E+02  0.31498814303E+01 -0.31188629010E+02  0.38417905691E+02  0.00000000000E+00 0. -1.
          1    1    1    2  502    0 -0.28713420575E+03  0.24597553719E+02  0.13660377074E+04  0.13961053362E+04  0.00000000000E+00 0. -1.
         22    1    3    3    0    0  0.58983019955E+02 -0.54906486599E+02  0.76900938412E+02  0.11138883805E+03  0.00000000000E+00 0. -1.
         22    1    3    3    0    0  0.25036116430E+03  0.27159051449E+02  0.15135084635E+03  0.29381185367E+03  0.00000000000E+00 0. -1.
</event>
<event>
 7    1  0.7802682E-006  0.1284599E+03  0.7818608E-02  0.1253921E+00
          2   -1    0    0  502    0  0.00000000000E+00  0.00000000000E+00  0.26840434870E+03  0.26840434870E+03  0.00000000000E+00 0. -1.
          1   -1    0    0  501    0 -0.00000000000E+00 -0.00000000000E+00 -0.15935528109E+04  0.15935528109E+04  0.00000000000E+00 0. -1.
         25    2    1    2    0    0  0.11671088615E+03 -0.24171233832E+02  0.81722159863E+02  0.19107307937E+03  0.12499892302E+03 0.  0.
          2    1    1    2  501    0 -0.10495228066E+03 -0.75721396259E+02 -0.15165532075E+04  0.15220651570E+04  0.00000000000E+00 0. -1.
          1    1    1    2  502    0 -0.11758605494E+02  0.99892630091E+02  0.10968258544E+03  0.14881892319E+03  0.00000000000E+00 0. -1.
         22    1    3    3    0    0  0.85142130964E+02 -0.73753078918E+02  0.64590883698E+02  0.12984868645E+03  0.00000000000E+00 0. -1.
         22    1    3    3    0    0  0.31568755188E+02  0.49581845086E+02  0.17131276165E+02  0.61224392927E+02  0.00000000000E+00 0. -1.
</event>
<event>
 7    1  0.7802682E-006  0.3161739E+02  0.7818608E-02  0.1649720E+00
          2   -1    0    0  502    0  0.00000000000E+00  0.00000000000E+00  0.14903377977E+04  0.14903377977E+04  0.00000000000E+00 0. -1.
          1   -1    0    0  501    0 -0.00000000000E+00 -0.00000000000E+00 -0.44328025609E+02  0.44328025609E+02  0.00000000000E+00 0. -1.
         25    2    1    2    0    0 -0.85291032982E+00  0.21277667957E+02  0.13692474154E+03  0.18661765706E+03  0.12499719386E+03 0.  0.
          2    1    1    2  501    0  0.21616533810E+02 -0.24792331615E+02 -0.54527902457E+01  0.33341673059E+02  0.00000000000E+00 0. -1.
          1    1    1    2  502    0 -0.20763623480E+02  0.35146636579E+01  0.13145378208E+04  0.13147064932E+04  0.00000000000E+00 0. -1.
         22    1    3    3    0    0  0.43160828072E+02 -0.34800121063E+02  0.56887551879E+02  0.79436131984E+02  0.00000000000E+00 0. -1.
         22    1    3    3    0    0 -0.44013738402E+02  0.56077789020E+02  0.80037189660E+02  0.10718152508E+03  0.00000000000E+00 0. -1.
</event>
<event>
 7    1  0.7802682E-006  0.7384596E+02  0.7818608E-02  0.1443192E+00
          2   -1    0    0  502    0  0.00000000000E+00  0.00000000000E+00  0.32393400710E+03  0.32393400710E+03  0.00000000000E+00 0. -1.
          1   -1    0    0  501    0 -0.00000000000E+00 -0.00000000000E+00 -0.75604134461E+03  0.75604134461E+03  0.00000000000E+00 0. -1.
         25    2    1    2    0    0 -0.10066123883E+03  0.15726755865E+02 -0.45626388535E+01  0.16132471421E+03  0.12499931955E+03 0.  0.
          2    1    1    2  501    0  0.68101234833E+02 -0.26823446305E+02 -0.66988970728E+03  0.67387646893E+03  0.00000000000E+00 0. -1.
          1    1    1    2  502    0  0.32560003999E+02  0.11096690439E+02  0.24234500862E+03  0.24477416858E+03  0.00000000000E+00 0. -1.
         22    1    3    3    0    0 -0.63208004112E+02 -0.35556351304E+02  0.40866959833E+02  0.83244304957E+02  0.00000000000E+00 0. -1.
         22    1    3    3    0    0 -0.37453234720E+02  0.51283107170E+02 -0.45429598686E+02  0.78080409251E+02  0.00000000000E+00 0. -1.
</event>
<event>
 7    1  0.7802682E-006  0.1079304E+03  0.7818608E-02  0.1334221E+00
          2   -1    0    0  502    0  0.00000000000E+00  0.00000000000E+00  0.12857797542E+04  0.12857797542E+04  0.00000000000E+00 0. -1.
          1   -1    0    0  501    0 -0.00000000000E+00 -0.00000000000E+00 -0.52489835857E+02  0.52489835857E+02  0.00000000000E+00 0. -1.
         25    2    1    2    0    0 -0.20356045398E+02 -0.71577357327E+02  0.27098553165E+03  0.30756078383E+03  0.12499116256E+03 0.  0.
          2    1    1    2  501    0  0.68901335110E+02  0.10081112096E+03  0.78662509554E+02  0.14525173492E+03  0.00000000000E+00 0. -1.
          1    1    1    2  502    0 -0.48545289712E+02 -0.29233763634E+02  0.88364187716E+03  0.88545707132E+03  0.00000000000E+00 0. -1.
         22    1    3    3    0    0 -0.20258518400E+02 -0.18390908740E+02 -0.38459761006E+01  0.27630139779E+02  0.00000000000E+00 0.  1.
         22    1    3    3    0    0 -0.97526997669E-01 -0.53186448587E+02  0.27483150776E+03  0.27993064405E+03  0.00000000000E+00 0.  1.
</event>
<event>
 7    1  0.7802682E-006  0.6821338E+02  0.7818608E-02  0.1433521E+00
          2   -1    0    0  502    0  0.00000000000E+00  0.00000000000E+00  0.10666339081E+04  0.10666339081E+04  0.00000000000E+00 0. -1.
          1   -1    0    0  501    0 -0.00000000000E+00 -0.00000000000E+00 -0.32803053929E+03  0.32803053929E+03  0.00000000000E+00 0. -1.
         25    2    1    2    0    0 -0.46185943467E+02 -0.24687245833E+02 -0.72516527297E+02  0.15370267067E+03  0.12499305084E+03 0.  0.
          2    1    1    2  501    0 -0.21697424999E+02  0.33648272510E+02 -0.21190188117E+03  0.21565108796E+03  0.00000000000E+00 0. -1.
          1    1    1    2  502    0  0.67883368466E+02 -0.89610266769E+01  0.10230217772E+04  0.10253106887E+04  0.00000000000E+00 0. -1.
         22    1    3    3    0    0 -0.80694677130E+02 -0.14370222202E+02 -0.82533071854E+02  0.11631784967E+03  0.00000000000E+00 0. -1.
         22    1    3    3    0    0  0.34508733663E+02 -0.10317023630E+02  0.10016544557E+02  0.37384820991E+02  0.00000000000E+00 0. -1.
</event>
<event>
 7    1  0.7802682E-006  0.9632684E+02  0.7818608E-02  0.1475353E+00
          2   -1    0    0  502    0  0.00000000000E+00  0.00000000000E+00  0.16823673934E+03  0.16823673934E+03  0.00000000000E+00 0. -1.
          1   -1    0    0  501    0 -0.00000000000E+00 -0.00000000000E+00 -0.32031893873E+04  0.32031893873E+04  0.00000000000E+00 0. -1.
         25    2    1    2    0    0  0.66582306756E+02  0.46985816463E+02 -0.16948505988E+03  0.22581201360E+03  0.12500003776E+03 0.  0.
          2    1    1    2  501    0 -0.69139515372E+02 -0.67699966611E+02 -0.30039799639E+04  0.30055380852E+04  0.00000000000E+00 0. -1.
          1    1    1    2  502    0  0.25572086159E+01  0.20714150147E+02  0.13851237580E+03  0.14007602786E+03  0.00000000000E+00 0. -1.
         22    1    3    3    0    0 -0.22735311383E+02  0.52578567340E+02 -0.86611152499E+02  0.10384070428E+03  0.00000000000E+00 0.  1.
         22    1    3    3    0    0  0.89317618139E+02 -0.55927508768E+01 -0.82873907383E+02  0.12197130932E+03  0.00000000000E+00 0.  1.
</event>
<event>
 7    1  0.7802682E-006  0.2769703E+03  0.7818608E-02  0.1155656E+00
          2   -1    0    0  502    0  0.00000000000E+00  0.00000000000E+00  0.20772552280E+04  0.20772552280E+04  0.00000000000E+00 0. -1.
          1   -1    0    0  501    0 -0.00000000000E+00 -0.00000000000E+00 -0.12596110927E+04  0.12596110927E+04  0.00000000000E+00 0. -1.
         25    2    1    2    0    0  0.18252044470E+03  0.49403262643E+02 -0.61422087051E+03  0.65471136210E+03  0.12500117918E+03 0.  0.
          2    1    1    2  501    0  0.91629746715E+02 -0.98716585172E+02 -0.60831489893E+03  0.62304734245E+03  0.00000000000E+00 0. -1.
          1    1    1    2  502    0 -0.27415019141E+03  0.49313322528E+02  0.20401799047E+04  0.20591076161E+04  0.00000000000E+00 0. -1.
         22    1    3    3    0    0  0.88144049936E+02  0.34982832037E+01 -0.11696162586E+03  0.14649789572E+03  0.00000000000E+00 0.  1.
         22    1    3    3    0    0  0.94376394761E+02  0.45904979440E+02 -0.49725924465E+03  0.50821346638E+03  0.00000000000E+00 0.  1.
</event>
<event>
 7    1  0.7802682E-006  0.8924750E+02  0.7818608E-02  0.1308443E+00
          2   -1    0    0  502    0  0.00000000000E+00  0.00000000000E+00  0.30639140191E+04  0.30639140191E+04  0.00000000000E+00 0. -1.
          1   -1    0    0  501    0 -0.00000000000E+00 -0.00000000000E+00 -0.48081897945E+03  0.48081897945E+03  0.00000000000E+00 0. -1.
         25    2    1    2    0    0  0.13094206682E+03 -0.37234194412E+02  0.12821206353E+03  0.22493699015E+03  0.12500442474E+03 0.  0.
          2    1    1    2  501    0 -0.51996198530E+02  0.71943109653E+02 -0.42724971445E+03  0.43637338850E+03  0.00000000000E+00 0. -1.
          1    1    1    2  502    0 -0.78945868286E+02 -0.34708915241E+02  0.28821326906E+04  0.28834226199E+04  0.00000000000E+00 0. -1.
         22    1    3    3    0    0  0.44927451796E+02 -0.29963563874E+02 -0.16471951717E+02  0.56458978721E+02  0.00000000000E+00 0. -1.
         22    1    3    3    0    0  0.86014615020E+02 -0.72706305379E+01  0.14468401525E+03  0.16847801142E+03  0.00000000000E+00 0. -1.
</event>
<event>
 7    1  0.7802682E-006  0.2543187E+02  0.7818608E-02  0.1669774E+00
          2   -1    0    0  502    0  0.00000000000E+00  0.00000000000E+00  0.43107850567E+03  0.43107850567E+03  0.00000000000E+00 0. -1.
          1   -1    0    0  501    0 -0.00000000000E+00 -0.00000000000E+00 -0.10939894678E+04  0.10939894678E+04  0.00000000000E+00 0. -1.
         25    2    1    2    0    0 -0.20848212265E+01  0.83145727177E+00 -0.30657886019E+03  0.33109019848E+03  0.12500033686E+03 0.  0.
          2    1    1    2  501    0 -0.23369752391E+02 -0.13686575970E+01 -0.77459100986E+03  0.77494467616E+03  0.00000000000E+00 0. -1.
          1    1    1    2  502    0  0.25454573617E+02  0.53720032518E+00  0.41825890790E+03  0.41903309886E+03  0.00000000000E+00 0. -1.
         22    1    3    3    0    0 -0.37122105916E+02  0.38061863123E+00 -0.19600712010E+02  0.41980751892E+02  0.00000000000E+00 0.  1.
         22    1    3    3    0    0  0.35037284689E+02  0.45083864054E+00 -0.28697814818E+03  0.28910944659E+03  0.00000000000E+00 0.  1.
</event>
<event>
 7    1  0.7802682E-006  0.5398881E+02  0.7818608E-02  0.1468902E+00
          2   -1    0    0  502    0  0.00000000000E+00  0.00000000000E+00  0.29192816994E+04  0.29192816994E+04  0.00000000000E+00 0. -1.
          1   -1    0    0  501    0 -0.00000000000E+00 -0.00000000000E+00 -0.10716667417E+03  0.10716667417E+03  0.00000000000E+00 0. -1.
         25    2    1    2    0    0  0.23617394045E+02 -0.25439331158E+02  0.12040729114E+04  0.12110385290E+04  0.12497120462E+03 0.  0.
          2    1    1    2  501    0 -0.21782256185E+02 -0.32343532670E+02 -0.99510932266E+02  0.10687841892E+03  0.00000000000E+00 0. -1.
          1    1    1    2  502    0 -0.18351378604E+01  0.57782863828E+02  0.17075530461E+04  0.17085314256E+04  0.00000000000E+00 0. -1.
         22    1    3    3    0    0  0.26445497026E+02  0.54513628099E+01  0.52398634349E+02  0.58946573701E+02  0.00000000000E+00 0.  1.
         22    1    3    3    0    0 -0.28281029804E+01 -0.30890693968E+02  0.11516742770E+04  0.11520919553E+04  0.00000000000E+00 0.  1.
</event>
<event>
 7    1  0.7802682E-006  0.9927178E+02  0.7818608E-02  0.1331308E+00
          2   -1    0    0  502    0  0.00000000000E+00  0.00000000000E+00  0.10792476449E+04  0.10792476449E+04  0.00000000000E+00 0. -1.
          1   -1    0    0  501    0 -0.00000000000E+00 -0.00000000000E+00 -0.17702244040E+03  0.17702244040E+03  0.00000000000E+00 0. -1.
         25    2    1    2    0    0 -0.14314063863E+02 -0.66717087800E+02  0.45639419512E+03  0.47810298976E+03  0.12502297890E+03 0.  0.
          2    1    1    2  501    0 -0.44224793164E+02  0.90545472106E+02 -0.14906140348E+03  0.17992669857E+03  0.00000000000E+00 0. -1.
          1    1    1    2  502    0  0.58538857027E+02 -0.23828384306E+02  0.59489241286E+03  0.59824039697E+03  0.00000000000E+00 0. -1.
         22    1    3    3    0    0 -0.42130991701E+02  0.19467751582E+00  0.50389081001E+02  0.65681944590E+02  0.00000000000E+00 0. -1.
         22    1    3    3    0    0  0.27816927837E+02 -0.66911765316E+02  0.40600511412E+03  0.41242104517E+03  0.00000000000E+00 0. -1.
</event>
<event>
 7    1  0.7802682E-006  0.1518893E+03  0.7818608E-02  0.1227494E+00
          2   -1    0    0  502    0  0.00000000000E+00  0.00000000000E+00  0.10471490519E+04  0.10471490519E+04  0.00000000000E+00 0. -1.
          1   -1    0    0  501    0 -0.00000000000E+00 -0.00000000000E+00 -0.41362590002E+03  0.41362590002E+03  0.00000000000E+00 0. -1.
         25    2    1    2    0    0 -0.12496108444E+03  0.79393631095E+02  0.36673804237E+03  0.41477941725E+03  0.12500620770E+03 0.  0.
          2    1    1    2  501    0  0.38037212585E+02 -0.14877976802E+03 -0.36945930072E+03  0.40010301649E+03  0.00000000000E+00 0. -1.
          1    1    1    2  502    0  0.86923871856E+02  0.69386136923E+02  0.63624441019E+03  0.64589251815E+03  0.00000000000E+00 0. -1.
         22    1    3    3    0    0 -0.14232159497E+03  0.39059679030E+02  0.30707079384E+03  0.34069571079E+03  0.00000000000E+00 0. -1.
         22    1    3    3    0    0  0.17360510527E+02  0.40333952065E+02  0.59667248533E+02  0.74083706457E+02  0.00000000000E+00 0. -1.
</event>
<event>
 7    1  0.7802682E-006  0.8856931E+02  0.7818608E-02  0.1354508E+00
          2   -1    0    0  502    0  0.00000000000E+00  0.00000000000E+00  0.50125614969E+03  0.50125614969E+03  0.00000000000E+00 0. -1.
          1   -1    0    0  501    0 -0.00000000000E+00 -0.00000000000E+00 -0.22155827738E+03  0.22155827738E+03  0.00000000000E+00 0. -1.
         25    2    1    2    0    0  0.42402029045E+02 -0.22828981847E+02 -0.11213837861E+03  0.17469638316E+03  0.12499886341E+03 0.  0.
          2    1    1    2  501    0  0.46991192038E+02  0.33986235133E+02 -0.62310499243E+02  0.85122468383E+02  0.00000000000E+00 0. -1.
          1    1    1    2  502    0 -0.89393221084E+02 -0.11157253287E+02  0.45414675016E+03  0.46299557552E+03  0.00000000000E+00 0. -1.
         22    1    3    3    0    0 -0.41777977680E+02  0.95126259024E+01 -0.26791957751E+02  0.50534131741E+02  0.00000000000E+00 0.  1.
         22    1    3    3    0    0  0.84180006726E+02 -0.32341607749E+02 -0.85346420862E+02  0.12416225142E+03  0.00000000000E+00 0.  1.
</event>
<event>
 7    1  0.7802682E-006  0.9650949E+02  0.7818608E-02  0.1401984E+00
          2   -1    0    0  502    0  0.00000000000E+00  0.00000000000E+00  0.11030137262E+04  0.11030137262E+04  0.00000000000E+00 0. -1.
          1   -1    0    0  501    0 -0.00000000000E+00 -0.00000000000E+00 -0.51749004235E+03  0.51749004235E+03  0.00000000000E+00 0. -1.
         25    2    1    2    0    0 -0.11510468271E+03 -0.59748282901E+02 -0.31883536055E+03  0.36619467684E+03  0.12499443554E+03 0.  0.
          2    1    1    2  501    0  0.35714539825E+02  0.52297819641E+01 -0.17093823398E+03  0.17470763810E+03  0.00000000000E+00 0. -1.
          1    1    1    2  502    0  0.79390142886E+02  0.54518500937E+02  0.10752972784E+04  0.10796014536E+04  0.00000000000E+00 0. -1.
         22    1    3    3    0    0 -0.94389435686E+01 -0.47582597518E+02 -0.26861249395E+02  0.55450193519E+02  0.00000000000E+00 0. -1.
         22    1    3    3    0    0 -0.10566573914E+03 -0.12165685383E+02 -0.29197411116E+03  0.31074448332E+03  0.00000000000E+00 0. -1.
</event>
<event>
 7    1  0.7802682E-006  0.5823377E+02  0.7818608E-02  0.1423137E+00
          2   -1    0    0  502    0  0.00000000000E+00  0.00000000000E+00  0.73784519161E+03  0.73784519161E+03  0.00000000000E+00 0. -1.
          1   -1    0    0  501    0 -0.00000000000E+00 -0.00000000000E+00 -0.73199097342E+02  0.73199097342E+02  0.00000000000E+00 0. -1.
         25    2    1    2    0    0  0.17719200612E+02 -0.62483845468E+02  0.72140164890E+02  0.15826334968E+03  0.12499953378E+03 0.  0.
          2    1    1    2  501    0  0.31930960089E+02  0.51980099636E+02  0.29824186487E+01  0.61077097109E+02  0.00000000000E+00 0. -1.
          1    1    1    2  502    0 -0.49650160701E+02  0.10503745833E+02  0.58952351073E+03  0.59170384217E+03  0.00000000000E+00 0. -1.
         22    1    3    3    0    0  0.50746302209E+02 -0.85543945047E+02  0.60145669185E+02  0.11623448388E+03  0.00000000000E+00 0. -1.
         22    1    3    3    0    0 -0.33027101597E+02  0.23060099578E+02  0.11994495705E+02  0.42028865791E+02  0.00000000000E+00 0. -1.
</event>
<event>
 7    1  0.7802682E-006  0.1548165E+03  0.7818608E-02  0.1257014E+00
          2   -1    0    0  502    0  0.00000000000E+00  0.00000000000E+00  0.15646573859E+03  0.15646573859E+03  0.00000000000E+00 0. -1.
          1   -1    0    0  501    0 -0.00000000000E+00 -0.00000000000E+00 -0.91231521951E+03  0.91231521951E+03  0.00000000000E+00 0. -1.
         25    2    1    2    0    0 -0.15822328432E+03 -0.74640560389E+02 -0.34142099036E+03  0.40348183286E+03  0.12499390319E+03 0.  0.
          2    1    1    2  501    0  0.15258857963E+03 -0.61048727505E+01 -0.51444562783E+03  0.53663288019E+03  0.00000000000E+00 0. -1.
          1    1    1    2  502    0  0.56347046875E+01  0.80745433139E+02  0.10001713727E+03  0.12866624506E+03  0.00000000000E+00 0. -1.
         22    1    3    3    0    0 -0.10364709026E+03  0.10112899047E+02 -0.23422943169E+03  0.25633653020E+03  0.00000000000E+00 0. -1.
         22    1    3    3    0    0 -0.54576194065E+02 -0.84753459435E+02 -0.10719155867E+03  0.14714530266E+03  0.00000000000E+00 0. -1.
</event>
<event>
 7    1  0.7802682E-006  0.1401379E+03  0.7818608E-02  0.1343587E+00
          2   -1    0    0  502    0  0.00000000000E+00  0.00000000000E+00  0.38296346099E+03  0.38296346099E+03  0.00000000000E+00 0. -1.
          1   -1    0    0  501    0 -0.00000000000E+00 -0.00000000000E+00 -0.84507641472E+03  0.84507641472E+03  0.00000000000E+00 0. -1.
         25    2    1    2    0    0 -0.47328456496E+02 -0.10529921640E+03 -0.13756326679E+03  0.21880675780E+03  0.12499934847E+03 0.  0.
          2    1    1    2  501    0  0.30948345180E+02  0.14205168780E+03 -0.65774308337E+03  0.67361891734E+03  0.00000000000E+00 0. -1.
          1    1    1    2  502    0  0.16380111316E+02 -0.36752471396E+02  0.33319339643E+03  0.33561420058E+03  0.00000000000E+00 0. -1.
         22    1    3    3    0    0  0.56997706018E+01 -0.70544400184E+02 -0.39156357201E+01  0.70882522425E+02  0.00000000000E+00 0.  1.
         22    1    3    3    0    0 -0.53028227098E+02 -0.34754816216E+02 -0.13364763107E+03  0.14792423537E+03  0.00000000000E+00 0.  1.
</event>
<event>
 7    1  0.7802682E-006  0.1394990E+03  0.7818608E-02  0.1371439E+00
          2   -1    0    0  502    0  0.00000000000E+00  0.00000000000E+00  0.29722138929E+04  0.29722138929E+04  0.00000000000E+00 0. -1.
          1   -1    0    0  501    0 -0.00000000000E+00 -0.00000000000E+00 -0.18931453170E+02  0.18931453170E+02  0.00000000000E+00 0. -1.
         25    2    1    2    0    0  0.55835517390E+02 -0.10110727133E+03  0.12557800716E+04  0.12672604996E+04  0.12500120128E+03 0.  0.
          2    1    1    2  501    0 -0.71386193969E+02  0.12902621831E+03  0.40535904438E+03  0.43134639046E+03  0.00000000000E+00 0. -1.
          1    1    1    2  502    0  0.15550676579E+02 -0.27918946972E+02  0.12921433237E+04  0.12925384560E+04  0.00000000000E+00 0. -1.
         22    1    3    3    0    0 -0.11189303730E+02 -0.48342749683E+02  0.14589952732E+03  0.15410676181E+03  0.00000000000E+00 0. -1.
         22    1    3    3    0    0  0.67024821120E+02 -0.52764521651E+02  0.11098805443E+04  0.11131537378E+04  0.00000000000E+00 0. -1.
</event>
<event>
 7    1  0.7802682E-006  0.3922399E+02  0.7818608E-02  0.1583366E+00
          2   -1    0    0  502    0  0.00000000000E+00  0.00000000000E+00  0.19341726285E+03  0.19341726285E+03  0.00000000000E+00 0. -1.
          1   -1    0    0  501    0 -0.00000000000E+00 -0.00000000000E+00 -0.11148293649E+03  0.11148293649E+03  0.00000000000E+00 0. -1.
         25    2    1    2    0    0  0.23839566821E+02 -0.42471730170E+02  0.38697714244E+02  0.13961876313E+03  0.12499485237E+03 0.  0.
          2    1    1    2  501    0 -0.33807987843E+02  0.19439297856E+02 -0.53013795219E+02  0.65812831778E+02  0.00000000000E+00 0. -1.
          1    1    1    2  502    0  0.99684210223E+01  0.23032432315E+02  0.96250407336E+02  0.99468604436E+02  0.00000000000E+00 0. -1.
         22    1    3    3    0    0  0.68668721054E+02 -0.11897584064E+02  0.47921380301E+02  0.84577801152E+02  0.00000000000E+00 0.  1.
         22    1    3    3    0    0 -0.44829154234E+02 -0.30574146106E+02 -0.92236660568E+01  0.55040961974E+02  0.00000000000E+00 0.  1.
</event>
<event>
 7    1  0.7802682E-006  0.4349847E+02  0.7818608E-02  0.1553152E+00
          2   -1    0    0  502    0  0.00000000000E+00  0.00000000000E+00  0.32157502499E+04  0.32157502499E+04  0.00000000000E+00 0. -1.
          1   -1    0    0  501    0 -0.00000000000E+00 -0.00000000000E+00 -0.56247201787E+02  0.56247201787E+02  0.00000000000E+00 0. -1.
         25    2    1    2    0    0  0.25337815283E+02  0.53551619943E+02  0.17989152382E+04  0.18042260336E+04  0.12500306156E+03 0.  0.
          2    1    1    2  501    0  0.79598278576E-01 -0.43449184886E+02 -0.44630238286E+02  0.62287207134E+02  0.00000000000E+00 0. -1.
          1    1    1    2  502    0 -0.25417413562E+02 -0.10102435057E+02  0.14052180482E+04  0.14054842109E+04  0.00000000000E+00 0. -1.
         22    1    3    3    0    0  0.59079419889E+02  0.54148920339E+02  0.16302090545E+04  0.16321777001E+04  0.00000000000E+00 0. -1.
         22    1    3    3    0    0 -0.33741604606E+02 -0.59730039561E+00  0.16870618367E+03  0.17204833350E+03  0.00000000000E+00 0. -1.
</event>
<event>
 7    1  0.7802682E-006  0.9885951E+02  0.7818608E-02  0.1320594E+00
          2   -1    0    0  502    0  0.00000000000E+00  0.00000000000E+00  0.64998369912E+03  0.64998369912E+03  0.00000000000E+00 0. -1.
          1   -1    0    0  501    0 -0.00000000000E+00 -0.00000000000E+00 -0.13588324510E+03  0.13588324510E+03  0.00000000000E+00 0. -1.
         25    2    1    2    0    0 -0.86899864016E+02  0.32079178302E+02  0.12875264624E+03  0.20194272990E+03  0.12499184853E+03 0.  0.
          2    1    1    2  501    0  0.37979954116E+02  0.58538587178E+02 -0.80670843994E+02  0.10666315284E+03  0.00000000000E+00 0. -1.
          1    1    1    2  502    0  0.48919909899E+02 -0.90617765479E+02  0.46601865177E+03  0.47726106148E+03  0.00000000000E+00 0. -1.
         22    1    3    3    0    0 -0.30244649088E+02  0.44991600662E+02 -0.66302384211E+01  0.54616325308E+02  0.00000000000E+00 0.  1.
         22    1    3    3    0    0 -0.56655214927E+02 -0.12912422361E+02  0.13538288467E+03  0.14732640459E+03  0.00000000000E+00 0.  1.
</event>
<event>
 7    1  0.7802682E-006  0.7461392E+02  0.7818608E-02  0.1475406E+00
          2   -1    0    0  502    0  0.00000000000E+00  0.00000000000E+00  0.13674223302E+04  0.13674223302E+04  0.00000000000E+00 0. -1.
          1   -1    0    0  501    0 -0.00000000000E+00 -0.00000000000E+00 -0.37025450515E+03  0.37025450515E+03  0.00000000000E+00 0. -1.
         25    2    1    2    0    0  0.46664853754E+02 -0.19258625332E+02 -0.29323024513E+02  0.13796253815E+03  0.12500127575E+03 0.  0.
          2    1    1    2  501    0 -0.73281157225E+02  0.23389328688E+02 -0.28130922667E+03  0.29163687988E+03  0.00000000000E+00 0. -1.
          1    1    1    2  502    0  0.26616303471E+02 -0.41307033561E+01  0.13078000763E+04  0.13080774174E+04  0.00000000000E+00 0. -1.
         22    1    3    3    0    0  0.66217295072E+02 -0.33911656761E+02  0.24929671468E+02  0.78461577542E+02  0.00000000000E+00 0. -1.
         22    1    3    3    0    0 -0.19552441318E+02  0.14653031429E+02 -0.54252695982E+02  0.59500960604E+02  0.00000000000E+00 0. -1.
</event>
<event>
 7    1  0.7802682E-006  0.6826634E+02  0.7818608E-02  0.1435168E+00
          2   -1    0    0  502    0  0.00000000000E+00  0.00000000000E+00  0.27165496992E+03  0.27165496992E+03  0.00000000000E+00 0. -1.
          1   -1    0    0  501    0 -0.00000000000E+00 -0.00000000000E+00 -0.13202518412E+04  0.13202518412E+04  0.00000000000E+00 0. -1.
         25    2    1    2    0    0 -0.39000558587E+02 -0.22026966245E+02 -0.73632177916E+03  0.74819784267E+03  0.12499607397E+03 0.  0.
          2    1    1    2  501    0  0.78178882983E+02  0.16895694642E+02 -0.57373340364E+03  0.57928181458E+03  0.00000000000E+00 0. -1.
          1    1    1    2  502    0 -0.39178324396E+02  0.51312716026E+01  0.26145831151E+03  0.26442715388E+03  0.00000000000E+00 0. -1.
         22    1    3    3    0    0 -0.85504110556E+01  0.49651202815E+02 -0.19984684611E+03  0.20609976557E+03  0.00000000000E+00 0.  1.
         22    1    3    3    0    0 -0.30450147532E+02 -0.71678169060E+02 -0.53647493305E+03  0.54209807710E+03  0.00000000000E+00 0.  1.
</event>
<event>
 7    1  0.7802682E-006  0.2373630E+03  0.7818608E-02  0.1248586E+00
          2   -1    0    0  502    0  0.00000000000E+00  0.00000000000E+00  0.69798667771E+03  0.69798667771E+03  0.00000000000E+00 0. -1.
          1   -1    0    0  501    0 -0.00000000000E+00 -0.00000000000E+00 -0.82167770818E+03  0.82167770818E+03  0.00000000000E+00 0. -1.
         25    2    1    2    0    0 -0.19713394746E+03 -0.17421992032E+03 -0.78727738522E+02  0.30172291438E+03  0.12499714545E+03 0.  0.
          2    1    1    2  501    0  0.55854361892E+02 -0.13265644873E+02 -0.60655081515E+03  0.60926150251E+03  0.00000000000E+00 0. -1.
          1    1    1    2  502    0  0.14127958557E+03  0.18748556520E+03  0.56158752320E+03  0.60867996901E+03  0.00000000000E+00 0. -1.
         22    1    3    3    0    0 -0.56757766536E+02 -0.13290475542E+03 -0.30981228861E+02  0.14780038774E+03  0.00000000000E+00 0. -1.
         22    1    3    3    0    0 -0.14037618092E+03 -0.41315164904E+02 -0.47746509661E+02  0.15392252664E+03  0.00000000000E+00 0. -1.
</event>
<event>
 7    1  0.7802682E-006  0.9146792E+02  0.7818608E-02  0.1307864E+00
          2   -1    0    0  502    0  0.00000000000E+00  0.00000000000E+00  0.25318679395E+04  0.25318679395E+04  0.00000000000E+00 0. -1.
          1   -1    0    0  501    0 -0.00000000000E+00 -0.00000000000E+00 -0.25674550433E+04  0.25674550433E+04  0.00000000000E+00 0. -1.
         25    2    1    2    0    0  0.10826916232E+03  0.86664006842E+02  0.31970940876E+03  0.37023320776E+03  0.12500264193E+03 0.  0.
          2    1    1    2  501    0 -0.17697695747E+02 -0.82717617432E+02 -0.25405493692E+04  0.25419572203E+04  0.00000000000E+00 0. -1.
          1    1    1    2  502    0 -0.90571466572E+02 -0.39463894100E+01  0.21852528566E+04  0.21871325547E+04  0.00000000000E+00 0. -1.
         22    1    3    3    0    0  0.77886581934E+02  0.62881263594E+01  0.24227195469E+03  0.25456150575E+03  0.00000000000E+00 0. -1.
         22    1    3    3    0    0  0.30382580386E+02  0.80375880483E+02  0.77437454070E+02  0.11567170202E+03  0.00000000000E+00 0. -1.
</event>
<event>
 7    1  0.7802682E-006  0.1541484E+03  0.7818608E-02  0.1372866E+00
          2   -1    0    0  502    0  0.00000000000E+00  0.00000000000E+00  0.90596084213E+03  0.90596084213E+03  0.00000000000E+00 0. -1.
          1   -1    0    0  501    0 -0.00000000000E+00 -0.00000000000E+00 -0.14128359996E+04  0.14128359996E+04  0.00000000000E+00 0. -1.
         25    2    1    2    0    0  0.17886518898E+03  0.16371587564E+02 -0.23785914042E+03  0.32320101101E+03  0.12498455156E+03 0.  0.
          2    1    1    2  501    0 -0.15028492531E+03 -0.16054852845E+02 -0.11270233588E+04  0.11371125575E+04  0.00000000000E+00 0. -1.
          1    1    1    2  502    0 -0.28580263663E+02 -0.31673471928E+00  0.85800734179E+03  0.85848327320E+03  0.00000000000E+00 0. -1.
         22    1    3    3    0    0  0.93718968287E+02  0.58459861551E+02 -0.71321237826E+02  0.13148201168E+03  0.00000000000E+00 0.  1.
         22    1    3    3    0    0  0.85146220689E+02 -0.42088273986E+02 -0.16653790260E+03  0.19171899934E+03  0.00000000000E+00 0.  1.
</event>
<event>
 7    1  0.7802682E-006  0.2343173E+03  0.7818608E-02  0.1272375E+00
          2   -1    0    0  502    0  0.00000000000E+00  0.00000000000E+00  0.20397577870E+04  0.20397577870E+04  0.00000000000E+00 0. -1.
          1   -1    0    0  501    0 -0.00000000000E+00 -0.00000000000E+00 -0.82289355354E+03  0.82289355354E+03  0.00000000000E+00 0. -1.
         25    2    1    2    0    0  0.25906902210E+03 -0.57764609535E+02  0.68811025768E+03  0.74804615027E+03  0.12499523148E+03 0.  0.
          2    1    1    2  501    0 -0.44921728294E+02 -0.10079063259E+02 -0.78269928537E+03  0.78405211594E+03  0.00000000000E+00 0. -1.
          1    1    1    2  502    0 -0.21414729381E+03  0.67843672794E+02  0.13114532612E+04  0.13305530743E+04  0.00000000000E+00 0. -1.
         22    1    3    3    0    0  0.23143934101E+03 -0.94857263001E+01  0.60699501050E+03  0.64968999557E+03  0.00000000000E+00 0. -1.
         22    1    3    3    0    0  0.27629681087E+02 -0.48278883235E+02  0.81115247175E+02  0.98356154701E+02  0.00000000000E+00 0. -1.
</event>
<event>
 7    1  0.7802682E-006  0.4538487E+03  0.7818608E-02  0.1170061E+00
          2   -1    0    0  502    0  0.00000000000E+00  0.00000000000E+00  0.69492647413E+03  0.69492647413E+03  0.00000000000E+00 0. -1.
          1   -1    0    0  501    0 -0.00000000000E+00 -0.00000000000E+00 -0.76668477385E+03  0.76668477385E+03  0.00000000000E+00 0. -1.
         25    2    1    2    0    0  0.15097720442E+03 -0.43983775789E+03 -0.13273804966E+03  0.49949563945E+03  0.12500053795E+03 0.  0.
          2    1    1    2  501    0  0.57422155425E+02  0.39270515782E+02 -0.34679524641E+03  0.35370385957E+03  0.00000000000E+00 0. -1.
          1    1    1    2  502    0 -0.20839935985E+03  0.40056724210E+03  0.40777499635E+03  0.60841174896E+03  0.00000000000E+00 0. -1.
         22    1    3    3    0    0  0.87434967608E+02 -0.14925357293E+03 -0.10112721714E+03  0.20037019898E+03  0.00000000000E+00 0.  1.
         22    1    3    3    0    0  0.63542236815E+02 -0.29058418495E+03 -0.31610832521E+02  0.29912544047E+03  0.00000000000E+00 0.  1.
</event>
<event>
 7    1  0.7802682E-006  0.6973677E+02  0.7818608E-02  0.1387423E+00
          2   -1    0    0  502    0  0.00000000000E+00  0.00000000000E+00  0.11501477632E+04  0.11501477632E+04  0.00000000000E+00 0. -1.
          1   -1    0    0  501    0 -0.00000000000E+00 -0.00000000000E+00 -0.25430588519E+03  0.25430588519E+03  0.00000000000E+00 0. -1.
         25    2    1    2    0    0  0.55362564165E+02  0.14766111267E+02  0.29695633549E+03  0.32724735326E+03  0.12499885389E+03 0.  0.
          2    1    1    2  501    0 -0.56863205832E+02  0.41321843212E+02 -0.23303005928E+03  0.24340075479E+03  0.00000000000E+00 0. -1.
          1    1    1    2  502    0  0.15006416664E+01 -0.56087954480E+02  0.83191560179E+03  0.83380554031E+03  0.00000000000E+00 0. -1.
         22    1    3    3    0    0  0.56793073063E+02  0.61270145219E+02  0.23740728921E+03  0.25167777974E+03  0.00000000000E+00 0. -1.
         22    1    3    3    0    0 -0.14305088979E+01 -0.46504033952E+02  0.59549046279E+02  0.75569573522E+02  0.00000000000E+00 0. -1.
</event>
<event>
 7    1  0.7802682E-006  0.1339307E+03  0.7818608E-02  0.1263704E+00
          2   -1    0    0  502    0  0.00000000000E+00  0.00000000000E+00  0.34628035526E+03  0.34628035526E+03  0.00000000000E+00 0. -1.
          1   -1    0    0  501    0 -0.00000000000E+00 -0.00000000000E+00 -0.22672240666E+04  0.22672240666E+04  0.00000000000E+00 0. -1.
         25    2    1    2    0    0 -0.14182369838E+03  0.43783240867E+02 -0.58383921305E+02  0.20264361745E+03  0.12499927929E+03 0.  0.
          2    1    1    2  501    0  0.13546811404E+02 -0.86560802747E+02 -0.21190757016E+04  0.21208861634E+04  0.00000000000E+00 0. -1.
          1    1    1    2  502    0  0.12827688697E+03  0.42777561880E+02  0.25651591161E+03  0.28997464103E+03  0.00000000000E+00 0. -1.
         22    1    3    3    0    0 -0.72143768035E+02 -0.79650661712E+00  0.33038038461E+02  0.79352817684E+02  0.00000000000E+00 0. -1.
         22    1    3    3    0    0 -0.69679930342E+02  0.44579747484E+02 -0.91421959767E+02  0.12329079976E+03  0.00000000000E+00 0. -1.
</event>
<event>
 7    1  0.7802682E-006  0.9106465E+02  0.7818608E-02  0.1377289E+00
          2   -1    0    0  502    0  0.00000000000E+00  0.00000000000E+00  0.20072643448E+04  0.20072643448E+04  0.00000000000E+00 0. -1.
          1   -1    0    0  501    0 -0.00000000000E+00 -0.00000000000E+00 -0.43352299466E+02  0.43352299466E+02  0.00000000000E+00 0. -1.
         25    2    1    2    0    0 -0.12421987711E+03 -0.25253430021E+02  0.70120528011E+03  0.72345113569E+03  0.12499754908E+03 0.  0.
          2    1    1    2  501    0  0.79474972215E+02  0.38467450075E+02  0.29523840125E+02  0.93100338665E+02  0.00000000000E+00 0. -1.
          1    1    1    2  502    0  0.44744904890E+02 -0.13214020054E+02  0.12331829251E+04  0.12340651699E+04  0.00000000000E+00 0. -1.
         22    1    3    3    0    0 -0.92902670058E+02 -0.68178224960E+02  0.35614994019E+03  0.37432867425E+03  0.00000000000E+00 0.  1.
         22    1    3    3    0    0 -0.31317207047E+02  0.42924794939E+02  0.34505533992E+03  0.34912246144E+03  0.00000000000E+00 0.  1.
</event>
<event>
 7    1  0.7802682E-006  0.8003230E+02  0.7818608E-02  0.1348139E+00
          2   -1    0    0  502    0  0.00000000000E+00  0.00000000000E+00  0.73400427292E+03  0.73400427292E+03  0.00000000000E+00 0. -1.
          1   -1    0    0  501    0 -0.00000000000E+00 -0.00000000000E+00 -0.17259382807E+03  0.17259382807E+03  0.00000000000E+00 0. -1.
         25    2    1    2    0    0  0.99362804249E+01  0.14078684162E+03  0.23717831961E+03  0.30298043788E+03  0.12499570394E+03 0.  0.
          2    1    1    2  501    0 -0.22794569863E+02 -0.74262011853E+02 -0.12615974704E+03  0.14815775577E+03  0.00000000000E+00 0. -1.
          1    1    1    2  502    0  0.12858289438E+02 -0.66524829767E+02  0.45039187228E+03  0.45545990735E+03  0.00000000000E+00 0. -1.
         22    1    3    3    0    0  0.64574968943E+02  0.63607349370E+02  0.87840377615E+02  0.12622104994E+03  0.00000000000E+00 0.  1.
         22    1    3    3    0    0 -0.54638688518E+02  0.77179492250E+02  0.14933794199E+03  0.17675938794E+03  0.00000000000E+00 0.  1.
</event>
<event>
 7    1  0.7802682E-006  0.7640252E+02  0.7818608E-02  0.1378711E+00
          2   -1    0    0  502    0  0.00000000000E+00  0.00000000000E+00  0.20514779020E+03  0.20514779020E+03  0.00000000000E+00 0. -1.
          1   -1    0    0  501    0 -0.00000000000E+00 -0.00000000000E+00 -0.30829997321E+04  0.30829997321E+04  0.00000000000E+00 0. -1.
         25    2    1    2    0    0 -0.10793505617E+03  0.57668279598E+02 -0.11463619661E+03  0.20914513236E+03  0.12499848798E+03 0.  0.
          2    1    1    2  501    0  0.54624332416E+02 -0.61179631808E+01 -0.29121278274E+04  0.29126465165E+04  0.00000000000E+00 0. -1.
          1    1    1    2  502    0  0.53310723752E+02 -0.51550316417E+02  0.14891208216E+03  0.16635587336E+03  0.00000000000E+00 0. -1.
         22    1    3    3    0    0 -0.53203108400E+02  0.92298321504E+02 -0.91292626129E+02  0.14029930321E+03  0.00000000000E+00 0.  1.
         22    1    3    3    0    0 -0.54731947768E+02 -0.34630041907E+02 -0.23343570484E+02  0.68845829154E+02  0.00000000000E+00 0.  1.
</event>
<event>
 7    1  0.7802682E-006  0.9188952E+02  0.7818608E-02  0.1369698E+00
          2   -1    0    0  502    0  0.00000000000E+00  0.00000000000E+00  0.92864625989E+03  0.92864625989E+03  0.00000000000E+00 0. -1.
          1   -1    0    0  501    0 -0.00000000000E+00 -0.00000000000E+00 -0.12698999283E+03  0.12698999283E+03  0.00000000000E+00 0. -1.
         25    2    1    2    0    0  0.91880599023E+02 -0.61465976910E+02  0.14265638497E+03  0.21953573678E+03  0.12499993902E+03 0.  0.
          2    1    1    2  501    0 -0.45666698865E+02  0.78401659596E+02 -0.64250498566E+02  0.11117730964E+03  0.00000000000E+00 0. -1.
          1    1    1    2  502    0 -0.46213900158E+02 -0.16935682687E+02  0.72325038066E+03  0.72492320630E+03  0.00000000000E+00 0. -1.
         22    1    3    3    0    0 -0.12912484608E+02  0.26071037734E+02  0.15555608274E+02  0.32991032358E+02  0.00000000000E+00 0.  1.
         22    1    3    3    0    0  0.10479308363E+03 -0.87537014643E+02  0.12710077670E+03  0.18654470442E+03  0.00000000000E+00 0.  1.
</event>
<event>
 7    1  0.7802682E-006  0.6347066E+02  0.7818608E-02  0.1432225E+00
          2   -1    0    0  502    0  0.00000000000E+00  0.00000000000E+00  0.14218639707E+04  0.14218639707E+04  0.00000000000E+00 0. -1.
          1   -1    0    0  501    0 -0.00000000000E+00 -0.00000000000E+00 -0.34598183654E+03  0.34598183654E+03  0.00000000000E+00 0. -1.
         25    2    1    2    0    0 -0.16876606254E+02 -0.28909442708E+02 -0.16445123847E+02  0.13044533978E+03  0.12499987542E+03 0.  0.
          2    1    1    2  501    0 -0.42949112659E+02  0.65925480159E+01 -0.27005212288E+03  0.27352556927E+03  0.00000000000E+00 0. -1.
          1    1    1    2  502    0  0.59825718914E+02  0.22316894692E+02  0.13623793809E+04  0.13638748982E+04  0.00000000000E+00 0. -1.
         22    1    3    3    0    0 -0.40063046177E+02 -0.17637975013E+00 -0.60751024394E+02  0.72772012091E+02  0.00000000000E+00 0. -1.
         22    1    3    3    0    0  0.23186439923E+02 -0.28733062958E+02  0.44305900547E+02  0.57673327687E+02  0.00000000000E+00 0. -1.
</event>
<event>
 7    1  0.7802682E-006  0.1928086E+03  0.7818608E-02  0.1212873E+00
          2   -1    0    0  502    0  0.00000000000E+00  0.00000000000E+00  0.19465576327E+04  0.19465576327E+04  0.00000000000E+00 0. -1.
          1   -1    0    0  501    0 -0.00000000000E+00 -0.00000000000E+00 -0.12188094296E+04  0.12188094296E+04  0.00000000000E+00 0. -1.
         25    2    1    2    0    0  0.12028404431E+03 -0.64223303797E+02  0.25548595900E+03  0.31542075618E+03  0.12499717644E+03 0.  0.
          2    1    1    2  501    0  0.38120947843E+01 -0.10207743832E+03 -0.11801471540E+04  0.11845596821E+04  0.00000000000E+00 0. -1.
          1    1    1    2  502    0 -0.12409613910E+03  0.16630074212E+03  0.16524093981E+04  0.16653866240E+04  0.00000000000E+00 0. -1.
         22    1    3    3    0    0  0.72544173581E+02 -0.45966429404E+02  0.41438991606E+02  0.95355963516E+02  0.00000000000E+00 0.  1.
         22    1    3    3    0    0  0.47739870731E+02 -0.18256874393E+02  0.21404696740E+03  0.22006479267E+03  0.00000000000E+00 0.  1.
</event>
<event>
 7    1  0.7802682E-006  0.6870284E+02  0.7818608E-02  0.1465149E+00
          2   -1    0    0  502    0  0.00000000000E+00  0.00000000000E+00  0.20875913194E+04  0.20875913194E+04  0.00000000000E+00 0. -1.
          1   -1    0    0  501    0 -0.00000000000E+00 -0.00000000000E+00 -0.35438451113E+03  0.35438451113E+03  0.00000000000E+00 0. -1.
         25    2    1    2    0    0  0.73122927772E+02  0.38369406782E+02  0.65434898118E+02  0.16348044138E+03  0.12499981952E+03 0.  0.
          2    1    1    2  501    0 -0.49059092989E+01 -0.31096864725E+02 -0.30395218783E+03  0.30557816583E+03  0.00000000000E+00 0. -1.
          1    1    1    2  502    0 -0.68217018473E+02 -0.72725420566E+01  0.19717240980E+04  0.19729172233E+04  0.00000000000E+00 0. -1.
         22    1    3    3    0    0  0.74411639969E+02  0.49915142974E+02 -0.72290373447E+01  0.89893674093E+02  0.00000000000E+00 0.  1.
         22    1    3    3    0    0 -0.12887121972E+01 -0.11545736192E+02  0.72663935462E+02  0.73586767290E+02  0.00000000000E+00 0.  1.
</event>
<event>
 7    1  0.7802682E-006  0.8136174E+02  0.7818608E-02  0.1354525E+00
          2   -1    0    0  502    0  0.00000000000E+00  0.00000000000E+00  0.14090010486E+04  0.14090010486E+04  0.00000000000E+00 0. -1.
          1   -1    0    0  501    0 -0.00000000000E+00 -0.00000000000E+00 -0.28037173295E+04  0.28037173295E+04  0.00000000000E+00 0. -1.
         25    2    1    2    0    0  0.27890404567E+02 -0.72828553590E+01  0.55895942389E+01  0.12840270428E+03  0.12500038501E+03 0.  0.
          2    1    1    2  501    0  0.20342531335E+02 -0.59753803190E+02 -0.27406764854E+04  0.27414032781E+04  0.00000000000E+00 0. -1.
          1    1    1    2  502    0 -0.48232935902E+02  0.67036658549E+02  0.13403706102E+04  0.13429123957E+04  0.00000000000E+00 0. -1.
         22    1    3    3    0    0  0.50612484660E+02 -0.54887653448E+02  0.10625395273E+02  0.75413375002E+02  0.00000000000E+00 0. -1.
         22    1    3    3    0    0 -0.22722080093E+02  0.47604798089E+02 -0.50358010345E+01  0.52989329274E+02  0.00000000000E+00 0. -1.
</event>
<event>
 7    1  0.7802682E-006  0.6432856E+02  0.7818608E-02  0.1399243E+00
          2   -1    0    0  502    0  0.00000000000E+00  0.00000000000E+00  0.25463983687E+04  0.25463983687E+04  0.00000000000E+00 0. -1.
          1   -1    0    0  501    0 -0.00000000000E+00 -0.00000000000E+00 -0.69553769603E+02  0.69553769603E+02  0.00000000000E+00 0. -1.
         25    2    1    2    0    0 -0.59135069431E+02  0.85342720078E+02  0.49867422897E+03  0.52448255326E+03  0.12500250291E+03 0.  0.
          2    1    1    2  501    0  0.35503250694E+01 -0.55225683952E+02 -0.42521266005E+02  0.69789247300E+02  0.00000000000E+00 0. -1.
          1    1    1    2  502    0  0.55584744361E+02 -0.30117036126E+02  0.20206916361E+04  0.20216803377E+04  0.00000000000E+00 0. -1.
         22    1    3    3    0    0 -0.45321364380E+02  0.11754755169E+03  0.35839408363E+03  0.37989179007E+03  0.00000000000E+00 0.  1.
         22    1    3    3    0    0 -0.13813705051E+02 -0.32204831609E+02  0.14028014534E+03  0.14459076320E+03  0.00000000000E+00 0.  1.
</event>
<event>
 7    1  0.7802682E-006  0.2331573E+03  0.7818608E-02  0.1228383E+00
          2   -1    0    0  502    0  0.00000000000E+00  0.00000000000E+00  0.38687792266E+03  0.38687792266E+03  0.00000000000E+00 0. -1.
          1   -1    0    0  501    0 -0.00000000000E+00 -0.00000000000E+00 -0.68963304421E+03  0.68963304421E+03  0.00000000000E+00 0. -1.
         25    2    1    2    0    0 -0.23964660164E+03 -0.16308203883E+03  0.11834574021E+03  0.33713621376E+03  0.12501546839E+03 0.  0.
          2    1    1    2  501    0  0.16854244581E+03  0.15317996642E+03 -0.54807417474E+03  0.59351154931E+03  0.00000000000E+00 0. -1.
          1    1    1    2  502    0  0.71104155835E+02  0.99020724071E+01  0.12697331298E+03  0.14586320380E+03  0.00000000000E+00 0. -1.
         22    1    3    3    0    0 -0.18973440012E+03 -0.17214171552E+03  0.66664220380E+02  0.26471877736E+03  0.00000000000E+00 0.  1.
         22    1    3    3    0    0 -0.49912201520E+02  0.90596766859E+01  0.51681519834E+02  0.72417436399E+02  0.00000000000E+00 0.  1.
</event>
<event>
 7    1  0.7802682E-006  0.1085976E+03  0.7818608E-02  0.1340627E+00
          2   -1    0    0  502    0  0.00000000000E+00  0.00000000000E+00  0.70059283503E+02  0.70059283503E+02  0.00000000000E+00 0. -1.
          1   -1    0    0  501    0 -0.00000000000E+00 -0.00000000000E+00 -0.12835507555E+04  0.12835507555E+04  0.00000000000E+00 0. -1.
         25    2    1    2    0    0 -0.96858028378E+02  0.11904789823E+03 -0.52897289359E+03  0.56479287479E+03  0.12499915812E+03 0.  0.
          2    1    1    2  501    0  0.45063328488E+02 -0.28403746348E+02 -0.68231934270E+03  0.68439547179E+03  0.00000000000E+00 0. -1.
          1    1    1    2  502    0  0.51794699890E+02 -0.90644151880E+02 -0.21992356890E+01  0.10442169240E+03  0.00000000000E+00 0. -1.
         22    1    3    3    0    0 -0.84619804286E+02  0.92829652591E+02 -0.21138102581E+03  0.24588573312E+03  0.00000000000E+00 0.  1.
         22    1    3    3    0    0 -0.12238224092E+02  0.26218245638E+02 -0.31759186777E+03  0.31890714167E+03  0.00000000000E+00 0.  1.
</event>
<event>
 7    1  0.7802682E-006  0.4146116E+02  0.7818608E-02  0.1573902E+00
          2   -1    0    0  502    0  0.00000000000E+00  0.00000000000E+00  0.14465850803E+04  0.14465850803E+04  0.00000000000E+00 0. -1.
          1   -1    0    0  501    0 -0.00000000000E+00 -0.00000000000E+00 -0.12110089718E+03  0.12110089718E+03  0.00000000000E+00 0. -1.
         25    2    1    2    0    0  0.60326735367E+02 -0.63180427174E+01  0.14385791042E+03  0.19997140109E+03  0.12495691337E+03 0.  0.
          2    1    1    2  501    0 -0.37436952095E+02  0.16796492255E+02 -0.88389554219E+02  0.97449273108E+02  0.00000000000E+00 0. -1.
          1    1    1    2  502    0 -0.22889783272E+02 -0.10478449538E+02  0.12700158269E+04  0.12702653033E+04  0.00000000000E+00 0. -1.
         22    1    3    3    0    0 -0.30240095300E+02 -0.22047256672E+02  0.79168395665E+02  0.87568143538E+02  0.00000000000E+00 0. -1.
         22    1    3    3    0    0  0.90566830667E+02  0.15729213955E+02  0.64689514756E+02  0.11240325755E+03  0.00000000000E+00 0. -1.
</event>
<event>
 7    1  0.7802682E-006  0.7180215E+02  0.7818608E-02  0.1426776E+00
          2   -1    0    0  502    0  0.00000000000E+00  0.00000000000E+00  0.19640561640E+03  0.19640561640E+03  0.00000000000E+00 0. -1.
          1   -1    0    0  501    0 -0.00000000000E+00 -0.00000000000E+00 -0.11233028271E+04  0.11233028271E+04  0.00000000000E+00 0. -1.
         25    2    1    2    0    0  0.20963987928E+02 -0.96227235236E+02  0.68477845007E+02  0.17324407841E+03  0.12500050342E+03 0.  0.
          2    1    1    2  501    0  0.10029102236E+02  0.70891049179E+02 -0.10643280645E+04  0.10667334966E+04  0.00000000000E+00 0. -1.
          1    1    1    2  502    0 -0.30993090164E+02  0.25336186057E+02  0.68953008850E+02  0.79730868497E+02  0.00000000000E+00 0. -1.
         22    1    3    3    0    0  0.33952292633E+02  0.14849163718E+02 -0.78063152799E+01  0.37870759121E+02  0.00000000000E+00 0. -1.
         22    1    3    3    0    0 -0.12988304705E+02 -0.11107639895E+03  0.76284160287E+02  0.13537331929E+03  0.00000000000E+00 0. -1.
</event>
<event>
 7    1  0.7802682E-006  0.2545351E+03  0.7818608E-02  0.1302839E+00
          2   -1    0    0  502    0  0.00000000000E+00  0.00000000000E+00  0.56824389985E+03  0.56824389985E+03  0.00000000000E+00 0. -1.
          1   -1    0    0  501    0 -0.00000000000E+00 -0.00000000000E+00 -0.90129903163E+03  0.90129903163E+03  0.00000000000E+00 0. -1.
         25    2    1    2    0    0  0.18528891973E+03  0.20519968357E+03 -0.26388380277E+03  0.40211770368E+03  0.12500036935E+03 0.  0.
          2    1    1    2  501    0 -0.31434160366E+02 -0.49818708503E+01 -0.53586089595E+03  0.53680520236E+03  0.00000000000E+00 0. -1.
          1    1    1    2  502    0 -0.15385475936E+03 -0.20021781272E+03  0.46668956693E+03  0.53062002543E+03  0.00000000000E+00 0. -1.
         22    1    3    3    0    0  0.14031166649E+03  0.95784426983E+02 -0.21523907450E+03  0.27420773038E+03  0.00000000000E+00 0. -1.
         22    1    3    3    0    0  0.44977253241E+02  0.10941525658E+03 -0.48644728266E+02  0.12790997330E+03  0.00000000000E+00 0. -1.
</event>
<event>
 7    1  0.7802682E-006  0.4345252E+02  0.7818608E-02  0.1579284E+00
          2   -1    0    0  502    0  0.00000000000E+00  0.00000000000E+00  0.67118105574E+03  0.67118105574E+03  0.00000000000E+00 0. -1.
          1   -1    0    0  501    0 -0.00000000000E+00 -0.00000000000E+00 -0.13217183327E+04  0.13217183327E+04  0.00000000000E+00 0. -1.
         25    2    1    2    0    0  0.60941784709E+02 -0.25601754897E+02  0.49176857106E+02  0.14970768490E+03  0.12499870665E+03 0.  0.
          2    1    1    2  501    0 -0.38321005656E+02  0.20307448287E+02 -0.12708468626E+04  0.12715866624E+04  0.00000000000E+00 0. -1.
          1    1    1    2  502    0 -0.22620779053E+02  0.52943066107E+01  0.57113272856E+03  0.57160504106E+03  0.00000000000E+00 0. -1.
         22    1    3    3    0    0  0.85481428267E+02 -0.45341310750E+02  0.69246963902E+01  0.97009589521E+02  0.00000000000E+00 0.  1.
         22    1    3    3    0    0 -0.24539643557E+02  0.19739555852E+02  0.42252160716E+02  0.52698095377E+02  0.00000000000E+00 0.  1.
</event>
<event>
 7    1  0.7802682E-006  0.4310542E+02  0.7818608E-02  0.1545237E+00
          2   -1    0    0  502    0  0.00000000000E+00  0.00000000000E+00  0.12755103735E+04  0.12755103735E+04  0.00000000000E+00 0. -1.
          1   -1    0    0  501    0 -0.00000000000E+00 -0.00000000000E+00 -0.53352614522E+03  0.53352614522E+03  0.00000000000E+00 0. -1.
         25    2    1    2    0    0 -0.30948434900E+02  0.27515760343E+01 -0.10053759107E+03  0.16339786104E+03  0.12500270789E+03 0.  0.
          2    1    1    2  501    0  0.17020756236E+01  0.28991902052E+02 -0.40065830183E+03  0.40170947496E+03  0.00000000000E+00 0. -1.
          1    1    1    2  502    0  0.29246359276E+02 -0.31743478086E+02  0.12431801212E+04  0.12439291827E+04  0.00000000000E+00 0. -1.
         22    1    3    3    0    0  0.23246399156E+02  0.39695075615E+02 -0.33156266416E+01  0.46120358648E+02  0.00000000000E+00 0. -1.
         22    1    3    3    0    0 -0.54194834056E+02 -0.36943499581E+02 -0.97221964429E+02  0.11727750239E+03  0.00000000000E+00 0. -1.
</event>
<event>
 7    1  0.7802682E-006  0.2967659E+02  0.7818608E-02  0.1636162E+00
          2   -1    0    0  502    0  0.00000000000E+00  0.00000000000E+00  0.22114939728E+04  0.22114939728E+04  0.00000000000E+00 0. -1.
          1   -1    0    0  501    0 -0.00000000000E+00 -0.00000000000E+00 -0.10860027167E+02  0.10860027167E+02  0.00000000000E+00 0. -1.
         25    2    1    2    0    0  0.45273730593E+01  0.45017684119E+01  0.65057886216E+03  0.66250934412E+03  0.12500004850E+03 0.  0.
          2    1    1    2  501    0  0.97496475556E+01  0.22190383897E+02  0.26210952848E+02  0.35699899358E+02  0.00000000000E+00 0. -1.
          1    1    1    2  502    0 -0.14277020615E+02 -0.26692152309E+02  0.15238441306E+04  0.15241447564E+04  0.00000000000E+00 0. -1.
         22    1    3    3    0    0  0.28077711502E+02 -0.40177349382E+02  0.52307851789E+03  0.52537007258E+03  0.00000000000E+00 0.  1.
         22    1    3    3    0    0 -0.23550338443E+02  0.44679117794E+02  0.12750034427E+03  0.13713927154E+03  0.00000000000E+00 0.  1.
</event>
<event>
 7    1  0.7802682E-006  0.6794080E+02  0.7818608E-02  0.1401555E+00
          2   -1    0    0  502    0  0.00000000000E+00  0.00000000000E+00  0.84301978864E+03  0.84301978864E+03  0.00000000000E+00 0. -1.
          1   -1    0    0  501    0 -0.00000000000E+00 -0.00000000000E+00 -0.74794753552E+02  0.74794753552E+02  0.00000000000E+00 0. -1.
         25    2    1    2    0    0  0.26177640477E+01 -0.34082944821E+02  0.13317514275E+03  0.18582239900E+03  0.12500338199E+03 0.  0.
          2    1    1    2  501    0  0.38778463016E+02  0.64630906698E+02 -0.17533109663E+02  0.77384321596E+02  0.00000000000E+00 0. -1.
          1    1    1    2  502    0 -0.41396227064E+02 -0.30547961877E+02  0.65258300200E+03  0.65460782159E+03  0.00000000000E+00 0. -1.
         22    1    3    3    0    0  0.21079992538E+02  0.35299053759E+02  0.97156386320E+02  0.10549764303E+03  0.00000000000E+00 0. -1.
         22    1    3    3    0    0 -0.18462228490E+02 -0.69381998580E+02  0.36018756432E+02  0.80324755976E+02  0.00000000000E+00 0. -1.
</event>
<event>
 7    1  0.7802682E-006  0.5646779E+02  0.7818608E-02  0.1528923E+00
          2   -1    0    0  502    0  0.00000000000E+00  0.00000000000E+00  0.13121600640E+04  0.13121600640E+04  0.00000000000E+00 0. -1.
          1   -1    0    0  501    0 -0.00000000000E+00 -0.00000000000E+00 -0.52205190017E+03  0.52205190017E+03  0.00000000000E+00 0. -1.
         25    2    1    2    0    0  0.52650703789E+02 -0.25095479956E+02  0.18042970379E+03  0.22711101883E+03  0.12499062821E+03 0.  0.
          2    1    1    2  501    0 -0.16450164086E+02 -0.18376207477E+02 -0.49768384124E+03  0.49829459031E+03  0.00000000000E+00 0. -1.
          1    1    1    2  502    0 -0.36200539703E+02  0.43471687434E+02  0.11073623013E+04  0.11088063551E+04  0.00000000000E+00 0. -1.
         22    1    3    3    0    0  0.68800065680E+02 -0.98641957762E+01  0.31106947057E+02  0.76147183474E+02  0.00000000000E+00 0. -1.
         22    1    3    3    0    0 -0.16149361891E+02 -0.15231284180E+02  0.14932275673E+03  0.15096383535E+03  0.00000000000E+00 0. -1.
</event>
<event>
 7    1  0.7802682E-006  0.4529635E+02  0.7818608E-02  0.1565166E+00
          2   -1    0    0  502    0  0.00000000000E+00  0.00000000000E+00  0.23940403341E+03  0.23940403341E+03  0.00000000000E+00 0. -1.
          1   -1    0    0  501    0 -0.00000000000E+00 -0.00000000000E+00 -0.16989673133E+04  0.16989673133E+04  0.00000000000E+00 0. -1.
         25    2    1    2    0    0 -0.50452378413E+02 -0.26725355857E+02  0.60658159348E+02  0.15019153798E+03  0.12497359182E+03 0.  0.
          2    1    1    2  501    0  0.22839881563E+02 -0.84065209053E+01 -0.16503826430E+04  0.16505620856E+04  0.00000000000E+00 0. -1.
          1    1    1    2  502    0  0.27612496850E+02  0.35131876762E+02  0.13016120382E+03  0.13761772316E+03  0.00000000000E+00 0. -1.
         22    1    3    3    0    0  0.31203300442E+02 -0.31751210981E+02  0.51183340736E+02  0.67834502476E+02  0.00000000000E+00 0.  1.
         22    1    3    3    0    0 -0.81655678856E+02  0.50258551245E+01  0.94748186117E+01  0.82357035503E+02  0.00000000000E+00 0.  1.
</event>
<event>
 7    1  0.7802682E-006  0.6588159E+02  0.7818608E-02  0.1384453E+00
          2   -1    0    0  502    0  0.00000000000E+00  0.00000000000E+00  0.32058794521E+04  0.32058794521E+04  0.00000000000E+00 0. -1.
          1   -1    0    0  501    0 -0.00000000000E+00 -0.00000000000E+00 -0.67838769126E+03  0.67838769126E+03  0.00000000000E+00 0. -1.
         25    2    1    2    0    0 -0.89766757600E+02  0.88076732683E+02  0.15180029070E+03  0.23341999579E+03  0.12500393821E+03 0.  0.
          2    1    1    2  501    0  0.50183258961E+02 -0.41881907470E+02 -0.63559454956E+03  0.63894669973E+03  0.00000000000E+00 0. -1.
          1    1    1    2  502    0  0.39583498639E+02 -0.46194825212E+02  0.30112860197E+04  0.30119004479E+04  0.00000000000E+00 0. -1.
         22    1    3    3    0    0 -0.11835083698E+03  0.63408607772E+02  0.13972375656E+03  0.19377899860E+03  0.00000000000E+00 0.  1.
         22    1    3    3    0    0  0.28584079383E+02  0.24668124911E+02  0.12076534145E+02  0.39640997185E+02  0.00000000000E+00 0.  1.
</event>
<event>
 7    1  0.7802682E-006  0.9018462E+02  0.7818608E-02  0.1319794E+00
          2   -1    0    0  502    0  0.00000000000E+00  0.00000000000E+00  0.10539528763E+04  0.10539528763E+04  0.00000000000E+00 0. -1.
          1   -1    0    0  501    0 -0.00000000000E+00 -0.00000000000E+00 -0.53951005582E+03  0.53951005582E+03  0.00000000000E+00 0. -1.
         25    2    1    2    0    0 -0.46727729947E+02  0.18386278919E+02  0.48792635878E+03  0.50618022629E+03  0.12499901559E+03 0.  0.
          2    1    1    2  501    0 -0.41401272870E+02  0.64970558119E+02 -0.52091045393E+03  0.52657662294E+03  0.00000000000E+00 0. -1.
          1    1    1    2  502    0  0.88129002817E+02 -0.83356837038E+02  0.54742691561E+03  0.56070608286E+03  0.00000000000E+00 0. -1.
         22    1    3    3    0    0  0.31409016879E+02 -0.12773727234E+02  0.27748049804E+03  0.27954448884E+03  0.00000000000E+00 0. -1.
         22    1    3    3    0    0 -0.78136746826E+02  0.31160006153E+02  0.21044586073E+03  0.22663573745E+03  0.00000000000E+00 0. -1.
</event>
<event>
 7    1  0.7802682E-006  0.5717811E+02  0.7818608E-02  0.1461018E+00
          2   -1    0    0  502    0  0.00000000000E+00  0.00000000000E+00  0.22802886769E+04  0.22802886769E+04  0.00000000000E+00 0. -1.
          1   -1    0    0  501    0 -0.00000000000E+00 -0.00000000000E+00 -0.88276068602E+02  0.88276068602E+02  0.00000000000E+00 0. -1.
         25    2    1    2    0    0 -0.82904167271E+01  0.56522770031E+02  0.88107599656E+03  0.89173063015E+03  0.12500020194E+03 0.  0.
          2    1    1    2  501    0 -0.35012272667E+02 -0.17120949721E+02 -0.77719565980E+02  0.86944333299E+02  0.00000000000E+00 0. -1.
          1    1    1    2  502    0  0.43302689395E+02 -0.39401820309E+02  0.13886561777E+04  0.13898897821E+04  0.00000000000E+00 0. -1.
         22    1    3    3    0    0 -0.52317668406E+02 -0.13399631944E+02  0.30232622536E+03  0.30711208883E+03  0.00000000000E+00 0.  1.
         22    1    3    3    0    0  0.44027251679E+02  0.69922401975E+02  0.57874977120E+03  0.58461854132E+03  0.00000000000E+00 0.  1.
</event>
<event>
 7    1  0.7802682E-006  0.9836534E+02  0.7818608E-02  0.1425047E+00
          2   -1    0    0  502    0  0.00000000000E+00  0.00000000000E+00  0.20645302410E+04  0.20645302410E+04  0.00000000000E+00 0. -1.
          1   -1    0    0  501    0 -0.00000000000E+00 -0.00000000000E+00 -0.47537299216E+02  0.47537299216E+02  0.00000000000E+00 0. -1.
         25    2    1    2    0    0 -0.58732498325E+01 -0.10800839098E+03  0.40274823563E+03  0.43535502220E+03  0.12501018547E+03 0.  0.
          2    1    1    2  501    0  0.26851659520E+02  0.12476206949E+02 -0.22412890225E+02  0.37134956672E+02  0.00000000000E+00 0. -1.
          1    1    1    2  502    0 -0.20978409688E+02  0.95532184030E+02  0.16366575964E+04  0.16395775614E+04  0.00000000000E+00 0. -1.
         22    1    3    3    0    0  0.86853824362E+01  0.25984249339E+02  0.10510989859E+03  0.10862185721E+03  0.00000000000E+00 0. -1.
         22    1    3    3    0    0 -0.14558632269E+02 -0.13399264032E+03  0.29763833703E+03  0.32673316499E+03  0.00000000000E+00 0. -1.
</event>
<event>
 7    1  0.7802682E-006  0.1198764E+03  0.7818608E-02  0.1348833E+00
          2   -1    0    0  502    0  0.00000000000E+00  0.00000000000E+00  0.59399120601E+02  0.59399120601E+02  0.00000000000E+00 0. -1.
          1   -1    0    0  501    0 -0.00000000000E+00 -0.00000000000E+00 -0.98072832127E+03  0.98072832127E+03  0.00000000000E+00 0. -1.
         25    2    1    2    0    0 -0.90868243119E+02 -0.10555588755E+03 -0.43614228858E+03  0.47459983433E+03  0.12500329535E+03 0.  0.
          2    1    1    2  501    0  0.97275476327E+02  0.61047067055E+02 -0.50390012528E+03  0.51682163165E+03  0.00000000000E+00 0. -1.
          1    1    1    2  502    0 -0.64072332076E+01  0.44508820491E+02  0.18713213197E+02  0.48705975886E+02  0.00000000000E+00 0. -1.
         22    1    3    3    0    0 -0.10782541123E+03 -0.10716382253E+03 -0.43066344335E+03  0.45670713330E+03  0.00000000000E+00 0. -1.
         22    1    3    3    0    0  0.16957168108E+02  0.16079349817E+01 -0.54788452348E+01  0.17892701033E+02  0.00000000000E+00 0. -1.
</event>
<event>
 7    1  0.7802682E-006  0.1520007E+03  0.7818608E-02  0.1287179E+00
          2   -1    0    0  502    0  0.00000000000E+00  0.00000000000E+00  0.24873776813E+03  0.24873776813E+03  0.00000000000E+00 0. -1.
          1   -1    0    0  501    0 -0.00000000000E+00 -0.00000000000E+00 -0.26478628333E+04  0.26478628333E+04  0.00000000000E+00 0. -1.
         25    2    1    2    0    0  0.18704508395E+03 -0.89354957198E+02 -0.28240484858E+03  0.37195096412E+03  0.12499939761E+03 0.  0.
          2    1    1    2  501    0 -0.59918300462E+02  0.14477129742E+02 -0.22935355628E+04  0.22943637828E+04  0.00000000000E+00 0. -1.
          1    1    1    2  502    0 -0.12712678349E+03  0.74877827456E+02  0.17681534622E+03  0.23028585450E+03  0.00000000000E+00 0. -1.
         22    1    3    3    0    0  0.10856123776E+03  0.10390097449E+02 -0.89715709205E+02  0.14121758017E+03  0.00000000000E+00 0.  1.
         22    1    3    3    0    0  0.78483846186E+02 -0.99745054647E+02 -0.19268913937E+03  0.23073338395E+03  0.00000000000E+00 0.  1.
</event>
<event>
 7    1  0.7802682E-006  0.2732528E+02  0.7818608E-02  0.1672071E+00
          2   -1    0    0  502    0  0.00000000000E+00  0.00000000000E+00  0.39131290296E+02  0.39131290296E+02  0.00000000000E+00 0. -1.
          1   -1    0    0  501    0 -0.00000000000E+00 -0.00000000000E+00 -0.59503328563E+03  0.59503328563E+03  0.00000000000E+00 0. -1.
         25    2    1    2    0    0  0.90932939942E+01 -0.36271899281E+01 -0.24733729894E+03  0.27730217131E+03  0.12499964105E+03 0.  0.
          2    1    1    2  501    0  0.37790391837E+01 -0.21179634102E+02 -0.32414972343E+03  0.32486289606E+03  0.00000000000E+00 0. -1.
          1    1    1    2  502    0 -0.12872333178E+02  0.24806824030E+02  0.15585027038E+02  0.31999508554E+02  0.00000000000E+00 0. -1.
         22    1    3    3    0    0  0.24657987258E+02  0.13137846602E+02 -0.25234263381E+03  0.25388466710E+03  0.00000000000E+00 0.  1.
         22    1    3    3    0    0 -0.15564693264E+02 -0.16765036530E+02  0.50053348700E+01  0.23417504210E+02  0.00000000000E+00 0.  1.
</event>
<event>
 7    1  0.7802682E-006  0.2629324E+02  0.7818608E-02  0.1675879E+00
          2   -1    0    0  502    0  0.00000000000E+00  0.00000000000E+00  0.99668705540E+03  0.99668705540E+03  0.00000000000E+00 0. -1.
          1   -1    0    0  501    0 -0.00000000000E+00 -0.00000000000E+00 -0.87361906389E+02  0.87361906389E+02  0.00000000000E+00 0. -1.
         25    2    1    2    0    0 -0.59103744965E+01  0.25482146249E+01  0.29432118070E+03  0.31983020445E+03  0.12499990539E+03 0.  0.
          2    1    1    2  501    0  0.25379141826E+02  0.74734306641E+01 -0.72082031935E+02  0.76783932783E+02  0.00000000000E+00 0. -1.
          1    1    1    2  502    0 -0.19468767329E+02 -0.10021645289E+02  0.68708600025E+03  0.68743482456E+03  0.00000000000E+00 0. -1.
         22    1    3    3    0    0 -0.54979898266E+02  0.26735938726E+02  0.93675887623E+02  0.11186050042E+03  0.00000000000E+00 0.  1.
         22    1    3    3    0    0  0.49069523769E+02 -0.24187724101E+02  0.20064529308E+03  0.20796970403E+03  0.00000000000E+00 0.  1.
</event>
<event>
 7    1  0.7802682E-006  0.7697930E+02  0.7818608E-02  0.1509005E+00
          2   -1    0    0  502    0  0.00000000000E+00  0.00000000000E+00  0.10151217359E+04  0.10151217359E+04  0.00000000000E+00 0. -1.
          1   -1    0    0  501    0 -0.00000000000E+00 -0.00000000000E+00 -0.26356871023E+02  0.26356871023E+02  0.00000000000E+00 0. -1.
         25    2    1    2    0    0 -0.38053841516E+02  0.45872056352E+02  0.53058878286E+03  0.54836005471E+03  0.12498781018E+03 0.  0.
          2    1    1    2  501    0  0.54066662328E+02 -0.58947448577E+02  0.75845642658E+02  0.11022961117E+03  0.00000000000E+00 0. -1.
          1    1    1    2  502    0 -0.16012820812E+02  0.13075392225E+02  0.38233043935E+03  0.38288894104E+03  0.00000000000E+00 0. -1.
         22    1    3    3    0    0 -0.13482413045E+02  0.88022990052E+02  0.36710661258E+03  0.37775267999E+03  0.00000000000E+00 0.  1.
         22    1    3    3    0    0 -0.24571428471E+02 -0.42150933700E+02  0.16348217028E+03  0.17060737471E+03  0.00000000000E+00 0.  1.
</event>
<event>
 7    1  0.7802682E-006  0.6491755E+02  0.7818608E-02  0.1414240E+00
          2   -1    0    0  502    0  0.00000000000E+00  0.00000000000E+00  0.55691418660E+03  0.55691418660E+03  0.00000000000E+00 0. -1.
          1   -1    0    0  501    0 -0.00000000000E+00 -0.00000000000E+00 -0.13141691736E+03  0.13141691736E+03  0.00000000000E+00 0. -1.
         25    2    1    2    0    0  0.14876223559E+02 -0.88142445249E+02 -0.46252249415E+02  0.16048341715E+03  0.12500105568E+03 0.  0.
          2    1    1    2  501    0  0.18434299873E+02  0.52542104998E+02  0.21494708026E+01  0.55723571621E+02  0.00000000000E+00 0. -1.
          1    1    1    2  502    0 -0.33310523433E+02  0.35600340250E+02  0.46960004786E+03  0.47212411519E+03  0.00000000000E+00 0. -1.
         22    1    3    3    0    0 -0.16731049883E+02  0.22740918061E+02 -0.34509455647E+02  0.44586768367E+02  0.00000000000E+00 0.  1.
         22    1    3    3    0    0  0.31607273442E+02 -0.11088336331E+03 -0.11742793769E+02  0.11589664878E+03  0.00000000000E+00 0.  1.
</event>
<event>
 7    1  0.7802682E-006  0.7845975E+02  0.7818608E-02  0.1366374E+00
          2   -1    0    0  502    0  0.00000000000E+00  0.00000000000E+00  0.35784714168E+03  0.35784714168E+03  0.00000000000E+00 0. -1.
          1   -1    0    0  501    0 -0.00000000000E+00 -0.00000000000E+00 -0.33776040425E+04  0.33776040425E+04  0.00000000000E+00 0. -1.
         25    2    1    2    0    0 -0.57728756690E+02 -0.11324887788E+03 -0.93978171196E+02  0.20153192679E+03  0.12500121265E+03 0.  0.
          2    1    1    2  501    0  0.28181126726E+01  0.59189668838E+02 -0.32246906705E+04  0.32252350735E+04  0.00000000000E+00 0. -1.
          1    1    1    2  502    0  0.54910644017E+02  0.54059209042E+02  0.29891194097E+03  0.30868418385E+03  0.00000000000E+00 0. -1.
         22    1    3    3    0    0 -0.68184306557E+02 -0.38083175625E+01 -0.33716715963E+02  0.76160487647E+02  0.00000000000E+00 0. -1.
         22    1    3    3    0    0  0.10455549867E+02 -0.10944056032E+03 -0.60261455233E+02  0.12537143914E+03  0.00000000000E+00 0. -1.
</event>
<event>
 7    1  0.7802682E-006  0.7343287E+02  0.7818608E-02  0.1357013E+00
          2   -1    0    0  502    0  0.00000000000E+00  0.00000000000E+00  0.32352642608E+02  0.32352642608E+02  0.00000000000E+00 0. -1.
          1   -1    0    0  501    0 -0.00000000000E+00 -0.00000000000E+00 -0.11898546717E+04  0.11898546717E+04  0.00000000000E+00 0. -1.
         25    2    1    2    0    0  0.40670255011E+02 -0.24629741651E+02 -0.29455578547E+03  0.32349497791E+03  0.12500078465E+03 0.  0.
          2    1    1    2  501    0  0.14429116161E+02  0.73172979145E+02 -0.79555413052E+03  0.79904246374E+03  0.00000000000E+00 0. -1.
          1    1    1    2  502    0 -0.55099371172E+02 -0.48543237494E+02 -0.67392113147E+02  0.99669872701E+02  0.00000000000E+00 0. -1.
         22    1    3    3    0    0  0.81813484577E+02  0.29555568656E+01 -0.21146947289E+03  0.22676313532E+03  0.00000000000E+00 0.  1.
         22    1    3    3    0    0 -0.41143229566E+02 -0.27585298516E+02 -0.83086312577E+02  0.96731842591E+02  0.00000000000E+00 0.  1.
</event>
<event>
 7    1  0.7802682E-006  0.5024011E+02  0.7818608E-02  0.1472353E+00
          2   -1    0    0  502    0  0.00000000000E+00  0.00000000000E+00  0.66209525457E+03  0.66209525457E+03  0.00000000000E+00 0. -1.
          1   -1    0    0  501    0 -0.00000000000E+00 -0.00000000000E+00 -0.12558818924E+04  0.12558818924E+04  0.00000000000E+00 0. -1.
         25    2    1    2    0    0  0.66626382313E+01 -0.81361577919E+02  0.49828831866E+03  0.52017323514E+03  0.12499939573E+03 0.  0.
          2    1    1    2  501    0  0.16259671117E+02  0.47510310696E+02 -0.12416894705E+04  0.12427044491E+04  0.00000000000E+00 0. -1.
          1    1    1    2  502    0 -0.22922309348E+02  0.33851267222E+02  0.14961451400E+03  0.15509946279E+03  0.00000000000E+00 0. -1.
         22    1    3    3    0    0  0.19475798602E+02 -0.20196736301E+02  0.41550169928E+03  0.41644792831E+03  0.00000000000E+00 0.  1.
         22    1    3    3    0    0 -0.12813160371E+02 -0.61164841618E+02  0.82786619383E+02  0.10372530683E+03  0.00000000000E+00 0.  1.
</event>
<event>
 7    1  0.7802682E-006  0.9100306E+02  0.7818608E-02  0.1336459E+00
          2   -1    0    0  502    0  0.00000000000E+00  0.00000000000E+00  0.21566091794E+03  0.21566091794E+03  0.00000000000E+00 0. -1.
          1   -1    0    0  501    0 -0.00000000000E+00 -0.00000000000E+00 -0.19925412603E+03  0.19925412603E+03  0.00000000000E+00 0. -1.
         25    2    1    2    0    0 -0.37161234634E+02 -0.34615726595E+02 -0.38741283707E+02  0.14037354326E+03  0.12499855478E+03 0.  0.
          2    1    1    2  501    0 -0.62018297041E+02  0.22309275433E+02 -0.81772170357E+02  0.10502695265E+03  0.00000000000E+00 0. -1.
          1    1    1    2  502    0  0.99179531676E+02  0.12306451163E+02  0.13692024598E+03  0.16951454805E+03  0.00000000000E+00 0. -1.
         22    1    3    3    0    0 -0.67631313627E+02 -0.47790630604E+02 -0.58820852405E+02  0.10157672782E+03  0.00000000000E+00 0.  1.
         22    1    3    3    0    0  0.30470078993E+02  0.13174904009E+02  0.20079568698E+02  0.38796815444E+02  0.00000000000E+00 0.  1.
</event>
<event>
 7    1  0.7802682E-006  0.8257515E+02  0.7818608E-02  0.1366475E+00
          2   -1    0    0  502    0  0.00000000000E+00  0.00000000000E+00  0.15413543878E+03  0.15413543878E+03  0.00000000000E+00 0. -1.
          1   -1    0    0  501    0 -0.00000000000E+00 -0.00000000000E+00 -0.25284662255E+03  0.25284662255E+03  0.00000000000E+00 0. -1.
         25    2    1    2    0    0 -0.11117251510E+02 -0.40205717338E+01  0.37333204688E+02  0.13099352685E+03  0.12500311046E+03 0.  0.
          2    1    1    2  501    0 -0.32253365980E+02 -0.76015624907E+02 -0.16156762119E+03  0.18144627597E+03  0.00000000000E+00 0. -1.
          1    1    1    2  502    0  0.43370617489E+02  0.80036196641E+02  0.25523232731E+02  0.94542258505E+02  0.00000000000E+00 0. -1.
         22    1    3    3    0    0 -0.24307206768E+02 -0.48601819843E+02  0.58556883417E+02  0.79886705956E+02  0.00000000000E+00 0. -1.
         22    1    3    3    0    0  0.13189955258E+02  0.44581248109E+02 -0.21223678729E+02  0.51106820890E+02  0.00000000000E+00 0. -1.
</event>
<event>
 7    1  0.7802682E-006  0.8388530E+02  0.7818608E-02  0.1378805E+00
          2   -1    0    0  502    0  0.00000000000E+00  0.00000000000E+00  0.89805562547E+03  0.89805562547E+03  0.00000000000E+00 0. -1.
          1   -1    0    0  501    0 -0.00000000000E+00 -0.00000000000E+00 -0.23780419321E+03  0.23780419321E+03  0.00000000000E+00 0. -1.
         25    2    1    2    0    0  0.10118228843E+03  0.86112900346E+02  0.37917174747E+03  0.42077291834E+03  0.12500139053E+03 0.  0.
          2    1    1    2  501    0 -0.61771146789E+02 -0.55303581995E+02 -0.20776088383E+03  0.22369341879E+03  0.00000000000E+00 0. -1.
          1    1    1    2  502    0 -0.39411141636E+02 -0.30809318351E+02  0.48884056862E+03  0.49139348155E+03  0.00000000000E+00 0. -1.
         22    1    3    3    0    0  0.63417343129E+02  0.10445471292E+03  0.18225099355E+03  0.21942645946E+03  0.00000000000E+00 0.  1.
         22    1    3    3    0    0  0.37764945297E+02 -0.18341812572E+02  0.19692075392E+03  0.20134645888E+03  0.00000000000E+00 0.  1.
</event>
<event>
 7    1  0.7802682E-006  0.1579112E+03  0.7818608E-02  0.1209883E+00
          2   -1    0    0  502    0  0.00000000000E+00  0.00000000000E+00  0.27683414051E+03  0.27683414051E+03  0.00000000000E+00 0. -1.
          1   -1    0    0  501    0 -0.00000000000E+00 -0.00000000000E+00 -0.13958869240E+04  0.13958869240E+04  0.00000000000E+00 0. -1.
         25    2    1    2    0    0 -0.52981613452E+02 -0.42901287107E+02 -0.68630073853E+03  0.70091483605E+03  0.12500132755E+03 0.  0.
          2    1    1    2  501    0  0.49083666605E+02 -0.11903636884E+03 -0.67125700192E+03  0.68349456915E+03  0.00000000000E+00 0. -1.
          1    1    1    2  502    0  0.38979468469E+01  0.16193765595E+03  0.23850495696E+03  0.28831165932E+03  0.00000000000E+00 0. -1.
         22    1    3    3    0    0 -0.16108996620E+02 -0.13060371599E+01 -0.43969852616E+01  0.16749298032E+02  0.00000000000E+00 0. -1.
         22    1    3    3    0    0 -0.36872616832E+02 -0.41595249947E+02 -0.68190375326E+03  0.68416553801E+03  0.00000000000E+00 0. -1.
</event>
<event>
 7    1  0.7802682E-006  0.3474589E+02  0.7818608E-02  0.1626747E+00
          2   -1    0    0  502    0  0.00000000000E+00  0.00000000000E+00  0.10699454295E+04  0.10699454295E+04  0.00000000000E+00 0. -1.
          1   -1    0    0  501    0 -0.00000000000E+00 -0.00000000000E+00 -0.10732423845E+04  0.10732423845E+04  0.00000000000E+00 0. -1.
         25    2    1    2    0    0 -0.45594778847E+02  0.17868599044E+02  0.54260786419E+03  0.55896860627E+03  0.12499775132E+03 0.  0.
          2    1    1    2  501    0  0.11591841539E+02 -0.18532543792E+02 -0.10643926953E+04  0.10646171310E+04  0.00000000000E+00 0. -1.
          1    1    1    2  502    0  0.34002937308E+02  0.66394474706E+00  0.51848787600E+03  0.51960207672E+03  0.00000000000E+00 0. -1.
         22    1    3    3    0    0  0.44728590371E+01  0.15058353436E+02  0.17667032171E+01  0.15807647404E+02  0.00000000000E+00 0.  1.
         22    1    3    3    0    0 -0.50067637884E+02  0.28102456082E+01  0.54084116097E+03  0.54316095887E+03  0.00000000000E+00 0.  1.
</event>
<event>
 7    1  0.7802682E-006  0.1006906E+03  0.7818608E-02  0.1297531E+00
          2   -1    0    0  502    0  0.00000000000E+00  0.00000000000E+00  0.71910927602E+02  0.71910927602E+02  0.00000000000E+00 0. -1.
          1   -1    0    0  501    0 -0.00000000000E+00 -0.00000000000E+00 -0.29719723497E+04  0.29719723497E+04  0.00000000000E+00 0. -1.
         25    2    1    2    0    0  0.12779210642E+03 -0.10901286658E+03 -0.11805443481E+04  0.11989686270E+04  0.12500473244E+03 0.  0.
          2    1    1    2  501    0 -0.34206610081E+02  0.77252505868E+02 -0.17416012110E+04  0.17436492823E+04  0.00000000000E+00 0. -1.
          1    1    1    2  502    0 -0.93585496339E+02  0.31760360709E+02  0.22084136983E+02  0.10126536794E+03  0.00000000000E+00 0. -1.
         22    1    3    3    0    0  0.14352912289E+03 -0.99658852262E+02 -0.11511732229E+04  0.11643591735E+04  0.00000000000E+00 0. -1.
         22    1    3    3    0    0 -0.15737016471E+02 -0.93540143149E+01 -0.29371125270E+02  0.34609453489E+02  0.00000000000E+00 0. -1.
</event>
<event>
 7    1  0.7802682E-006  0.9318892E+02  0.7818608E-02  0.1332202E+00
          2   -1    0    0  502    0  0.00000000000E+00  0.00000000000E+00  0.11714791009E+04  0.11714791009E+04  0.00000000000E+00 0. -1.
          1   -1    0    0  501    0 -0.00000000000E+00 -0.00000000000E+00 -0.73613261817E+03  0.73613261817E+03  0.00000000000E+00 0. -1.
         25    2    1    2    0    0  0.19523132548E+02 -0.89418750253E+02 -0.46459694511E+03  0.48974738520E+03  0.12500125720E+03 0.  0.
          2    1    1    2  501    0 -0.66237440720E+02  0.86678000268E+01 -0.25273628947E+03  0.26141568683E+03  0.00000000000E+00 0. -1.
          1    1    1    2  502    0  0.46714308172E+02  0.80750950226E+02  0.11526797173E+04  0.11564486470E+04  0.00000000000E+00 0. -1.
         22    1    3    3    0    0  0.60248822993E+02 -0.49244701905E+02 -0.14021337982E+03  0.16035820284E+03  0.00000000000E+00 0. -1.
         22    1    3    3    0    0 -0.40725690445E+02 -0.40174048348E+02 -0.32438356530E+03  0.32938918236E+03  0.00000000000E+00 0. -1.
</event>
<event>
 7    1  0.7802682E-006  0.5732767E+02  0.7818608E-02  0.1495352E+00
          2   -1    0    0  502    0  0.00000000000E+00  0.00000000000E+00  0.43161554255E+03  0.43161554255E+03  0.00000000000E+00 0. -1.
          1   -1    0    0  501    0 -0.00000000000E+00 -0.00000000000E+00 -0.30780301508E+04  0.30780301508E+04  0.00000000000E+00 0. -1.
         25    2    1    2    0    0 -0.60432799586E+02  0.48093246946E+01 -0.69088171334E+03  0.70471120957E+03  0.12500037680E+03 0.  0.
          2    1    1    2  501    0  0.52067843656E+02  0.24501967590E+02 -0.23793384296E+04  0.23800341949E+04  0.00000000000E+00 0. -1.
          1    1    1    2  502    0  0.83649559302E+01 -0.29311292284E+02  0.42380553459E+03  0.42490028888E+03  0.00000000000E+00 0. -1.
         22    1    3    3    0    0 -0.24779517239E+02  0.60866544532E+02 -0.45242487367E+03  0.45717286341E+03  0.00000000000E+00 0.  1.
         22    1    3    3    0    0 -0.35653282348E+02 -0.56057219837E+02 -0.23845683966E+03  0.24753834616E+03  0.00000000000E+00 0.  1.
</event>
<event>
 7    1  0.7802682E-006  0.1066583E+03  0.7818608E-02  0.1361189E+00
          2   -1    0    0  502    0  0.00000000000E+00  0.00000000000E+00  0.13331964352E+04  0.13331964352E+04  0.00000000000E+00 0. -1.
          1   -1    0    0  501    0 -0.00000000000E+00 -0.00000000000E+00 -0.26842388423E+02  0.26842388423E+02  0.00000000000E+00 0. -1.
         25    2    1    2    0    0 -0.93201963476E+02 -0.58565611073E+02  0.64292698143E+03  0.66415203585E+03  0.12500514579E+03 0.  0.
          2    1    1    2  501    0  0.59940605953E+02  0.89642745001E+02  0.17649258391E+03  0.20682922944E+03  0.00000000000E+00 0. -1.
          1    1    1    2  502    0  0.33261357522E+02 -0.31077133928E+02  0.48693448143E+03  0.48905755833E+03  0.00000000000E+00 0. -1.
         22    1    3    3    0    0  0.44731822206E+01 -0.63036562848E+02  0.34040432552E+03  0.34622062684E+03  0.00000000000E+00 0. -1.
         22    1    3    3    0    0 -0.97675145696E+02  0.44709517751E+01  0.30252265591E+03  0.31793140901E+03  0.00000000000E+00 0. -1.
</event>
<event>
 7    1  0.7802682E-006  0.1291060E+03  0.7818608E-02  0.1257492E+00
          2   -1    0    0  502    0  0.00000000000E+00  0.00000000000E+00  0.31814847147E+02  0.31814847147E+02  0.00000000000E+00 0. -1.
          1   -1    0    0  501    0 -0.00000000000E+00 -0.00000000000E+00 -0.20915154969E+04  0.20915154969E+04  0.00000000000E+00 0. -1.
         25    2    1    2    0    0  0.16179953186E+03 -0.12732390134E+03 -0.10503260614E+04  0.10775898657E+04  0.12499847652E+03 0.  0.
          2    1    1    2  501    0 -0.82132621430E+02  0.72683619750E+02 -0.86562937163E+03  0.87254964622E+03  0.00000000000E+00 0. -1.
          1    1    1    2  502    0 -0.79666910434E+02  0.54640281591E+02 -0.14374521676E+03  0.17319083212E+03  0.00000000000E+00 0. -1.
         22    1    3    3    0    0  0.82415632117E+02  0.77666945431E+01 -0.42004252764E+03  0.42812192538E+03  0.00000000000E+00 0. -1.
         22    1    3    3    0    0  0.79383899748E+02 -0.13509059588E+03 -0.63028353372E+03  0.64946794033E+03  0.00000000000E+00 0. -1.
</event>
<event>
 7    1  0.7802682E-006  0.7170229E+02  0.7818608E-02  0.1467713E+00
          2   -1    0    0  502    0  0.00000000000E+00  0.00000000000E+00  0.10524786113E+04  0.10524786113E+04  0.00000000000E+00 0. -1.
          1   -1    0    0  501    0 -0.00000000000E+00 -0.00000000000E+00 -0.37999150766E+03  0.37999150766E+03  0.00000000000E+00 0. -1.
         25    2    1    2    0    0  0.50673624217E+02  0.78803578628E+00  0.16574729637E+03  0.21368560706E+03  0.12498373982E+03 0.  0.
          2    1    1    2  501    0  0.19256551583E+02 -0.22497077350E+02 -0.35384916247E+03  0.35508613469E+03  0.00000000000E+00 0. -1.
          1    1    1    2  502    0 -0.69930175801E+02  0.21709041564E+02  0.86058896971E+03  0.86369837719E+03  0.00000000000E+00 0. -1.
         22    1    3    3    0    0 -0.41592076138E+02 -0.28166046098E+01  0.40881507686E+02  0.58387770378E+02  0.00000000000E+00 0. -1.
         22    1    3    3    0    0  0.92265700355E+02  0.36046403961E+01  0.12486578869E+03  0.15529783668E+03  0.00000000000E+00 0. -1.
</event>
<event>
 7    1  0.7802682E-006  0.2381198E+02  0.7818608E-02  0.1699036E+00
          2   -1    0    0  502    0  0.00000000000E+00  0.00000000000E+00  0.25416734154E+03  0.25416734154E+03  0.00000000000E+00 0. -1.
          1   -1    0    0  501    0 -0.00000000000E+00 -0.00000000000E+00 -0.21989163510E+03  0.21989163510E+03  0.00000000000E+00 0. -1.
         25    2    1    2    0    0 -0.97850950517E+01  0.92514549859E+01  0.92140689297E+02  0.15587520138E+03  0.12500333706E+03 0.  0.
          2    1    1    2  501    0  0.22611112460E+02  0.78048231661E+01 -0.18638011737E+03  0.18790882316E+03  0.00000000000E+00 0. -1.
          1    1    1    2  502    0 -0.12826017408E+02 -0.17056278152E+02  0.12851513451E+03  0.13027495210E+03  0.00000000000E+00 0. -1.
         22    1    3    3    0    0  0.30305699589E+02  0.27885994944E+01  0.10805554313E+03  0.11225957472E+03  0.00000000000E+00 0. -1.
         22    1    3    3    0    0 -0.40090794641E+02  0.64628554914E+01 -0.15914853838E+02  0.43615626658E+02  0.00000000000E+00 0. -1.
</event>
<event>
 7    1  0.7802682E-006  0.7616030E+02  0.7818608E-02  0.1436026E+00
          2   -1    0    0  502    0  0.00000000000E+00  0.00000000000E+00  0.24270708318E+04  0.24270708318E+04  0.00000000000E+00 0. -1.
          1   -1    0    0  501    0 -0.00000000000E+00 -0.00000000000E+00 -0.38990809313E+03  0.38990809313E+03  0.00000000000E+00 0. -1.
         25    2    1    2    0    0 -0.92315115832E+01  0.10745970709E+03  0.49180851722E+03  0.51878186003E+03  0.12500476483E+03 0.  0.
          2    1    1    2  501    0  0.12182363447E+02 -0.33013578097E+02 -0.37487500037E+03  0.37652300357E+03  0.00000000000E+00 0. -1.
          1    1    1    2  502    0 -0.29508518637E+01 -0.74446128991E+02  0.19202292219E+04  0.19216740614E+04  0.00000000000E+00 0. -1.
         22    1    3    3    0    0  0.43024133565E+02  0.34133361420E+02  0.78658379645E+02  0.95933847620E+02  0.00000000000E+00 0.  1.
         22    1    3    3    0    0 -0.52255645148E+02  0.73326345668E+02  0.41315013758E+03  0.42284801241E+03  0.00000000000E+00 0.  1.
</event>
<event>
 7    1  0.7802682E-006  0.7867956E+02  0.7818608E-02  0.1359164E+00
          2   -1    0    0  502    0  0.00000000000E+00  0.00000000000E+00  0.59525225771E+03  0.59525225771E+03  0.00000000000E+00 0. -1.
          1   -1    0    0  501    0 -0.00000000000E+00 -0.00000000000E+00 -0.71431234366E+03  0.71431234366E+03  0.00000000000E+00 0. -1.
         25    2    1    2    0    0  0.42761867916E+02 -0.87683064767E+02 -0.23660672944E+03  0.28482396051E+03  0.12500018747E+03 0.  0.
          2    1    1    2  501    0 -0.61743064917E+02  0.11288261618E+02 -0.44868984531E+03  0.45305872489E+03  0.00000000000E+00 0. -1.
          1    1    1    2  502    0  0.18981197001E+02  0.76394803149E+02  0.56623648881E+03  0.57168191597E+03  0.00000000000E+00 0. -1.
         22    1    3    3    0    0  0.28024026435E+02 -0.65306651254E+02 -0.31091074899E+02  0.77569064027E+02  0.00000000000E+00 0.  1.
         22    1    3    3    0    0  0.14737841482E+02 -0.22376413512E+02 -0.20551565454E+03  0.20725489648E+03  0.00000000000E+00 0.  1.
</event>
<event>
 7    1  0.7802682E-006  0.7328694E+02  0.7818608E-02  0.1519281E+00
          2   -1    0    0  502    0  0.00000000000E+00  0.00000000000E+00  0.17702983364E+04  0.17702983364E+04  0.00000000000E+00 0. -1.
          1   -1    0    0  501    0 -0.00000000000E+00 -0.00000000000E+00 -0.11848944405E+03  0.11848944405E+03  0.00000000000E+00 0. -1.
         25    2    1    2    0    0  0.54387563728E+02 -0.16164717577E+02  0.57208891922E+03  0.58832798328E+03  0.12499911694E+03 0.  0.
          2    1    1    2  501    0  0.20127927844E+02  0.23232405585E+01 -0.10822211119E+03  0.11010248079E+03  0.00000000000E+00 0. -1.
          1    1    1    2  502    0 -0.74515491572E+02  0.13841477019E+02  0.11879420843E+04  0.11903573163E+04  0.00000000000E+00 0. -1.
         22    1    3    3    0    0  0.16649674909E+02  0.54584395882E+02  0.24305311386E+03  0.24966274072E+03  0.00000000000E+00 0. -1.
         22    1    3    3    0    0  0.37737888819E+02 -0.70749113460E+02  0.32903580536E+03  0.33866524256E+03  0.00000000000E+00 0. -1.
</event>
<event>
 7    1  0.7802682E-006  0.5993502E+02  0.7818608E-02  0.1411385E+00
          2   -1    0    0  502    0  0.00000000000E+00  0.00000000000E+00  0.11522872563E+04  0.11522872563E+04  0.00000000000E+00 0. -1.
          1   -1    0    0  501    0 -0.00000000000E+00 -0.00000000000E+00 -0.14193155528E+04  0.14193155528E+04  0.00000000000E+00 0. -1.
         25    2    1    2    0    0 -0.56858923568E+02  0.22402652714E+02  0.65499266884E+03  0.66960821401E+03  0.12499979199E+03 0.  0.
          2    1    1    2  501    0  0.16060085701E+02 -0.57766294019E+02 -0.14098813370E+04  0.14111556454E+04  0.00000000000E+00 0. -1.
          1    1    1    2  502    0  0.40798837868E+02  0.35363641305E+02  0.48786037162E+03  0.49083894965E+03  0.00000000000E+00 0. -1.
         22    1    3    3    0    0 -0.51813233542E+01  0.12782549744E+02  0.13537046104E+01  0.13859011719E+02  0.00000000000E+00 0. -1.
         22    1    3    3    0    0 -0.51677600214E+02  0.96201029705E+01  0.65363896423E+03  0.65574920229E+03  0.00000000000E+00 0. -1.
</event>
<event>
 7    1  0.7802682E-006  0.5071206E+02  0.7818608E-02  0.1567145E+00
          2   -1    0    0  502    0  0.00000000000E+00  0.00000000000E+00  0.69127478560E+03  0.69127478560E+03  0.00000000000E+00 0. -1.
          1   -1    0    0  501    0 -0.00000000000E+00 -0.00000000000E+00 -0.73572371197E+03  0.73572371197E+03  0.00000000000E+00 0. -1.
         25    2    1    2    0    0 -0.26650347857E+02  0.14570006271E+02 -0.68056891317E+02  0.14553333291E+03  0.12500273760E+03 0.  0.
          2    1    1    2  501    0 -0.21332150569E+02  0.24292644491E+01 -0.62775201992E+03  0.62811906553E+03  0.00000000000E+00 0. -1.
          1    1    1    2  502    0  0.47982498426E+02 -0.16999270720E+02  0.65135998487E+03  0.65334609913E+03  0.00000000000E+00 0. -1.
         22    1    3    3    0    0 -0.61797917992E+02  0.39146416667E+02 -0.10725426458E+02  0.73935508240E+02  0.00000000000E+00 0.  1.
         22    1    3    3    0    0  0.35147570135E+02 -0.24576410396E+02 -0.57331464859E+02  0.71597824668E+02  0.00000000000E+00 0.  1.
</event>
<event>
 7    1  0.7802682E-006  0.4471824E+02  0.7818608E-02  0.1509187E+00
          2   -1    0    0  502    0  0.00000000000E+00  0.00000000000E+00  0.11702287554E+03  0.11702287554E+03  0.00000000000E+00 0. -1.
          1   -1    0    0  501    0 -0.00000000000E+00 -0.00000000000E+00 -0.87955251561E+03  0.87955251561E+03  0.00000000000E+00 0. -1.
         25    2    1    2    0    0 -0.13877727631E+02 -0.74457662473E+02 -0.59049439493E+02  0.15763759401E+03  0.12500495957E+03 0.  0.
          2    1    1    2  501    0  0.20209414143E+02  0.39482804992E+02 -0.76585954747E+03  0.76714285421E+03  0.00000000000E+00 0. -1.
          1    1    1    2  502    0 -0.63316865122E+01  0.34974857481E+02  0.62379346903E+02  0.71794942928E+02  0.00000000000E+00 0. -1.
         22    1    3    3    0    0  0.19201996554E+02 -0.24890213232E+02  0.34528922022E+02  0.46695672630E+02  0.00000000000E+00 0. -1.
         22    1    3    3    0    0 -0.33079724185E+02 -0.49567449241E+02 -0.93578361515E+02  0.11094192138E+03  0.00000000000E+00 0. -1.
</event>
<event>
 7    1  0.7802682E-006  0.3193321E+03  0.7818608E-02  0.1141827E+00
          2   -1    0    0  502    0  0.00000000000E+00  0.00000000000E+00  0.82136694005E+03  0.82136694005E+03  0.00000000000E+00 0. -1.
          1   -1    0    0  501    0 -0.00000000000E+00 -0.00000000000E+00 -0.17362391391E+04  0.17362391391E+04  0.00000000000E+00 0. -1.
         25    2    1    2    0    0 -0.25585095398E+03 -0.30167634546E+02 -0.18433415990E+03  0.34054990471E+03  0.12500143307E+03 0.  0.
          2    1    1    2  501    0  0.32709639481E+03 -0.87631379613E+02 -0.14477117292E+04  0.14867886740E+04  0.00000000000E+00 0. -1.
          1    1    1    2  502    0 -0.71245440831E+02  0.11779901416E+03  0.71717369004E+03  0.73026750048E+03  0.00000000000E+00 0. -1.
         22    1    3    3    0    0 -0.21996411741E+03 -0.70618520179E+01 -0.19768704744E+03  0.29582807748E+03  0.00000000000E+00 0.  1.
         22    1    3    3    0    0 -0.35886836572E+02 -0.23105782529E+02  0.13352887541E+02  0.44721827233E+02  0.00000000000E+00 0.  1.
</event>
<event>
 7    1  0.7802682E-006  0.3764923E+02  0.7818608E-02  0.1567486E+00
          2   -1    0    0  502    0  0.00000000000E+00  0.00000000000E+00  0.16949185852E+04  0.16949185852E+04  0.00000000000E+00 0. -1.
          1   -1    0    0  501    0 -0.00000000000E+00 -0.00000000000E+00 -0.62299903503E+03  0.62299903503E+03  0.00000000000E+00 0. -1.
         25    2    1    2    0    0  0.11377016846E+02 -0.39981199563E+02 -0.37840289891E+03  0.40067687834E+03  0.12500109640E+03 0.  0.
          2    1    1    2  501    0  0.20640846614E+02  0.20166992373E+02 -0.23235597562E+03  0.23414109322E+03  0.00000000000E+00 0. -1.
          1    1    1    2  502    0 -0.32017863461E+02  0.19814207190E+02  0.16826784247E+04  0.16830996487E+04  0.00000000000E+00 0. -1.
         22    1    3    3    0    0  0.48821198638E+02 -0.79138613313E+01 -0.56790691626E+02  0.75308175472E+02  0.00000000000E+00 0. -1.
         22    1    3    3    0    0 -0.37444181791E+02 -0.32067338231E+02 -0.32161220728E+03  0.32536870287E+03  0.00000000000E+00 0. -1.
</event>
<event>
 7    1  0.7802682E-006  0.2899779E+02  0.7818608E-02  0.1634804E+00
          2   -1    0    0  502    0  0.00000000000E+00  0.00000000000E+00  0.99901768891E+03  0.99901768891E+03  0.00000000000E+00 0. -1.
          1   -1    0    0  501    0 -0.00000000000E+00 -0.00000000000E+00 -0.61218620320E+02  0.61218620320E+02  0.00000000000E+00 0. -1.
         25    2    1    2    0    0  0.34071504910E+02  0.50702746499E+00  0.73392092160E+03  0.74526979153E+03  0.12500407381E+03 0.  0.
          2    1    1    2  501    0 -0.13062444360E+02 -0.21315561091E+02 -0.51835375553E+02  0.57548994396E+02  0.00000000000E+00 0. -1.
          1    1    1    2  502    0 -0.21009060550E+02  0.20808533626E+02  0.25571352254E+03  0.25741752331E+03  0.00000000000E+00 0. -1.
         22    1    3    3    0    0  0.79791789482E+01 -0.59900915151E+02  0.43604135031E+03  0.44020886646E+03  0.00000000000E+00 0. -1.
         22    1    3    3    0    0  0.26092325962E+02  0.60407942616E+02  0.29787957130E+03  0.30506092506E+03  0.00000000000E+00 0. -1.
</event>
<event>
 7    1  0.7802682E-006  0.2592000E+02  0.7818608E-02  0.1648982E+00
          2   -1    0    0  502    0  0.00000000000E+00  0.00000000000E+00  0.51155976364E+03  0.51155976364E+03  0.00000000000E+00 0. -1.
          1   -1    0    0  501    0 -0.00000000000E+00 -0.00000000000E+00 -0.30083798572E+03  0.30083798572E+03  0.00000000000E+00 0. -1.
         25    2    1    2    0    0 -0.15640158539E+02  0.20501877369E+01  0.27601596068E+01  0.12603377724E+03  0.12501230617E+03 0.  0.
          2    1    1    2  501    0  0.11024236101E+02  0.23458740047E+02 -0.23812159281E+03  0.23952815957E+03  0.00000000000E+00 0. -1.
          1    1    1    2  502    0  0.46159224384E+01 -0.25508927784E+02  0.44608321112E+03  0.44683581256E+03  0.00000000000E+00 0. -1.
         22    1    3    3    0    0 -0.63008905733E+02 -0.22288739919E+02 -0.17444553152E+02  0.69074036826E+02  0.00000000000E+00 0. -1.
         22    1    3    3    0    0  0.47368747193E+02  0.24338927656E+02  0.20204712759E+02  0.56959740411E+02  0.00000000000E+00 0. -1.
</event>
<event>
 7    1  0.7802682E-006  0.7635206E+02  0.7818608E-02  0.1383183E+00
          2   -1    0    0  502    0  0.00000000000E+00  0.00000000000E+00  0.11033877000E+03  0.11033877000E+03  0.00000000000E+00 0. -1.
          1   -1    0    0  501    0 -0.00000000000E+00 -0.00000000000E+00 -0.94189195969E+03  0.94189195969E+03  0.00000000000E+00 0. -1.
         25    2    1    2    0    0 -0.88948210165E+02  0.38066747302E+02 -0.48357856582E+03  0.50875620437E+03  0.12499513919E+03 0.  0.
          2    1    1    2  501    0  0.46619242342E+02  0.25285450066E+02 -0.42899224169E+03  0.43225808398E+03  0.00000000000E+00 0. -1.
          1    1    1    2  502    0  0.42328967823E+02 -0.63352197368E+02  0.81017617819E+02  0.11121644134E+03  0.00000000000E+00 0. -1.
         22    1    3    3    0    0 -0.97232589184E+02 -0.19967905707E+02 -0.29213412986E+03  0.30853726434E+03  0.00000000000E+00 0. -1.
         22    1    3    3    0    0  0.82843790190E+01  0.58034653008E+02 -0.19144443596E+03  0.20021894002E+03  0.00000000000E+00 0. -1.
</event>
<event>
 7    1  0.7802682E-006  0.1275019E+03  0.7818608E-02  0.1293298E+00
          2   -1    0    0  502    0  0.00000000000E+00  0.00000000000E+00  0.76360843848E+02  0.76360843848E+02  0.00000000000E+00 0. -1.
          1   -1    0    0  501    0 -0.00000000000E+00 -0.00000000000E+00 -0.10996244881E+04  0.10996244881E+04  0.00000000000E+00 0. -1.
         25    2    1    2    0    0  0.17506200947E+03  0.42883939957E+02 -0.54840410301E+03  0.59064200210E+03  0.12500069990E+03 0.  0.
          2    1    1    2  501    0 -0.67864367985E+02  0.14498027310E+02 -0.45724901656E+03  0.46248505747E+03  0.00000000000E+00 0. -1.
          1    1    1    2  502    0 -0.10719764149E+03 -0.57381967267E+02 -0.17610524659E+02  0.12285827236E+03  0.00000000000E+00 0. -1.
         22    1    3    3    0    0 -0.68028105860E+01 -0.69933821513E+01 -0.14508872327E+03  0.14541637888E+03  0.00000000000E+00 0.  1.
         22    1    3    3    0    0  0.18186482006E+03  0.49877322108E+02 -0.40331537974E+03  0.44522562322E+03  0.00000000000E+00 0.  1.
</event>
<event>
 7    1  0.7802682E-006  0.1016916E+03  0.7818608E-02  0.1338287E+00
          2   -1    0    0  502    0  0.00000000000E+00  0.00000000000E+00  0.85935774616E+03  0.85935774616E+03  0.00000000000E+00 0. -1.
          1   -1    0    0  501    0 -0.00000000000E+00 -0.00000000000E+00 -0.75846902035E+02  0.75846902035E+02  0.00000000000E+00 0. -1.
         25    2    1    2    0    0  0.85209551277E+02  0.56153129319E+02  0.55418489492E+03  0.57719939990E+03  0.12499763167E+03 0.  0.
          2    1    1    2  501    0 -0.41334314388E+02 -0.94164806607E+02 -0.17612859995E+02  0.10433479375E+03  0.00000000000E+00 0. -1.
          1    1    1    2  502    0 -0.43875236889E+02  0.38011677288E+02  0.24693880920E+03  0.25367045455E+03  0.00000000000E+00 0. -1.
         22    1    3    3    0    0  0.75338462714E+02  0.92943746238E+02  0.46649908298E+03  0.48159715359E+03  0.00000000000E+00 0. -1.
         22    1    3    3    0    0  0.98710885621E+01 -0.36790616918E+02  0.87685811948E+02  0.95602246311E+02  0.00000000000E+00 0. -1.
</event>
<event>
 7    1  0.7802682E-006  0.1946494E+03  0.7818608E-02  0.1274190E+00
          2   -1    0    0  502    0  0.00000000000E+00  0.00000000000E+00  0.10441393974E+04  0.10441393974E+04  0.00000000000E+00 0. -1.
          1   -1    0    0  501    0 -0.00000000000E+00 -0.00000000000E+00 -0.18910540116E+04  0.18910540116E+04  0.00000000000E+00 0. -1.
         25    2    1    2    0    0  0.20456049537E+03 -0.34112938469E+02 -0.94900701608E+02  0.26007760729E+03  0.12500211923E+03 0.  0.
          2    1    1    2  501    0 -0.17661830780E+03  0.80860117900E+02 -0.17072818008E+04  0.17182966951E+04  0.00000000000E+00 0. -1.
          1    1    1    2  502    0 -0.27942187571E+02 -0.46747179431E+02  0.95526788816E+03  0.95681910661E+03  0.00000000000E+00 0. -1.
         22    1    3    3    0    0  0.26978867144E+01  0.30061515378E+02 -0.89062307483E+01  0.31468940969E+02  0.00000000000E+00 0.  1.
         22    1    3    3    0    0  0.20186260866E+03 -0.64174453848E+02 -0.85994470859E+02  0.22860866632E+03  0.00000000000E+00 0.  1.
</event>
<event>
 7    1  0.7802682E-006  0.9196711E+02  0.7818608E-02  0.1360811E+00
          2   -1    0    0  502    0  0.00000000000E+00  0.00000000000E+00  0.61529195349E+03  0.61529195349E+03  0.00000000000E+00 0. -1.
          1   -1    0    0  501    0 -0.00000000000E+00 -0.00000000000E+00 -0.17456136905E+04  0.17456136905E+04  0.00000000000E+00 0. -1.
         25    2    1    2    0    0 -0.75208711013E+02  0.12134779693E+03 -0.38112995423E+02  0.19354042738E+03  0.12499463419E+03 0.  0.
          2    1    1    2  501    0  0.39725075046E+02 -0.82033364634E+02 -0.16272041951E+04  0.16297549040E+04  0.00000000000E+00 0. -1.
          1    1    1    2  502    0  0.35483635968E+02 -0.39314432299E+02  0.53499545350E+03  0.53761031265E+03  0.00000000000E+00 0. -1.
         22    1    3    3    0    0 -0.48475028340E+02  0.80405367970E+01  0.31051556512E+02  0.58126394748E+02  0.00000000000E+00 0.  1.
         22    1    3    3    0    0 -0.26733682673E+02  0.11330726014E+03 -0.69164551935E+02  0.13541403263E+03  0.00000000000E+00 0.  1.
</event>
<event>
 7    1  0.7802682E-006  0.5760909E+02  0.7818608E-02  0.1409057E+00
          2   -1    0    0  502    0  0.00000000000E+00  0.00000000000E+00  0.14830213995E+03  0.14830213995E+03  0.00000000000E+00 0. -1.
          1   -1    0    0  501    0 -0.00000000000E+00 -0.00000000000E+00 -0.13568826917E+03  0.13568826917E+03  0.00000000000E+00 0. -1.
         25    2    1    2    0    0 -0.54142230789E+02  0.48436023895E+02  0.31108453206E+02  0.14787100855E+03  0.12498267777E+03 0.  0.
          2    1    1    2  501    0 -0.37513771718E+01 -0.57486818324E+02 -0.43723130481E+02  0.72322328853E+02  0.00000000000E+00 0. -1.
          1    1    1    2  502    0  0.57893607961E+02  0.90507944286E+01  0.25228548050E+02  0.63797071714E+02  0.00000000000E+00 0. -1.
         22    1    3    3    0    0 -0.43895741954E+02 -0.25453362241E+02 -0.23006076173E+02  0.55713457548E+02  0.00000000000E+00 0. -1.
         22    1    3    3    0    0 -0.10246488835E+02  0.73889386136E+02  0.54114529379E+02  0.92157551004E+02  0.00000000000E+00 0. -1.
</event>
<event>
 7    1  0.7802682E-006  0.5053974E+02  0.7818608E-02  0.1555180E+00
          2   -1    0    0  502    0  0.00000000000E+00  0.00000000000E+00  0.78650361428E+03  0.78650361428E+03  0.00000000000E+00 0. -1.
          1   -1    0    0  501    0 -0.00000000000E+00 -0.00000000000E+00 -0.13856080726E+03  0.13856080726E+03  0.00000000000E+00 0. -1.
         25    2    1    2    0    0 -0.28203249087E+02 -0.33341184828E+02  0.41915249317E+03  0.43956911390E+03  0.12500054201E+03 0.  0.
          2    1    1    2  501    0  0.46808175161E+02  0.19418018455E+02 -0.12295215077E+03  0.13298607477E+03  0.00000000000E+00 0. -1.
          1    1    1    2  502    0 -0.18604926074E+02  0.13923166373E+02  0.35174246462E+03  0.35250923287E+03  0.00000000000E+00 0. -1.
         22    1    3    3    0    0  0.20686802075E+02  0.37474225206E+02  0.95170163621E+02  0.10435334867E+03  0.00000000000E+00 0.  1.
         22    1    3    3    0    0 -0.48890051162E+02 -0.70815410033E+02  0.32398232955E+03  0.33521576523E+03  0.00000000000E+00 0.  1.
</event>
<event>
 7    1  0.7802682E-006  0.1250263E+03  0.7818608E-02  0.1281731E+00
          2   -1    0    0  502    0  0.00000000000E+00  0.00000000000E+00  0.66614147242E+03  0.66614147242E+03  0.00000000000E+00 0. -1.
          1   -1    0    0  501    0 -0.00000000000E+00 -0.00000000000E+00 -0.11092557695E+04  0.11092557695E+04  0.00000000000E+00 0. -1.
         25    2    1    2    0    0  0.11333544383E+02 -0.72361491209E+02 -0.32324411888E+03  0.35422691975E+03  0.12500126258E+03 0.  0.
          2    1    1    2  501    0 -0.49002958251E+02  0.14168852856E+03 -0.76078538054E+03  0.77541687129E+03  0.00000000000E+00 0. -1.
          1    1    1    2  502    0  0.37669413868E+02 -0.69327037352E+02  0.64091520229E+03  0.64575345092E+03  0.00000000000E+00 0. -1.
         22    1    3    3    0    0 -0.11154747352E+02  0.81794642144E+01  0.55958514817E+01  0.14921312849E+02  0.00000000000E+00 0.  1.
         22    1    3    3    0    0  0.22488291735E+02 -0.80540955424E+02 -0.32883997037E+03  0.33930560690E+03  0.00000000000E+00 0.  1.
</event>
<event>
 7    1  0.7802682E-006  0.6815747E+02  0.7818608E-02  0.1416939E+00
          2   -1    0    0  502    0  0.00000000000E+00  0.00000000000E+00  0.48262166277E+03  0.48262166277E+03  0.00000000000E+00 0. -1.
          1   -1    0    0  501    0 -0.00000000000E+00 -0.00000000000E+00 -0.23048540857E+04  0.23048540857E+04  0.00000000000E+00 0. -1.
         25    2    1    2    0    0 -0.30525806685E+02 -0.16987544460E+02 -0.35843276856E+03  0.38120769726E+03  0.12499942931E+03 0.  0.
          2    1    1    2  501    0  0.32418378681E+02  0.62424740851E+02 -0.19332955759E+04  0.19345747811E+04  0.00000000000E+00 0. -1.
          1    1    1    2  502    0 -0.18925719960E+01 -0.45437196391E+02  0.46949592162E+03  0.47169327011E+03  0.00000000000E+00 0. -1.
         22    1    3    3    0    0  0.33309405567E+02  0.16650756148E+02 -0.39791966501E+02  0.54499218137E+02  0.00000000000E+00 0. -1.
         22    1    3    3    0    0 -0.63835212252E+02 -0.33638300608E+02 -0.31864080206E+03  0.32670847912E+03  0.00000000000E+00 0. -1.
</event>
<event>
 7    1  0.7802682E-006  0.1430902E+03  0.7818608E-02  0.1259788E+00
          2   -1    0    0  502    0  0.00000000000E+00  0.00000000000E+00  0.21290500404E+03  0.21290500404E+03  0.00000000000E+00 0. -1.
          1   -1    0    0  501    0 -0.00000000000E+00 -0.00000000000E+00 -0.66745706494E+03  0.66745706494E+03  0.00000000000E+00 0. -1.
         25    2    1    2    0    0  0.14223011775E+03 -0.46867948264E+02  0.24087846793E+02  0.19655023641E+03  0.12500304036E+03 0.  0.
          2    1    1    2  501    0  0.12758505142E+01  0.85204175376E+02 -0.52212986749E+03  0.52903778487E+03  0.00000000000E+00 0. -1.
          1    1    1    2  502    0 -0.14350596827E+03 -0.38336227112E+02  0.43489959793E+02  0.15477404769E+03  0.00000000000E+00 0. -1.
         22    1    3    3    0    0  0.56341489236E+02 -0.83233706724E+02  0.12180127469E+01  0.10051714729E+03  0.00000000000E+00 0. -1.
         22    1    3    3    0    0  0.85888628515E+02  0.36365758460E+02  0.22869834046E+02  0.96033089119E+02  0.00000000000E+00 0. -1.
</event>
<event>
 7    1  0.7802682E-006  0.1937142E+03  0.7818608E-02  0.1225643E+00
          2   -1    0    0  502    0  0.00000000000E+00  0.00000000000E+00  0.87361326919E+02  0.87361326919E+02  0.00000000000E+00 0. -1.
          1   -1    0    0  501    0 -0.00000000000E+00 -0.00000000000E+00 -0.31116500071E+04  0.31116500071E+04  0.00000000000E+00 0. -1.
         25    2    1    2    0    0 -0.12662619539E+03 -0.91345600829E+02 -0.31317685947E+03  0.37159747444E+03  0.12500690203E+03 0.  0.
          2    1    1    2  501    0  0.19674487801E+03  0.36695925646E+02 -0.27293368739E+04  0.27366649245E+04  0.00000000000E+00 0. -1.
          1    1    1    2  502    0 -0.70118682624E+02  0.54649675183E+02  0.18225053170E+02  0.90748935055E+02  0.00000000000E+00 0. -1.
         22    1    3    3    0    0 -0.89420751210E+02 -0.12194315028E+03 -0.22442513531E+03  0.27061567583E+03  0.00000000000E+00 0.  1.
         22    1    3    3    0    0 -0.37205444177E+02  0.30597549452E+02 -0.88751724161E+02  0.10098179861E+03  0.00000000000E+00 0.  1.
</event>
<event>
 7    1  0.7802682E-006  0.6370688E+02  0.7818608E-02  0.1407055E+00
          2   -1    0    0  502    0  0.00000000000E+00  0.00000000000E+00  0.41392183328E+03  0.41392183328E+03  0.00000000000E+00 0. -1.
          1   -1    0    0  501    0 -0.00000000000E+00 -0.00000000000E+00 -0.15807580144E+04  0.15807580144E+04  0.00000000000E+00 0. -1.
         25    2    1    2    0    0 -0.78548606608E+02 -0.11930568674E+02 -0.63876356138E+03  0.65571059008E+03  0.12500107409E+03 0.  0.
          2    1    1    2  501    0  0.37497330047E+02 -0.36806312941E+02 -0.93027131704E+03  0.93175397919E+03  0.00000000000E+00 0. -1.
          1    1    1    2  502    0  0.41051276561E+02  0.48736881616E+02  0.40219869726E+03  0.40721527846E+03  0.00000000000E+00 0. -1.
         22    1    3    3    0    0 -0.39328984708E+02  0.24220276567E+02 -0.55153975988E+03  0.55347041255E+03  0.00000000000E+00 0. -1.
         22    1    3    3    0    0 -0.39219621900E+02 -0.36150845241E+02 -0.87223801499E+02  0.10224017753E+03  0.00000000000E+00 0. -1.
</event>
<event>
 7    1  0.7802682E-006  0.3948641E+02  0.7818608E-02  0.1528101E+00
          2   -1    0    0  502    0  0.00000000000E+00  0.00000000000E+00  0.33161925513E+03  0.33161925513E+03  0.00000000000E+00 0. -1.
          1   -1    0    0  501    0 -0.00000000000E+00 -0.00000000000E+00 -0.16261319715E+04  0.16261319715E+04  0.00000000000E+00 0. -1.
         25    2    1    2    0    0 -0.46130158691E+02  0.53313085248E+02 -0.34502179203E+03  0.37367737295E+03  0.12499786190E+03 0.  0.
          2    1    1    2  501    0  0.12200705148E+02 -0.33297567843E+02 -0.12653102905E+04  0.12658071403E+04  0.00000000000E+00 0. -1.
          1    1    1    2  502    0  0.33929453543E+02 -0.20015517405E+02  0.31581936619E+03  0.31826671333E+03  0.00000000000E+00 0. -1.
         22    1    3    3    0    0  0.47958704995E+01  0.58319076132E+02 -0.29958023506E+03  0.30524159654E+03  0.00000000000E+00 0.  1.
         22    1    3    3    0    0 -0.50926029191E+02 -0.50059908841E+01 -0.45441556969E+02  0.68435776416E+02  0.00000000000E+00 0.  1.
</event>
<event>
 7    1  0.7802682E-006  0.8956566E+02  0.7818608E-02  0.1373858E+00
          2   -1    0    0  502    0  0.00000000000E+00  0.00000000000E+00  0.18499122449E+03  0.18499122449E+03  0.00000000000E+00 0. -1.
          1   -1    0    0  501    0 -0.00000000000E+00 -0.00000000000E+00 -0.14075416106E+03  0.14075416106E+03  0.00000000000E+00 0. -1.
         25    2    1    2    0    0  0.24947881913E+02 -0.43729966252E+02  0.96864023540E+02  0.16595953454E+03  0.12500088515E+03 0.  0.
          2    1    1    2  501    0 -0.57520964138E+02  0.80055905081E+02 -0.50949044275E+02  0.11096582522E+03  0.00000000000E+00 0. -1.
          1    1    1    2  502    0  0.32573082225E+02 -0.36325938829E+02 -0.16779158334E+01  0.48820025798E+02  0.00000000000E+00 0. -1.
         22    1    3    3    0    0  0.41610900366E+02  0.98120107797E+01 -0.11215875286E+02  0.44198851153E+02  0.00000000000E+00 0. -1.
         22    1    3    3    0    0 -0.16663018454E+02 -0.53541977032E+02  0.10807989883E+03  0.12176068339E+03  0.00000000000E+00 0. -1.
</event>
<event>
 7    1  0.7802682E-006  0.3395926E+02  0.7818608E-02  0.1580351E+00
          2   -1    0    0  502    0  0.00000000000E+00  0.00000000000E+00  0.10383936123E+04  0.10383936123E+04  0.00000000000E+00 0. -1.
          1   -1    0    0  501    0 -0.00000000000E+00 -0.00000000000E+00 -0.18570329290E+03  0.18570329290E+03  0.00000000000E+00 0. -1.
         25    2    1    2    0    0  0.20117225874E+02 -0.38854229125E+02  0.17155481066E+03  0.21672661398E+03  0.12500007298E+03 0.  0.
          2    1    1    2  501    0 -0.28909041690E+02  0.60301434878E+01 -0.16143549432E+03  0.16411433255E+03  0.00000000000E+00 0. -1.
          1    1    1    2  502    0  0.87918158164E+01  0.32824085637E+02  0.84257100307E+03  0.84325595868E+03  0.00000000000E+00 0. -1.
         22    1    3    3    0    0 -0.31219271187E+02  0.27602895135E+02  0.27328588554E+02  0.49833868660E+02  0.00000000000E+00 0.  1.
         22    1    3    3    0    0  0.51336497060E+02 -0.66457124260E+02  0.14422622211E+03  0.16689274532E+03  0.00000000000E+00 0.  1.
</event>
<event>
 7    1  0.7802682E-006  0.3584502E+02  0.7818608E-02  0.1568145E+00
          2   -1    0    0  502    0  0.00000000000E+00  0.00000000000E+00  0.16822609810E+04  0.16822609810E+04  0.00000000000E+00 0. -1.
          1   -1    0    0  501    0 -0.00000000000E+00 -0.00000000000E+00 -0.46506278288E+02  0.46506278288E+02  0.00000000000E+00 0. -1.
         25    2    1    2    0    0 -0.50719970451E+02 -0.97134897705E+01  0.13227065068E+04  0.13296030161E+04  0.12499923988E+03 0.  0.
          2    1    1    2  501    0  0.25047127877E+02  0.25588932151E+02 -0.34845452466E+02  0.49963562934E+02  0.00000000000E+00 0. -1.
          1    1    1    2  502    0  0.25672842574E+02 -0.15875442381E+02  0.34789364835E+03  0.34920068024E+03  0.00000000000E+00 0. -1.
         22    1    3    3    0    0 -0.17185433658E+02 -0.48750114698E+02  0.10921598484E+04  0.10933823884E+04  0.00000000000E+00 0. -1.
         22    1    3    3    0    0 -0.33534536793E+02  0.39036624927E+02  0.23054665837E+03  0.23622062766E+03  0.00000000000E+00 0. -1.
</event>
<event>
 7    1  0.7802682E-006  0.6182941E+02  0.7818608E-02  0.1459158E+00
          2   -1    0    0  502    0  0.00000000000E+00  0.00000000000E+00  0.51232385925E+03  0.51232385925E+03  0.00000000000E+00 0. -1.
          1   -1    0    0  501    0 -0.00000000000E+00 -0.00000000000E+00 -0.23556809524E+03  0.23556809524E+03  0.00000000000E+00 0. -1.
         25    2    1    2    0    0 -0.20854968966E+02  0.22068436007E+02  0.27865217713E+02  0.13162069457E+03  0.12500236510E+03 0.  0.
          2    1    1    2  501    0  0.27386370938E+02 -0.58012339820E+02 -0.17728388741E+03  0.18853387393E+03  0.00000000000E+00 0. -1.
          1    1    1    2  502    0 -0.65314019718E+01  0.35943903813E+02  0.42617443371E+03  0.42773738600E+03  0.00000000000E+00 0. -1.
         22    1    3    3    0    0  0.50569786723E+02  0.26129543657E+02  0.89360371262E+01  0.57618652713E+02  0.00000000000E+00 0.  1.
         22    1    3    3    0    0 -0.71424755689E+02 -0.40611076506E+01  0.18929180587E+02  0.74002041852E+02  0.00000000000E+00 0.  1.
</event>
<event>
 7    1  0.7802682E-006  0.8658469E+02  0.7818608E-02  0.1378659E+00
          2   -1    0    0  502    0  0.00000000000E+00  0.00000000000E+00  0.20472579076E+04  0.20472579076E+04  0.00000000000E+00 0. -1.
          1   -1    0    0  501    0 -0.00000000000E+00 -0.00000000000E+00 -0.31095024831E+03  0.31095024831E+03  0.00000000000E+00 0. -1.
         25    2    1    2    0    0 -0.32942722181E+02 -0.62362233578E+02  0.41743180128E+03  0.44141617013E+03  0.12499862163E+03 0.  0.
          2    1    1    2  501    0 -0.44855910976E+02  0.18503952471E+02 -0.29574697658E+03  0.29970105633E+03  0.00000000000E+00 0. -1.
          1    1    1    2  502    0  0.77798633157E+02  0.43858281107E+02  0.16146228346E+04  0.16170909295E+04  0.00000000000E+00 0. -1.
         22    1    3    3    0    0 -0.38368409000E+01  0.23481299771E+01  0.32431618812E+03  0.32434738313E+03  0.00000000000E+00 0. -1.
         22    1    3    3    0    0 -0.29105881281E+02 -0.64710363555E+02  0.93115613153E+02  0.11706878700E+03  0.00000000000E+00 0. -1.
</event>
<event>
 7    1  0.7802682E-006  0.5182386E+02  0.7818608E-02  0.1549807E+00
          2   -1    0    0  502    0  0.00000000000E+00  0.00000000000E+00  0.33590252008E+03  0.33590252008E+03  0.00000000000E+00 0. -1.
          1   -1    0    0  501    0 -0.00000000000E+00 -0.00000000000E+00 -0.24882185517E+03  0.24882185517E+03  0.00000000000E+00 0. -1.
         25    2    1    2    0    0  0.43050865571E+01  0.36981150802E+02 -0.57351579674E+02  0.14248218423E+03  0.12500331934E+03 0.  0.
          2    1    1    2  501    0  0.21992747757E+02  0.81523415589E+01 -0.14563367592E+03  0.14751036977E+03  0.00000000000E+00 0. -1.
          1    1    1    2  502    0 -0.26297834314E+02 -0.45133492361E+02  0.29006592050E+03  0.29473182125E+03  0.00000000000E+00 0. -1.
         22    1    3    3    0    0 -0.17534152941E+02  0.73315545305E+02 -0.64840702091E+02  0.99433054617E+02  0.00000000000E+00 0. -1.
         22    1    3    3    0    0  0.21839239498E+02 -0.36334394503E+02  0.74891224172E+01  0.43049129612E+02  0.00000000000E+00 0. -1.
</event>
<event>
 7    1  0.7802682E-006  0.6445968E+02  0.7818608E-02  0.1431608E+00
          2   -1    0    0  502    0  0.00000000000E+00  0.00000000000E+00  0.61791666194E+03  0.61791666194E+03  0.00000000000E+00 0. -1.
          1   -1    0    0  501    0 -0.00000000000E+00 -0.00000000000E+00 -0.14831301844E+03  0.14831301844E+03  0.00000000000E+00 0. -1.
         25    2    1    2    0    0  0.16799757107E+02  0.30111092166E+02  0.11483322533E+03  0.17322743588E+03  0.12502865747E+03 0.  0.
          2    1    1    2  501    0 -0.59784075172E+02 -0.29819155363E+02 -0.10867483797E+03  0.12756777837E+03  0.00000000000E+00 0. -1.
          1    1    1    2  502    0  0.42984318065E+02 -0.29193680246E+00  0.46344525614E+03  0.46543446613E+03  0.00000000000E+00 0. -1.
         22    1    3    3    0    0 -0.29882415638E+02  0.27014486898E+02 -0.86299090272E+01  0.41197288704E+02  0.00000000000E+00 0.  1.
         22    1    3    3    0    0  0.46682172745E+02  0.30966052675E+01  0.12346313436E+03  0.13203014717E+03  0.00000000000E+00 0.  1.
</event>
<event>
 7    1  0.7802682E-006  0.1182267E+03  0.7818608E-02  0.1405968E+00
          2   -1    0    0  502    0  0.00000000000E+00  0.00000000000E+00  0.15154256552E+03  0.15154256552E+03  0.00000000000E+00 0. -1.
          1   -1    0    0  501    0 -0.00000000000E+00 -0.00000000000E+00 -0.24657993205E+04  0.24657993205E+04  0.00000000000E+00 0. -1.
         25    2    1    2    0    0  0.12634799885E+03  0.45955135059E+02 -0.29255389587E+03  0.34538163021E+03  0.12499998897E+03 0.  0.
          2    1    1    2  501    0 -0.11574647078E+03 -0.19440728951E+02 -0.21435758855E+04  0.21467866136E+04  0.00000000000E+00 0. -1.
          1    1    1    2  502    0 -0.10601528070E+02 -0.26514406108E+02  0.12187302642E+03  0.12517364219E+03  0.00000000000E+00 0. -1.
         22    1    3    3    0    0  0.43162731107E+02  0.81978896732E+02 -0.13834001222E+03  0.16649780733E+03  0.00000000000E+00 0. -1.
         22    1    3    3    0    0  0.83185267741E+02 -0.36023761673E+02 -0.15421388365E+03  0.17888382287E+03  0.00000000000E+00 0. -1.
</event>
<event>
 7    1  0.7802682E-006  0.7208772E+02  0.7818608E-02  0.1382111E+00
          2   -1    0    0  502    0  0.00000000000E+00  0.00000000000E+00  0.16403477095E+04  0.16403477095E+04  0.00000000000E+00 0. -1.
          1   -1    0    0  501    0 -0.00000000000E+00 -0.00000000000E+00 -0.16741039096E+03  0.16741039096E+03  0.00000000000E+00 0. -1.
         25    2    1    2    0    0 -0.11587355547E+02  0.77956955592E+02 -0.77665306085E+02  0.16693717671E+03  0.12499826984E+03 0.  0.
          2    1    1    2  501    0  0.53355354323E+02 -0.19077798975E+02 -0.26157091141E+02  0.62409531849E+02  0.00000000000E+00 0. -1.
          1    1    1    2  502    0 -0.41767998775E+02 -0.58879156617E+02  0.15767597158E+04  0.15784113919E+04  0.00000000000E+00 0. -1.
         22    1    3    3    0    0 -0.23835892254E+02  0.10904646629E+03 -0.45443976174E+02  0.12051737029E+03  0.00000000000E+00 0.  1.
         22    1    3    3    0    0  0.12248536707E+02 -0.31089510698E+02 -0.32221329911E+02  0.46419806421E+02  0.00000000000E+00 0.  1.
</event>
<event>
 7    1  0.7802682E-006  0.1191278E+03  0.7818608E-02  0.1314466E+00
          2   -1    0    0  502    0  0.00000000000E+00  0.00000000000E+00  0.15605760336E+04  0.15605760336E+04  0.00000000000E+00 0. -1.
          1   -1    0    0  501    0 -0.00000000000E+00 -0.00000000000E+00 -0.35816420810E+02  0.35816420810E+02  0.00000000000E+00 0. -1.
         25    2    1    2    0    0  0.10179770006E+03 -0.22591241269E+02  0.27170715840E+03  0.31673635001E+03  0.12499599821E+03 0.  0.
          2    1    1    2  501    0 -0.14473288769E+03 -0.20991821858E+02  0.42718135218E+03  0.45152206260E+03  0.00000000000E+00 0. -1.
          1    1    1    2  502    0  0.42935187625E+02  0.43583063127E+02  0.82587110224E+03  0.82813404184E+03  0.00000000000E+00 0. -1.
         22    1    3    3    0    0 -0.12067192916E+02  0.13565032741E+02 -0.18307354168E+01  0.18247708083E+02  0.00000000000E+00 0. -1.
         22    1    3    3    0    0  0.11386489298E+03 -0.36156274010E+02  0.27353789382E+03  0.29848864193E+03  0.00000000000E+00 0. -1.
</event>
<event>
 7    1  0.7802682E-006  0.7888916E+02  0.7818608E-02  0.1423928E+00
          2   -1    0    0  502    0  0.00000000000E+00  0.00000000000E+00  0.30672959709E+03  0.30672959709E+03  0.00000000000E+00 0. -1.
          1   -1    0    0  501    0 -0.00000000000E+00 -0.00000000000E+00 -0.22243381302E+04  0.22243381302E+04  0.00000000000E+00 0. -1.
         25    2    1    2    0    0  0.24238021748E+02 -0.58121656429E+02 -0.74851950888E+03  0.76149292170E+03  0.12499762388E+03 0.  0.
          2    1    1    2  501    0 -0.61376308300E+02  0.55433839948E+02 -0.14670082501E+04  0.14693376629E+04  0.00000000000E+00 0. -1.
          1    1    1    2  502    0  0.37138286552E+02  0.26878164804E+01  0.29791922588E+03  0.30023714266E+03  0.00000000000E+00 0. -1.
         22    1    3    3    0    0  0.17258441548E+02  0.37483984351E+02 -0.16099555939E+03  0.16620009937E+03  0.00000000000E+00 0.  1.
         22    1    3    3    0    0  0.69795801999E+01 -0.95605640780E+02 -0.58752394949E+03  0.59529282233E+03  0.00000000000E+00 0.  1.
</event>
<event>
 7    1  0.7802682E-006  0.7965568E+02  0.7818608E-02  0.1352547E+00
          2   -1    0    0  502    0  0.00000000000E+00  0.00000000000E+00  0.74098960343E+03  0.74098960343E+03  0.00000000000E+00 0. -1.
          1   -1    0    0  501    0 -0.00000000000E+00 -0.00000000000E+00 -0.18676000429E+03  0.18676000429E+03  0.00000000000E+00 0. -1.
         25    2    1    2    0    0 -0.34279758116E+02 -0.18388566863E+02  0.45077525424E+03  0.46940041989E+03  0.12500073258E+03 0.  0.
          2    1    1    2  501    0  0.73096733868E+02 -0.34451039538E+02 -0.16407911022E+03  0.18289877265E+03  0.00000000000E+00 0. -1.
          1    1    1    2  502    0 -0.38816975753E+02  0.52839606401E+02  0.26753345512E+03  0.27545041517E+03  0.00000000000E+00 0. -1.
         22    1    3    3    0    0 -0.43752769819E+02 -0.66262009340E+02  0.23080643457E+03  0.24408311902E+03  0.00000000000E+00 0.  1.
         22    1    3    3    0    0  0.94730117038E+01  0.47873442476E+02  0.21996881967E+03  0.22531730087E+03  0.00000000000E+00 0.  1.
</event>
<event>
 7    1  0.7802682E-006  0.1559189E+03  0.7818608E-02  0.1341450E+00
          2   -1    0    0  502    0  0.00000000000E+00  0.00000000000E+00  0.13859763653E+04  0.13859763653E+04  0.00000000000E+00 0. -1.
          1   -1    0    0  501    0 -0.00000000000E+00 -0.00000000000E+00 -0.69554482336E+02  0.69554482336E+02  0.00000000000E+00 0. -1.
         25    2    1    2    0    0 -0.69595864469E+02 -0.17239052972E+03  0.69573176086E+03  0.73091028414E+03  0.12500032520E+03 0.  0.
          2    1    1    2  501    0  0.45923696054E+02  0.14416534294E+03  0.60069907380E+02  0.16279135646E+03  0.00000000000E+00 0. -1.
          1    1    1    2  502    0  0.23672168414E+02  0.28225186784E+02  0.56062021477E+03  0.56182920709E+03  0.00000000000E+00 0. -1.
         22    1    3    3    0    0 -0.55182692351E+02 -0.72658383592E+01  0.13043290058E+03  0.14181207105E+03  0.00000000000E+00 0. -1.
         22    1    3    3    0    0 -0.14413172117E+02 -0.16512469136E+03  0.56529886028E+03  0.58909821309E+03  0.00000000000E+00 0. -1.
</event>
<event>
 7    1  0.7802682E-006  0.1497857E+03  0.7818608E-02  0.1408944E+00
          2   -1    0    0  502    0  0.00000000000E+00  0.00000000000E+00  0.41583342641E+02  0.41583342641E+02  0.00000000000E+00 0. -1.
          1   -1    0    0  501    0 -0.00000000000E+00 -0.00000000000E+00 -0.27294115582E+04  0.27294115582E+04  0.00000000000E+00 0. -1.
         25    2    1    2    0    0  0.83747955631E+02 -0.11779518313E+03 -0.12179979845E+04  0.12328963049E+04  0.12499913334E+03 0.  0.
          2    1    1    2  501    0  0.20216086674E+02  0.87277784476E+01 -0.13371444563E+04  0.13373257499E+04  0.00000000000E+00 0. -1.
          1    1    1    2  502    0 -0.10396404231E+03  0.10906740469E+03 -0.13268577473E+03  0.20077284596E+03  0.00000000000E+00 0. -1.
         22    1    3    3    0    0 -0.22594907018E+02  0.85970114075E+01 -0.10777953561E+03  0.11045753358E+03  0.00000000000E+00 0. -1.
         22    1    3    3    0    0  0.10634286265E+03 -0.12639219454E+03 -0.11102184489E+04  0.11224387714E+04  0.00000000000E+00 0. -1.
</event>
<event>
 7    1  0.7802682E-006  0.4652514E+02  0.7818608E-02  0.1495617E+00
          2   -1    0    0  502    0  0.00000000000E+00  0.00000000000E+00  0.14055729979E+04  0.14055729979E+04  0.00000000000E+00 0. -1.
          1   -1    0    0  501    0 -0.00000000000E+00 -0.00000000000E+00 -0.99935960434E+03  0.99935960434E+03  0.00000000000E+00 0. -1.
         25    2    1    2    0    0 -0.61280420277E+02 -0.56987806799E+02 -0.79434624210E+01  0.15063736600E+03  0.12500246961E+03 0.  0.
          2    1    1    2  501    0  0.33083200172E+02  0.32280923594E+02 -0.91922500949E+03  0.92038642658E+03  0.00000000000E+00 0. -1.
          1    1    1    2  502    0  0.28197220105E+02  0.24706883205E+02  0.13333818655E+04  0.13339088097E+04  0.00000000000E+00 0. -1.
         22    1    3    3    0    0 -0.88802595616E+02 -0.10419731491E+02 -0.26816205484E+02  0.93346562170E+02  0.00000000000E+00 0.  1.
         22    1    3    3    0    0  0.27522175339E+02 -0.46568075308E+02  0.18872743063E+02  0.57290803834E+02  0.00000000000E+00 0.  1.
</event>
<event>
 7    1  0.7802682E-006  0.7920880E+02  0.7818608E-02  0.1444666E+00
          2   -1    0    0  502    0  0.00000000000E+00  0.00000000000E+00  0.22824266736E+03  0.22824266736E+03  0.00000000000E+00 0. -1.
          1   -1    0    0  501    0 -0.00000000000E+00 -0.00000000000E+00 -0.96948174416E+03  0.96948174416E+03  0.00000000000E+00 0. -1.
         25    2    1    2    0    0  0.13937016857E+02  0.86128647469E+02 -0.66242659525E+03  0.67974083639E+03  0.12500490476E+03 0.  0.
          2    1    1    2  501    0  0.15772215713E+02 -0.75012735922E+02 -0.29228399158E+03  0.30216817349E+03  0.00000000000E+00 0. -1.
          1    1    1    2  502    0 -0.29709232570E+02 -0.11115911547E+02  0.21347151002E+03  0.21581540163E+03  0.00000000000E+00 0. -1.
         22    1    3    3    0    0  0.70472886920E+01  0.13861008190E+02 -0.23998346602E+01  0.15733754553E+02  0.00000000000E+00 0.  1.
         22    1    3    3    0    0  0.68897281651E+01  0.72267639279E+02 -0.66002676059E+03  0.66400708184E+03  0.00000000000E+00 0.  1.
</event>
<event>
 7    1  0.7802682E-006  0.5918386E+02  0.7818608E-02  0.1409115E+00
          2   -1    0    0  502    0  0.00000000000E+00  0.00000000000E+00  0.59597998657E+03  0.59597998657E+03  0.00000000000E+00 0. -1.
          1   -1    0    0  501    0 -0.00000000000E+00 -0.00000000000E+00 -0.66938250282E+03  0.66938250282E+03  0.00000000000E+00 0. -1.
         25    2    1    2    0    0  0.62370948201E+02  0.16203195827E+02 -0.11752320690E+03  0.18327312056E+03  0.12499861529E+03 0.  0.
          2    1    1    2  501    0 -0.47220482395E+02  0.37349036651E+02 -0.51585419728E+03  0.51935563667E+03  0.00000000000E+00 0. -1.
          1    1    1    2  502    0 -0.15150465806E+02 -0.53552232477E+02  0.55997488792E+03  0.56273373217E+03  0.00000000000E+00 0. -1.
         22    1    3    3    0    0 -0.12402156314E+02  0.29903952914E+02  0.10796533753E+02  0.34126602851E+02  0.00000000000E+00 0. -1.
         22    1    3    3    0    0  0.74773104515E+02 -0.13700757087E+02 -0.12831974065E+03  0.14914651771E+03  0.00000000000E+00 0. -1.
</event>
<event>
 7    1  0.1020506E-005  0.9493353E+02  0.7818608E-02  0.1310046E+00
          2   -1    0    0  502    0  0.00000000000E+00  0.00000000000E+00  0.27599522563E+04  0.27599522563E+04  0.00000000000E+00 0. -1.
          1   -1    0    0  501    0 -0.00000000000E+00 -0.00000000000E+00 -0.11430495850E+04  0.11430495850E+04  0.00000000000E+00 0. -1.
         25    2    1    2    0    0  0.14577424459E+03  0.85528409775E+02 -0.33650326208E+03  0.39676816999E+03  0.12500118424E+03 0.  0.
          2    1    1    2  501    0 -0.55133746109E+02 -0.57832306956E+02 -0.77353271042E+03  0.77764848086E+03  0.00000000000E+00 0. -1.
          1    1    1    2  502    0 -0.90640498479E+02 -0.27696102819E+02  0.27269386438E+04  0.27285851904E+04  0.00000000000E+00 0. -1.
         22    1    3    3    0    0  0.23030722305E+02  0.47975487592E+02 -0.22942679468E+02  0.57951946652E+02  0.00000000000E+00 0.  1.
         22    1    3    3    0    0  0.12274352228E+03  0.37552922182E+02 -0.31356058262E+03  0.33881622334E+03  0.00000000000E+00 0.  1.
</event>
<event>
 7    1  0.7802682E-006  0.1277954E+03  0.7818608E-02  0.1398741E+00
          2   -1    0    0  502    0  0.00000000000E+00  0.00000000000E+00  0.13976366414E+04  0.13976366414E+04  0.00000000000E+00 0. -1.
          1   -1    0    0  501    0 -0.00000000000E+00 -0.00000000000E+00 -0.20985769875E+02  0.20985769875E+02  0.00000000000E+00 0. -1.
         25    2    1    2    0    0 -0.99457045354E+02 -0.91940418396E+02  0.59555432127E+03  0.62342132206E+03  0.12499780320E+03 0.  0.
          2    1    1    2  501    0  0.71918251782E+02  0.96818446754E+02  0.65863864862E+03  0.66959011046E+03  0.00000000000E+00 0. -1.
          1    1    1    2  502    0  0.27538793571E+02 -0.48780283589E+01  0.12245790165E+03  0.12561097877E+03  0.00000000000E+00 0. -1.
         22    1    3    3    0    0 -0.12698778071E+03 -0.58042418099E+02  0.47983313061E+03  0.49973458153E+03  0.00000000000E+00 0. -1.
         22    1    3    3    0    0  0.27530735358E+02 -0.33898000297E+02  0.11572119067E+03  0.12368674053E+03  0.00000000000E+00 0. -1.
</event>
<event>
 7    1  0.7802682E-006  0.4683763E+02  0.7818608E-02  0.1488531E+00
          2   -1    0    0  502    0  0.00000000000E+00  0.00000000000E+00  0.24291971520E+02  0.24291971520E+02  0.00000000000E+00 0. -1.
          1   -1    0    0  501    0 -0.00000000000E+00 -0.00000000000E+00 -0.96533363315E+03  0.96533363315E+03  0.00000000000E+00 0. -1.
         25    2    1    2    0    0  0.10555480179E+02  0.60574936753E+02 -0.70994359993E+03  0.72348081041E+03  0.12499530722E+03 0.  0.
          2    1    1    2  501    0  0.22293749128E+02 -0.39333031225E+02 -0.22122703371E+03  0.22579968786E+03  0.00000000000E+00 0. -1.
          1    1    1    2  502    0 -0.32849229308E+02 -0.21241905528E+02 -0.98710279922E+01  0.40345106397E+02  0.00000000000E+00 0. -1.
         22    1    3    3    0    0  0.13034206175E+02  0.82893499450E+02 -0.26493639005E+03  0.27790738305E+03  0.00000000000E+00 0.  1.
         22    1    3    3    0    0 -0.24787259959E+01 -0.22318562697E+02 -0.44500720988E+03  0.44557342736E+03  0.00000000000E+00 0.  1.
</event>
<event>
 7    1  0.7802682E-006  0.1109682E+03  0.7818608E-02  0.1286069E+00
          2   -1    0    0  502    0  0.00000000000E+00  0.00000000000E+00  0.21611081666E+04  0.21611081666E+04  0.00000000000E+00 0. -1.
          1   -1    0    0  501    0 -0.00000000000E+00 -0.00000000000E+00 -0.47179600749E+02  0.47179600749E+02  0.00000000000E+00 0. -1.
         25    2    1    2    0    0 -0.17015234604E+03  0.48059200316E+01  0.37295679378E+03  0.42859841654E+03  0.12499965961E+03 0.  0.
          2    1    1    2  501    0  0.73408722731E+02  0.43487553535E+02  0.85845630244E+02  0.12103503674E+03  0.00000000000E+00 0. -1.
          1    1    1    2  502    0  0.96743623312E+02 -0.48293473566E+02  0.16551261418E+04  0.16586543140E+04  0.00000000000E+00 0. -1.
         22    1    3    3    0    0 -0.37330727157E+00 -0.84871831626E+01 -0.77744486972E+01  0.11515801705E+02  0.00000000000E+00 0.  1.
         22    1    3    3    0    0 -0.16977903877E+03  0.13293103194E+02  0.38073124248E+03  0.41708261484E+03  0.00000000000E+00 0.  1.
</event>
<event>
 7    1  0.7802682E-006  0.8287127E+02  0.7818608E-02  0.1357422E+00
          2   -1    0    0  502    0  0.00000000000E+00  0.00000000000E+00  0.59751214832E+03  0.59751214832E+03  0.00000000000E+00 0. -1.
          1   -1    0    0  501    0 -0.00000000000E+00 -0.00000000000E+00 -0.13217274824E+03  0.13217274824E+03  0.00000000000E+00 0. -1.
         25    2    1    2    0    0  0.12983895909E+03  0.41725213285E+02  0.20485003187E+03  0.27602264413E+03  0.12500326315E+03 0.  0.
          2    1    1    2  501    0 -0.55164300461E+02 -0.24776047562E+02 -0.82465927402E+02  0.10226231838E+03  0.00000000000E+00 0. -1.
          1    1    1    2  502    0 -0.74674658625E+02 -0.16949165723E+02  0.34295529561E+03  0.35139993405E+03  0.00000000000E+00 0. -1.
         22    1    3    3    0    0  0.46546370688E+02  0.80433697848E+02  0.10977285798E+03  0.14382706534E+03  0.00000000000E+00 0. -1.
         22    1    3    3    0    0  0.83292588398E+02 -0.38708484563E+02  0.95077173884E+02  0.13219557880E+03  0.00000000000E+00 0. -1.
</event>
<event>
 7    1  0.7802682E-006  0.1284161E+03  0.7818608E-02  0.1284116E+00
          2   -1    0    0  502    0  0.00000000000E+00  0.00000000000E+00  0.11527575233E+04  0.11527575233E+04  0.00000000000E+00 0. -1.
          1   -1    0    0  501    0 -0.00000000000E+00 -0.00000000000E+00 -0.89439724284E+02  0.89439724284E+02  0.00000000000E+00 0. -1.
         25    2    1    2    0    0  0.10452858620E+02 -0.13164941370E+03  0.33537066276E+03  0.38149663413E+03  0.12500148014E+03 0.  0.
          2    1    1    2  501    0  0.69978402577E+02  0.27264127917E+02 -0.37534321927E+02  0.83959125894E+02  0.00000000000E+00 0. -1.
          1    1    1    2  502    0 -0.80431261197E+02  0.10438528578E+03  0.76548145814E+03  0.77674148751E+03  0.00000000000E+00 0. -1.
         22    1    3    3    0    0  0.18889226604E+02 -0.61680464585E+02  0.29134216468E+03  0.29839829006E+03  0.00000000000E+00 0. -1.
         22    1    3    3    0    0 -0.84363679844E+01 -0.69968949111E+02  0.44028498082E+02  0.83098344074E+02  0.00000000000E+00 0. -1.
</event>
<event>
 7    1  0.7802682E-006  0.7981763E+02  0.7818608E-02  0.1441115E+00
          2   -1    0    0  502    0  0.00000000000E+00  0.00000000000E+00  0.83180752039E+02  0.83180752039E+02  0.00000000000E+00 0. -1.
          1   -1    0    0  501    0 -0.00000000000E+00 -0.00000000000E+00 -0.11648568027E+04  0.11648568027E+04  0.00000000000E+00 0. -1.
         25    2    1    2    0    0  0.17235775736E+02  0.47671838912E+02 -0.76310091482E+03  0.77493036648E+03  0.12499756199E+03 0.  0.
          2    1    1    2  501    0 -0.46460898991E+01  0.31986133050E+02 -0.37390851738E+03  0.37530291529E+03  0.00000000000E+00 0. -1.
          1    1    1    2  502    0 -0.12589685837E+02 -0.79657971962E+02  0.55333381575E+02  0.97804272929E+02  0.00000000000E+00 0. -1.
         22    1    3    3    0    0  0.60351461680E+02 -0.10031723902E+02 -0.29058423149E+03  0.29695476087E+03  0.00000000000E+00 0. -1.
         22    1    3    3    0    0 -0.43115685943E+02  0.57703562814E+02 -0.47251668333E+03  0.47797560561E+03  0.00000000000E+00 0. -1.
</event>
<event>
 7    1  0.7802682E-006  0.1148250E+03  0.7818608E-02  0.1352683E+00
          2   -1    0    0  502    0  0.00000000000E+00  0.00000000000E+00  0.89418490912E+02  0.89418490912E+02  0.00000000000E+00 0. -1.
          1   -1    0    0  501    0 -0.00000000000E+00 -0.00000000000E+00 -0.14136029486E+04  0.14136029486E+04  0.00000000000E+00 0. -1.
         25    2    1    2    0    0 -0.49915535382E+02  0.66508263754E+02 -0.51212992777E+03  0.53368198346E+03  0.12499794692E+03 0.  0.
          2    1    1    2  501    0  0.75946787385E+02 -0.10374162320E+03 -0.87904468320E+03  0.88839731762E+03  0.00000000000E+00 0. -1.
          1    1    1    2  502    0 -0.26031252003E+02  0.37233359446E+02  0.66990153281E+02  0.80942138427E+02  0.00000000000E+00 0. -1.
         22    1    3    3    0    0 -0.13912411367E+02  0.75180412679E+02 -0.47545118214E+03  0.48155942130E+03  0.00000000000E+00 0.  1.
         22    1    3    3    0    0 -0.36003124015E+02 -0.86721489245E+01 -0.36678745630E+02  0.52122562167E+02  0.00000000000E+00 0.  1.
</event>
<event>
 7    1  0.7802682E-006  0.2242090E+03  0.7818608E-02  0.1186100E+00
          2   -1    0    0  502    0  0.00000000000E+00  0.00000000000E+00  0.71615211965E+03  0.71615211965E+03  0.00000000000E+00 0. -1.
          1   -1    0    0  501    0 -0.00000000000E+00 -0.00000000000E+00 -0.79721096567E+03  0.79721096567E+03  0.00000000000E+00 0. -1.
         25    2    1    2    0    0 -0.10446083678E+03  0.14573747005E+03  0.91652483100E+02  0.23701722438E+03  0.12500204157E+03 0.  0.
          2    1    1    2  501    0  0.21097613622E+03 -0.96091118356E+02 -0.69934038264E+03  0.73676414399E+03  0.00000000000E+00 0. -1.
          1    1    1    2  502    0 -0.10651529944E+03 -0.49646351699E+02  0.52662905353E+03  0.53958171695E+03  0.00000000000E+00 0. -1.
         22    1    3    3    0    0 -0.26709324163E+02 -0.42584571691E+01 -0.20752799824E+02  0.34091071489E+02  0.00000000000E+00 0.  1.
         22    1    3    3    0    0 -0.77751512614E+02  0.14999592722E+03  0.11240528292E+03  0.20292615289E+03  0.00000000000E+00 0.  1.
</event>
<event>
 7    1  0.7802682E-006  0.4455027E+02  0.7818608E-02  0.1538191E+00
          2   -1    0    0  502    0  0.00000000000E+00  0.00000000000E+00  0.17401083207E+03  0.17401083207E+03  0.00000000000E+00 0. -1.
          1   -1    0    0  501    0 -0.00000000000E+00 -0.00000000000E+00 -0.13958898421E+03  0.13958898421E+03  0.00000000000E+00 0. -1.
         25    2    1    2    0    0  0.59575125178E+02  0.14167143227E+02  0.58765302782E+02  0.15109080214E+03  0.12500066477E+03 0.  0.
          2    1    1    2  501    0 -0.42847020123E+02  0.10029014369E+02 -0.84653405273E+02  0.95407794687E+02  0.00000000000E+00 0. -1.
          1    1    1    2  502    0 -0.16728105055E+02 -0.24196157597E+02  0.60309950343E+02  0.67101219449E+02  0.00000000000E+00 0. -1.
         22    1    3    3    0    0  0.85888773834E+02  0.43112024199E+02  0.24714349029E+02  0.99228660926E+02  0.00000000000E+00 0.  1.
         22    1    3    3    0    0 -0.26313648656E+02 -0.28944880972E+02  0.34050953753E+02  0.51862141217E+02  0.00000000000E+00 0.  1.
</event>
<event>
 7    1  0.7802682E-006  0.1097236E+03  0.7818608E-02  0.1355844E+00
          2   -1    0    0  502    0  0.00000000000E+00  0.00000000000E+00  0.23804526161E+04  0.23804526161E+04  0.00000000000E+00 0. -1.
          1   -1    0    0  501    0 -0.00000000000E+00 -0.00000000000E+00 -0.23068119785E+03  0.23068119785E+03  0.00000000000E+00 0. -1.
         25    2    1    2    0    0  0.10461068155E+03 -0.29980615881E+02  0.31508247525E+03  0.35601023787E+03  0.12499636491E+03 0.  0.
          2    1    1    2  501    0 -0.20435338703E+02 -0.41530744653E+02 -0.20615793464E+03  0.21129008456E+03  0.00000000000E+00 0. -1.
          1    1    1    2  502    0 -0.84175342849E+02  0.71511360534E+02  0.20408468776E+04  0.20438334915E+04  0.00000000000E+00 0. -1.
         22    1    3    3    0    0  0.43015423587E+02 -0.76700437721E+02  0.15408757844E+03  0.17741551691E+03  0.00000000000E+00 0. -1.
         22    1    3    3    0    0  0.61595257965E+02  0.46719821839E+02  0.16099489681E+03  0.17859472096E+03  0.00000000000E+00 0. -1.
</event>
<event>
 7    1  0.7802682E-006  0.3833874E+02  0.7818608E-02  0.1538889E+00
          2   -1    0    0  502    0  0.00000000000E+00  0.00000000000E+00  0.16273817874E+04  0.16273817874E+04  0.00000000000E+00 0. -1.
          1   -1    0    0  501    0 -0.00000000000E+00 -0.00000000000E+00 -0.21220325025E+03  0.21220325025E+03  0.00000000000E+00 0. -1.
         25    2    1    2    0    0  0.33143534404E+02 -0.70954890307E+01  0.41580568471E+03  0.43550841745E+03  0.12499749754E+03 0.  0.
          2    1    1    2  501    0 -0.14519000111E+02  0.35572181241E+02 -0.20028469922E+03  0.20393661315E+03  0.00000000000E+00 0. -1.
          1    1    1    2  502    0 -0.18624534293E+02 -0.28476692211E+02  0.11996575517E+04  0.12001400070E+04  0.00000000000E+00 0. -1.
         22    1    3    3    0    0 -0.18944167136E+02 -0.55284711087E+02  0.17885177908E+03  0.18815748624E+03  0.00000000000E+00 0. -1.
         22    1    3    3    0    0  0.52087701541E+02  0.48189222056E+02  0.23695390563E+03  0.24735093120E+03  0.00000000000E+00 0. -1.
</event>
<event>
 7    1  0.7802682E-006  0.4922720E+02  0.7818608E-02  0.1579752E+00
          2   -1    0    0  502    0  0.00000000000E+00  0.00000000000E+00  0.87416874291E+03  0.87416874291E+03  0.00000000000E+00 0. -1.
          1   -1    0    0  501    0 -0.00000000000E+00 -0.00000000000E+00 -0.65416631684E+03  0.65416631684E+03  0.00000000000E+00 0. -1.
         25    2    1    2    0    0  0.20033355819E+02  0.66338898828E+02  0.38372718024E+02  0.14798365604E+03  0.12499804848E+03 0.  0.
          2    1    1    2  501    0 -0.74888138731E+01 -0.19026875095E+02 -0.59841914846E+03  0.59876838723E+03  0.00000000000E+00 0. -1.
          1    1    1    2  502    0 -0.12544541946E+02 -0.47312023733E+02  0.78004885650E+03  0.78158301648E+03  0.00000000000E+00 0. -1.
         22    1    3    3    0    0  0.68043746660E+01  0.88330276193E+02  0.65850615556E+02  0.11038496626E+03  0.00000000000E+00 0. -1.
         22    1    3    3    0    0  0.13228981153E+02 -0.21991377365E+02 -0.27477897532E+02  0.37598689785E+02  0.00000000000E+00 0. -1.
</event>
<event>
 7    1  0.7802682E-006  0.1132508E+03  0.7818608E-02  0.1312151E+00
          2   -1    0    0  502    0  0.00000000000E+00  0.00000000000E+00  0.14431885728E+04  0.14431885728E+04  0.00000000000E+00 0. -1.
          1   -1    0    0  501    0 -0.00000000000E+00 -0.00000000000E+00 -0.10810789095E+03  0.10810789095E+03  0.00000000000E+00 0. -1.
         25    2    1    2    0    0 -0.68249943950E+02  0.50175580770E+01  0.34201778523E+03  0.37051931409E+03  0.12500066384E+03 0.  0.
          2    1    1    2  501    0 -0.46485330227E+02  0.46447101474E+02 -0.78208387778E+02  0.10215072726E+03  0.00000000000E+00 0. -1.
          1    1    1    2  502    0  0.11473527418E+03 -0.51464659551E+02  0.10712712844E+04  0.10786264224E+04  0.00000000000E+00 0. -1.
         22    1    3    3    0    0 -0.21343927937E+02  0.45347250037E+02  0.27413341947E+03  0.27867735469E+03  0.00000000000E+00 0. -1.
         22    1    3    3    0    0 -0.46906016013E+02 -0.40329691960E+02  0.67884365757E+02  0.91841959398E+02  0.00000000000E+00 0. -1.
</event>
<event>
 7    1  0.7802682E-006  0.2309889E+03  0.7818608E-02  0.1311121E+00
          2   -1    0    0  502    0  0.00000000000E+00  0.00000000000E+00  0.19825712697E+04  0.19825712697E+04  0.00000000000E+00 0. -1.
          1   -1    0    0  501    0 -0.00000000000E+00 -0.00000000000E+00 -0.46119081822E+03  0.46119081822E+03  0.00000000000E+00 0. -1.
         25    2    1    2    0    0  0.14993890496E+03  0.19483991544E+03  0.92218801320E+03  0.96255572977E+03  0.12505412172E+03 0.  0.
          2    1    1    2  501    0 -0.16158407929E+03 -0.16447628410E+03 -0.41059066619E+03  0.47089973229E+03  0.00000000000E+00 0. -1.
          1    1    1    2  502    0  0.11645174331E+02 -0.30363631333E+02  0.10097831045E+04  0.10103066259E+04  0.00000000000E+00 0. -1.
         22    1    3    3    0    0  0.11932271552E+02  0.64635969604E+02  0.43124280122E+03  0.43622304074E+03  0.00000000000E+00 0. -1.
         22    1    3    3    0    0  0.13800663340E+03  0.13020394583E+03  0.49094521198E+03  0.52633268903E+03  0.00000000000E+00 0. -1.
</event>
<event>
 7    1  0.7802682E-006  0.9797885E+02  0.7818608E-02  0.1312991E+00
          2   -1    0    0  502    0  0.00000000000E+00  0.00000000000E+00  0.16756655266E+04  0.16756655266E+04  0.00000000000E+00 0. -1.
          1   -1    0    0  501    0 -0.00000000000E+00 -0.00000000000E+00 -0.87484359643E+03  0.87484359643E+03  0.00000000000E+00 0. -1.
         25    2    1    2    0    0  0.23729127126E+02 -0.51718864207E+02  0.87947635121E+02  0.16308791437E+03  0.12499987560E+03 0.  0.
          2    1    1    2  501    0  0.40837649015E+02  0.90622631121E+02 -0.83340194067E+03  0.83930862593E+03  0.00000000000E+00 0. -1.
          1    1    1    2  502    0 -0.64566776141E+02 -0.38903766914E+02  0.15462762357E+04  0.15481125827E+04  0.00000000000E+00 0. -1.
         22    1    3    3    0    0  0.48170920272E+02 -0.24816459281E+02  0.10853849784E+03  0.12131322980E+03  0.00000000000E+00 0.  1.
         22    1    3    3    0    0 -0.24441793146E+02 -0.26902404926E+02 -0.20590862723E+02  0.41774684567E+02  0.00000000000E+00 0.  1.
</event>
<event>
 7    1  0.7802682E-006  0.1344984E+03  0.7818608E-02  0.1342949E+00
          2   -1    0    0  502    0  0.00000000000E+00  0.00000000000E+00  0.25550365867E+04  0.25550365867E+04  0.00000000000E+00 0. -1.
          1   -1    0    0  501    0 -0.00000000000E+00 -0.00000000000E+00 -0.12940478417E+03  0.12940478417E+03  0.00000000000E+00 0. -1.
         25    2    1    2    0    0  0.12711739533E+03  0.50194983627E+02  0.56130122450E+03  0.59106719217E+03  0.12499196958E+03 0.  0.
          2    1    1    2  501    0 -0.22741443800E+02  0.35495341997E+02 -0.10825398396E+03  0.11617236165E+03  0.00000000000E+00 0. -1.
          1    1    1    2  502    0 -0.10437595153E+03 -0.85690325625E+02  0.19725845620E+04  0.19772018171E+04  0.00000000000E+00 0. -1.
         22    1    3    3    0    0  0.12559111287E+03  0.79906262752E+01  0.50639610484E+03  0.52179880485E+03  0.00000000000E+00 0.  1.
         22    1    3    3    0    0  0.15262824515E+01  0.42204357352E+02  0.54905119654E+02  0.69268387320E+02  0.00000000000E+00 0.  1.
</event>
<event>
 7    1  0.7802682E-006  0.3812623E+02  0.7818608E-02  0.1522858E+00
          2   -1    0    0  502    0  0.00000000000E+00  0.00000000000E+00  0.21947130243E+04  0.21947130243E+04  0.00000000000E+00 0. -1.
          1   -1    0    0  501    0 -0.00000000000E+00 -0.00000000000E+00 -0.20270567246E+02  0.20270567246E+02  0.00000000000E+00 0. -1.
         25    2    1    2    0    0  0.17190084395E+01  0.11957829358E+01  0.71489717710E+03  0.72574431477E+03  0.12498980644E+03 0.  0.
          2    1    1    2  501    0  0.37223379570E+02  0.77816428274E+01  0.10239348286E+02  0.39382460627E+02  0.00000000000E+00 0. -1.
          1    1    1    2  502    0 -0.38942388009E+02 -0.89774257631E+01  0.14493059317E+04  0.14498568161E+04  0.00000000000E+00 0. -1.
         22    1    3    3    0    0  0.14442041301E+02  0.51479257205E+02  0.16591151202E+03  0.17431384426E+03  0.00000000000E+00 0. -1.
         22    1    3    3    0    0 -0.12723032862E+02 -0.50283474269E+02  0.54898566507E+03  0.55143047051E+03  0.00000000000E+00 0. -1.
</event>
<event>
 7    1  0.7802682E-006  0.3244139E+02  0.7818608E-02  0.1649902E+00
          2   -1    0    0  502    0  0.00000000000E+00  0.00000000000E+00  0.11966488977E+04  0.11966488977E+04  0.00000000000E+00 0. -1.
          1   -1    0    0  501    0 -0.00000000000E+00 -0.00000000000E+00 -0.20057511764E+03  0.20057511764E+03  0.00000000000E+00 0. -1.
         25    2    1    2    0    0  0.35298508661E+02 -0.28607908187E+02  0.16772379262E+03  0.21405796687E+03  0.12500058178E+03 0.  0.
          2    1    1    2  501    0 -0.20502479338E+02 -0.14669517001E+00 -0.17655468483E+03  0.17774118801E+03  0.00000000000E+00 0. -1.
          1    1    1    2  502    0 -0.14796029323E+02  0.28754603357E+02  0.10049046722E+04  0.10054248604E+04  0.00000000000E+00 0. -1.
         22    1    3    3    0    0 -0.71906438532E+01 -0.44506495656E+02  0.16220918497E+03  0.16835781301E+03  0.00000000000E+00 0.  1.
         22    1    3    3    0    0  0.42489152514E+02  0.15898587469E+02  0.55146076484E+01  0.45700153855E+02  0.00000000000E+00 0.  1.
</event>
<event>
 7    1  0.7802682E-006  0.9106746E+02  0.7818608E-02  0.1416979E+00
          2   -1    0    0  502    0  0.00000000000E+00  0.00000000000E+00  0.11466848206E+04  0.11466848206E+04  0.00000000000E+00 0. -1.
          1   -1    0    0  501    0 -0.00000000000E+00 -0.00000000000E+00 -0.43359608581E+02  0.43359608581E+02  0.00000000000E+00 0. -1.
         25    2    1    2    0    0 -0.17911008350E+02  0.96541855245E+02  0.46031558272E+03  0.48698747984E+03  0.12500094313E+03 0.  0.
          2    1    1    2  501    0  0.33232743155E+02 -0.73017230303E+01 -0.16180817727E+02  0.37676905912E+02  0.00000000000E+00 0. -1.
          1    1    1    2  502    0 -0.15321734805E+02 -0.89240132215E+02  0.65919044707E+03  0.66538004348E+03  0.00000000000E+00 0. -1.
         22    1    3    3    0    0  0.15969127423E+02  0.24022632184E+02  0.34730990766E+03  0.34850577018E+03  0.00000000000E+00 0. -1.
         22    1    3    3    0    0 -0.33880135773E+02  0.72519223061E+02  0.11300567506E+03  0.13848170966E+03  0.00000000000E+00 0. -1.
</event>
<event>
 7    1  0.7802682E-006  0.4393978E+02  0.7818608E-02  0.1579619E+00
          2   -1    0    0  502    0  0.00000000000E+00  0.00000000000E+00  0.63260616389E+03  0.63260616389E+03  0.00000000000E+00 0. -1.
          1   -1    0    0  501    0 -0.00000000000E+00 -0.00000000000E+00 -0.30114845169E+03  0.30114845169E+03  0.00000000000E+00 0. -1.
         25    2    1    2    0    0 -0.26293381617E+02 -0.27123289050E+02  0.81111611742E+02  0.15372165841E+03  0.12499695988E+03 0.  0.
          2    1    1    2  501    0 -0.16504455938E+02  0.15913752839E+02 -0.26339473727E+03  0.26439068103E+03  0.00000000000E+00 0. -1.
          1    1    1    2  502    0  0.42797837555E+02  0.11209536211E+02  0.51374083772E+03  0.51564227614E+03  0.00000000000E+00 0. -1.
         22    1    3    3    0    0 -0.16087474145E+01 -0.13669734557E+02 -0.33233669969E+02  0.35971190288E+02  0.00000000000E+00 0. -1.
         22    1    3    3    0    0 -0.24684634203E+02 -0.13453554493E+02  0.11434528171E+03  0.11775046813E+03  0.00000000000E+00 0. -1.
</event>
<event>
 7    1  0.7802682E-006  0.8183069E+02  0.7818608E-02  0.1407170E+00
          2   -1    0    0  502    0  0.00000000000E+00  0.00000000000E+00  0.25660565881E+04  0.25660565881E+04  0.00000000000E+00 0. -1.
          1   -1    0    0  501    0 -0.00000000000E+00 -0.00000000000E+00 -0.16082513956E+02  0.16082513956E+02  0.00000000000E+00 0. -1.
         25    2    1    2    0    0  0.57740602478E+02  0.10948377334E+02  0.39399966651E+03  0.41751194628E+03  0.12500657558E+03 0.  0.
          2    1    1    2  501    0  0.23064740732E+02 -0.33738499332E+02  0.11713765060E+03  0.12406247536E+03  0.00000000000E+00 0. -1.
          1    1    1    2  502    0 -0.80805343210E+02  0.22790121998E+02  0.20388367570E+04  0.20405646804E+04  0.00000000000E+00 0. -1.
         22    1    3    3    0    0  0.83338033193E+02  0.45266151781E+02  0.25480903370E+03  0.27188581414E+03  0.00000000000E+00 0.  1.
         22    1    3    3    0    0 -0.25597430715E+02 -0.34317774447E+02  0.13919063281E+03  0.14562613214E+03  0.00000000000E+00 0.  1.
</event>
<event>
 7    1  0.7802682E-006  0.1137802E+03  0.7818608E-02  0.1425835E+00
          2   -1    0    0  502    0  0.00000000000E+00  0.00000000000E+00  0.29087128057E+04  0.29087128057E+04  0.00000000000E+00 0. -1.
          1   -1    0    0  501    0 -0.00000000000E+00 -0.00000000000E+00 -0.17106090387E+02  0.17106090387E+02  0.00000000000E+00 0. -1.
         25    2    1    2    0    0  0.91389840755E+02 -0.68242331034E+02  0.12175234266E+04  0.12292267736E+04  0.12500419167E+03 0.  0.
          2    1    1    2  501    0 -0.10442194150E+03  0.46389274368E+02  0.28190604282E+03  0.30418238545E+03  0.00000000000E+00 0. -1.
          1    1    1    2  502    0  0.13032100741E+02  0.21853056666E+02  0.13921772459E+04  0.13924097370E+04  0.00000000000E+00 0. -1.
         22    1    3    3    0    0  0.76063309736E+02  0.19687822588E+02  0.49208110187E+03  0.49831420636E+03  0.00000000000E+00 0.  1.
         22    1    3    3    0    0  0.15326531018E+02 -0.87930153622E+02  0.72544232474E+03  0.73091256727E+03  0.00000000000E+00 0.  1.
</event>
<event>
 7    1  0.7802682E-006  0.7168228E+02  0.7818608E-02  0.1442913E+00
          2   -1    0    0  502    0  0.00000000000E+00  0.00000000000E+00  0.30240288511E+04  0.30240288511E+04  0.00000000000E+00 0. -1.
          1   -1    0    0  501    0 -0.00000000000E+00 -0.00000000000E+00 -0.84169114954E+02  0.84169114954E+02  0.00000000000E+00 0. -1.
         25    2    1    2    0    0  0.39250422375E+01 -0.76754658620E+02  0.15810821980E+03  0.21571609410E+03  0.12501416124E+03 0.  0.
          2    1    1    2  501    0 -0.33613708879E+02  0.11452323626E+02 -0.49169525514E+02  0.60652117690E+02  0.00000000000E+00 0. -1.
          1    1    1    2  502    0  0.29688666641E+02  0.65302334994E+02  0.28309210418E+04  0.28318297542E+04  0.00000000000E+00 0. -1.
         22    1    3    3    0    0 -0.55884067393E+02 -0.45733712899E+02  0.48268345089E+02  0.86858704927E+02  0.00000000000E+00 0. -1.
         22    1    3    3    0    0  0.59809109631E+02 -0.31020945721E+02  0.10983987471E+03  0.12885738917E+03  0.00000000000E+00 0. -1.
</event>
<event>
 7    1  0.7802682E-006  0.7076391E+02  0.7818608E-02  0.1417320E+00
          2   -1    0    0  502    0  0.00000000000E+00  0.00000000000E+00  0.26020832780E+04  0.26020832780E+04  0.00000000000E+00 0. -1.
          1   -1    0    0  501    0 -0.00000000000E+00 -0.00000000000E+00 -0.23039430936E+03  0.23039430936E+03  0.00000000000E+00 0. -1.
         25    2    1    2    0    0 -0.15641182469E+02 -0.57020160053E+02  0.26483088034E+03  0.29875728076E+03  0.12499828953E+03 0.  0.
          2    1    1    2  501    0  0.42692947073E+02 -0.91991766210E+01 -0.21063936658E+03  0.21511916542E+03  0.00000000000E+00 0. -1.
          1    1    1    2  502    0 -0.27051764604E+02  0.66219336674E+02  0.23174974549E+04  0.23186011412E+04  0.00000000000E+00 0. -1.
         22    1    3    3    0    0  0.15482606697E+02 -0.72975908612E+02  0.75191398974E+02  0.10591950164E+03  0.00000000000E+00 0.  1.
         22    1    3    3    0    0 -0.31123789166E+02  0.15955748560E+02  0.18963948136E+03  0.19283777912E+03  0.00000000000E+00 0.  1.
</event>
<event>
 7    1  0.7802682E-006  0.1098663E+03  0.7818608E-02  0.1400501E+00
          2   -1    0    0  502    0  0.00000000000E+00  0.00000000000E+00  0.80682077810E+03  0.80682077810E+03  0.00000000000E+00 0. -1.
          1   -1    0    0  501    0 -0.00000000000E+00 -0.00000000000E+00 -0.18330409060E+03  0.18330409060E+03  0.00000000000E+00 0. -1.
         25    2    1    2    0    0 -0.99101373582E+02 -0.27561795184E+02  0.12508271504E+03  0.20457625745E+03  0.12500009884E+03 0.  0.
          2    1    1    2  501    0  0.94197199118E+02  0.59265645698E+02 -0.12151110909E+03  0.16477402318E+03  0.00000000000E+00 0. -1.
          1    1    1    2  502    0  0.49041744646E+01 -0.31703850514E+02  0.61994508155E+03  0.62077458808E+03  0.00000000000E+00 0. -1.
         22    1    3    3    0    0 -0.68774889872E+02  0.39252486260E+02  0.98840867438E+02  0.12665014896E+03  0.00000000000E+00 0. -1.
         22    1    3    3    0    0 -0.30326483710E+02 -0.66814281445E+02  0.26241847603E+02  0.77926108493E+02  0.00000000000E+00 0. -1.
</event>
<event>
 7    1  0.7802682E-006  0.1346835E+03  0.7818608E-02  0.1250645E+00
          2   -1    0    0  502    0  0.00000000000E+00  0.00000000000E+00  0.85250572794E+02  0.85250572794E+02  0.00000000000E+00 0. -1.
          1   -1    0    0  501    0 -0.00000000000E+00 -0.00000000000E+00 -0.69242263852E+03  0.69242263852E+03  0.00000000000E+00 0. -1.
         25    2    1    2    0    0  0.81280639197E+02 -0.62441351500E+01 -0.12442413576E+03  0.19430029148E+03  0.12500282468E+03 0.  0.
          2    1    1    2  501    0 -0.12937004317E+03  0.92910224713E+02 -0.45254967116E+03  0.47976048482E+03  0.00000000000E+00 0. -1.
          1    1    1    2  502    0  0.48089403969E+02 -0.86666089563E+02 -0.30198258800E+02  0.10361243501E+03  0.00000000000E+00 0. -1.
         22    1    3    3    0    0  0.95306880282E+02  0.36526212425E+02 -0.70443491845E+02  0.12401552793E+03  0.00000000000E+00 0.  1.
         22    1    3    3    0    0 -0.14026241085E+02 -0.42770347575E+02 -0.53980643916E+02  0.70284763557E+02  0.00000000000E+00 0.  1.
</event>
<event>
 7    1  0.7802682E-006  0.1389594E+03  0.7818608E-02  0.1381239E+00
          2   -1    0    0  502    0  0.00000000000E+00  0.00000000000E+00  0.34991510535E+04  0.34991510535E+04  0.00000000000E+00 0. -1.
          1   -1    0    0  501    0 -0.00000000000E+00 -0.00000000000E+00 -0.52064627708E+02  0.52064627708E+02  0.00000000000E+00 0. -1.
         25    2    1    2    0    0  0.98909022564E+02 -0.10373591578E+03  0.18258971797E+04  0.18357750338E+04  0.12500131509E+03 0.  0.
          2    1    1    2  501    0 -0.73035021356E+02  0.11812250836E+03  0.55635988382E+02  0.14960750158E+03  0.00000000000E+00 0. -1.
          1    1    1    2  502    0 -0.25874001209E+02 -0.14386592579E+02  0.15655532577E+04  0.15658331459E+04  0.00000000000E+00 0. -1.
         22    1    3    3    0    0  0.19968733466E+02  0.22921500082E+02  0.60930894394E+03  0.61006682802E+03  0.00000000000E+00 0.  1.
         22    1    3    3    0    0  0.78940289098E+02 -0.12665741586E+03  0.12165882358E+04  0.12257082058E+04  0.00000000000E+00 0.  1.
</event>
<event>
 7    1  0.7802682E-006  0.8848734E+02  0.7818608E-02  0.1355751E+00
          2   -1    0    0  502    0  0.00000000000E+00  0.00000000000E+00  0.19142886717E+04  0.19142886717E+04  0.00000000000E+00 0. -1.
          1   -1    0    0  501    0 -0.00000000000E+00 -0.00000000000E+00 -0.66446925898E+03  0.66446925898E+03  0.00000000000E+00 0. -1.
         25    2    1    2    0    0  0.11883545577E+03 -0.40999263995E+02 -0.14084209518E+03  0.22642074056E+03  0.12500820287E+03 0.  0.
          2    1    1    2  501    0 -0.63830449991E+02  0.57545264905E+02 -0.47655261195E+03  0.48423979165E+03  0.00000000000E+00 0. -1.
          1    1    1    2  502    0 -0.55005005781E+02 -0.16546000910E+02  0.18672141199E+04  0.18680973985E+04  0.00000000000E+00 0. -1.
         22    1    3    3    0    0  0.58790280529E+02  0.17669147902E+02  0.12294080229E+01  0.61400385311E+02  0.00000000000E+00 0.  1.
         22    1    3    3    0    0  0.60045175243E+02 -0.58668411897E+02 -0.14207150320E+03  0.16502035525E+03  0.00000000000E+00 0.  1.
</event>
<event>
 7    1  0.7802682E-006  0.1892676E+03  0.7818608E-02  0.1367304E+00
          2   -1    0    0  502    0  0.00000000000E+00  0.00000000000E+00  0.90811157512E+03  0.90811157512E+03  0.00000000000E+00 0. -1.
          1   -1    0    0  501    0 -0.00000000000E+00 -0.00000000000E+00 -0.99022892529E+02  0.99022892529E+02  0.00000000000E+00 0. -1.
         25    2    1    2    0    0 -0.11998637520E+03 -0.12445772490E+03  0.26407334527E+03  0.33947975250E+03  0.12500126062E+03 0.  0.
          2    1    1    2  501    0 -0.10807269796E+02 -0.21848446711E+02 -0.42079186859E+02  0.48629308764E+02  0.00000000000E+00 0. -1.
          1    1    1    2  502    0  0.13079364500E+03  0.14630617161E+03  0.58709452419E+03  0.61902540639E+03  0.00000000000E+00 0. -1.
         22    1    3    3    0    0 -0.44331513841E+02 -0.28230769035E+01  0.66916688889E+01  0.44922503438E+02  0.00000000000E+00 0. -1.
         22    1    3    3    0    0 -0.75654861362E+02 -0.12163464799E+03  0.25738167638E+03  0.29455724906E+03  0.00000000000E+00 0. -1.
</event>
<event>
 7    1  0.7802682E-006  0.1144023E+03  0.7818608E-02  0.1410124E+00
          2   -1    0    0  502    0  0.00000000000E+00  0.00000000000E+00  0.11248431395E+04  0.11248431395E+04  0.00000000000E+00 0. -1.
          1   -1    0    0  501    0 -0.00000000000E+00 -0.00000000000E+00 -0.48008211892E+03  0.48008211892E+03  0.00000000000E+00 0. -1.
         25    2    1    2    0    0 -0.12422350459E+03  0.23222342056E+02 -0.12460301532E+03  0.21707363282E+03  0.12499717747E+03 0.  0.
          2    1    1    2  501    0  0.19020502419E+02  0.21312277707E+02 -0.30555077195E+03  0.30688314866E+03  0.00000000000E+00 0. -1.
          1    1    1    2  502    0  0.10520300218E+03 -0.44534619763E+02  0.10749148078E+04  0.10809684769E+04  0.00000000000E+00 0. -1.
         22    1    3    3    0    0 -0.54361707668E+02 -0.33752757793E+01  0.16908953205E+02  0.57030697398E+02  0.00000000000E+00 0.  1.
         22    1    3    3    0    0 -0.69861796926E+02  0.26597617835E+02 -0.14151196852E+03  0.16004293543E+03  0.00000000000E+00 0.  1.
</event>
<event>
 7    1  0.7802682E-006  0.1882311E+03  0.7818608E-02  0.1197157E+00
          2   -1    0    0  502    0  0.00000000000E+00  0.00000000000E+00  0.26202807811E+04  0.26202807811E+04  0.00000000000E+00 0. -1.
          1   -1    0    0  501    0 -0.00000000000E+00 -0.00000000000E+00 -0.10033232562E+04  0.10033232562E+04  0.00000000000E+00 0. -1.
         25    2    1    2    0    0 -0.15705179143E+03  0.11005223894E+03 -0.13815055959E+03  0.26737035182E+03  0.12499826970E+03 0.  0.
          2    1    1    2  501    0 -0.31554205038E+02 -0.11984086392E+03 -0.79225022652E+03  0.80188398285E+03  0.00000000000E+00 0. -1.
          1    1    1    2  502    0  0.18860599647E+03  0.97886249850E+01  0.25473583110E+04  0.25543497027E+04  0.00000000000E+00 0. -1.
         22    1    3    3    0    0 -0.16059937059E+03  0.92193195366E+02 -0.15580700728E+03  0.24200736894E+03  0.00000000000E+00 0. -1.
         22    1    3    3    0    0  0.35475791568E+01  0.17859043573E+02  0.17656447690E+02  0.25362982874E+02  0.00000000000E+00 0. -1.
</event>
<event>
 7    1  0.7802682E-006  0.1633343E+03  0.7818608E-02  0.1272449E+00
          2   -1    0    0  502    0  0.00000000000E+00  0.00000000000E+00  0.53389218854E+03  0.53389218854E+03  0.00000000000E+00 0. -1.
          1   -1    0    0  501    0 -0.00000000000E+00 -0.00000000000E+00 -0.68873976397E+03  0.68873976397E+03  0.00000000000E+00 0. -1.
         25    2    1    2    0    0 -0.11391920394E+03 -0.17933166690E+01  0.44370325341E+00  0.16913044591E+03  0.12499643935E+03 0.  0.
          2    1    1    2  501    0 -0.55632238691E+02 -0.35509792045E+02 -0.58569608081E+03  0.58940291006E+03  0.00000000000E+00 0. -1.
          1    1    1    2  502    0  0.16955144263E+03  0.37303108714E+02  0.43040480212E+03  0.46409859654E+03  0.00000000000E+00 0. -1.
         22    1    3    3    0    0  0.14690993322E+02  0.16217147237E+02 -0.28645735889E+02  0.36047182052E+02  0.00000000000E+00 0. -1.
         22    1    3    3    0    0 -0.12861019726E+03 -0.18010463906E+02  0.29089439142E+02  0.13308326386E+03  0.00000000000E+00 0. -1.
</event>
<event>
 7    1  0.7802682E-006  0.6602071E+02  0.7818608E-02  0.1401107E+00
          2   -1    0    0  502    0  0.00000000000E+00  0.00000000000E+00  0.64649491709E+03  0.64649491709E+03  0.00000000000E+00 0. -1.
          1   -1    0    0  501    0 -0.00000000000E+00 -0.00000000000E+00 -0.40650008135E+03  0.40650008135E+03  0.00000000000E+00 0. -1.
         25    2    1    2    0    0 -0.12315796220E+02 -0.40790747598E+02 -0.51412581475E+02  0.14171475000E+03  0.12499701159E+03 0.  0.
          2    1    1    2  501    0 -0.37961813200E+02  0.57969136239E+02 -0.30486737914E+03  0.31264298949E+03  0.00000000000E+00 0. -1.
          1    1    1    2  502    0  0.50277609420E+02 -0.17178388641E+02  0.59627479634E+03  0.59863725895E+03  0.00000000000E+00 0. -1.
         22    1    3    3    0    0 -0.23359094078E+02 -0.75536424851E+02 -0.65456678435E+02  0.10264490005E+03  0.00000000000E+00 0.  1.
         22    1    3    3    0    0  0.11043297858E+02  0.34745677253E+02  0.14044096960E+02  0.39069849946E+02  0.00000000000E+00 0.  1.
</event>
<event>
 7    1  0.7802682E-006  0.7292809E+02  0.7818608E-02  0.1430911E+00
          2   -1    0    0  502    0  0.00000000000E+00  0.00000000000E+00  0.17749905261E+04  0.17749905261E+04  0.00000000000E+00 0. -1.
          1   -1    0    0  501    0 -0.00000000000E+00 -0.00000000000E+00 -0.31798693850E+03  0.31798693850E+03  0.00000000000E+00 0. -1.
         25    2    1    2    0    0  0.14352758835E+02  0.54868127141E+02  0.19442639599E+03  0.23799990803E+03  0.12500327877E+03 0.  0.
          2    1    1    2  501    0 -0.52394830233E+02 -0.51455576858E+02 -0.29141018391E+03  0.30052086435E+03  0.00000000000E+00 0. -1.
          1    1    1    2  502    0  0.38042071399E+02 -0.34125502829E+01  0.15539873755E+04  0.15544566922E+04  0.00000000000E+00 0. -1.
         22    1    3    3    0    0 -0.39188953437E+02  0.24148071638E+02  0.16171655106E+03  0.16814025789E+03  0.00000000000E+00 0.  1.
         22    1    3    3    0    0  0.53541712272E+02  0.30720055503E+02  0.32709844926E+02  0.69859650143E+02  0.00000000000E+00 0.  1.
</event>
<event>
 7    1  0.7802682E-006  0.4793623E+02  0.7818608E-02  0.1504962E+00
          2   -1    0    0  502    0  0.00000000000E+00  0.00000000000E+00  0.31123861698E+04  0.31123861698E+04  0.00000000000E+00 0. -1.
          1   -1    0    0  501    0 -0.00000000000E+00 -0.00000000000E+00 -0.17081312567E+04  0.17081312567E+04  0.00000000000E+00 0. -1.
         25    2    1    2    0    0 -0.53316585613E+02 -0.30902345290E+02  0.10474897330E+04  0.10567204023E+04  0.12500261843E+03 0.  0.
          2    1    1    2  501    0  0.32030934575E+02 -0.11768851285E+02 -0.17030690546E+04  0.17034108992E+04  0.00000000000E+00 0. -1.
          1    1    1    2  502    0  0.21285651038E+02  0.42671196575E+02  0.20598342347E+04  0.20603861251E+04  0.00000000000E+00 0. -1.
         22    1    3    3    0    0  0.13714844996E+02 -0.53132260403E+01  0.76886563412E+03  0.76900630080E+03  0.00000000000E+00 0. -1.
         22    1    3    3    0    0 -0.67031430610E+02 -0.25589119250E+02  0.27862409886E+03  0.28771410146E+03  0.00000000000E+00 0. -1.
</event>
<event>
 7    1  0.7802682E-006  0.7887455E+02  0.7818608E-02  0.1457543E+00
          2   -1    0    0  502    0  0.00000000000E+00  0.00000000000E+00  0.47312511942E+02  0.47312511942E+02  0.00000000000E+00 0. -1.
          1   -1    0    0  501    0 -0.00000000000E+00 -0.00000000000E+00 -0.55993766771E+03  0.55993766771E+03  0.00000000000E+00 0. -1.
         25    2    1    2    0    0  0.39795710332E+02  0.74004891561E+02 -0.14577959628E+03  0.20960983528E+03  0.12499667923E+03 0.  0.
          2    1    1    2  501    0 -0.11096812981E+02 -0.78005428438E+02 -0.35910610611E+03  0.36764817634E+03  0.00000000000E+00 0. -1.
          1    1    1    2  502    0 -0.28698897351E+02  0.40005368771E+01 -0.77394533818E+01  0.29992168030E+02  0.00000000000E+00 0. -1.
         22    1    3    3    0    0 -0.30396502422E+02  0.12955379562E+02  0.40089790711E+01  0.33284547951E+02  0.00000000000E+00 0.  1.
         22    1    3    3    0    0  0.70192212754E+02  0.61049511999E+02 -0.14978857535E+03  0.17632528733E+03  0.00000000000E+00 0.  1.
</event>
<event>
 7    1  0.7802682E-006  0.3838405E+02  0.7818608E-02  0.1622301E+00
          2   -1    0    0  502    0  0.00000000000E+00  0.00000000000E+00  0.76377626988E+03  0.76377626988E+03  0.00000000000E+00 0. -1.
          1   -1    0    0  501    0 -0.00000000000E+00 -0.00000000000E+00 -0.58636791540E+03  0.58636791540E+03  0.00000000000E+00 0. -1.
         25    2    1    2    0    0  0.22119394587E+02 -0.40279294473E+02 -0.21772490453E+03  0.25524939235E+03  0.12504570789E+03 0.  0.
          2    1    1    2  501    0 -0.31164668525E+02  0.22098066669E+02 -0.34869888283E+03  0.35078550711E+03  0.00000000000E+00 0. -1.
          1    1    1    2  502    0  0.90452739373E+01  0.18181227804E+02  0.74383214184E+03  0.74410928583E+03  0.00000000000E+00 0. -1.
         22    1    3    3    0    0  0.27947001833E+02 -0.60271984572E+02 -0.42666736594E+02  0.78956934130E+02  0.00000000000E+00 0.  1.
         22    1    3    3    0    0 -0.58276072454E+01  0.19992690099E+02 -0.17505816793E+03  0.17629245822E+03  0.00000000000E+00 0.  1.
</event>
<event>
 7    1  0.7802682E-006  0.5744929E+02  0.7818608E-02  0.1413260E+00
          2   -1    0    0  502    0  0.00000000000E+00  0.00000000000E+00  0.31315517367E+02  0.31315517367E+02  0.00000000000E+00 0. -1.
          1   -1    0    0  501    0 -0.00000000000E+00 -0.00000000000E+00 -0.10475663809E+04  0.10475663809E+04  0.00000000000E+00 0. -1.
         25    2    1    2    0    0  0.30447731235E+01  0.26991731049E+02 -0.34492112707E+03  0.36787711268E+03  0.12500064778E+03 0.  0.
          2    1    1    2  501    0 -0.58491474385E+02 -0.24283131004E+02 -0.64750596499E+03  0.65059580211E+03  0.00000000000E+00 0. -1.
          1    1    1    2  502    0  0.55446701261E+02 -0.27086000445E+01 -0.23823771438E+02  0.60408983442E+02  0.00000000000E+00 0. -1.
         22    1    3    3    0    0  0.28584323309E+02 -0.32028571385E+02 -0.24715999574E+03  0.25086043215E+03  0.00000000000E+00 0.  1.
         22    1    3    3    0    0 -0.25539550185E+02  0.59020302434E+02 -0.97761131321E+02  0.11701668052E+03  0.00000000000E+00 0.  1.
</event>
<event>
 7    1  0.7802682E-006  0.9314900E+02  0.7818608E-02  0.1419765E+00
          2   -1    0    0  502    0  0.00000000000E+00  0.00000000000E+00  0.61485003185E+03  0.61485003185E+03  0.00000000000E+00 0. -1.
          1   -1    0    0  501    0 -0.00000000000E+00 -0.00000000000E+00 -0.70501219356E+03  0.70501219356E+03  0.00000000000E+00 0. -1.
         25    2    1    2    0    0  0.33391433741E+02  0.65019135116E+02  0.50205616203E+01  0.14488965446E+03  0.12500132060E+03 0.  0.
          2    1    1    2  501    0  0.32437332220E+02  0.28036337058E+01 -0.63051778339E+03  0.63135783519E+03  0.00000000000E+00 0. -1.
          1    1    1    2  502    0 -0.65828765961E+02 -0.67822768822E+02  0.53533506007E+03  0.54361473576E+03  0.00000000000E+00 0. -1.
         22    1    3    3    0    0  0.30542852334E+02  0.34046499936E+02  0.63733279073E+02  0.78447185087E+02  0.00000000000E+00 0.  1.
         22    1    3    3    0    0  0.28485814067E+01  0.30972635180E+02 -0.58712717453E+02  0.66442469376E+02  0.00000000000E+00 0.  1.
</event>
<event>
 7    1  0.7802682E-006  0.2096524E+03  0.7818608E-02  0.1370860E+00
          2   -1    0    0  502    0  0.00000000000E+00  0.00000000000E+00  0.57378541550E+03  0.57378541550E+03  0.00000000000E+00 0. -1.
          1   -1    0    0  501    0 -0.00000000000E+00 -0.00000000000E+00 -0.21814822938E+04  0.21814822938E+04  0.00000000000E+00 0. -1.
         25    2    1    2    0    0  0.19383200925E+02  0.18838231992E+03 -0.12890137082E+04  0.13088336291E+04  0.12500208747E+03 0.  0.
          2    1    1    2  501    0 -0.39093629770E+01  0.21005366680E+02 -0.86287730267E+03  0.86314178905E+03  0.00000000000E+00 0. -1.
          1    1    1    2  502    0 -0.15473837948E+02 -0.20938768660E+03  0.54419413257E+03  0.58329229112E+03  0.00000000000E+00 0. -1.
         22    1    3    3    0    0  0.27660622890E+02  0.27657586454E+02 -0.60000643849E+03  0.60128011639E+03  0.00000000000E+00 0.  1.
         22    1    3    3    0    0 -0.82774219645E+01  0.16072473347E+03 -0.68900726970E+03  0.70755351272E+03  0.00000000000E+00 0.  1.
</event>
<event>
 7    1  0.7802682E-006  0.1134394E+03  0.7818608E-02  0.1319744E+00
          2   -1    0    0  502    0  0.00000000000E+00  0.00000000000E+00  0.18997807137E+03  0.18997807137E+03  0.00000000000E+00 0. -1.
          1   -1    0    0  501    0 -0.00000000000E+00 -0.00000000000E+00 -0.11110300518E+04  0.11110300518E+04  0.00000000000E+00 0. -1.
         25    2    1    2    0    0 -0.64615807653E+02 -0.12189669074E+03  0.10292247653E+03  0.21272418400E+03  0.12499814586E+03 0.  0.
          2    1    1    2  501    0  0.50616406886E+02  0.34533654542E+02 -0.99247755804E+03  0.99436728483E+03  0.00000000000E+00 0. -1.
          1    1    1    2  502    0  0.13999400767E+02  0.87363036202E+02 -0.31496898907E+02  0.93916654311E+02  0.00000000000E+00 0. -1.
         22    1    3    3    0    0 -0.57539716878E+02 -0.14230192086E+02  0.84573557682E+02  0.10327634794E+03  0.00000000000E+00 0.  1.
         22    1    3    3    0    0 -0.70760907752E+01 -0.10766649866E+03  0.18348918852E+02  0.10944783605E+03  0.00000000000E+00 0.  1.
</event>
<event>
 7    1  0.7802682E-006  0.5662726E+02  0.7818608E-02  0.1417323E+00
          2   -1    0    0  502    0  0.00000000000E+00  0.00000000000E+00  0.21114613962E+04  0.21114613962E+04  0.00000000000E+00 0. -1.
          1   -1    0    0  501    0 -0.00000000000E+00 -0.00000000000E+00 -0.87432541153E+03  0.87432541153E+03  0.00000000000E+00 0. -1.
         25    2    1    2    0    0  0.84356119661E+02  0.70630169860E+02  0.33183220936E+03  0.37127113827E+03  0.12500026850E+03 0.  0.
          2    1    1    2  501    0 -0.47789006833E+02 -0.30118285404E+02 -0.85324873274E+03  0.85511654189E+03  0.00000000000E+00 0. -1.
          1    1    1    2  502    0 -0.36567112829E+02 -0.40511884456E+02  0.17585525080E+04  0.17593991276E+04  0.00000000000E+00 0. -1.
         22    1    3    3    0    0  0.21385202152E+02  0.95245628872E+02  0.17285898591E+03  0.19851772137E+03  0.00000000000E+00 0. -1.
         22    1    3    3    0    0  0.62970917509E+02 -0.24615459012E+02  0.15897322345E+03  0.17275341690E+03  0.00000000000E+00 0. -1.
</event>
<event>
 7    1  0.7802682E-006  0.9343247E+02  0.7818608E-02  0.1383660E+00
          2   -1    0    0  502    0  0.00000000000E+00  0.00000000000E+00  0.15874675185E+03  0.15874675185E+03  0.00000000000E+00 0. -1.
          1   -1    0    0  501    0 -0.00000000000E+00 -0.00000000000E+00 -0.68420104160E+03  0.68420104160E+03  0.00000000000E+00 0. -1.
         25    2    1    2    0    0  0.12052165796E+03  0.63621163795E+01 -0.41855188950E+03  0.45318507372E+03  0.12500032111E+03 0.  0.
          2    1    1    2  501    0 -0.30947670398E+02 -0.30101470176E+02 -0.23093542086E+03  0.23493621563E+03  0.00000000000E+00 0. -1.
          1    1    1    2  502    0 -0.89573987563E+02  0.23739353797E+02  0.12403302061E+03  0.15482650409E+03  0.00000000000E+00 0. -1.
         22    1    3    3    0    0 -0.15636502545E+02  0.13248104389E+02 -0.15606651864E+03  0.15740638717E+03  0.00000000000E+00 0.  1.
         22    1    3    3    0    0  0.13615816051E+03 -0.68859880094E+01 -0.26248537086E+03  0.29577868655E+03  0.00000000000E+00 0.  1.
</event>
<event>
 7    1  0.7802682E-006  0.8338264E+02  0.7818608E-02  0.1338266E+00
          2   -1    0    0  502    0  0.00000000000E+00  0.00000000000E+00  0.56011713645E+03  0.56011713645E+03  0.00000000000E+00 0. -1.
          1   -1    0    0  501    0 -0.00000000000E+00 -0.00000000000E+00 -0.85246029833E+03  0.85246029833E+03  0.00000000000E+00 0. -1.
         25    2    1    2    0    0 -0.69918324756E+02  0.35384468902E+02  0.17038094905E+03  0.22536868505E+03  0.12498297335E+03 0.  0.
          2    1    1    2  501    0 -0.12385599983E+02 -0.69719261147E+02 -0.81792482263E+03  0.82098428361E+03  0.00000000000E+00 0. -1.
          1    1    1    2  502    0  0.82303924739E+02  0.34334792245E+02  0.35520071171E+03  0.36622446612E+03  0.00000000000E+00 0. -1.
         22    1    3    3    0    0 -0.96344016848E+02  0.51960987639E+02  0.15707683029E+03  0.19145559389E+03  0.00000000000E+00 0.  1.
         22    1    3    3    0    0  0.26425692092E+02 -0.16576518737E+02  0.13304118757E+02  0.33913091157E+02  0.00000000000E+00 0.  1.
</event>
<event>
 7    1  0.7802682E-006  0.3720973E+02  0.7818608E-02  0.1580080E+00
          2   -1    0    0  502    0  0.00000000000E+00  0.00000000000E+00  0.33090198769E+03  0.33090198769E+03  0.00000000000E+00 0. -1.
          1   -1    0    0  501    0 -0.00000000000E+00 -0.00000000000E+00 -0.17532880989E+03  0.17532880989E+03  0.00000000000E+00 0. -1.
         25    2    1    2    0    0  0.58711075661E+02 -0.12095425986E+02  0.67700519318E+02  0.15426039081E+03  0.12497847063E+03 0.  0.
          2    1    1    2  501    0 -0.36585598794E+02 -0.33732200241E+01 -0.12863859361E+03  0.13378255648E+03  0.00000000000E+00 0. -1.
          1    1    1    2  502    0 -0.22125476868E+02  0.15468646010E+02  0.21651125209E+03  0.21818785029E+03  0.00000000000E+00 0. -1.
         22    1    3    3    0    0  0.57909176914E+02  0.31822697115E+02  0.84468640181E+02  0.10724321888E+03  0.00000000000E+00 0.  1.
         22    1    3    3    0    0  0.80189874758E+00 -0.43918123101E+02 -0.16768120864E+02  0.47017171923E+02  0.00000000000E+00 0.  1.
</event>
<event>
 7    1  0.7802682E-006  0.1016350E+03  0.7818608E-02  0.1360333E+00
          2   -1    0    0  502    0  0.00000000000E+00  0.00000000000E+00  0.22421618888E+03  0.22421618888E+03  0.00000000000E+00 0. -1.
          1   -1    0    0  501    0 -0.00000000000E+00 -0.00000000000E+00 -0.12820470395E+04  0.12820470395E+04  0.00000000000E+00 0. -1.
         25    2    1    2    0    0  0.72933562046E+02  0.47544158223E+02  0.58548149982E+02  0.16319433426E+03  0.12499901366E+03 0.  0.
          2    1    1    2  501    0  0.37890851665E+02 -0.29652730946E+02 -0.12013277610E+04  0.12022908926E+04  0.00000000000E+00 0. -1.
          1    1    1    2  502    0 -0.11082441371E+03 -0.17891427277E+02  0.84948760340E+02  0.14077800158E+03  0.00000000000E+00 0. -1.
         22    1    3    3    0    0  0.42983518474E+02  0.71000479856E+01  0.92664063005E+02  0.10239444377E+03  0.00000000000E+00 0. -1.
         22    1    3    3    0    0  0.29950043573E+02  0.40444110237E+02 -0.34115913023E+02  0.60799890496E+02  0.00000000000E+00 0. -1.
</event>
<event>
 7    1  0.7802682E-006  0.3406060E+03  0.7818608E-02  0.1179837E+00
          2   -1    0    0  502    0  0.00000000000E+00  0.00000000000E+00  0.40326776198E+03  0.40326776198E+03  0.00000000000E+00 0. -1.
          1   -1    0    0  501    0 -0.00000000000E+00 -0.00000000000E+00 -0.11922664703E+04  0.11922664703E+04  0.00000000000E+00 0. -1.
         25    2    1    2    0    0  0.22000499062E+03  0.17294336454E+03 -0.21292616899E+03  0.37319601175E+03  0.12500442596E+03 0.  0.
          2    1    1    2  501    0  0.55175226221E+02  0.61964492939E+02 -0.79508692991E+03  0.79940423447E+03  0.00000000000E+00 0. -1.
          1    1    1    2  502    0 -0.27518021684E+03 -0.23490785748E+03  0.21901439061E+03  0.42293398603E+03  0.00000000000E+00 0. -1.
         22    1    3    3    0    0  0.13936671403E+03  0.47403513068E+02 -0.58336776638E+02  0.15834567736E+03  0.00000000000E+00 0. -1.
         22    1    3    3    0    0  0.80638276588E+02  0.12553985147E+03 -0.15458939235E+03  0.21485033439E+03  0.00000000000E+00 0. -1.
</event>
<event>
 7    1  0.7802682E-006  0.5104080E+02  0.7818608E-02  0.1464781E+00
          2   -1    0    0  502    0  0.00000000000E+00  0.00000000000E+00  0.10028103877E+04  0.10028103877E+04  0.00000000000E+00 0. -1.
          1   -1    0    0  501    0 -0.00000000000E+00 -0.00000000000E+00 -0.34312699922E+03  0.34312699922E+03  0.00000000000E+00 0. -1.
         25    2    1    2    0    0 -0.86120744847E+02 -0.30577664328E+02 -0.11802031254E+02  0.15528712477E+03  0.12499210746E+03 0.  0.
          2    1    1    2  501    0  0.42158082325E+02  0.52858070450E+01 -0.25714716418E+03  0.26063366572E+03  0.00000000000E+00 0. -1.
          1    1    1    2  502    0  0.43962662522E+02  0.25291857283E+02  0.92863258387E+03  0.93001659639E+03  0.00000000000E+00 0. -1.
         22    1    3    3    0    0 -0.40297581498E+01 -0.51073377696E+02 -0.41169990329E+02  0.65724401585E+02  0.00000000000E+00 0.  1.
         22    1    3    3    0    0 -0.82090986697E+02  0.20495713369E+02  0.29367959074E+02  0.89562723181E+02  0.00000000000E+00 0.  1.
</event>
<event>
 7    1  0.7802682E-006  0.9168701E+02  0.7818608E-02  0.1477240E+00
          2   -1    0    0  502    0  0.00000000000E+00  0.00000000000E+00  0.15437812728E+03  0.15437812728E+03  0.00000000000E+00 0. -1.
          1   -1    0    0  501    0 -0.00000000000E+00 -0.00000000000E+00 -0.45512189958E+03  0.45512189958E+03  0.00000000000E+00 0. -1.
         25    2    1    2    0    0 -0.34283303618E+02 -0.84591900978E+02 -0.17305477404E+03  0.23217235621E+03  0.12499965421E+03 0.  0.
          2    1    1    2  501    0  0.20693223365E+02 -0.63165906915E+01 -0.23502125924E+03  0.23601504424E+03  0.00000000000E+00 0. -1.
          1    1    1    2  502    0  0.13590080253E+02  0.90908491670E+02  0.10733226097E+03  0.14131262642E+03  0.00000000000E+00 0. -1.
         22    1    3    3    0    0 -0.29359130842E+02 -0.19378050612E+02 -0.16208601027E+03  0.16585940472E+03  0.00000000000E+00 0.  1.
         22    1    3    3    0    0 -0.49241727756E+01 -0.65213850366E+02 -0.10968763772E+02  0.66312951494E+02  0.00000000000E+00 0.  1.
</event>
<event>
 7    1  0.8874557E-006  0.6936931E+02  0.7818608E-02  0.1376901E+00
          2   -1    0    0  502    0  0.00000000000E+00  0.00000000000E+00  0.79810162662E+03  0.79810162662E+03  0.00000000000E+00 0. -1.
          1   -1    0    0  501    0 -0.00000000000E+00 -0.00000000000E+00 -0.22355302609E+04  0.22355302609E+04  0.00000000000E+00 0. -1.
         25    2    1    2    0    0 -0.73758718554E+02  0.37559478650E+02 -0.23949474006E+03  0.28254999746E+03  0.12500283018E+03 0.  0.
          2    1    1    2  501    0  0.83462324818E+01 -0.60872708007E+02 -0.19724761455E+04  0.19734328696E+04  0.00000000000E+00 0. -1.
          1    1    1    2  502    0  0.65412486072E+02  0.23313229357E+02  0.77454225129E+03  0.77764902047E+03  0.00000000000E+00 0. -1.
         22    1    3    3    0    0  0.18212558442E+01 -0.82480541238E+01  0.12736986196E+02  0.15283264934E+02  0.00000000000E+00 0. -1.
         22    1    3    3    0    0 -0.75579974398E+02  0.45807532774E+02 -0.25223172625E+03  0.26726673253E+03  0.00000000000E+00 0. -1.
</event>
<event>
 7    1  0.7802682E-006  0.4958512E+02  0.7818608E-02  0.1449315E+00
          2   -1    0    0  502    0  0.00000000000E+00  0.00000000000E+00  0.34643156033E+04  0.34643156033E+04  0.00000000000E+00 0. -1.
          1   -1    0    0  501    0 -0.00000000000E+00 -0.00000000000E+00 -0.52199641677E+02  0.52199641677E+02  0.00000000000E+00 0. -1.
         25    2    1    2    0    0 -0.11536184630E+02  0.24944803000E+02  0.92825497588E+03  0.93703549082E+03  0.12499153596E+03 0.  0.
          2    1    1    2  501    0 -0.39531172040E+02 -0.29932772621E+02 -0.34620705364E+02  0.60475430379E+02  0.00000000000E+00 0. -1.
          1    1    1    2  502    0  0.51067356669E+02  0.49879696216E+01  0.25184816911E+04  0.25190043238E+04  0.00000000000E+00 0. -1.
         22    1    3    3    0    0 -0.23130130547E+01  0.63415821185E+02  0.26080725591E+03  0.26841635781E+03  0.00000000000E+00 0.  1.
         22    1    3    3    0    0 -0.92231715749E+01 -0.38471018185E+02  0.66744771997E+03  0.66861913301E+03  0.00000000000E+00 0.  1.
</event>
<event>
 7    1  0.7802682E-006  0.6425494E+02  0.7818608E-02  0.1461630E+00
          2   -1    0    0  502    0  0.00000000000E+00  0.00000000000E+00  0.10627941647E+04  0.10627941647E+04  0.00000000000E+00 0. -1.
          1   -1    0    0  501    0 -0.00000000000E+00 -0.00000000000E+00 -0.74350992099E+02  0.74350992099E+02  0.00000000000E+00 0. -1.
         25    2    1    2    0    0 -0.59405709245E+02  0.12309653374E+01  0.22905040101E+03  0.26762093464E+03  0.12500529944E+03 0.  0.
          2    1    1    2  501    0  0.47270265426E+01  0.34203140329E+02 -0.48208942449E+02  0.59298412461E+02  0.00000000000E+00 0. -1.
          1    1    1    2  502    0  0.54678682703E+02 -0.35434105667E+02  0.80760171400E+03  0.81022580966E+03  0.00000000000E+00 0. -1.
         22    1    3    3    0    0 -0.48302538568E+02 -0.25713498236E+02  0.22731529049E+02  0.59254043209E+02  0.00000000000E+00 0.  1.
         22    1    3    3    0    0 -0.11103170677E+02  0.26944463574E+02  0.20631887196E+03  0.20836689143E+03  0.00000000000E+00 0.  1.
</event>
<event>
 7    1  0.7802682E-006  0.3787010E+02  0.7818608E-02  0.1564456E+00
          2   -1    0    0  502    0  0.00000000000E+00  0.00000000000E+00  0.26288588439E+03  0.26288588439E+03  0.00000000000E+00 0. -1.
          1   -1    0    0  501    0 -0.00000000000E+00 -0.00000000000E+00 -0.15880195363E+04  0.15880195363E+04  0.00000000000E+00 0. -1.
         25    2    1    2    0    0  0.38180110657E+02  0.55112635365E+02 -0.80481908450E+03  0.81722303460E+03  0.12499842432E+03 0.  0.
          2    1    1    2  501    0 -0.17228190561E+02 -0.23626672952E+02 -0.77532827467E+03  0.77587947758E+03  0.00000000000E+00 0. -1.
          1    1    1    2  502    0 -0.20951920096E+02 -0.31485962413E+02  0.25501370722E+03  0.25780290855E+03  0.00000000000E+00 0. -1.
         22    1    3    3    0    0  0.82684367165E+02  0.32250263150E+02 -0.42867731685E+03  0.43776823323E+03  0.00000000000E+00 0.  1.
         22    1    3    3    0    0 -0.44504256508E+02  0.22862372215E+02 -0.37614176766E+03  0.37945480137E+03  0.00000000000E+00 0.  1.
</event>
<event>
 7    1  0.7802682E-006  0.1219473E+03  0.7818608E-02  0.1336337E+00
          2   -1    0    0  502    0  0.00000000000E+00  0.00000000000E+00  0.14948602472E+04  0.14948602472E+04  0.00000000000E+00 0. -1.
          1   -1    0    0  501    0 -0.00000000000E+00 -0.00000000000E+00 -0.60000425263E+02  0.60000425263E+02  0.00000000000E+00 0. -1.
         25    2    1    2    0    0 -0.13382079615E+03 -0.84731909611E+02  0.47948796522E+03  0.52021237812E+03  0.12499883029E+03 0.  0.
          2    1    1    2  501    0  0.25847364690E+02  0.41906874549E+02 -0.19443467120E+02  0.52936951268E+02  0.00000000000E+00 0. -1.
          1    1    1    2  502    0  0.10797343146E+03  0.42825035062E+02  0.97481532387E+03  0.98171134310E+03  0.00000000000E+00 0. -1.
         22    1    3    3    0    0 -0.45809088251E+02 -0.17304111363E+02  0.33256109298E+03  0.33614696994E+03  0.00000000000E+00 0.  1.
         22    1    3    3    0    0 -0.88011707895E+02 -0.67427798248E+02  0.14692687224E+03  0.18406540818E+03  0.00000000000E+00 0.  1.
</event>
<event>
 7    1  0.7802682E-006  0.6113444E+02  0.7818608E-02  0.1438465E+00
          2   -1    0    0  502    0  0.00000000000E+00  0.00000000000E+00  0.17367218277E+04  0.17367218277E+04  0.00000000000E+00 0. -1.
          1   -1    0    0  501    0 -0.00000000000E+00 -0.00000000000E+00 -0.74213617396E+02  0.74213617396E+02  0.00000000000E+00 0. -1.
         25    2    1    2    0    0 -0.66243554075E+02 -0.67600440632E+01  0.71810339062E+03  0.73193661843E+03  0.12499930853E+03 0.  0.
          2    1    1    2  501    0  0.43440552029E+02  0.43267555953E+02 -0.52770876775E+02  0.80894551079E+02  0.00000000000E+00 0. -1.
          1    1    1    2  502    0  0.22803002046E+02 -0.36507511890E+02  0.99717569650E+03  0.99810427563E+03  0.00000000000E+00 0. -1.
         22    1    3    3    0    0 -0.96557039494E+02  0.22725170838E+02  0.48798528835E+03  0.49796519649E+03  0.00000000000E+00 0.  1.
         22    1    3    3    0    0  0.30313485420E+02 -0.29485214901E+02  0.23011810226E+03  0.23397142194E+03  0.00000000000E+00 0.  1.
</event>
<event>
 7    1  0.7802682E-006  0.3069735E+03  0.7818608E-02  0.1195250E+00
          2   -1    0    0  502    0  0.00000000000E+00  0.00000000000E+00  0.29334534650E+04  0.29334534650E+04  0.00000000000E+00 0. -1.
          1   -1    0    0  501    0 -0.00000000000E+00 -0.00000000000E+00 -0.54857033139E+03  0.54857033139E+03  0.00000000000E+00 0. -1.
         25    2    1    2    0    0 -0.14541860563E+02 -0.32135686088E+03  0.57007976561E+02  0.34979524318E+03  0.12500042006E+03 0.  0.
          2    1    1    2  501    0 -0.72602658596E+02  0.27369351109E+02 -0.38973037110E+03  0.39737889926E+03  0.00000000000E+00 0. -1.
          1    1    1    2  502    0  0.87144519159E+02  0.29398750977E+03  0.27176055281E+04  0.27348496539E+04  0.00000000000E+00 0. -1.
         22    1    3    3    0    0 -0.61321876690E+02 -0.16947644320E+03  0.62555719225E+02  0.19077697809E+03  0.00000000000E+00 0. -1.
         22    1    3    3    0    0  0.46780016127E+02 -0.15188041768E+03 -0.55477426645E+01  0.15901826509E+03  0.00000000000E+00 0. -1.
</event>
<event>
 7    1  0.7802682E-006  0.1177512E+03  0.7818608E-02  0.1383733E+00
          2   -1    0    0  502    0  0.00000000000E+00  0.00000000000E+00  0.89737855941E+02  0.89737855941E+02  0.00000000000E+00 0. -1.
          1   -1    0    0  501    0 -0.00000000000E+00 -0.00000000000E+00 -0.12585272898E+04  0.12585272898E+04  0.00000000000E+00 0. -1.
         25    2    1    2    0    0  0.11963133675E+03 -0.72516189523E+02 -0.75706199616E+03  0.77996034152E+03  0.12500005535E+03 0.  0.
          2    1    1    2  501    0 -0.33652395340E+02 -0.62936171474E+01 -0.44555221300E+03  0.44686560378E+03  0.00000000000E+00 0. -1.
          1    1    1    2  502    0 -0.85978941412E+02  0.78809806670E+02  0.33824775260E+02  0.12143920049E+03  0.00000000000E+00 0. -1.
         22    1    3    3    0    0 -0.10651241964E+02 -0.44674896523E+02 -0.10787973118E+03  0.11724901592E+03  0.00000000000E+00 0.  1.
         22    1    3    3    0    0  0.13028257872E+03 -0.27841293000E+02 -0.64918226497E+03  0.66271132559E+03  0.00000000000E+00 0.  1.
</event>
<event>
 7    1  0.7802682E-006  0.7042886E+02  0.7818608E-02  0.1464685E+00
          2   -1    0    0  502    0  0.00000000000E+00  0.00000000000E+00  0.20006652874E+03  0.20006652874E+03  0.00000000000E+00 0. -1.
          1   -1    0    0  501    0 -0.00000000000E+00 -0.00000000000E+00 -0.48724817203E+03  0.48724817203E+03  0.00000000000E+00 0. -1.
         25    2    1    2    0    0 -0.44531035425E+02  0.85618605182E+02 -0.10988882194E+03  0.19239332575E+03  0.12500431968E+03 0.  0.
          2    1    1    2  501    0  0.40398174294E+02 -0.55084099117E+02 -0.33109230524E+03  0.33806565198E+03  0.00000000000E+00 0. -1.
          1    1    1    2  502    0  0.41328611310E+01 -0.30534506065E+02  0.15379948389E+03  0.15685572303E+03  0.00000000000E+00 0. -1.
         22    1    3    3    0    0 -0.13668624661E+02  0.85533597517E+01  0.27495954104E+02  0.31875049102E+02  0.00000000000E+00 0. -1.
         22    1    3    3    0    0 -0.30862410764E+02  0.77065245431E+02 -0.13738477604E+03  0.16051827665E+03  0.00000000000E+00 0. -1.
</event>
<event>
 7    1  0.7802682E-006  0.8055262E+02  0.7818608E-02  0.1407177E+00
          2   -1    0    0  502    0  0.00000000000E+00  0.00000000000E+00  0.19558398459E+04  0.19558398459E+04  0.00000000000E+00 0. -1.
          1   -1    0    0  501    0 -0.00000000000E+00 -0.00000000000E+00 -0.10212442061E+04  0.10212442061E+04  0.00000000000E+00 0. -1.
         25    2    1    2    0    0 -0.82354834081E+02  0.76740595972E+02  0.52600646383E+03  0.55224881885E+03  0.12499808067E+03 0.  0.
          2    1    1    2  501    0  0.40026525228E+02 -0.11016502663E+02 -0.10066164078E+04  0.10074721229E+04  0.00000000000E+00 0. -1.
          1    1    1    2  502    0  0.42328308854E+02 -0.65724093309E+02  0.14152055837E+04  0.14173631103E+04  0.00000000000E+00 0. -1.
         22    1    3    3    0    0 -0.23584837251E+02 -0.19875545215E+02  0.28308187416E+02  0.41864487582E+02  0.00000000000E+00 0.  1.
         22    1    3    3    0    0 -0.58769996831E+02  0.96616141187E+02  0.49769827641E+03  0.51038433127E+03  0.00000000000E+00 0.  1.
</event>
<event>
 7    1  0.7802682E-006  0.1292729E+03  0.7818608E-02  0.1268641E+00
          2   -1    0    0  502    0  0.00000000000E+00  0.00000000000E+00  0.79749918207E+03  0.79749918207E+03  0.00000000000E+00 0. -1.
          1   -1    0    0  501    0 -0.00000000000E+00 -0.00000000000E+00 -0.27491394860E+03  0.27491394860E+03  0.00000000000E+00 0. -1.
         25    2    1    2    0    0 -0.31236835263E+02 -0.13460062928E+03  0.12755854884E+03  0.22580868525E+03  0.12500123870E+03 0.  0.
          2    1    1    2  501    0 -0.53947402689E+02  0.11949069923E+03 -0.20338083969E+03  0.24197544382E+03  0.00000000000E+00 0. -1.
          1    1    1    2  502    0  0.85184237952E+02  0.15109930050E+02  0.59840752433E+03  0.60462900159E+03  0.00000000000E+00 0. -1.
         22    1    3    3    0    0 -0.69421540273E+02 -0.32871343038E+02  0.42262086327E+02  0.87669603557E+02  0.00000000000E+00 0.  1.
         22    1    3    3    0    0  0.38184705011E+02 -0.10172928624E+03  0.85296462508E+02  0.13813908170E+03  0.00000000000E+00 0.  1.
</event>
<event>
 7    1  0.7802682E-006  0.1432393E+03  0.7818608E-02  0.1279361E+00
          2   -1    0    0  502    0  0.00000000000E+00  0.00000000000E+00  0.47696111761E+03  0.47696111761E+03  0.00000000000E+00 0. -1.
          1   -1    0    0  501    0 -0.00000000000E+00 -0.00000000000E+00 -0.17457614473E+04  0.17457614473E+04  0.00000000000E+00 0. -1.
         25    2    1    2    0    0  0.67798367037E+02  0.53466085398E+02 -0.15654976445E+03  0.21814953368E+03  0.12500459765E+03 0.  0.
          2    1    1    2  501    0 -0.13797499969E+03 -0.59516842326E+02 -0.15519802693E+04  0.15592376699E+04  0.00000000000E+00 0. -1.
          1    1    1    2  502    0  0.70176632656E+02  0.60507569277E+01  0.43972970404E+03  0.44533536132E+03  0.00000000000E+00 0. -1.
         22    1    3    3    0    0  0.86118216967E+02 -0.43941548107E+01 -0.11836858844E+03  0.14644718713E+03  0.00000000000E+00 0.  1.
         22    1    3    3    0    0 -0.18319849930E+02  0.57860240209E+02 -0.38181176013E+02  0.71702346546E+02  0.00000000000E+00 0.  1.
</event>
<event>
 7    1  0.7802682E-006  0.6513709E+02  0.7818608E-02  0.1391183E+00
          2   -1    0    0  502    0  0.00000000000E+00  0.00000000000E+00  0.33137537166E+03  0.33137537166E+03  0.00000000000E+00 0. -1.
          1   -1    0    0  501    0 -0.00000000000E+00 -0.00000000000E+00 -0.11978264058E+04  0.11978264058E+04  0.00000000000E+00 0. -1.
         25    2    1    2    0    0  0.64007336514E+02 -0.71249691713E+02  0.55473253280E+02  0.16697600637E+03  0.12502098695E+03 0.  0.
          2    1    1    2  501    0 -0.57785616001E+02  0.75795247091E+01 -0.11366651485E+04  0.11381582871E+04  0.00000000000E+00 0. -1.
          1    1    1    2  502    0 -0.62217205136E+01  0.63670167004E+02  0.21474086109E+03  0.22406748401E+03  0.00000000000E+00 0. -1.
         22    1    3    3    0    0 -0.19324236096E+02 -0.59007563995E+02  0.54695975327E+02  0.82746410352E+02  0.00000000000E+00 0. -1.
         22    1    3    3    0    0  0.83331572610E+02 -0.12242127718E+02  0.77727795317E+00  0.84229596020E+02  0.00000000000E+00 0. -1.
</event>
<event>
 7    1  0.7802682E-006  0.1909018E+03  0.7818608E-02  0.1306029E+00
          2   -1    0    0  502    0  0.00000000000E+00  0.00000000000E+00  0.21493376035E+04  0.21493376035E+04  0.00000000000E+00 0. -1.
          1   -1    0    0  501    0 -0.00000000000E+00 -0.00000000000E+00 -0.94771051500E+03  0.94771051500E+03  0.00000000000E+00 0. -1.
         25    2    1    2    0    0  0.12821195749E+03 -0.10099194762E+03  0.65078499603E+03  0.68248342398E+03  0.12499933370E+03 0.  0.
          2    1    1    2  501    0  0.24092130428E+02 -0.33439011235E+02 -0.92444174322E+03  0.92536000282E+03  0.00000000000E+00 0. -1.
          1    1    1    2  502    0 -0.15230408792E+03  0.13443095886E+03  0.14752838357E+04  0.14892046917E+04  0.00000000000E+00 0. -1.
         22    1    3    3    0    0  0.10712274336E+03 -0.10890557270E+03  0.36320080662E+03  0.39401844099E+03  0.00000000000E+00 0.  1.
         22    1    3    3    0    0  0.21089214132E+02  0.79136250803E+01  0.28758418941E+03  0.28846498299E+03  0.00000000000E+00 0.  1.
</event>
<event>
 7    1  0.7802682E-006  0.4740391E+02  0.7818608E-02  0.1484951E+00
          2   -1    0    0  502    0  0.00000000000E+00  0.00000000000E+00  0.46726269822E+03  0.46726269822E+03  0.00000000000E+00 0. -1.
          1   -1    0    0  501    0 -0.00000000000E+00 -0.00000000000E+00 -0.12428357402E+04  0.12428357402E+04  0.00000000000E+00 0. -1.
         25    2    1    2    0    0 -0.80971043914E+01 -0.79225438670E+01 -0.16804623249E+03  0.20974892455E+03  0.12500698100E+03 0.  0.
          2    1    1    2  501    0 -0.39416473108E+02  0.41289061173E+01 -0.10522917358E+04  0.10530377977E+04  0.00000000000E+00 0. -1.
          1    1    1    2  502    0  0.47513577500E+02  0.37936377497E+01  0.44476492630E+03  0.44731171614E+03  0.00000000000E+00 0. -1.
         22    1    3    3    0    0  0.17122822565E+02 -0.53700845034E+02 -0.13891187196E+03  0.14991157387E+03  0.00000000000E+00 0. -1.
         22    1    3    3    0    0 -0.25219926957E+02  0.45778301167E+02 -0.29134360529E+02  0.59837350684E+02  0.00000000000E+00 0. -1.
</event>
<event>
 7    1  0.7802682E-006  0.9127442E+02  0.7818608E-02  0.1477962E+00
          2   -1    0    0  502    0  0.00000000000E+00  0.00000000000E+00  0.13489209478E+04  0.13489209478E+04  0.00000000000E+00 0. -1.
          1   -1    0    0  501    0 -0.00000000000E+00 -0.00000000000E+00 -0.70565513017E+02  0.70565513017E+02  0.00000000000E+00 0. -1.
         25    2    1    2    0    0 -0.69133680388E+02  0.82831897894E+02  0.29806009894E+03  0.34074526304E+03  0.12500769031E+03 0.  0.
          2    1    1    2  501    0  0.37120797188E+01 -0.21301732339E+02 -0.44786269278E+02  0.49732818665E+02  0.00000000000E+00 0. -1.
          1    1    1    2  502    0  0.65421600669E+02 -0.61530165554E+02  0.10250816051E+04  0.10290083791E+04  0.00000000000E+00 0. -1.
         22    1    3    3    0    0  0.92963858455E+01 -0.25992605914E+02  0.28639375328E+02  0.39777533498E+02  0.00000000000E+00 0. -1.
         22    1    3    3    0    0 -0.78430066233E+02  0.10882450381E+03  0.26942072361E+03  0.30096772955E+03  0.00000000000E+00 0. -1.
</event>
<event>
 7    1  0.7802682E-006  0.8066242E+02  0.7818608E-02  0.1445178E+00
          2   -1    0    0  502    0  0.00000000000E+00  0.00000000000E+00  0.85196055794E+03  0.85196055794E+03  0.00000000000E+00 0. -1.
          1   -1    0    0  501    0 -0.00000000000E+00 -0.00000000000E+00 -0.57207606968E+03  0.57207606968E+03  0.00000000000E+00 0. -1.
         25    2    1    2    0    0  0.49720639640E+02  0.15467612581E+02  0.11115307045E+03  0.17517152093E+03  0.12497466795E+03 0.  0.
          2    1    1    2  501    0  0.27692899729E+02  0.14000935859E+02 -0.53719753493E+03  0.53809303511E+03  0.00000000000E+00 0. -1.
          1    1    1    2  502    0 -0.77413539369E+02 -0.29468548440E+02  0.70592895274E+03  0.71077207158E+03  0.00000000000E+00 0. -1.
         22    1    3    3    0    0  0.68333744046E+02 -0.28747716832E+02  0.10238009778E+03  0.12640259578E+03  0.00000000000E+00 0. -1.
         22    1    3    3    0    0 -0.18613104406E+02  0.44215329413E+02  0.87729726695E+01  0.48768925149E+02  0.00000000000E+00 0. -1.
</event>
<event>
 7    1  0.7802682E-006  0.8613447E+02  0.7818608E-02  0.1315445E+00
          2   -1    0    0  502    0  0.00000000000E+00  0.00000000000E+00  0.18181810400E+04  0.18181810400E+04  0.00000000000E+00 0. -1.
          1   -1    0    0  501    0 -0.00000000000E+00 -0.00000000000E+00 -0.38783646340E+03  0.38783646340E+03  0.00000000000E+00 0. -1.
         25    2    1    2    0    0 -0.83733632709E+01 -0.25971040823E+00  0.10139284003E+03  0.16117384204E+03  0.12500527463E+03 0.  0.
          2    1    1    2  501    0 -0.50142083442E+02 -0.67232052647E+02 -0.35183062279E+03  0.36168932051E+03  0.00000000000E+00 0. -1.
          1    1    1    2  502    0  0.58515446713E+02  0.67491763055E+02  0.16807823594E+04  0.16831543409E+04  0.00000000000E+00 0. -1.
         22    1    3    3    0    0  0.32889834040E+02  0.49985811305E+02  0.41922630560E+02  0.73060450779E+02  0.00000000000E+00 0.  1.
         22    1    3    3    0    0 -0.41263197311E+02 -0.50245521713E+02  0.59470209469E+02  0.88113391257E+02  0.00000000000E+00 0.  1.
</event>
<event>
 7    1  0.7802682E-006  0.9012947E+02  0.7818608E-02  0.1358812E+00
          2   -1    0    0  502    0  0.00000000000E+00  0.00000000000E+00  0.17024093089E+04  0.17024093089E+04  0.00000000000E+00 0. -1.
          1   -1    0    0  501    0 -0.00000000000E+00 -0.00000000000E+00 -0.70582550730E+02  0.70582550730E+02  0.00000000000E+00 0. -1.
         25    2    1    2    0    0 -0.13278506759E+03 -0.23326106977E+02  0.91148547187E+03  0.92984213985E+03  0.12499863267E+03 0.  0.
          2    1    1    2  501    0  0.54578668906E+02  0.64201593357E+01 -0.46595825457E+02  0.72050124882E+02  0.00000000000E+00 0. -1.
          1    1    1    2  502    0  0.78206398681E+02  0.16905947642E+02  0.76693711172E+03  0.77109959486E+03  0.00000000000E+00 0. -1.
         22    1    3    3    0    0  0.14756811026E+02 -0.12433381511E+02  0.30360920721E+03  0.30422179926E+03  0.00000000000E+00 0. -1.
         22    1    3    3    0    0 -0.14754187861E+03 -0.10892725467E+02  0.60787626466E+03  0.62562034059E+03  0.00000000000E+00 0. -1.
</event>
<event>
 7    1  0.7802682E-006  0.1382065E+03  0.7818608E-02  0.1407053E+00
          2   -1    0    0  502    0  0.00000000000E+00  0.00000000000E+00  0.35711555390E+03  0.35711555390E+03  0.00000000000E+00 0. -1.
          1   -1    0    0  501    0 -0.00000000000E+00 -0.00000000000E+00 -0.13760385191E+03  0.13760385191E+03  0.00000000000E+00 0. -1.
         25    2    1    2    0    0 -0.10174551659E+03 -0.10370418927E+03  0.81041853166E+02  0.20808616162E+03  0.12500143870E+03 0.  0.
          2    1    1    2  501    0 -0.79073657580E+01  0.22893040930E+02 -0.49142681119E+02  0.54787050147E+02  0.00000000000E+00 0. -1.
          1    1    1    2  502    0  0.10965288235E+03  0.80811148337E+02  0.18761252994E+03  0.23184619405E+03  0.00000000000E+00 0. -1.
         22    1    3    3    0    0 -0.46631965878E+02  0.18065361478E+02 -0.31684687696E+01  0.50109247863E+02  0.00000000000E+00 0.  1.
         22    1    3    3    0    0 -0.55113550713E+02 -0.12176955075E+03  0.84210321936E+02  0.15797691376E+03  0.00000000000E+00 0.  1.
</event>
<event>
 7    1  0.7802682E-006  0.1014686E+03  0.7818608E-02  0.1469363E+00
          2   -1    0    0  502    0  0.00000000000E+00  0.00000000000E+00  0.80213840283E+03  0.80213840283E+03  0.00000000000E+00 0. -1.
          1   -1    0    0  501    0 -0.00000000000E+00 -0.00000000000E+00 -0.77649496031E+03  0.77649496031E+03  0.00000000000E+00 0. -1.
         25    2    1    2    0    0  0.33281785975E+02  0.11538184627E+03  0.16486341955E+03  0.23921834396E+03  0.12499928502E+03 0.  0.
          2    1    1    2  501    0 -0.57799818382E+01 -0.19855256089E+02 -0.73505438726E+03  0.73534521935E+03  0.00000000000E+00 0. -1.
          1    1    1    2  502    0 -0.27501804137E+02 -0.95526590179E+02  0.59583441023E+03  0.60406979984E+03  0.00000000000E+00 0. -1.
         22    1    3    3    0    0  0.42312543004E+02  0.46426483039E+02  0.15716041710E+03  0.16924882962E+03  0.00000000000E+00 0. -1.
         22    1    3    3    0    0 -0.90307570291E+01  0.68955363229E+02  0.77030024455E+01  0.69969514342E+02  0.00000000000E+00 0. -1.
</event>
<event>
 7    1  0.7802682E-006  0.7559350E+02  0.7818608E-02  0.1454613E+00
          2   -1    0    0  502    0  0.00000000000E+00  0.00000000000E+00  0.17285478576E+04  0.17285478576E+04  0.00000000000E+00 0. -1.
          1   -1    0    0  501    0 -0.00000000000E+00 -0.00000000000E+00 -0.45031578335E+03  0.45031578335E+03  0.00000000000E+00 0. -1.
         25    2    1    2    0    0 -0.33627799427E+02  0.47465145347E+02 -0.26454176816E+03  0.29833426298E+03  0.12504885624E+03 0.  0.
          2    1    1    2  501    0  0.59693297513E+02 -0.64037789107E+02 -0.15738238305E+03  0.18009259478E+03  0.00000000000E+00 0. -1.
          1    1    1    2  502    0 -0.26065498085E+02  0.16572643760E+02  0.17001562255E+04  0.17004367832E+04  0.00000000000E+00 0. -1.
         22    1    3    3    0    0 -0.46690162791E+02  0.78875987990E+02 -0.23845568728E+03  0.25546527666E+03  0.00000000000E+00 0.  1.
         22    1    3    3    0    0  0.13062363364E+02 -0.31410842643E+02 -0.26086080878E+02  0.42868986316E+02  0.00000000000E+00 0.  1.
</event>
<event>
 7    1  0.7802682E-006  0.6787005E+02  0.7818608E-02  0.1441621E+00
          2   -1    0    0  502    0  0.00000000000E+00  0.00000000000E+00  0.16638054422E+03  0.16638054422E+03  0.00000000000E+00 0. -1.
          1   -1    0    0  501    0 -0.00000000000E+00 -0.00000000000E+00 -0.30371371394E+03  0.30371371394E+03  0.00000000000E+00 0. -1.
         25    2    1    2    0    0 -0.88376724021E+02  0.60864527229E+01 -0.71360917470E+02  0.16901411979E+03  0.12500360752E+03 0.  0.
          2    1    1    2  501    0  0.25383106816E+02 -0.28101885600E+02 -0.17182558336E+03  0.17594899597E+03  0.00000000000E+00 0. -1.
          1    1    1    2  502    0  0.62993617204E+02  0.22015432877E+02  0.10585333110E+03  0.12513114240E+03  0.00000000000E+00 0. -1.
         22    1    3    3    0    0 -0.54158161674E+02 -0.35062115289E+02  0.16084476938E+02  0.66491870201E+02  0.00000000000E+00 0. -1.
         22    1    3    3    0    0 -0.34218562347E+02  0.41148568012E+02 -0.87445394408E+02  0.10252224959E+03  0.00000000000E+00 0. -1.
</event>
<event>
 7    1  0.7802682E-006  0.9505093E+02  0.7818608E-02  0.1347229E+00
          2   -1    0    0  502    0  0.00000000000E+00  0.00000000000E+00  0.45172090982E+02  0.45172090982E+02  0.00000000000E+00 0. -1.
          1   -1    0    0  501    0 -0.00000000000E+00 -0.00000000000E+00 -0.10527894615E+04  0.10527894615E+04  0.00000000000E+00 0. -1.
         25    2    1    2    0    0  0.13635161934E+03  0.35756304316E+02 -0.54485295768E+03  0.57650729957E+03  0.12500257423E+03 0.  0.
          2    1    1    2  501    0 -0.57190777311E+02  0.59194999347E+01 -0.41704075261E+03  0.42098552805E+03  0.00000000000E+00 0. -1.
          1    1    1    2  502    0 -0.79160842026E+02 -0.41675804251E+02 -0.45723660212E+02  0.10046872485E+03  0.00000000000E+00 0. -1.
         22    1    3    3    0    0  0.14960866773E+03  0.80262965581E+01 -0.37367524834E+03  0.40259205919E+03  0.00000000000E+00 0. -1.
         22    1    3    3    0    0 -0.13257048390E+02  0.27730007758E+02 -0.17117770934E+03  0.17391524038E+03  0.00000000000E+00 0. -1.
</event>
<event>
 7    1  0.7802682E-006  0.7861576E+02  0.7818608E-02  0.1467195E+00
          2   -1    0    0  502    0  0.00000000000E+00  0.00000000000E+00  0.32020791415E+04  0.32020791415E+04  0.00000000000E+00 0. -1.
          1   -1    0    0  501    0 -0.00000000000E+00 -0.00000000000E+00 -0.56669310682E+03  0.56669310682E+03  0.00000000000E+00 0. -1.
         25    2    1    2    0    0  0.30214088461E+02 -0.54298571262E+02  0.27577426865E+04  0.27612725613E+04  0.12498082584E+03 0.  0.
          2    1    1    2  501    0 -0.57319672573E+02  0.53832365914E+02 -0.56177201628E+03  0.56724885787E+03  0.00000000000E+00 0. -1.
          1    1    1    2  502    0  0.27105584113E+02  0.46620534840E+00  0.43941536450E+03  0.44025082918E+03  0.00000000000E+00 0. -1.
         22    1    3    3    0    0 -0.17718562135E+02 -0.66969937448E+02  0.22611777227E+04  0.22622386288E+04  0.00000000000E+00 0.  1.
         22    1    3    3    0    0  0.47932650596E+02  0.12671366186E+02  0.49656496377E+03  0.49903393247E+03  0.00000000000E+00 0.  1.
</event>
<event>
 7    1  0.7802682E-006  0.4774433E+02  0.7818608E-02  0.1549509E+00
          2   -1    0    0  502    0  0.00000000000E+00  0.00000000000E+00  0.33896771726E+04  0.33896771726E+04  0.00000000000E+00 0. -1.
          1   -1    0    0  501    0 -0.00000000000E+00 -0.00000000000E+00 -0.72968779754E+01  0.72968779754E+01  0.00000000000E+00 0. -1.
         25    2    1    2    0    0  0.24384844380E+02 -0.31133557252E+01  0.13085233116E+04  0.13147100371E+04  0.12499964463E+03 0.  0.
          2    1    1    2  501    0  0.24954207046E+02 -0.52865589283E+01  0.37855975284E+02  0.45647946496E+02  0.00000000000E+00 0. -1.
          1    1    1    2  502    0 -0.49339051426E+02  0.83999146535E+01  0.20360010077E+04  0.20366160669E+04  0.00000000000E+00 0. -1.
         22    1    3    3    0    0  0.63301737154E+02 -0.25373034911E+02  0.10588086334E+04  0.10610026499E+04  0.00000000000E+00 0.  1.
         22    1    3    3    0    0 -0.38916892775E+02  0.22259679186E+02  0.24971467817E+03  0.25370738727E+03  0.00000000000E+00 0.  1.
</event>
<event>
 7    1  0.7802682E-006  0.4046871E+02  0.7818608E-02  0.1572666E+00
          2   -1    0    0  502    0  0.00000000000E+00  0.00000000000E+00  0.80580079227E+03  0.80580079227E+03  0.00000000000E+00 0. -1.
          1   -1    0    0  501    0 -0.00000000000E+00 -0.00000000000E+00 -0.10206297220E+04  0.10206297220E+04  0.00000000000E+00 0. -1.
         25    2    1    2    0    0 -0.59098772883E+02  0.18964421576E+02  0.31454594741E+03  0.34411576005E+03  0.12499675612E+03 0.  0.
          2    1    1    2  501    0  0.33394808618E+02 -0.22816684307E+02 -0.10050833450E+04  0.10058967863E+04  0.00000000000E+00 0. -1.
          1    1    1    2  502    0  0.25703964265E+02  0.38522627315E+01  0.47570846788E+03  0.47641796788E+03  0.00000000000E+00 0. -1.
         22    1    3    3    0    0  0.28152691157E+02  0.77070966553E+00  0.18340147096E+03  0.18555125319E+03  0.00000000000E+00 0. -1.
         22    1    3    3    0    0 -0.87251464040E+02  0.18193711910E+02  0.13114447645E+03  0.15856450685E+03  0.00000000000E+00 0. -1.
</event>
<event>
 7    1  0.7802682E-006  0.1408668E+03  0.7818608E-02  0.1330029E+00
          2   -1    0    0  502    0  0.00000000000E+00  0.00000000000E+00  0.20018968115E+04  0.20018968115E+04  0.00000000000E+00 0. -1.
          1   -1    0    0  501    0 -0.00000000000E+00 -0.00000000000E+00 -0.13970380444E+04  0.13970380444E+04  0.00000000000E+00 0. -1.
         25    2    1    2    0    0 -0.91751181539E+02 -0.15153564746E+03 -0.15771616422E+03  0.26810593142E+03  0.12500028096E+03 0.  0.
          2    1    1    2  501    0  0.53650243886E+02  0.12750977764E+03 -0.11798246665E+04  0.11879071242E+04  0.00000000000E+00 0. -1.
          1    1    1    2  502    0  0.38100937653E+02  0.24025869814E+02  0.19423995979E+04  0.19429218002E+04  0.00000000000E+00 0. -1.
         22    1    3    3    0    0 -0.86529003453E+02 -0.16954169462E+03 -0.16071398682E+03  0.24911973068E+03  0.00000000000E+00 0. -1.
         22    1    3    3    0    0 -0.52221780861E+01  0.18006047161E+02  0.29978225963E+01  0.18986200742E+02  0.00000000000E+00 0. -1.
</event>
<event>
 7    1  0.7802682E-006  0.6634462E+02  0.7818608E-02  0.1397475E+00
          2   -1    0    0  502    0  0.00000000000E+00  0.00000000000E+00  0.37206893134E+04  0.37206893134E+04  0.00000000000E+00 0. -1.
          1   -1    0    0  501    0 -0.00000000000E+00 -0.00000000000E+00 -0.70062168122E+02  0.70062168122E+02  0.00000000000E+00 0. -1.
         25    2    1    2    0    0  0.59179252453E+02  0.86941247689E+02  0.18347845774E+04  0.18420427676E+04  0.12500459080E+03 0.  0.
          2    1    1    2  501    0 -0.68069416701E+01 -0.53988873611E+02 -0.54691728971E+02  0.77151267951E+02  0.00000000000E+00 0. -1.
          1    1    1    2  502    0 -0.52372310783E+02 -0.32952374079E+02  0.18705342969E+04  0.18715574460E+04  0.00000000000E+00 0. -1.
         22    1    3    3    0    0 -0.16937836367E+02  0.81342479575E+02  0.75327396599E+03  0.75784243555E+03  0.00000000000E+00 0. -1.
         22    1    3    3    0    0  0.76117088820E+02  0.55987681146E+01  0.10815106114E+04  0.10842003320E+04  0.00000000000E+00 0. -1.
</event>
<event>
 7    1  0.7802682E-006  0.6259365E+02  0.7818608E-02  0.1489762E+00
          2   -1    0    0  502    0  0.00000000000E+00  0.00000000000E+00  0.26592152356E+02  0.26592152356E+02  0.00000000000E+00 0. -1.
          1   -1    0    0  501    0 -0.00000000000E+00 -0.00000000000E+00 -0.28908915838E+04  0.28908915838E+04  0.00000000000E+00 0. -1.
         25    2    1    2    0    0  0.56899030524E+02 -0.28729371342E+02 -0.10893466654E+04  0.10983455538E+04  0.12499568685E+03 0.  0.
          2    1    1    2  501    0  0.59111644212E+01  0.28413473669E+02 -0.17520372046E+04  0.17522775561E+04  0.00000000000E+00 0. -1.
          1    1    1    2  502    0 -0.62810194945E+02  0.31589767238E+00 -0.22915561421E+02  0.66860626198E+02  0.00000000000E+00 0. -1.
         22    1    3    3    0    0  0.39773089140E+01 -0.71288402392E+02 -0.62350681966E+03  0.62758155602E+03  0.00000000000E+00 0. -1.
         22    1    3    3    0    0  0.52921721610E+02  0.42559031051E+02 -0.46583984572E+03  0.47076399778E+03  0.00000000000E+00 0. -1.
</event>
<event>
 7    1  0.7802682E-006  0.5653781E+02  0.7818608E-02  0.1482046E+00
          2   -1    0    0  502    0  0.00000000000E+00  0.00000000000E+00  0.19194027848E+04  0.19194027848E+04  0.00000000000E+00 0. -1.
          1   -1    0    0  501    0 -0.00000000000E+00 -0.00000000000E+00 -0.19601811399E+04  0.19601811399E+04  0.00000000000E+00 0. -1.
         25    2    1    2    0    0 -0.16116858829E+02  0.54126245108E+02  0.58917765997E+02  0.14928279912E+03  0.12499858965E+03 0.  0.
          2    1    1    2  501    0 -0.17795533250E+02 -0.53707267690E+02 -0.19144222402E+04  0.19152581198E+04  0.00000000000E+00 0. -1.
          1    1    1    2  502    0  0.33912392079E+02 -0.41897741839E+00  0.18147261190E+04  0.18150430058E+04  0.00000000000E+00 0. -1.
         22    1    3    3    0    0 -0.56520582087E+02  0.30002233381E+02  0.75881503534E+02  0.99260832084E+02  0.00000000000E+00 0. -1.
         22    1    3    3    0    0  0.40403723258E+02  0.24124011727E+02 -0.16963737537E+02  0.50021967036E+02  0.00000000000E+00 0. -1.
</event>
<event>
 7    1  0.7802682E-006  0.1139502E+03  0.7818608E-02  0.1269417E+00
          2   -1    0    0  502    0  0.00000000000E+00  0.00000000000E+00  0.35600372944E+04  0.35600372944E+04  0.00000000000E+00 0. -1.
          1   -1    0    0  501    0 -0.00000000000E+00 -0.00000000000E+00 -0.47174786266E+03  0.47174786266E+03  0.00000000000E+00 0. -1.
         25    2    1    2    0    0  0.89301826467E+02 -0.19210281248E+02  0.12902757149E+04  0.12995326961E+04  0.12501982532E+03 0.  0.
          2    1    1    2  501    0 -0.20726078905E+02 -0.95182315528E+02 -0.46005158821E+03  0.47025174891E+03  0.00000000000E+00 0. -1.
          1    1    1    2  502    0 -0.68575747562E+02  0.11439259678E+03  0.22580653051E+04  0.22620007121E+04  0.00000000000E+00 0. -1.
         22    1    3    3    0    0  0.43181582587E+02 -0.17576548540E+02  0.12609823626E+03  0.13444087668E+03  0.00000000000E+00 0.  1.
         22    1    3    3    0    0  0.46120243880E+02 -0.16337327086E+01  0.11641774786E+04  0.11650918194E+04  0.00000000000E+00 0.  1.
</event>
<event>
 7    1  0.7802682E-006  0.2023158E+03  0.7818608E-02  0.1262760E+00
          2   -1    0    0  502    0  0.00000000000E+00  0.00000000000E+00  0.28555736712E+04  0.28555736712E+04  0.00000000000E+00 0. -1.
          1   -1    0    0  501    0 -0.00000000000E+00 -0.00000000000E+00 -0.81278100759E+03  0.81278100759E+03  0.00000000000E+00 0. -1.
         25    2    1    2    0    0  0.33319897257E+02 -0.15200101989E+03 -0.34401403555E+02  0.20253994473E+03  0.12499778816E+03 0.  0.
          2    1    1    2  501    0 -0.65256551441E+02  0.20105875800E+03 -0.67790322504E+03  0.71009564440E+03  0.00000000000E+00 0. -1.
          1    1    1    2  502    0  0.31936654184E+02 -0.49057738106E+02  0.27550972922E+04  0.27557190896E+04  0.00000000000E+00 0. -1.
         22    1    3    3    0    0  0.23036627623E+02 -0.15252156571E+03  0.12277152441E+02  0.15473927327E+03  0.00000000000E+00 0. -1.
         22    1    3    3    0    0  0.10283269634E+02  0.52054582122E+00 -0.46678555997E+02  0.47800671462E+02  0.00000000000E+00 0. -1.
</event>
<event>
 7    1  0.7802682E-006  0.1043173E+03  0.7818608E-02  0.1301566E+00
          2   -1    0    0  502    0  0.00000000000E+00  0.00000000000E+00  0.54314414612E+03  0.54314414612E+03  0.00000000000E+00 0. -1.
          1   -1    0    0  501    0 -0.00000000000E+00 -0.00000000000E+00 -0.15478331041E+04  0.15478331041E+04  0.00000000000E+00 0. -1.
         25    2    1    2    0    0  0.32807348639E+02  0.16086850372E+03 -0.94994134486E+03  0.97209493290E+03  0.12500000910E+03 0.  0.
          2    1    1    2  501    0 -0.66639633987E+01 -0.86775448959E+02 -0.58065354308E+03  0.58713961205E+03  0.00000000000E+00 0. -1.
          1    1    1    2  502    0 -0.26143385240E+02 -0.74093054759E+02  0.52590593000E+03  0.53174270523E+03  0.00000000000E+00 0. -1.
         22    1    3    3    0    0 -0.47515357044E+02  0.51217396856E+02 -0.35730438418E+03  0.36407053417E+03  0.00000000000E+00 0.  1.
         22    1    3    3    0    0  0.80322705682E+02  0.10965110686E+03 -0.59263696068E+03  0.60802439873E+03  0.00000000000E+00 0.  1.
</event>
<event>
 7    1  0.7802682E-006  0.7128861E+02  0.7818608E-02  0.1512542E+00
          2   -1    0    0  502    0  0.00000000000E+00  0.00000000000E+00  0.69784030859E+03  0.69784030859E+03  0.00000000000E+00 0. -1.
          1   -1    0    0  501    0 -0.00000000000E+00 -0.00000000000E+00 -0.42473613551E+03  0.42473613551E+03  0.00000000000E+00 0. -1.
         25    2    1    2    0    0 -0.27686164679E+02  0.52854518501E+02 -0.25301560611E+03  0.28844674456E+03  0.12499801467E+03 0.  0.
          2    1    1    2  501    0 -0.21752629225E+02 -0.13600411535E+01 -0.15134903992E+03  0.15291029552E+03  0.00000000000E+00 0. -1.
          1    1    1    2  502    0  0.49438793905E+02 -0.51494477347E+02  0.67746881911E+03  0.68121940402E+03  0.00000000000E+00 0. -1.
         22    1    3    3    0    0 -0.57873375642E+02 -0.18649577924E+02 -0.10602002659E+03  0.12221857634E+03  0.00000000000E+00 0.  1.
         22    1    3    3    0    0  0.30187210963E+02  0.71504096425E+02 -0.14699557952E+03  0.16622816822E+03  0.00000000000E+00 0.  1.
</event>
<event>
 7    1  0.7802682E-006  0.2656024E+03  0.7818608E-02  0.1225883E+00
          2   -1    0    0  502    0  0.00000000000E+00  0.00000000000E+00  0.51482428183E+03  0.51482428183E+03  0.00000000000E+00 0. -1.
          1   -1    0    0  501    0 -0.00000000000E+00 -0.00000000000E+00 -0.11246942524E+04  0.11246942524E+04  0.00000000000E+00 0. -1.
         25    2    1    2    0    0 -0.22715243218E+03  0.20713493738E+03 -0.50429437598E+03  0.60368665356E+03  0.12498659250E+03 0.  0.
          2    1    1    2  501    0  0.64675935004E+02 -0.26541298134E+00 -0.53139495996E+03  0.53531640222E+03  0.00000000000E+00 0. -1.
          1    1    1    2  502    0  0.16247649718E+03 -0.20686952440E+03  0.42581936536E+03  0.50051547846E+03  0.00000000000E+00 0. -1.
         22    1    3    3    0    0 -0.37551364217E+02  0.11236881748E+03 -0.20806735896E+03  0.23943450453E+03  0.00000000000E+00 0.  1.
         22    1    3    3    0    0 -0.18960106797E+03  0.94766119902E+02 -0.29622701702E+03  0.36425214903E+03  0.00000000000E+00 0.  1.
</event>
<event>
 7    1  0.7802682E-006  0.1251396E+03  0.7818608E-02  0.1306773E+00
          2   -1    0    0  502    0  0.00000000000E+00  0.00000000000E+00  0.18413162067E+04  0.18413162067E+04  0.00000000000E+00 0. -1.
          1   -1    0    0  501    0 -0.00000000000E+00 -0.00000000000E+00 -0.36422006991E+02  0.36422006991E+02  0.00000000000E+00 0. -1.
         25    2    1    2    0    0 -0.71359256299E+02 -0.41998826476E+02  0.56331614129E+03  0.58292854676E+03  0.12499828284E+03 0.  0.
          2    1    1    2  501    0 -0.41636264080E+02 -0.46540633445E+02  0.21095409219E+02  0.65913771991E+02  0.00000000000E+00 0. -1.
          1    1    1    2  502    0  0.11299552038E+03  0.88539459921E+02  0.12204826492E+04  0.12288958950E+04  0.00000000000E+00 0. -1.
         22    1    3    3    0    0 -0.10159475664E+03 -0.49020678144E+02  0.49794618660E+03  0.51056334202E+03  0.00000000000E+00 0. -1.
         22    1    3    3    0    0  0.30235500346E+02  0.70218516675E+01  0.65369954684E+02  0.72365204743E+02  0.00000000000E+00 0. -1.
</event>
<event>
 7    1  0.7802682E-006  0.8308179E+02  0.7818608E-02  0.1461128E+00
          2   -1    0    0  502    0  0.00000000000E+00  0.00000000000E+00  0.91797755995E+03  0.91797755995E+03  0.00000000000E+00 0. -1.
          1   -1    0    0  501    0 -0.00000000000E+00 -0.00000000000E+00 -0.10461555842E+04  0.10461555842E+04  0.00000000000E+00 0. -1.
         25    2    1    2    0    0  0.39335096138E+02 -0.40968964131E+02  0.76213585846E+03  0.77440407035E+03  0.12499956644E+03 0.  0.
          2    1    1    2  501    0 -0.61732394878E+02  0.55688489047E+02 -0.10371450222E+04  0.10404719570E+04  0.00000000000E+00 0. -1.
          1    1    1    2  502    0  0.22397298740E+02 -0.14719524916E+02  0.14683113943E+03  0.14925711678E+03  0.00000000000E+00 0. -1.
         22    1    3    3    0    0  0.45736407199E+02  0.18629271801E+02  0.59127941109E+03  0.59333819251E+03  0.00000000000E+00 0.  1.
         22    1    3    3    0    0 -0.64013110609E+01 -0.59598235932E+02  0.17085644737E+03  0.18106587783E+03  0.00000000000E+00 0.  1.
</event>
<event>
 7    1  0.7802682E-006  0.1093397E+03  0.7818608E-02  0.1382283E+00
          2   -1    0    0  502    0  0.00000000000E+00  0.00000000000E+00  0.16879051151E+04  0.16879051151E+04  0.00000000000E+00 0. -1.
          1   -1    0    0  501    0 -0.00000000000E+00 -0.00000000000E+00 -0.62609378332E+03  0.62609378332E+03  0.00000000000E+00 0. -1.
         25    2    1    2    0    0  0.74631050569E+02 -0.91928010223E+02  0.48593103385E+03  0.51553295700E+03  0.12499882931E+03 0.  0.
          2    1    1    2  501    0 -0.36035769777E+02 -0.96528593976E+01 -0.60823347752E+03  0.60937649903E+03  0.00000000000E+00 0. -1.
          1    1    1    2  502    0 -0.38595280791E+02  0.10158086962E+03  0.11841137754E+04  0.11890894424E+04  0.00000000000E+00 0. -1.
         22    1    3    3    0    0 -0.28284978083E+02  0.26676359975E+01  0.47404447949E+02  0.55266065106E+02  0.00000000000E+00 0.  1.
         22    1    3    3    0    0  0.10291602865E+03 -0.94595646221E+02  0.43852658590E+03  0.46026689190E+03  0.00000000000E+00 0.  1.
</event>
<event>
 7    1  0.7802682E-006  0.3905743E+02  0.7818608E-02  0.1573652E+00
          2   -1    0    0  502    0  0.00000000000E+00  0.00000000000E+00  0.16887238578E+04  0.16887238578E+04  0.00000000000E+00 0. -1.
          1   -1    0    0  501    0 -0.00000000000E+00 -0.00000000000E+00 -0.63549302461E+01  0.63549302461E+01  0.00000000000E+00 0. -1.
         25    2    1    2    0    0 -0.35224878162E+02  0.26076023620E+02  0.99565669466E+03  0.10044288380E+04  0.12499714360E+03 0.  0.
          2    1    1    2  501    0  0.11257973898E+02 -0.37990918610E+02  0.25022356004E+03  0.25334143339E+03  0.00000000000E+00 0. -1.
          1    1    1    2  502    0  0.23966904264E+02  0.11914894989E+02  0.43648867290E+03  0.43730851671E+03  0.00000000000E+00 0. -1.
         22    1    3    3    0    0  0.31045122239E+02 -0.16200430587E+02  0.60103587581E+03  0.60205512835E+03  0.00000000000E+00 0. -1.
         22    1    3    3    0    0 -0.66270000400E+02  0.42276454208E+02  0.39462081885E+03  0.40237370963E+03  0.00000000000E+00 0. -1.
</event>
<event>
 7    1  0.7802682E-006  0.5797789E+02  0.7818608E-02  0.1417314E+00
          2   -1    0    0  502    0  0.00000000000E+00  0.00000000000E+00  0.24355211710E+04  0.24355211710E+04  0.00000000000E+00 0. -1.
          1   -1    0    0  501    0 -0.00000000000E+00 -0.00000000000E+00 -0.78848756838E+01  0.78848756838E+01  0.00000000000E+00 0. -1.
         25    2    1    2    0    0  0.23730605589E+02 -0.31473501645E+02  0.15268398329E+04  0.15324548473E+04  0.12499704355E+03 0.  0.
          2    1    1    2  501    0  0.31254947730E+02  0.49858962698E+02  0.22144627749E+03  0.22913149441E+03  0.00000000000E+00 0. -1.
          1    1    1    2  502    0 -0.54985553319E+02 -0.18385461053E+02  0.67935018499E+03  0.68181970498E+03  0.00000000000E+00 0. -1.
         22    1    3    3    0    0 -0.48193332207E+02 -0.32811452633E+02  0.76992215310E+03  0.77212648609E+03  0.00000000000E+00 0. -1.
         22    1    3    3    0    0  0.71923937797E+02  0.13379509883E+01  0.75691767977E+03  0.76032836123E+03  0.00000000000E+00 0. -1.
</event>
<event>
 7    1  0.7802682E-006  0.5954198E+02  0.7818608E-02  0.1512912E+00
          2   -1    0    0  502    0  0.00000000000E+00  0.00000000000E+00  0.19585024050E+04  0.19585024050E+04  0.00000000000E+00 0. -1.
          1   -1    0    0  501    0 -0.00000000000E+00 -0.00000000000E+00 -0.46354561938E+03  0.46354561938E+03  0.00000000000E+00 0. -1.
         25    2    1    2    0    0 -0.80556910322E+02  0.24583788938E+02  0.20471369181E+03  0.25421808964E+03  0.12500145202E+03 0.  0.
          2    1    1    2  501    0  0.25941566632E+02 -0.21415887981E+01 -0.43790272424E+03  0.43867567425E+03  0.00000000000E+00 0. -1.
          1    1    1    2  502    0  0.54615343689E+02 -0.22442200139E+02  0.17281458181E+04  0.17291542605E+04  0.00000000000E+00 0. -1.
         22    1    3    3    0    0 -0.30420946424E+02  0.72069503012E+02  0.81463528294E+02  0.11294137279E+03  0.00000000000E+00 0. -1.
         22    1    3    3    0    0 -0.50135963898E+02 -0.47485714074E+02  0.12325016351E+03  0.14127671685E+03  0.00000000000E+00 0. -1.
</event>
<event>
 7    1  0.7802682E-006  0.8027490E+02  0.7818608E-02  0.1416176E+00
          2   -1    0    0  502    0  0.00000000000E+00  0.00000000000E+00  0.18522779315E+04  0.18522779315E+04  0.00000000000E+00 0. -1.
          1   -1    0    0  501    0 -0.00000000000E+00 -0.00000000000E+00 -0.38084143759E+02  0.38084143759E+02  0.00000000000E+00 0. -1.
         25    2    1    2    0    0 -0.28995388785E+02 -0.83697761041E+02  0.72730797618E+03  0.74326860019E+03  0.12500108812E+03 0.  0.
          2    1    1    2  501    0  0.56873807838E+02  0.56653848335E+02  0.24406552270E+02  0.83904519204E+02  0.00000000000E+00 0. -1.
          1    1    1    2  502    0 -0.27878419053E+02  0.27043912707E+02  0.10624792593E+04  0.10631889558E+04  0.00000000000E+00 0. -1.
         22    1    3    3    0    0  0.11190134481E+02  0.57108315997E+01  0.37642152074E+01  0.13114954189E+02  0.00000000000E+00 0. -1.
         22    1    3    3    0    0 -0.40185523266E+02 -0.89408592641E+02  0.72354376097E+03  0.73015364600E+03  0.00000000000E+00 0. -1.
</event>
<event>
 7    1  0.7802682E-006  0.5699191E+02  0.7818608E-02  0.1517728E+00
          2   -1    0    0  502    0  0.00000000000E+00  0.00000000000E+00  0.22290041426E+04  0.22290041426E+04  0.00000000000E+00 0. -1.
          1   -1    0    0  501    0 -0.00000000000E+00 -0.00000000000E+00 -0.30075803201E+02  0.30075803201E+02  0.00000000000E+00 0. -1.
         25    2    1    2    0    0 -0.26121344911E+02  0.78019479477E+02  0.39194427382E+03  0.41954177488E+03  0.12500249299E+03 0.  0.
          2    1    1    2  501    0  0.11131012454E+02 -0.23858524003E+02 -0.49028495005E+01  0.26779965255E+02  0.00000000000E+00 0. -1.
          1    1    1    2  502    0  0.14990332456E+02 -0.54160955475E+02  0.18118869151E+04  0.18127582057E+04  0.00000000000E+00 0. -1.
         22    1    3    3    0    0 -0.16084154719E+02  0.73164478410E+02  0.39924652118E+03  0.40621364528E+03  0.00000000000E+00 0. -1.
         22    1    3    3    0    0 -0.10037190192E+02  0.48550010672E+01 -0.73022473598E+01  0.13328129607E+02  0.00000000000E+00 0. -1.
</event>
<event>
 7    1  0.7802682E-006  0.7511272E+02  0.7818608E-02  0.1375188E+00
          2   -1    0    0  502    0  0.00000000000E+00  0.00000000000E+00  0.22300411607E+03  0.22300411607E+03  0.00000000000E+00 0. -1.
          1   -1    0    0  501    0 -0.00000000000E+00 -0.00000000000E+00 -0.11390024105E+04  0.11390024105E+04  0.00000000000E+00 0. -1.
         25    2    1    2    0    0 -0.90580598708E+01 -0.23358622791E+02 -0.50030329809E+03  0.51629054526E+03  0.12499945335E+03 0.  0.
          2    1    1    2  501    0  0.28657119043E+02 -0.49904235002E+02 -0.62264958012E+03  0.62530325664E+03  0.00000000000E+00 0. -1.
          1    1    1    2  502    0 -0.19599059172E+02  0.73262857793E+02  0.20695458378E+03  0.22041272468E+03  0.00000000000E+00 0. -1.
         22    1    3    3    0    0  0.20251473045E+02 -0.69031735097E+02 -0.24840278205E+03  0.25861060446E+03  0.00000000000E+00 0. -1.
         22    1    3    3    0    0 -0.29309532915E+02  0.45673112307E+02 -0.25190051604E+03  0.25767994080E+03  0.00000000000E+00 0. -1.
</event>
<event>
 7    1  0.7802682E-006  0.1616360E+03  0.7818608E-02  0.1405210E+00
          2   -1    0    0  502    0  0.00000000000E+00  0.00000000000E+00  0.16708445978E+04  0.16708445978E+04  0.00000000000E+00 0. -1.
          1   -1    0    0  501    0 -0.00000000000E+00 -0.00000000000E+00 -0.76799821431E+02  0.76799821431E+02  0.00000000000E+00 0. -1.
         25    2    1    2    0    0 -0.49601276668E+02  0.16643214123E+03  0.65808805748E+03  0.69200079117E+03  0.12500103722E+03 0.  0.
          2    1    1    2  501    0 -0.72793753053E+01 -0.19709906061E+02 -0.51555195753E+02  0.55672326257E+02  0.00000000000E+00 0. -1.
          1    1    1    2  502    0  0.56880651974E+02 -0.14672223517E+03  0.98751191467E+03  0.99997130183E+03  0.00000000000E+00 0. -1.
         22    1    3    3    0    0 -0.23809255694E+02  0.11990979064E+03  0.60358943911E+03  0.61584531301E+03  0.00000000000E+00 0. -1.
         22    1    3    3    0    0 -0.25792020975E+02  0.46522350591E+02  0.54498618368E+02  0.76155478165E+02  0.00000000000E+00 0. -1.
</event>
<event>
 7    1  0.7802682E-006  0.7340407E+02  0.7818608E-02  0.1518199E+00
          2   -1    0    0  502    0  0.00000000000E+00  0.00000000000E+00  0.10106965086E+04  0.10106965086E+04  0.00000000000E+00 0. -1.
          1   -1    0    0  501    0 -0.00000000000E+00 -0.00000000000E+00 -0.37826317184E+03  0.37826317184E+03  0.00000000000E+00 0. -1.
         25    2    1    2    0    0 -0.16906373253E+02  0.51273959692E+02  0.11240778384E+02  0.13662158940E+03  0.12499703673E+03 0.  0.
          2    1    1    2  501    0 -0.11461761549E+01  0.20344098199E+02 -0.31378598664E+03  0.31444688178E+03  0.00000000000E+00 0. -1.
          1    1    1    2  502    0  0.18052549408E+02 -0.71618057891E+02  0.93497854503E+03  0.93789120927E+03  0.00000000000E+00 0. -1.
         22    1    3    3    0    0 -0.15912090211E+02 -0.23415944724E+02 -0.37828671354E+02  0.47249438712E+02  0.00000000000E+00 0.  1.
         22    1    3    3    0    0 -0.99428304153E+00  0.74689904415E+02  0.49069449738E+02  0.89372150684E+02  0.00000000000E+00 0.  1.
</event>
<event>
 7    1  0.7802682E-006  0.1735050E+03  0.7818608E-02  0.1254054E+00
          2   -1    0    0  502    0  0.00000000000E+00  0.00000000000E+00  0.46227372211E+03  0.46227372211E+03  0.00000000000E+00 0. -1.
          1   -1    0    0  501    0 -0.00000000000E+00 -0.00000000000E+00 -0.11154874554E+04  0.11154874554E+04  0.00000000000E+00 0. -1.
         25    2    1    2    0    0  0.23991658251E+03  0.41737930334E+01 -0.89581427726E+02  0.28500563268E+03  0.12500396535E+03 0.  0.
          2    1    1    2  501    0 -0.16779478841E+03  0.13978248272E+02 -0.91665155344E+03  0.93198742098E+03  0.00000000000E+00 0. -1.
          1    1    1    2  502    0 -0.72121794099E+02 -0.18152041305E+02  0.35301924790E+03  0.36076812383E+03  0.00000000000E+00 0. -1.
         22    1    3    3    0    0  0.96195220600E+01 -0.24561961554E+02 -0.39632732726E+02  0.47608598628E+02  0.00000000000E+00 0.  1.
         22    1    3    3    0    0  0.23029706045E+03  0.28735754588E+02 -0.49948695000E+02  0.23739703405E+03  0.00000000000E+00 0.  1.
</event>
<event>
 7    1  0.7802682E-006  0.5022644E+02  0.7818608E-02  0.1558376E+00
          2   -1    0    0  502    0  0.00000000000E+00  0.00000000000E+00  0.59102300965E+03  0.59102300965E+03  0.00000000000E+00 0. -1.
          1   -1    0    0  501    0 -0.00000000000E+00 -0.00000000000E+00 -0.10890572604E+04  0.10890572604E+04  0.00000000000E+00 0. -1.
         25    2    1    2    0    0  0.25676413413E+02  0.10155645568E+02  0.86956398094E+02  0.15475452083E+03  0.12500052482E+03 0.  0.
          2    1    1    2  501    0 -0.45228809255E+02 -0.22099619026E+02 -0.10542781583E+04  0.10554792624E+04  0.00000000000E+00 0. -1.
          1    1    1    2  502    0  0.19552395842E+02  0.11943973457E+02  0.46928750942E+03  0.46984648682E+03  0.00000000000E+00 0. -1.
         22    1    3    3    0    0 -0.64146021211E+01 -0.29093239264E+02 -0.20346942184E+02  0.36077163795E+02  0.00000000000E+00 0. -1.
         22    1    3    3    0    0  0.32091015534E+02  0.39248884833E+02  0.10730334028E+03  0.11867735704E+03  0.00000000000E+00 0. -1.
</event>
<event>
 7    1  0.7802682E-006  0.7624109E+02  0.7818608E-02  0.1417684E+00
          2   -1    0    0  502    0  0.00000000000E+00  0.00000000000E+00  0.83851623480E+03  0.83851623480E+03  0.00000000000E+00 0. -1.
          1   -1    0    0  501    0 -0.00000000000E+00 -0.00000000000E+00 -0.21605194170E+03  0.21605194170E+03  0.00000000000E+00 0. -1.
         25    2    1    2    0    0  0.16322617677E+02 -0.39332912133E+02  0.17267587319E+01  0.13206675651E+03  0.12500056262E+03 0.  0.
          2    1    1    2  501    0 -0.19224972156E+02  0.79650373776E+02 -0.13918081617E+03  0.16150876505E+03  0.00000000000E+00 0. -1.
          1    1    1    2  502    0  0.29023544782E+01 -0.40317461643E+02  0.75991835055E+03  0.76099265494E+03  0.00000000000E+00 0. -1.
         22    1    3    3    0    0  0.62980012509E+02 -0.20473311809E+02 -0.29865854098E+02  0.72647145250E+02  0.00000000000E+00 0. -1.
         22    1    3    3    0    0 -0.46657394831E+02 -0.18859600324E+02  0.31592612830E+02  0.59419611260E+02  0.00000000000E+00 0. -1.
</event>
<event>
 7    1  0.7802682E-006  0.2074330E+03  0.7818608E-02  0.1158252E+00
          2   -1    0    0  502    0  0.00000000000E+00  0.00000000000E+00  0.22586200334E+04  0.22586200334E+04  0.00000000000E+00 0. -1.
          1   -1    0    0  501    0 -0.00000000000E+00 -0.00000000000E+00 -0.46327955576E+03  0.46327955576E+03  0.00000000000E+00 0. -1.
         25    2    1    2    0    0 -0.14461219557E+03 -0.10958489934E+03  0.91979894236E+03  0.94582059063E+03  0.12499983206E+03 0.  0.
          2    1    1    2  501    0 -0.11619814552E+03  0.13012792444E+03 -0.41978709621E+03  0.45459486566E+03  0.00000000000E+00 0. -1.
          1    1    1    2  502    0  0.26081034110E+03 -0.20543025108E+02  0.12953286315E+04  0.13214841329E+04  0.00000000000E+00 0. -1.
         22    1    3    3    0    0  0.60240392208E+01 -0.23329637283E+02  0.26514847786E+02  0.35827338408E+02  0.00000000000E+00 0. -1.
         22    1    3    3    0    0 -0.15063623479E+03 -0.86255262054E+02  0.89328409457E+03  0.90999325222E+03  0.00000000000E+00 0. -1.
</event>
<event>
 7    1  0.7802682E-006  0.7023173E+02  0.7818608E-02  0.1412388E+00
          2   -1    0    0  502    0  0.00000000000E+00  0.00000000000E+00  0.15598991494E+04  0.15598991494E+04  0.00000000000E+00 0. -1.
          1   -1    0    0  501    0 -0.00000000000E+00 -0.00000000000E+00 -0.42884582142E+03  0.42884582142E+03  0.00000000000E+00 0. -1.
         25    2    1    2    0    0 -0.57272205702E+01  0.10025027103E+03  0.25826154977E+02  0.16240417751E+03  0.12500083478E+03 0.  0.
          2    1    1    2  501    0 -0.23702047115E+02 -0.65263718993E+02 -0.35685334642E+03  0.36354566551E+03  0.00000000000E+00 0. -1.
          1    1    1    2  502    0  0.29429267685E+02 -0.34986552041E+02  0.14620805194E+04  0.14627951278E+04  0.00000000000E+00 0. -1.
         22    1    3    3    0    0  0.45699864874E+02  0.72457492613E+02 -0.20185640053E+02  0.88011510324E+02  0.00000000000E+00 0. -1.
         22    1    3    3    0    0 -0.51427085444E+02  0.27792778421E+02  0.46011795030E+02  0.74392667189E+02  0.00000000000E+00 0. -1.
</event>
<event>
 7    1  0.7802682E-006  0.1104809E+03  0.7818608E-02  0.1367742E+00
          2   -1    0    0  502    0  0.00000000000E+00  0.00000000000E+00  0.17906513494E+04  0.17906513494E+04  0.00000000000E+00 0. -1.
          1   -1    0    0  501    0 -0.00000000000E+00 -0.00000000000E+00 -0.17699506812E+03  0.17699506812E+03  0.00000000000E+00 0. -1.
         25    2    1    2    0    0 -0.38423476026E+02  0.14455501851E+03  0.17975601787E+03  0.26514499249E+03  0.12496849281E+03 0.  0.
          2    1    1    2  501    0  0.38729782694E+01 -0.41425598348E+02 -0.12914242759E+03  0.13567920535E+03  0.00000000000E+00 0. -1.
          1    1    1    2  502    0  0.34550497756E+02 -0.10312942016E+03  0.15630426910E+04  0.15668222197E+04  0.00000000000E+00 0. -1.
         22    1    3    3    0    0 -0.37863805071E+02  0.11553009663E+03  0.19691515671E+03  0.23142266506E+03  0.00000000000E+00 0.  1.
         22    1    3    3    0    0 -0.55967095419E+00  0.29024921878E+02 -0.17159138837E+02  0.33722327429E+02  0.00000000000E+00 0.  1.
</event>
<event>
 7    1  0.7802682E-006  0.8570605E+02  0.7818608E-02  0.1427768E+00
          2   -1    0    0  502    0  0.00000000000E+00  0.00000000000E+00  0.79068814112E+03  0.79068814112E+03  0.00000000000E+00 0. -1.
          1   -1    0    0  501    0 -0.00000000000E+00 -0.00000000000E+00 -0.24976521943E+03  0.24976521943E+03  0.00000000000E+00 0. -1.
         25    2    1    2    0    0 -0.98153650604E+02  0.10189508505E+02  0.27246260418E+03  0.31559163871E+03  0.12499698610E+03 0.  0.
          2    1    1    2  501    0  0.83228602501E+02  0.19561457484E+02 -0.21960601842E+03  0.23566173686E+03  0.00000000000E+00 0. -1.
          1    1    1    2  502    0  0.14925048103E+02 -0.29750965989E+02  0.48806633593E+03  0.48919998498E+03  0.00000000000E+00 0. -1.
         22    1    3    3    0    0 -0.33392665551E+02 -0.42872345907E+02  0.19173841882E+03  0.19929056528E+03  0.00000000000E+00 0. -1.
         22    1    3    3    0    0 -0.64760985053E+02  0.53061854412E+02  0.80724185355E+02  0.11630107343E+03  0.00000000000E+00 0. -1.
</event>
<event>
 7    1  0.7802682E-006  0.2372037E+02  0.7818608E-02  0.1692792E+00
          2   -1    0    0  502    0  0.00000000000E+00  0.00000000000E+00  0.85959713779E+03  0.85959713779E+03  0.00000000000E+00 0. -1.
          1   -1    0    0  501    0 -0.00000000000E+00 -0.00000000000E+00 -0.57112099507E+03  0.57112099507E+03  0.00000000000E+00 0. -1.
         25    2    1    2    0    0 -0.44713945131E+02 -0.32605596385E+01 -0.16072440968E+03  0.20849094932E+03  0.12500468767E+03 0.  0.
          2    1    1    2  501    0  0.21215642396E+02  0.63611735943E+01 -0.38602775506E+03  0.38666263808E+03  0.00000000000E+00 0. -1.
          1    1    1    2  502    0  0.23498302735E+02 -0.31006139558E+01  0.83522830746E+03  0.83556454546E+03  0.00000000000E+00 0. -1.
         22    1    3    3    0    0  0.31047945810E+02 -0.23080265176E+02 -0.10631027872E+03  0.11313067197E+03  0.00000000000E+00 0. -1.
         22    1    3    3    0    0 -0.75761890941E+02  0.19819705537E+02 -0.54414130965E+02  0.95360277344E+02  0.00000000000E+00 0. -1.
</event>
<event>
 7    1  0.7802682E-006  0.6968567E+02  0.7818608E-02  0.1381616E+00
          2   -1    0    0  502    0  0.00000000000E+00  0.00000000000E+00  0.58827199414E+03  0.58827199414E+03  0.00000000000E+00 0. -1.
          1   -1    0    0  501    0 -0.00000000000E+00 -0.00000000000E+00 -0.18305539263E+03  0.18305539263E+03  0.00000000000E+00 0. -1.
         25    2    1    2    0    0 -0.36565869009E+02 -0.51486140287E+01 -0.91861146376E+01  0.13066053892E+03  0.12499688287E+03 0.  0.
          2    1    1    2  501    0  0.45894600154E+01 -0.58674210019E+02 -0.10285709447E+03  0.11850446383E+03  0.00000000000E+00 0. -1.
          1    1    1    2  502    0  0.31976408994E+02  0.63822824048E+02  0.51725981062E+03  0.52216238402E+03  0.00000000000E+00 0. -1.
         22    1    3    3    0    0 -0.35687137901E+02  0.52860981478E+02  0.18455015946E+02  0.66396105217E+02  0.00000000000E+00 0. -1.
         22    1    3    3    0    0 -0.87873110857E+00 -0.58009595507E+02 -0.27641130584E+02  0.64264433703E+02  0.00000000000E+00 0. -1.
</event>
<event>
 7    1  0.7802682E-006  0.5106417E+02  0.7818608E-02  0.1538054E+00
          2   -1    0    0  502    0  0.00000000000E+00  0.00000000000E+00  0.90773469880E+02  0.90773469880E+02  0.00000000000E+00 0. -1.
          1   -1    0    0  501    0 -0.00000000000E+00 -0.00000000000E+00 -0.39458733038E+03  0.39458733038E+03  0.00000000000E+00 0. -1.
         25    2    1    2    0    0 -0.27275912775E+02  0.29539055838E+01 -0.21963962099E+02  0.12984497832E+03  0.12499840714E+03 0.  0.
          2    1    1    2  501    0  0.51825066991E+02  0.46041282479E+01 -0.31177044832E+03  0.31608202735E+03  0.00000000000E+00 0. -1.
          1    1    1    2  502    0 -0.24549154216E+02 -0.75580338317E+01  0.29920549923E+02  0.39433794591E+02  0.00000000000E+00 0. -1.
         22    1    3    3    0    0  0.25666121264E+02  0.23793643986E+02 -0.54150310311E+02  0.64475913190E+02  0.00000000000E+00 0.  1.
         22    1    3    3    0    0 -0.52942034039E+02 -0.20839738402E+02  0.32186348211E+02  0.65369065131E+02  0.00000000000E+00 0.  1.
</event>
<event>
 7    1  0.7802682E-006  0.9609210E+02  0.7818608E-02  0.1417499E+00
          2   -1    0    0  502    0  0.00000000000E+00  0.00000000000E+00  0.13472941977E+03  0.13472941977E+03  0.00000000000E+00 0. -1.
          1   -1    0    0  501    0 -0.00000000000E+00 -0.00000000000E+00 -0.46904669097E+03  0.46904669097E+03  0.00000000000E+00 0. -1.
         25    2    1    2    0    0  0.11044029167E+03  0.48541795296E+02 -0.85231277088E+02  0.19350316673E+03  0.12500296406E+03 0.  0.
          2    1    1    2  501    0 -0.90191984120E+02 -0.23611449357E+02 -0.31952959103E+03  0.33285320200E+03  0.00000000000E+00 0. -1.
          1    1    1    2  502    0 -0.20248307552E+02 -0.24930345939E+02  0.70443596915E+02  0.77419742015E+02  0.00000000000E+00 0. -1.
         22    1    3    3    0    0  0.13035864384E+03  0.49952245231E+02 -0.97306255426E+02  0.17016788820E+03  0.00000000000E+00 0. -1.
         22    1    3    3    0    0 -0.19918352172E+02 -0.14104499352E+01  0.12074978338E+02  0.23335278531E+02  0.00000000000E+00 0. -1.
</event>
<event>
 7    1  0.7802682E-006  0.8924670E+02  0.7818608E-02  0.1356187E+00
          2   -1    0    0  502    0  0.00000000000E+00  0.00000000000E+00  0.13312210562E+04  0.13312210562E+04  0.00000000000E+00 0. -1.
          1   -1    0    0  501    0 -0.00000000000E+00 -0.00000000000E+00 -0.10103555470E+03  0.10103555470E+03  0.00000000000E+00 0. -1.
         25    2    1    2    0    0 -0.25840975522E+02  0.30803559668E+02  0.18859314669E+03  0.22980172217E+03  0.12499936492E+03 0.  0.
          2    1    1    2  501    0  0.72526337742E+02 -0.63053623266E+02 -0.50722427142E+02  0.10866735337E+03  0.00000000000E+00 0. -1.
          1    1    1    2  502    0 -0.46685362219E+02  0.32250063598E+02  0.10923147820E+04  0.10937875354E+04  0.00000000000E+00 0. -1.
         22    1    3    3    0    0 -0.74027717065E+02  0.11854528575E+02  0.13991039468E+03  0.15873106590E+03  0.00000000000E+00 0. -1.
         22    1    3    3    0    0  0.48186741542E+02  0.18949031093E+02  0.48682752001E+02  0.71070656267E+02  0.00000000000E+00 0. -1.
</event>
<event>
 7    1  0.7802682E-006  0.2175101E+03  0.7818608E-02  0.1318616E+00
          2   -1    0    0  502    0  0.00000000000E+00  0.00000000000E+00  0.15034817687E+04  0.15034817687E+04  0.00000000000E+00 0. -1.
          1   -1    0    0  501    0 -0.00000000000E+00 -0.00000000000E+00 -0.11050072845E+03  0.11050072845E+03  0.00000000000E+00 0. -1.
         25    2    1    2    0    0 -0.89275935674E+02 -0.18814354347E+03  0.56040841984E+03  0.61077931287E+03  0.12500234543E+03 0.  0.
          2    1    1    2  501    0  0.65659613553E+02  0.21015142079E+03  0.57628519079E+02  0.22758701791E+03  0.00000000000E+00 0. -1.
          1    1    1    2  502    0  0.23616322121E+02 -0.22007877315E+02  0.77494410139E+03  0.77561616642E+03  0.00000000000E+00 0. -1.
         22    1    3    3    0    0  0.22778344814E+02 -0.39055031869E+01  0.96098320086E+02  0.98838216652E+02  0.00000000000E+00 0. -1.
         22    1    3    3    0    0 -0.11205428049E+03 -0.18423804029E+03  0.46431009975E+03  0.51194109621E+03  0.00000000000E+00 0. -1.
</event>
<event>
 7    1  0.7802682E-006  0.5119758E+02  0.7818608E-02  0.1574308E+00
          2   -1    0    0  502    0  0.00000000000E+00  0.00000000000E+00  0.17538181197E+04  0.17538181197E+04  0.00000000000E+00 0. -1.
          1   -1    0    0  501    0 -0.00000000000E+00 -0.00000000000E+00 -0.28059736493E+03  0.28059736493E+03  0.00000000000E+00 0. -1.
         25    2    1    2    0    0  0.29805444262E+02 -0.62156768606E+02  0.67726906532E+03  0.69215151943E+03  0.12501404170E+03 0.  0.
          2    1    1    2  501    0 -0.13777400430E+02  0.14956875807E+02 -0.27219562688E+03  0.27295417965E+03  0.00000000000E+00 0. -1.
          1    1    1    2  502    0 -0.16028043832E+02  0.47199892799E+02  0.10681473163E+04  0.10693097855E+04  0.00000000000E+00 0. -1.
         22    1    3    3    0    0 -0.63162594804E+00 -0.48744174613E+02  0.78135010992E+02  0.92094915456E+02  0.00000000000E+00 0.  1.
         22    1    3    3    0    0  0.30437070211E+02 -0.13412593993E+02  0.59913405433E+03  0.60005660398E+03  0.00000000000E+00 0.  1.
</event>
<event>
 7    1  0.1188970E-005  0.6618504E+02  0.7818608E-02  0.1388114E+00
          2   -1    0    0  502    0  0.00000000000E+00  0.00000000000E+00  0.60328794748E+03  0.60328794748E+03  0.00000000000E+00 0. -1.
          1   -1    0    0  501    0 -0.00000000000E+00 -0.00000000000E+00 -0.12887139559E+04  0.12887139559E+04  0.00000000000E+00 0. -1.
         25    2    1    2    0    0 -0.55359887570E+02 -0.70926889600E+02 -0.37277671068E+03  0.40333951455E+03  0.12499978861E+03 0.  0.
          2    1    1    2  501    0 -0.95424400406E+01  0.58010817560E+02 -0.89782955840E+03  0.89975231539E+03  0.00000000000E+00 0. -1.
          1    1    1    2  502    0  0.64902327610E+02  0.12916072040E+02  0.58518026070E+03  0.58891007341E+03  0.00000000000E+00 0. -1.
         22    1    3    3    0    0 -0.16667263331E+01 -0.45838567318E+02 -0.28506394338E+02  0.54005247417E+02  0.00000000000E+00 0.  1.
         22    1    3    3    0    0 -0.53693161237E+02 -0.25088322282E+02 -0.34427031634E+03  0.34933426713E+03  0.00000000000E+00 0.  1.
</event>
<event>
 7    1  0.7802682E-006  0.2743279E+03  0.7818608E-02  0.1277138E+00
          2   -1    0    0  502    0  0.00000000000E+00  0.00000000000E+00  0.95293798209E+03  0.95293798209E+03  0.00000000000E+00 0. -1.
          1   -1    0    0  501    0 -0.00000000000E+00 -0.00000000000E+00 -0.52839838052E+03  0.52839838052E+03  0.00000000000E+00 0. -1.
         25    2    1    2    0    0  0.58037130424E+02 -0.23604981582E+03  0.38505568035E+03  0.47220842625E+03  0.12500038715E+03 0.  0.
          2    1    1    2  501    0 -0.82239474924E+02  0.26478207862E+03 -0.44439458394E+03  0.52379330526E+03  0.00000000000E+00 0. -1.
          1    1    1    2  502    0  0.24202344500E+02 -0.28732262797E+02  0.48387850516E+03  0.48533463112E+03  0.00000000000E+00 0. -1.
         22    1    3    3    0    0  0.94046783214E+02 -0.15751013890E+03  0.22488357132E+03  0.29021864506E+03  0.00000000000E+00 0. -1.
         22    1    3    3    0    0 -0.36009652790E+02 -0.78539676918E+02  0.16017210903E+03  0.18198978118E+03  0.00000000000E+00 0. -1.
</event>
<event>
 7    1  0.7802682E-006  0.9519028E+02  0.7818608E-02  0.1375734E+00
          2   -1    0    0  502    0  0.00000000000E+00  0.00000000000E+00  0.71643432355E+03  0.71643432355E+03  0.00000000000E+00 0. -1.
          1   -1    0    0  501    0 -0.00000000000E+00 -0.00000000000E+00 -0.37528994395E+03  0.37528994395E+03  0.00000000000E+00 0. -1.
         25    2    1    2    0    0  0.66179944037E+02  0.11747885829E+03  0.23315411180E+03  0.29692934797E+03  0.12500052280E+03 0.  0.
          2    1    1    2  501    0 -0.21580125498E+02 -0.39722655951E+02 -0.33742985099E+03  0.34044455577E+03  0.00000000000E+00 0. -1.
          1    1    1    2  502    0 -0.44599818538E+02 -0.77756202339E+02  0.44542011879E+03  0.45435036375E+03  0.00000000000E+00 0. -1.
         22    1    3    3    0    0  0.33523000686E+02  0.58863474095E+02  0.21780713954E+03  0.22809789607E+03  0.00000000000E+00 0.  1.
         22    1    3    3    0    0  0.32656943351E+02  0.58615384196E+02  0.15346972258E+02  0.68831451902E+02  0.00000000000E+00 0.  1.
</event>
<event>
 7    1  0.7802682E-006  0.1053965E+03  0.7818608E-02  0.1280173E+00
          2   -1    0    0  502    0  0.00000000000E+00  0.00000000000E+00  0.73217717000E+03  0.73217717000E+03  0.00000000000E+00 0. -1.
          1   -1    0    0  501    0 -0.00000000000E+00 -0.00000000000E+00 -0.91654491199E+03  0.91654491199E+03  0.00000000000E+00 0. -1.
         25    2    1    2    0    0  0.21570953362E+02  0.53394555722E+01 -0.43217538205E+03  0.45043704923E+03  0.12499663459E+03 0.  0.
          2    1    1    2  501    0  0.59292037205E+02 -0.74213501089E+02 -0.46652547545E+03  0.47609789820E+03  0.00000000000E+00 0. -1.
          1    1    1    2  502    0 -0.80862990567E+02  0.68874045516E+02  0.71433311551E+03  0.72218713455E+03  0.00000000000E+00 0. -1.
         22    1    3    3    0    0  0.16466422113E+02  0.61608505448E+02 -0.29981414118E+03  0.30652123948E+03  0.00000000000E+00 0.  1.
         22    1    3    3    0    0  0.51045312487E+01 -0.56269049875E+02 -0.13236124087E+03  0.14391580976E+03  0.00000000000E+00 0.  1.
</event>
<event>
 7    1  0.7802682E-006  0.3840759E+02  0.7818608E-02  0.1622991E+00
          2   -1    0    0  502    0  0.00000000000E+00  0.00000000000E+00  0.79516220044E+03  0.79516220044E+03  0.00000000000E+00 0. -1.
          1   -1    0    0  501    0 -0.00000000000E+00 -0.00000000000E+00 -0.23465194830E+03  0.23465194830E+03  0.00000000000E+00 0. -1.
         25    2    1    2    0    0  0.46612675680E+02 -0.23534798444E+02 -0.21814725666E+02  0.13719586308E+03  0.12498077579E+03 0.  0.
          2    1    1    2  501    0 -0.86367305629E+01  0.18274836053E+02 -0.15398746505E+03  0.15530840975E+03  0.00000000000E+00 0. -1.
          1    1    1    2  502    0 -0.37975945117E+02  0.52599623910E+01  0.73631244286E+03  0.73730987591E+03  0.00000000000E+00 0. -1.
         22    1    3    3    0    0  0.55417011535E+02 -0.43393800995E+02  0.33365951080E+02  0.77893220653E+02  0.00000000000E+00 0.  1.
         22    1    3    3    0    0 -0.88043358555E+01  0.19859002551E+02 -0.55180676746E+02  0.59302642422E+02  0.00000000000E+00 0.  1.
</event>
<event>
 7    1  0.7802682E-006  0.4993492E+02  0.7818608E-02  0.1480714E+00
          2   -1    0    0  502    0  0.00000000000E+00  0.00000000000E+00  0.89642510519E+03  0.89642510519E+03  0.00000000000E+00 0. -1.
          1   -1    0    0  501    0 -0.00000000000E+00 -0.00000000000E+00 -0.84836157757E+02  0.84836157757E+02  0.00000000000E+00 0. -1.
         25    2    1    2    0    0 -0.51880372736E+01 -0.28519863252E+02  0.10280672572E+03  0.16446819481E+03  0.12506104877E+03 0.  0.
          2    1    1    2  501    0 -0.38655038823E+02  0.28778905552E+01 -0.46085057420E+02  0.60218990343E+02  0.00000000000E+00 0. -1.
          1    1    1    2  502    0  0.43843076097E+02  0.25641972697E+02  0.75486727913E+03  0.75657407779E+03  0.00000000000E+00 0. -1.
         22    1    3    3    0    0  0.56623683592E+02 -0.50249469864E+01  0.71390408092E+02  0.91258325665E+02  0.00000000000E+00 0.  1.
         22    1    3    3    0    0 -0.61811720865E+02 -0.23494916266E+02  0.31416317627E+02  0.73209869143E+02  0.00000000000E+00 0.  1.
</event>
<event>
 7    1  0.7802682E-006  0.3832219E+02  0.7818608E-02  0.1595966E+00
          2   -1    0    0  502    0  0.00000000000E+00  0.00000000000E+00  0.89958415659E+03  0.89958415659E+03  0.00000000000E+00 0. -1.
          1   -1    0    0  501    0 -0.00000000000E+00 -0.00000000000E+00 -0.20226612938E+04  0.20226612938E+04  0.00000000000E+00 0. -1.
         25    2    1    2    0    0 -0.59722877015E+02 -0.68981777117E+00  0.59401679247E+03  0.60995815851E+03  0.12500283003E+03 0.  0.
          2    1    1    2  501    0  0.37318776960E+02  0.86853597019E+01 -0.20140327303E+04  0.20143971717E+04  0.00000000000E+00 0. -1.
          1    1    1    2  502    0  0.22404100055E+02 -0.79955419308E+01  0.29693880062E+03  0.29789012019E+03  0.00000000000E+00 0. -1.
         22    1    3    3    0    0 -0.76830991914E+02  0.19060930571E+02  0.20029737524E+03  0.21537260485E+03  0.00000000000E+00 0.  1.
         22    1    3    3    0    0  0.17108114899E+02 -0.19750748342E+02  0.39371941723E+03  0.39458555366E+03  0.00000000000E+00 0.  1.
</event>
<event>
 7    1  0.7802682E-006  0.4409627E+02  0.7818608E-02  0.1568484E+00
          2   -1    0    0  502    0  0.00000000000E+00  0.00000000000E+00  0.10592130713E+03  0.10592130713E+03  0.00000000000E+00 0. -1.
          1   -1    0    0  501    0 -0.00000000000E+00 -0.00000000000E+00 -0.19614242469E+04  0.19614242469E+04  0.00000000000E+00 0. -1.
         25    2    1    2    0    0  0.60524688561E+02 -0.20471796387E+02 -0.24942966514E+03  0.28622068196E+03  0.12499915423E+03 0.  0.
          2    1    1    2  501    0 -0.36366462175E+02  0.24455828071E+02 -0.16915973750E+04  0.16921649702E+04  0.00000000000E+00 0. -1.
          1    1    1    2  502    0 -0.24158226386E+02 -0.39840316835E+01  0.85524100353E+02  0.88959901932E+02  0.00000000000E+00 0. -1.
         22    1    3    3    0    0  0.46469760631E+02 -0.67418170196E+02 -0.20224578122E+03  0.21819258545E+03  0.00000000000E+00 0. -1.
         22    1    3    3    0    0  0.14054927930E+02  0.46946373808E+02 -0.47183883920E+02  0.68028096509E+02  0.00000000000E+00 0. -1.
</event>
<event>
 7    1  0.7802682E-006  0.1506450E+03  0.7818608E-02  0.1356963E+00
          2   -1    0    0  502    0  0.00000000000E+00  0.00000000000E+00  0.12057838227E+04  0.12057838227E+04  0.00000000000E+00 0. -1.
          1   -1    0    0  501    0 -0.00000000000E+00 -0.00000000000E+00 -0.66902147316E+03  0.66902147316E+03  0.00000000000E+00 0. -1.
         25    2    1    2    0    0 -0.11872427438E+02 -0.14956918696E+03 -0.29459554691E+01  0.19531175873E+03  0.12500443281E+03 0.  0.
          2    1    1    2  501    0 -0.21523235399E+02  0.14951512172E+03 -0.55962480404E+03  0.57965329515E+03  0.00000000000E+00 0. -1.
          1    1    1    2  502    0  0.33395662837E+02  0.54065247443E-01  0.10993331090E+04  0.10998402419E+04  0.00000000000E+00 0. -1.
         22    1    3    3    0    0 -0.15705625412E+02 -0.23262338499E+02 -0.52536736927E+02  0.59564349984E+02  0.00000000000E+00 0.  1.
         22    1    3    3    0    0  0.38331979740E+01 -0.12630684846E+03  0.49590781458E+02  0.13574740875E+03  0.00000000000E+00 0.  1.
</event>
<event>
 7    1  0.7802682E-006  0.6873039E+02  0.7818608E-02  0.1502894E+00
          2   -1    0    0  502    0  0.00000000000E+00  0.00000000000E+00  0.55208548970E+03  0.55208548970E+03  0.00000000000E+00 0. -1.
          1   -1    0    0  501    0 -0.00000000000E+00 -0.00000000000E+00 -0.91017173164E+02  0.91017173164E+02  0.00000000000E+00 0. -1.
         25    2    1    2    0    0 -0.79148225470E+02 -0.39872781562E+02  0.21038032101E+03  0.26026774419E+03  0.12500055556E+03 0.  0.
          2    1    1    2  501    0  0.63931011935E+02  0.21134425096E+02 -0.48305283129E+02  0.82868803474E+02  0.00000000000E+00 0. -1.
          1    1    1    2  502    0  0.15217213535E+02  0.18738356466E+02  0.29899327865E+03  0.29996611520E+03  0.00000000000E+00 0. -1.
         22    1    3    3    0    0 -0.58491005490E+01 -0.67323699380E+02  0.13801013097E+03  0.15366681075E+03  0.00000000000E+00 0.  1.
         22    1    3    3    0    0 -0.73299124920E+02  0.27450917818E+02  0.72370190045E+02  0.10660093344E+03  0.00000000000E+00 0.  1.
</event>
<event>
 7    1  0.7802682E-006  0.1103916E+03  0.7818608E-02  0.1307652E+00
          2   -1    0    0  502    0  0.00000000000E+00  0.00000000000E+00  0.26929581279E+04  0.26929581279E+04  0.00000000000E+00 0. -1.
          1   -1    0    0  501    0 -0.00000000000E+00 -0.00000000000E+00 -0.58977100567E+03  0.58977100567E+03  0.00000000000E+00 0. -1.
         25    2    1    2    0    0 -0.16901871323E+03 -0.48485835154E+02  0.36539867828E+03  0.42433408250E+03  0.12500007139E+03 0.  0.
          2    1    1    2  501    0  0.62707982362E+02  0.31610373611E+02 -0.55683627763E+03  0.56124695710E+03  0.00000000000E+00 0. -1.
          1    1    1    2  502    0  0.10631073087E+03  0.16875461543E+02  0.22946247216E+04  0.22971480940E+04  0.00000000000E+00 0. -1.
         22    1    3    3    0    0 -0.11245443774E+03 -0.89652875803E+02  0.21785599040E+03  0.26104572638E+03  0.00000000000E+00 0. -1.
         22    1    3    3    0    0 -0.56564275494E+02  0.41167040649E+02  0.14754268788E+03  0.16328835612E+03  0.00000000000E+00 0. -1.
</event>
<event>
 7    1  0.7802682E-006  0.5570103E+02  0.7818608E-02  0.1436784E+00
          2   -1    0    0  502    0  0.00000000000E+00  0.00000000000E+00  0.41811826326E+03  0.41811826326E+03  0.00000000000E+00 0. -1.
          1   -1    0    0  501    0 -0.00000000000E+00 -0.00000000000E+00 -0.36922526778E+03  0.36922526778E+03  0.00000000000E+00 0. -1.
         25    2    1    2    0    0 -0.91401275253E+01  0.70699392417E+02  0.87030642139E+02  0.16817184320E+03  0.12500196060E+03 0.  0.
          2    1    1    2  501    0  0.40900245080E+02 -0.24819245096E+02 -0.32420348215E+03  0.32771439213E+03  0.00000000000E+00 0. -1.
          1    1    1    2  502    0 -0.31760117554E+02 -0.45880147321E+02  0.28606583549E+03  0.29145729571E+03  0.00000000000E+00 0. -1.
         22    1    3    3    0    0  0.39552810106E+02  0.57816998254E+02  0.94098097507E+02  0.11731019576E+03  0.00000000000E+00 0. -1.
         22    1    3    3    0    0 -0.48692937632E+02  0.12882394163E+02 -0.70674553686E+01  0.50861647436E+02  0.00000000000E+00 0. -1.
</event>
<event>
 7    1  0.7802682E-006  0.9535577E+02  0.7818608E-02  0.1398223E+00
          2   -1    0    0  502    0  0.00000000000E+00  0.00000000000E+00  0.21226271532E+03  0.21226271532E+03  0.00000000000E+00 0. -1.
          1   -1    0    0  501    0 -0.00000000000E+00 -0.00000000000E+00 -0.11340411521E+04  0.11340411521E+04  0.00000000000E+00 0. -1.
         25    2    1    2    0    0  0.34642430769E+02  0.68641235647E+02  0.18677502215E+02  0.14793669956E+03  0.12499880299E+03 0.  0.
          2    1    1    2  501    0 -0.71930791014E+02 -0.63536605211E+02 -0.10644598274E+04  0.10687776490E+04  0.00000000000E+00 0. -1.
          1    1    1    2  502    0  0.37288360246E+02 -0.51046304357E+01  0.12400388839E+03  0.12958951886E+03  0.00000000000E+00 0. -1.
         22    1    3    3    0    0  0.31585925749E+02 -0.87527510690E+00 -0.44078322760E+02  0.54234079224E+02  0.00000000000E+00 0.  1.
         22    1    3    3    0    0  0.30565050192E+01  0.69516510754E+02  0.62755824975E+02  0.93702620340E+02  0.00000000000E+00 0.  1.
</event>
<event>
 7    1  0.7802682E-006  0.1882274E+03  0.7818608E-02  0.1332148E+00
          2   -1    0    0  502    0  0.00000000000E+00  0.00000000000E+00  0.16446645634E+03  0.16446645634E+03  0.00000000000E+00 0. -1.
          1   -1    0    0  501    0 -0.00000000000E+00 -0.00000000000E+00 -0.33792076336E+04  0.33792076336E+04  0.00000000000E+00 0. -1.
         25    2    1    2    0    0 -0.22477574757E+02 -0.15574339011E+03 -0.14124056362E+04  0.14266320643E+04  0.12501248260E+03 0.  0.
          2    1    1    2  501    0 -0.13195543096E+02 -0.30343665722E+02 -0.19024539176E+04  0.19027416454E+04  0.00000000000E+00 0. -1.
          1    1    1    2  502    0  0.35673117853E+02  0.18608705583E+03  0.10011837650E+03  0.21430038030E+03  0.00000000000E+00 0. -1.
         22    1    3    3    0    0  0.59153363319E+01  0.20924968559E+02 -0.13074621549E+03  0.13254213812E+03  0.00000000000E+00 0. -1.
         22    1    3    3    0    0 -0.28392911089E+02 -0.17666835867E+03 -0.12816594207E+04  0.12940899262E+04  0.00000000000E+00 0. -1.
</event>
<event>
 7    1  0.7802682E-006  0.7880286E+02  0.7818608E-02  0.1339953E+00
          2   -1    0    0  502    0  0.00000000000E+00  0.00000000000E+00  0.31579948209E+03  0.31579948209E+03  0.00000000000E+00 0. -1.
          1   -1    0    0  501    0 -0.00000000000E+00 -0.00000000000E+00 -0.12204293066E+04  0.12204293066E+04  0.00000000000E+00 0. -1.
         25    2    1    2    0    0  0.96847044547E+01 -0.49534126526E+01 -0.30204607600E+03  0.32707093838E+03  0.12500094763E+03 0.  0.
          2    1    1    2  501    0  0.53245310751E+01 -0.73645254084E+02 -0.89905281780E+03  0.90207978764E+03  0.00000000000E+00 0. -1.
          1    1    1    2  502    0 -0.15009235530E+02  0.78598666736E+02  0.29646906926E+03  0.30707806270E+03  0.00000000000E+00 0. -1.
         22    1    3    3    0    0 -0.23466768483E+02 -0.32585826979E+02 -0.27087088058E+03  0.27383126061E+03  0.00000000000E+00 0. -1.
         22    1    3    3    0    0  0.33151472937E+02  0.27632414326E+02 -0.31175195422E+02  0.53239677770E+02  0.00000000000E+00 0. -1.
</event>
<event>
 7    1  0.7802682E-006  0.6220618E+02  0.7818608E-02  0.1389954E+00
          2   -1    0    0  502    0  0.00000000000E+00  0.00000000000E+00  0.19758369247E+03  0.19758369247E+03  0.00000000000E+00 0. -1.
          1   -1    0    0  501    0 -0.00000000000E+00 -0.00000000000E+00 -0.37023912792E+03  0.37023912792E+03  0.00000000000E+00 0. -1.
         25    2    1    2    0    0 -0.61835380802E+02 -0.78013071550E+01 -0.59389401942E+02  0.15176652764E+03  0.12498601176E+03 0.  0.
          2    1    1    2  501    0  0.39595168588E+02 -0.50293284153E+02 -0.25413061443E+03  0.26206785572E+03  0.00000000000E+00 0. -1.
          1    1    1    2  502    0  0.22240212214E+02  0.58094591308E+02  0.14086458093E+03  0.15398843703E+03  0.00000000000E+00 0. -1.
         22    1    3    3    0    0  0.18567482199E+02  0.37958804626E+02 -0.37962843291E+02  0.56804926851E+02  0.00000000000E+00 0. -1.
         22    1    3    3    0    0 -0.80402863001E+02 -0.45760111781E+02 -0.21426558652E+02  0.94961600790E+02  0.00000000000E+00 0. -1.
</event>
<event>
 7    1  0.7802682E-006  0.5524371E+02  0.7818608E-02  0.1451578E+00
          2   -1    0    0  502    0  0.00000000000E+00  0.00000000000E+00  0.34019444036E+03  0.34019444036E+03  0.00000000000E+00 0. -1.
          1   -1    0    0  501    0 -0.00000000000E+00 -0.00000000000E+00 -0.17043490371E+04  0.17043490371E+04  0.00000000000E+00 0. -1.
         25    2    1    2    0    0 -0.80904523448E+02 -0.55058530739E+02 -0.14471126380E+03  0.21481255598E+03  0.12500440239E+03 0.  0.
          2    1    1    2  501    0  0.35191770188E+02  0.25085551807E+02 -0.15218298448E+04  0.15224433724E+04  0.00000000000E+00 0. -1.
          1    1    1    2  502    0  0.45712753260E+02  0.29972978932E+02  0.30238651186E+03  0.30728754910E+03  0.00000000000E+00 0. -1.
         22    1    3    3    0    0 -0.75103214376E+02 -0.92801519269E+02 -0.97835027133E+02  0.15435124659E+03  0.00000000000E+00 0. -1.
         22    1    3    3    0    0 -0.58013090724E+01  0.37742988530E+02 -0.46876236666E+02  0.60461309398E+02  0.00000000000E+00 0. -1.
</event>
<event>
 7    1  0.7802682E-006  0.6846833E+02  0.7818608E-02  0.1372398E+00
          2   -1    0    0  502    0  0.00000000000E+00  0.00000000000E+00  0.15166080946E+03  0.15166080946E+03  0.00000000000E+00 0. -1.
          1   -1    0    0  501    0 -0.00000000000E+00 -0.00000000000E+00 -0.16182805199E+03  0.16182805199E+03  0.00000000000E+00 0. -1.
         25    2    1    2    0    0  0.41262849425E+02  0.36000378749E+02  0.19275777106E+02  0.13782132641E+03  0.12499804966E+03 0.  0.
          2    1    1    2  501    0 -0.66578480586E+02  0.27615897514E+02 -0.66278711520E+02  0.97919351884E+02  0.00000000000E+00 0. -1.
          1    1    1    2  502    0  0.25315631162E+02 -0.63616276263E+02  0.36835691883E+02  0.77748183151E+02  0.00000000000E+00 0. -1.
         22    1    3    3    0    0  0.18052157677E+02 -0.25024192119E+02  0.55245957738E+02  0.63278799249E+02  0.00000000000E+00 0. -1.
         22    1    3    3    0    0  0.23210691747E+02  0.61024570869E+02 -0.35970180632E+02  0.74542527163E+02  0.00000000000E+00 0. -1.
</event>
<event>
 7    1  0.7802682E-006  0.8234277E+02  0.7818608E-02  0.1447322E+00
          2   -1    0    0  502    0  0.00000000000E+00  0.00000000000E+00  0.91417816714E+03  0.91417816714E+03  0.00000000000E+00 0. -1.
          1   -1    0    0  501    0 -0.00000000000E+00 -0.00000000000E+00 -0.15799729086E+03  0.15799729086E+03  0.00000000000E+00 0. -1.
         25    2    1    2    0    0  0.10738259021E+03  0.12713694464E+02  0.94612570341E+02  0.19044623794E+03  0.12500228946E+03 0.  0.
          2    1    1    2  501    0 -0.77840401416E+02 -0.17446492874E+02 -0.95294042586E+02  0.12427575290E+03  0.00000000000E+00 0. -1.
          1    1    1    2  502    0 -0.29542188799E+02  0.47327984098E+01  0.75686234853E+03  0.75745346716E+03  0.00000000000E+00 0. -1.
         22    1    3    3    0    0  0.11151190871E+02 -0.49166939760E+02  0.35560885456E+02  0.61695328815E+02  0.00000000000E+00 0. -1.
         22    1    3    3    0    0  0.96231399344E+02  0.61880634224E+02  0.59051684885E+02  0.12875090912E+03  0.00000000000E+00 0. -1.
</event>
<event>
 7    1  0.7802682E-006  0.1521265E+03  0.7818608E-02  0.1311422E+00
          2   -1    0    0  502    0  0.00000000000E+00  0.00000000000E+00  0.14797481928E+04  0.14797481928E+04  0.00000000000E+00 0. -1.
          1   -1    0    0  501    0 -0.00000000000E+00 -0.00000000000E+00 -0.11275004253E+04  0.11275004253E+04  0.00000000000E+00 0. -1.
         25    2    1    2    0    0 -0.19336818565E+03 -0.31533954727E+02  0.49314008311E+02  0.23757645460E+03  0.12500021936E+03 0.  0.
          2    1    1    2  501    0  0.43385241362E+02  0.23295920828E+02 -0.10285571510E+04  0.10297353019E+04  0.00000000000E+00 0. -1.
          1    1    1    2  502    0  0.14998294429E+03  0.82380338991E+01  0.13314909103E+04  0.13399368615E+04  0.00000000000E+00 0. -1.
         22    1    3    3    0    0 -0.69831846060E+02 -0.69038752211E+02 -0.30794831104E+01  0.98246217471E+02  0.00000000000E+00 0.  1.
         22    1    3    3    0    0 -0.12353633959E+03  0.37504797483E+02  0.52393491421E+02  0.13933023713E+03  0.00000000000E+00 0.  1.
</event>
<event>
 7    1  0.7802682E-006  0.2358495E+03  0.7818608E-02  0.1214194E+00
          2   -1    0    0  502    0  0.00000000000E+00  0.00000000000E+00  0.35929234519E+04  0.35929234519E+04  0.00000000000E+00 0. -1.
          1   -1    0    0  501    0 -0.00000000000E+00 -0.00000000000E+00 -0.13855039323E+04  0.13855039323E+04  0.00000000000E+00 0. -1.
         25    2    1    2    0    0  0.24136496973E+03 -0.20465756367E+03 -0.85896430228E+02  0.35091990594E+03  0.12499926670E+03 0.  0.
          2    1    1    2  501    0 -0.58884133666E+02  0.57560719846E+02 -0.11616677418E+04  0.11645825518E+04  0.00000000000E+00 0. -1.
          1    1    1    2  502    0 -0.18248083607E+03  0.14709684382E+03  0.34549836917E+04  0.34629249265E+04  0.00000000000E+00 0. -1.
         22    1    3    3    0    0 -0.41017831732E+01 -0.36919481460E+02  0.10110876933E+02  0.38498085262E+02  0.00000000000E+00 0. -1.
         22    1    3    3    0    0  0.24546675291E+03 -0.16773808221E+03 -0.96007307162E+02  0.31242182067E+03  0.00000000000E+00 0. -1.
</event>
<event>
 7    1  0.7802682E-006  0.3992664E+02  0.7818608E-02  0.1513607E+00
          2   -1    0    0  502    0  0.00000000000E+00  0.00000000000E+00  0.17233730893E+04  0.17233730893E+04  0.00000000000E+00 0. -1.
          1   -1    0    0  501    0 -0.00000000000E+00 -0.00000000000E+00 -0.34915517271E+02  0.34915517271E+02  0.00000000000E+00 0. -1.
         25    2    1    2    0    0 -0.11786678629E+02 -0.32549419484E+01  0.29063129391E+03  0.31660914235E+03  0.12500111833E+03 0.  0.
          2    1    1    2  501    0  0.27663973072E+02 -0.31968117540E+02 -0.10312018122E+01  0.42288524712E+02  0.00000000000E+00 0. -1.
          1    1    1    2  502    0 -0.15877294443E+02  0.35223059488E+02  0.13988574799E+04  0.13993909395E+04  0.00000000000E+00 0. -1.
         22    1    3    3    0    0 -0.73910526270E+01  0.14540209043E+02  0.29681603308E+03  0.29726386062E+03  0.00000000000E+00 0.  1.
         22    1    3    3    0    0 -0.43956260022E+01 -0.17795150992E+02 -0.61847391713E+01  0.19345281734E+02  0.00000000000E+00 0.  1.
</event>
<event>
 7    1  0.7802682E-006  0.1650516E+03  0.7818608E-02  0.1257670E+00
          2   -1    0    0  502    0  0.00000000000E+00  0.00000000000E+00  0.96007776675E+03  0.96007776675E+03  0.00000000000E+00 0. -1.
          1   -1    0    0  501    0 -0.00000000000E+00 -0.00000000000E+00 -0.13258922366E+04  0.13258922366E+04  0.00000000000E+00 0. -1.
         25    2    1    2    0    0  0.16892964618E+03 -0.12366412356E+03  0.12789726977E+03  0.27532493499E+03  0.12496426448E+03 0.  0.
          2    1    1    2  501    0 -0.15659351747E+03  0.49247225147E+02 -0.12449013566E+04  0.12556775886E+04  0.00000000000E+00 0. -1.
          1    1    1    2  502    0 -0.12336128713E+02  0.74416898416E+02  0.75118961697E+03  0.75496747975E+03  0.00000000000E+00 0. -1.
         22    1    3    3    0    0  0.40736238146E+02 -0.10353301904E+03  0.79865805094E+02  0.13695646737E+03  0.00000000000E+00 0.  1.
         22    1    3    3    0    0  0.12819340804E+03 -0.20131104523E+02  0.48031464675E+02  0.13836846762E+03  0.00000000000E+00 0.  1.
</event>
<event>
 7    1  0.7802682E-006  0.9745492E+02  0.7818608E-02  0.1351263E+00
          2   -1    0    0  502    0  0.00000000000E+00  0.00000000000E+00  0.17705175713E+02  0.17705175713E+02  0.00000000000E+00 0. -1.
          1   -1    0    0  501    0 -0.00000000000E+00 -0.00000000000E+00 -0.15185392677E+04  0.15185392677E+04  0.00000000000E+00 0. -1.
         25    2    1    2    0    0  0.51512214179E+02  0.92256135546E+02 -0.90878165133E+03  0.92340372607E+03  0.12500259505E+03 0.  0.
          2    1    1    2  501    0  0.33422643724E+02 -0.42641345192E+02 -0.29476412644E+03  0.29970193137E+03  0.00000000000E+00 0. -1.
          1    1    1    2  502    0 -0.84934857903E+02 -0.49614790354E+02 -0.29728831424E+03  0.31313878599E+03  0.00000000000E+00 0. -1.
         22    1    3    3    0    0  0.44112490971E+02  0.47457906863E+02 -0.82960767568E+03  0.83213403988E+03  0.00000000000E+00 0.  1.
         22    1    3    3    0    0  0.73997232083E+01  0.44798228683E+02 -0.79173975657E+02  0.91269686195E+02  0.00000000000E+00 0.  1.
</event>
<event>
 7    1  0.7802682E-006  0.5203294E+02  0.7818608E-02  0.1540040E+00
          2   -1    0    0  502    0  0.00000000000E+00  0.00000000000E+00  0.18231993515E+03  0.18231993515E+03  0.00000000000E+00 0. -1.
          1   -1    0    0  501    0 -0.00000000000E+00 -0.00000000000E+00 -0.22981776535E+03  0.22981776535E+03  0.00000000000E+00 0. -1.
         25    2    1    2    0    0 -0.46910162093E+02 -0.29954566779E+02 -0.16255973985E+03  0.21248208510E+03  0.12500051237E+03 0.  0.
          2    1    1    2  501    0  0.20086403973E+02 -0.14688178783E+02 -0.33785091145E+02  0.41959964302E+02  0.00000000000E+00 0. -1.
          1    1    1    2  502    0  0.26823758120E+02  0.44642745561E+02  0.14884700079E+03  0.15769565110E+03  0.00000000000E+00 0. -1.
         22    1    3    3    0    0 -0.17700257603E+02  0.37507113132E+02 -0.93009726821E+01  0.42504008606E+02  0.00000000000E+00 0.  1.
         22    1    3    3    0    0 -0.29209904490E+02 -0.67461679911E+02 -0.15325876716E+03  0.16997807650E+03  0.00000000000E+00 0.  1.
</event>
<event>
 7    1  0.7802682E-006  0.1301224E+03  0.7818608E-02  0.1342201E+00
          2   -1    0    0  502    0  0.00000000000E+00  0.00000000000E+00  0.16378717566E+04  0.16378717566E+04  0.00000000000E+00 0. -1.
          1   -1    0    0  501    0 -0.00000000000E+00 -0.00000000000E+00 -0.21509547105E+03  0.21509547105E+03  0.00000000000E+00 0. -1.
         25    2    1    2    0    0 -0.11315644212E+02 -0.16520031673E+03  0.12499409064E+03  0.24221457253E+03  0.12500075199E+03 0.  0.
          2    1    1    2  501    0 -0.17854646372E+02  0.40056591112E+02 -0.15051101549E+03  0.15677016513E+03  0.00000000000E+00 0. -1.
          1    1    1    2  502    0  0.29170290584E+02  0.12514372562E+03  0.14482932104E+04  0.14539824900E+04  0.00000000000E+00 0. -1.
         22    1    3    3    0    0 -0.52363095180E+02 -0.31294884234E+02  0.67045450572E+02  0.90644117065E+02  0.00000000000E+00 0.  1.
         22    1    3    3    0    0  0.41047450968E+02 -0.13390543250E+03  0.57948640065E+02  0.15157045546E+03  0.00000000000E+00 0.  1.
</event>
<event>
 7    1  0.7802682E-006  0.1501541E+03  0.7818608E-02  0.1343358E+00
          2   -1    0    0  502    0  0.00000000000E+00  0.00000000000E+00  0.41734593779E+03  0.41734593779E+03  0.00000000000E+00 0. -1.
          1   -1    0    0  501    0 -0.00000000000E+00 -0.00000000000E+00 -0.10664037983E+04  0.10664037983E+04  0.00000000000E+00 0. -1.
         25    2    1    2    0    0  0.13408926451E+02 -0.15112705845E+03 -0.82684961528E+02  0.21326980401E+03  0.12501207676E+03 0.  0.
          2    1    1    2  501    0 -0.37535366332E+02  0.26292512113E+01 -0.90194360689E+03  0.90272813554E+03  0.00000000000E+00 0. -1.
          1    1    1    2  502    0  0.24126439880E+02  0.14849780724E+03  0.33557070790E+03  0.36775179654E+03  0.00000000000E+00 0. -1.
         22    1    3    3    0    0  0.27490217565E+02 -0.26419249492E+02  0.26897887687E+02  0.46660316839E+02  0.00000000000E+00 0.  1.
         22    1    3    3    0    0 -0.14081291113E+02 -0.12470780896E+03 -0.10958284921E+03  0.16660948718E+03  0.00000000000E+00 0.  1.
</event>
<event>
 7    1  0.7802682E-006  0.2922673E+03  0.7818608E-02  0.1263270E+00
          2   -1    0    0  502    0  0.00000000000E+00  0.00000000000E+00  0.22032930263E+04  0.22032930263E+04  0.00000000000E+00 0. -1.
          1   -1    0    0  501    0 -0.00000000000E+00 -0.00000000000E+00 -0.62958089004E+03  0.62958089004E+03  0.00000000000E+00 0. -1.
         25    2    1    2    0    0  0.80856155002E+02  0.32057404289E+03 -0.33672787461E+03  0.48818015960E+03  0.12501508672E+03 0.  0.
          2    1    1    2  501    0 -0.13214023992E+01 -0.40297966377E+02 -0.20518176916E+03  0.20910578804E+03  0.00000000000E+00 0. -1.
          1    1    1    2  502    0 -0.79534752602E+02 -0.28027607652E+03  0.21156217800E+04  0.21355879687E+04  0.00000000000E+00 0. -1.
         22    1    3    3    0    0  0.31358096321E+02  0.74095965394E+01 -0.56477543817E+02  0.65022652063E+02  0.00000000000E+00 0. -1.
         22    1    3    3    0    0  0.49498058681E+02  0.31316444635E+03 -0.28025033079E+03  0.42315750754E+03  0.00000000000E+00 0. -1.
</event>
<event>
 7    1  0.7802682E-006  0.4107315E+02  0.7818608E-02  0.1561461E+00
          2   -1    0    0  502    0  0.00000000000E+00  0.00000000000E+00  0.56316968510E+03  0.56316968510E+03  0.00000000000E+00 0. -1.
          1   -1    0    0  501    0 -0.00000000000E+00 -0.00000000000E+00 -0.10041906017E+03  0.10041906017E+03  0.00000000000E+00 0. -1.
         25    2    1    2    0    0  0.48640537270E+02 -0.26640238329E+02  0.21769146958E+02  0.13847242717E+03  0.12500045265E+03 0.  0.
          2    1    1    2  501    0 -0.26366126463E+02 -0.77278915791E+01 -0.36609358720E+02  0.45772678300E+02  0.00000000000E+00 0. -1.
          1    1    1    2  502    0 -0.22274410808E+02  0.34368129908E+02  0.47759083669E+03  0.47934363981E+03  0.00000000000E+00 0. -1.
         22    1    3    3    0    0  0.63903701712E+02 -0.67538382056E+02  0.12125025079E+02  0.93766371245E+02  0.00000000000E+00 0. -1.
         22    1    3    3    0    0 -0.15263164442E+02  0.40898143727E+02  0.96441218793E+01  0.44706055920E+02  0.00000000000E+00 0. -1.
</event>
<event>
 7    1  0.7802682E-006  0.6184190E+02  0.7818608E-02  0.1397004E+00
          2   -1    0    0  502    0  0.00000000000E+00  0.00000000000E+00  0.16658852964E+04  0.16658852964E+04  0.00000000000E+00 0. -1.
          1   -1    0    0  501    0 -0.00000000000E+00 -0.00000000000E+00 -0.37187458890E+03  0.37187458890E+03  0.00000000000E+00 0. -1.
         25    2    1    2    0    0 -0.71051915526E+01 -0.58451378389E+01 -0.84265365556E+02  0.15104263712E+03  0.12501430723E+03 0.  0.
          2    1    1    2  501    0  0.60029493724E+02 -0.26146084358E+02 -0.24940765454E+03  0.25785913982E+03  0.00000000000E+00 0. -1.
          1    1    1    2  502    0 -0.52924302172E+02  0.31991222197E+02  0.16276837276E+04  0.16288581083E+04  0.00000000000E+00 0. -1.
         22    1    3    3    0    0  0.48621704393E+01 -0.27579980637E+02 -0.11105293598E+03  0.11452969320E+03  0.00000000000E+00 0.  1.
         22    1    3    3    0    0 -0.11967361992E+02  0.21734842798E+02  0.26787570428E+02  0.36512943923E+02  0.00000000000E+00 0.  1.
</event>
<event>
 7    1  0.7802682E-006  0.3097669E+02  0.7818608E-02  0.1597893E+00
          2   -1    0    0  502    0  0.00000000000E+00  0.00000000000E+00  0.13062811319E+04  0.13062811319E+04  0.00000000000E+00 0. -1.
          1   -1    0    0  501    0 -0.00000000000E+00 -0.00000000000E+00 -0.21759170836E+02  0.21759170836E+02  0.00000000000E+00 0. -1.
         25    2    1    2    0    0 -0.40504324954E+02  0.36914340402E+02  0.52227751241E+03  0.53981590748E+03  0.12499658050E+03 0.  0.
          2    1    1    2  501    0  0.27466431721E+02 -0.95773568210E+01  0.39846573878E+01  0.29359974960E+02  0.00000000000E+00 0. -1.
          1    1    1    2  502    0  0.13037893233E+02 -0.27336983581E+02  0.75825979130E+03  0.75886442033E+03  0.00000000000E+00 0. -1.
         22    1    3    3    0    0 -0.33322258301E+02 -0.39698288800E+02  0.12791869940E+03  0.13802000105E+03  0.00000000000E+00 0.  1.
         22    1    3    3    0    0 -0.71820666528E+01  0.76612629201E+02  0.39435881300E+03  0.40179590643E+03  0.00000000000E+00 0.  1.
</event>
<event>
 7    1  0.7802682E-006  0.8047460E+02  0.7818608E-02  0.1468018E+00
          2   -1    0    0  502    0  0.00000000000E+00  0.00000000000E+00  0.92878548410E+03  0.92878548410E+03  0.00000000000E+00 0. -1.
          1   -1    0    0  501    0 -0.00000000000E+00 -0.00000000000E+00 -0.80433151104E+02  0.80433151104E+02  0.00000000000E+00 0. -1.
         25    2    1    2    0    0  0.31876627570E+02  0.68876965910E+02  0.39454016293E+02  0.15143625825E+03  0.12496465537E+03 0.  0.
          2    1    1    2  501    0  0.24087194894E+02 -0.10626627437E+02 -0.14753360360E+02  0.30179128723E+02  0.00000000000E+00 0. -1.
          1    1    1    2  502    0 -0.55963822464E+02 -0.58250338473E+02  0.82365167707E+03  0.82760324824E+03  0.00000000000E+00 0. -1.
         22    1    3    3    0    0 -0.35939285298E+02 -0.11642056470E+02  0.24697121338E+02  0.45134438171E+02  0.00000000000E+00 0. -1.
         22    1    3    3    0    0  0.67815912868E+02  0.80519022379E+02  0.14756894955E+02  0.10630182008E+03  0.00000000000E+00 0. -1.
</event>
<event>
 7    1  0.7802682E-006  0.1064816E+03  0.7818608E-02  0.1363619E+00
          2   -1    0    0  502    0  0.00000000000E+00  0.00000000000E+00  0.81316929189E+03  0.81316929189E+03  0.00000000000E+00 0. -1.
          1   -1    0    0  501    0 -0.00000000000E+00 -0.00000000000E+00 -0.75051332526E+03  0.75051332526E+03  0.00000000000E+00 0. -1.
         25    2    1    2    0    0 -0.20672261981E+02 -0.14909776826E+03 -0.21500036851E+03  0.29070332258E+03  0.12500310550E+03 0.  0.
          2    1    1    2  501    0  0.55762267086E+01  0.44328244629E+02 -0.49303380344E+03  0.49505395556E+03  0.00000000000E+00 0. -1.
          1    1    1    2  502    0  0.15096035272E+02  0.10476952364E+03  0.77069013859E+03  0.77792533901E+03  0.00000000000E+00 0. -1.
         22    1    3    3    0    0 -0.26355362768E+02 -0.71483173634E+02 -0.19644214636E+03  0.21069875682E+03  0.00000000000E+00 0.  1.
         22    1    3    3    0    0  0.56831007879E+01 -0.77614594630E+02 -0.18558222154E+02  0.80004565768E+02  0.00000000000E+00 0.  1.
</event>
<event>
 7    1  0.7802682E-006  0.2620670E+03  0.7818608E-02  0.1338529E+00
          2   -1    0    0  502    0  0.00000000000E+00  0.00000000000E+00  0.25110422761E+04  0.25110422761E+04  0.00000000000E+00 0. -1.
          1   -1    0    0  501    0 -0.00000000000E+00 -0.00000000000E+00 -0.50936360414E+03  0.50936360414E+03  0.00000000000E+00 0. -1.
         25    2    1    2    0    0  0.21222910576E+03  0.13648599301E+03  0.81143106742E+03  0.85890328922E+03  0.12499945373E+03 0.  0.
          2    1    1    2  501    0 -0.20907730963E+03 -0.15874253630E+03 -0.45006884411E+03  0.52103212825E+03  0.00000000000E+00 0. -1.
          1    1    1    2  502    0 -0.31517961318E+01  0.22256543282E+02  0.16403164487E+04  0.16404704628E+04  0.00000000000E+00 0. -1.
         22    1    3    3    0    0 -0.26514287396E+01 -0.41526711098E+01  0.13919870155E+03  0.13928586886E+03  0.00000000000E+00 0.  1.
         22    1    3    3    0    0  0.21488053450E+03  0.14063866412E+03  0.67223236587E+03  0.71961742035E+03  0.00000000000E+00 0.  1.
</event>
<event>
 7    1  0.7802682E-006  0.8583604E+02  0.7818608E-02  0.1336446E+00
          2   -1    0    0  502    0  0.00000000000E+00  0.00000000000E+00  0.28514901899E+04  0.28514901899E+04  0.00000000000E+00 0. -1.
          1   -1    0    0  501    0 -0.00000000000E+00 -0.00000000000E+00 -0.30541572101E+02  0.30541572101E+02  0.00000000000E+00 0. -1.
         25    2    1    2    0    0  0.21599688287E+02 -0.39092061293E+02  0.75944202047E+03  0.77095535439E+03  0.12500096088E+03 0.  0.
          2    1    1    2  501    0 -0.89409791927E+02  0.22192632350E+02  0.63592122264E+02  0.11194008146E+03  0.00000000000E+00 0. -1.
          1    1    1    2  502    0  0.67810103640E+02  0.16899428943E+02  0.19979144751E+04  0.19991363261E+04  0.00000000000E+00 0. -1.
         22    1    3    3    0    0  0.61267124307E+02 -0.58454450943E+02  0.58080938545E+03  0.58694984929E+03  0.00000000000E+00 0.  1.
         22    1    3    3    0    0 -0.39667436020E+02  0.19362389650E+02  0.17863263502E+03  0.18400550510E+03  0.00000000000E+00 0.  1.
</event>
<event>
 7    1  0.7802682E-006  0.1695081E+03  0.7818608E-02  0.1236565E+00
          2   -1    0    0  502    0  0.00000000000E+00  0.00000000000E+00  0.71768763506E+03  0.71768763506E+03  0.00000000000E+00 0. -1.
          1   -1    0    0  501    0 -0.00000000000E+00 -0.00000000000E+00 -0.76726935566E+03  0.76726935566E+03  0.00000000000E+00 0. -1.
         25    2    1    2    0    0  0.47693777254E+02 -0.13414028628E+03 -0.22873991583E+03  0.29701088642E+03  0.12500081906E+03 0.  0.
          2    1    1    2  501    0 -0.13837584599E+03  0.12993395168E+03 -0.48332989022E+03  0.51926726195E+03  0.00000000000E+00 0. -1.
          1    1    1    2  502    0  0.90682068733E+02  0.42063345999E+01  0.66248808545E+03  0.66867884235E+03  0.00000000000E+00 0. -1.
         22    1    3    3    0    0  0.83585594446E+02 -0.11909091286E+03 -0.14886414677E+03  0.20815794801E+03  0.00000000000E+00 0. -1.
         22    1    3    3    0    0 -0.35891817192E+02 -0.15049373420E+02 -0.79875769056E+02  0.88852938410E+02  0.00000000000E+00 0. -1.
</event>
<event>
 7    1  0.7802682E-006  0.1552457E+03  0.7818608E-02  0.1318132E+00
          2   -1    0    0  502    0  0.00000000000E+00  0.00000000000E+00  0.22799724171E+03  0.22799724171E+03  0.00000000000E+00 0. -1.
          1   -1    0    0  501    0 -0.00000000000E+00 -0.00000000000E+00 -0.85033246080E+03  0.85033246080E+03  0.00000000000E+00 0. -1.
         25    2    1    2    0    0 -0.50224903210E+02 -0.18861898203E+03 -0.10724318304E+03  0.25539542093E+03  0.12500423769E+03 0.  0.
          2    1    1    2  501    0  0.31049785116E+02  0.14743969152E+03 -0.65693631037E+03  0.67399396709E+03  0.00000000000E+00 0. -1.
          1    1    1    2  502    0  0.19175118094E+02  0.41179290512E+02  0.14184427432E+03  0.14894031449E+03  0.00000000000E+00 0. -1.
         22    1    3    3    0    0 -0.54258146350E+02 -0.16872097603E+03 -0.13372932451E+03  0.22202307635E+03  0.00000000000E+00 0.  1.
         22    1    3    3    0    0  0.40332431404E+01 -0.19898006000E+02  0.26486141471E+02  0.33372344584E+02  0.00000000000E+00 0.  1.
</event>
<event>
 7    1  0.7802682E-006  0.1192964E+03  0.7818608E-02  0.1351622E+00
          2   -1    0    0  502    0  0.00000000000E+00  0.00000000000E+00  0.37221412256E+03  0.37221412256E+03  0.00000000000E+00 0. -1.
          1   -1    0    0  501    0 -0.00000000000E+00 -0.00000000000E+00 -0.22977363728E+04  0.22977363728E+04  0.00000000000E+00 0. -1.
         25    2    1    2    0    0 -0.12147567282E+03 -0.29999764444E+02 -0.33013534563E+03  0.37452732196E+03  0.12500017405E+03 0.  0.
          2    1    1    2  501    0  0.23105716248E+02 -0.37590918925E+02 -0.19349716283E+04  0.19354746584E+04  0.00000000000E+00 0. -1.
          1    1    1    2  502    0  0.98369956569E+02  0.67590683368E+02  0.33958472368E+03  0.35994851491E+03  0.00000000000E+00 0. -1.
         22    1    3    3    0    0 -0.31238269033E+01  0.11635664902E+02 -0.17314227990E+03  0.17356092902E+03  0.00000000000E+00 0.  1.
         22    1    3    3    0    0 -0.11835184591E+03 -0.41635429346E+02 -0.15699306573E+03  0.20096639295E+03  0.00000000000E+00 0.  1.
</event>
<event>
 7    1  0.7802682E-006  0.1420387E+03  0.7818608E-02  0.1298542E+00
          2   -1    0    0  502    0  0.00000000000E+00  0.00000000000E+00  0.95605660180E+03  0.95605660180E+03  0.00000000000E+00 0. -1.
          1   -1    0    0  501    0 -0.00000000000E+00 -0.00000000000E+00 -0.52338778226E+03  0.52338778226E+03  0.00000000000E+00 0. -1.
         25    2    1    2    0    0 -0.94944458679E+02 -0.16951751424E+03  0.12871648418E+03  0.26446867010E+03  0.12500042518E+03 0.  0.
          2    1    1    2  501    0  0.40341401324E+02  0.43511240506E+02 -0.44732859160E+03  0.45124663497E+03  0.00000000000E+00 0. -1.
          1    1    1    2  502    0  0.54603057355E+02  0.12600627374E+03  0.75128092695E+03  0.76372907899E+03  0.00000000000E+00 0. -1.
         22    1    3    3    0    0 -0.63989255287E+02 -0.12873391688E+02  0.11231526607E+02  0.66230628834E+02  0.00000000000E+00 0. -1.
         22    1    3    3    0    0 -0.30955203391E+02 -0.15664412256E+03  0.11748495757E+03  0.19823804126E+03  0.00000000000E+00 0. -1.
</event>
<event>
 7    1  0.7802682E-006  0.2088890E+03  0.7818608E-02  0.1259129E+00
          2   -1    0    0  502    0  0.00000000000E+00  0.00000000000E+00  0.27869395485E+04  0.27869395485E+04  0.00000000000E+00 0. -1.
          1   -1    0    0  501    0 -0.00000000000E+00 -0.00000000000E+00 -0.68141233731E+03  0.68141233731E+03  0.00000000000E+00 0. -1.
         25    2    1    2    0    0 -0.24048006154E+03  0.10792629658E+03 -0.99550102893E+02  0.30824245095E+03  0.12499776034E+03 0.  0.
          2    1    1    2  501    0  0.44747312230E+02 -0.38071837717E+02 -0.47166568148E+03  0.47531074243E+03  0.00000000000E+00 0. -1.
          1    1    1    2  502    0  0.19573274931E+03 -0.69854458863E+02  0.26767429955E+04  0.26847986924E+04  0.00000000000E+00 0. -1.
         22    1    3    3    0    0 -0.21570161251E+03  0.39989447231E+02 -0.72867579076E+02  0.23116233605E+03  0.00000000000E+00 0.  1.
         22    1    3    3    0    0 -0.24778449037E+02  0.67936849350E+02 -0.26682523817E+02  0.77080114903E+02  0.00000000000E+00 0.  1.
</event>
<event>
 7    1  0.7802682E-006  0.1106483E+03  0.7818608E-02  0.1410748E+00
          2   -1    0    0  502    0  0.00000000000E+00  0.00000000000E+00  0.10694047416E+04  0.10694047416E+04  0.00000000000E+00 0. -1.
          1   -1    0    0  501    0 -0.00000000000E+00 -0.00000000000E+00 -0.46506339485E+03  0.46506339485E+03  0.00000000000E+00 0. -1.
         25    2    1    2    0    0  0.63480232730E+02 -0.10173462687E+03 -0.41388365005E+02  0.17809509571E+03  0.12500076842E+03 0.  0.
          2    1    1    2  501    0 -0.34211308518E+02  0.10441501300E+03 -0.34660452393E+03  0.36360363664E+03  0.00000000000E+00 0. -1.
          1    1    1    2  502    0 -0.29268924212E+02 -0.26803861318E+01  0.99233423568E+03  0.99276940409E+03  0.00000000000E+00 0. -1.
         22    1    3    3    0    0 -0.28002929560E+02 -0.33389470649E+02  0.20555590736E+02  0.48182498115E+02  0.00000000000E+00 0. -1.
         22    1    3    3    0    0  0.91483162289E+02 -0.68345156224E+02 -0.61943955740E+02  0.12991259760E+03  0.00000000000E+00 0. -1.
</event>
<event>
 7    1  0.7802682E-006  0.8131448E+02  0.7818608E-02  0.1460487E+00
          2   -1    0    0  502    0  0.00000000000E+00  0.00000000000E+00  0.27481942797E+03  0.27481942797E+03  0.00000000000E+00 0. -1.
          1   -1    0    0  501    0 -0.00000000000E+00 -0.00000000000E+00 -0.39989932159E+03  0.39989932159E+03  0.00000000000E+00 0. -1.
         25    2    1    2    0    0  0.60066544259E+02  0.89112039949E+02 -0.87383165796E+02  0.18657547537E+03  0.12500257974E+03 0.  0.
          2    1    1    2  501    0 -0.15503406330E+02 -0.22727025866E+02 -0.25506078995E+03  0.25654021105E+03  0.00000000000E+00 0. -1.
          1    1    1    2  502    0 -0.44563137929E+02 -0.66385014083E+02  0.21736406212E+03  0.23160306315E+03  0.00000000000E+00 0. -1.
         22    1    3    3    0    0  0.69895411627E+02  0.75575766023E+02 -0.11496457219E+03  0.15431758758E+03  0.00000000000E+00 0. -1.
         22    1    3    3    0    0 -0.98288673681E+01  0.13536273926E+02  0.27581406399E+02  0.32257887787E+02  0.00000000000E+00 0. -1.
</event>
<event>
 7    1  0.7802682E-006  0.6291662E+02  0.7818608E-02  0.1395685E+00
          2   -1    0    0  502    0  0.00000000000E+00  0.00000000000E+00  0.30979357377E+04  0.30979357377E+04  0.00000000000E+00 0. -1.
          1   -1    0    0  501    0 -0.00000000000E+00 -0.00000000000E+00 -0.12272690066E+03  0.12272690066E+03  0.00000000000E+00 0. -1.
         25    2    1    2    0    0 -0.20238550065E+02 -0.40172267547E+02  0.13842063430E+04  0.13905663778E+04  0.12499696440E+03 0.  0.
          2    1    1    2  501    0  0.62027652038E+02 -0.10539038578E+02 -0.11059043663E+03  0.12723500157E+03  0.00000000000E+00 0. -1.
          1    1    1    2  502    0 -0.41789101973E+02  0.50711306125E+02  0.17015929306E+04  0.17028612589E+04  0.00000000000E+00 0. -1.
         22    1    3    3    0    0 -0.86734619001E+01 -0.45729712488E+02  0.13722152243E+04  0.13730043908E+04  0.00000000000E+00 0.  1.
         22    1    3    3    0    0 -0.11565088165E+02  0.55574449410E+01  0.11991118777E+02  0.17561987019E+02  0.00000000000E+00 0.  1.
</event>
<event>
 7    1  0.7802682E-006  0.3358522E+02  0.7818608E-02  0.1587477E+00
          2   -1    0    0  502    0  0.00000000000E+00  0.00000000000E+00  0.52519277474E+02  0.52519277474E+02  0.00000000000E+00 0. -1.
          1   -1    0    0  501    0 -0.00000000000E+00 -0.00000000000E+00 -0.48713213713E+03  0.48713213713E+03  0.00000000000E+00 0. -1.
         25    2    1    2    0    0 -0.55898495765E+02 -0.12132250945E+02 -0.24978010022E+03  0.28511523634E+03  0.12501506383E+03 0.  0.
          2    1    1    2  501    0  0.31959475585E+02 -0.34822524056E+01 -0.21240445260E+03  0.21482361519E+03  0.00000000000E+00 0. -1.
          1    1    1    2  502    0  0.23939020180E+02  0.15614503350E+02  0.27571693162E+02  0.39712563074E+02  0.00000000000E+00 0. -1.
         22    1    3    3    0    0  0.14835768268E+02 -0.31168981474E+02 -0.12382381096E+02  0.36673270754E+02  0.00000000000E+00 0.  1.
         22    1    3    3    0    0 -0.70734264033E+02  0.19036730529E+02 -0.23739771912E+03  0.24844196558E+03  0.00000000000E+00 0.  1.
</event>
<event>
 7    1  0.7802682E-006  0.7566713E+02  0.7818608E-02  0.1366060E+00
          2   -1    0    0  502    0  0.00000000000E+00  0.00000000000E+00  0.31538935986E+04  0.31538935986E+04  0.00000000000E+00 0. -1.
          1   -1    0    0  501    0 -0.00000000000E+00 -0.00000000000E+00 -0.78345511291E+02  0.78345511291E+02  0.00000000000E+00 0. -1.
         25    2    1    2    0    0 -0.62095427894E+02  0.19041160798E+02  0.24601058966E+03  0.28348664682E+03  0.12500024294E+03 0.  0.
          2    1    1    2  501    0  0.31271803338E+02 -0.72379737638E+02 -0.33056602662E+02  0.85495561780E+02  0.00000000000E+00 0. -1.
          1    1    1    2  502    0  0.30823624556E+02  0.53338576840E+02  0.28625941003E+04  0.28632569012E+04  0.00000000000E+00 0. -1.
         22    1    3    3    0    0 -0.37241020710E+02  0.72709381201E+02  0.14562514519E+03  0.16697374240E+03  0.00000000000E+00 0.  1.
         22    1    3    3    0    0 -0.24854407184E+02 -0.53668220402E+02  0.10038544446E+03  0.11651290443E+03  0.00000000000E+00 0.  1.
</event>
<event>
 7    1  0.7802682E-006  0.1593163E+03  0.7818608E-02  0.1292007E+00
          2   -1    0    0  502    0  0.00000000000E+00  0.00000000000E+00  0.58256380029E+03  0.58256380029E+03  0.00000000000E+00 0. -1.
          1   -1    0    0  501    0 -0.00000000000E+00 -0.00000000000E+00 -0.96677847540E+03  0.96677847540E+03  0.00000000000E+00 0. -1.
         25    2    1    2    0    0  0.78966575488E+02 -0.12315326764E+03 -0.60120402561E+03  0.63124791329E+03  0.12500080100E+03 0.  0.
          2    1    1    2  501    0 -0.56586818217E+02  0.17471654907E+03 -0.32494526203E+03  0.37325241303E+03  0.00000000000E+00 0. -1.
          1    1    1    2  502    0 -0.22379757271E+02 -0.51563281434E+02  0.54193461253E+03  0.54484194937E+03  0.00000000000E+00 0. -1.
         22    1    3    3    0    0  0.30195414094E+02 -0.42261548829E+02 -0.44984488455E+03  0.45283354746E+03  0.00000000000E+00 0. -1.
         22    1    3    3    0    0  0.48771161394E+02 -0.80891718810E+02 -0.15135914106E+03  0.17841436584E+03  0.00000000000E+00 0. -1.
</event>
<event>
 7    1  0.7802682E-006  0.6417472E+02  0.7818608E-02  0.1443536E+00
          2   -1    0    0  502    0  0.00000000000E+00  0.00000000000E+00  0.82025231567E+03  0.82025231567E+03  0.00000000000E+00 0. -1.
          1   -1    0    0  501    0 -0.00000000000E+00 -0.00000000000E+00 -0.43522690609E+03  0.43522690609E+03  0.00000000000E+00 0. -1.
         25    2    1    2    0    0  0.24090986433E+02 -0.76764259746E+01  0.16264701499E+03  0.20668448698E+03  0.12500049011E+03 0.  0.
          2    1    1    2  501    0 -0.60543306582E+02  0.22843596906E+02 -0.41005537103E+03  0.41512977393E+03  0.00000000000E+00 0. -1.
          1    1    1    2  502    0  0.36452320149E+02 -0.15167170931E+02  0.63243376562E+03  0.63366496086E+03  0.00000000000E+00 0. -1.
         22    1    3    3    0    0 -0.38817549330E+02  0.19268151885E+02  0.11608550899E+03  0.12391089222E+03  0.00000000000E+00 0. -1.
         22    1    3    3    0    0  0.62908535763E+02 -0.26944577860E+02  0.46561506001E+02  0.82773594757E+02  0.00000000000E+00 0. -1.
</event>
<event>
 7    1  0.7802682E-006  0.3599194E+02  0.7818608E-02  0.1544166E+00
          2   -1    0    0  502    0  0.00000000000E+00  0.00000000000E+00  0.21943354908E+03  0.21943354908E+03  0.00000000000E+00 0. -1.
          1   -1    0    0  501    0 -0.00000000000E+00 -0.00000000000E+00 -0.51320279499E+03  0.51320279499E+03  0.00000000000E+00 0. -1.
         25    2    1    2    0    0  0.14855495501E+02 -0.41153749492E+02  0.13003608555E+03  0.18560472524E+03  0.12500165456E+03 0.  0.
          2    1    1    2  501    0  0.20092882268E+02  0.28686759826E+02 -0.47913419699E+03  0.48041256523E+03  0.00000000000E+00 0. -1.
          1    1    1    2  502    0 -0.34948377769E+02  0.12466989666E+02  0.55328865535E+02  0.66619053592E+02  0.00000000000E+00 0. -1.
         22    1    3    3    0    0  0.36594051694E+02 -0.23301795800E+02  0.14665209843E+03  0.15293441823E+03  0.00000000000E+00 0. -1.
         22    1    3    3    0    0 -0.21738556192E+02 -0.17851953692E+02 -0.16616012879E+02  0.32670307007E+02  0.00000000000E+00 0. -1.
</event>
<event>
 7    1  0.7802682E-006  0.1199799E+03  0.7818608E-02  0.1283803E+00
          2   -1    0    0  502    0  0.00000000000E+00  0.00000000000E+00  0.13455632428E+04  0.13455632428E+04  0.00000000000E+00 0. -1.
          1   -1    0    0  501    0 -0.00000000000E+00 -0.00000000000E+00 -0.35423700418E+04  0.35423700418E+04  0.00000000000E+00 0. -1.
         25    2    1    2    0    0 -0.39971259662E+02 -0.11135027943E+03 -0.10145788688E+03  0.19978834409E+03  0.12500037319E+03 0.  0.
          2    1    1    2  501    0  0.80593578527E+02 -0.21005665504E+01 -0.33884660991E+04  0.33894250607E+04  0.00000000000E+00 0. -1.
          1    1    1    2  502    0 -0.40622318865E+02  0.11345084598E+03  0.12931171869E+04  0.12987198799E+04  0.00000000000E+00 0. -1.
         22    1    3    3    0    0 -0.16036631264E+02 -0.94071873982E+02 -0.12829386756E+03  0.15989373806E+03  0.00000000000E+00 0.  1.
         22    1    3    3    0    0 -0.23934628398E+02 -0.17278405444E+02  0.26835980681E+02  0.39894606031E+02  0.00000000000E+00 0.  1.
</event>
<event>
 7    1  0.7802682E-006  0.7615627E+02  0.7818608E-02  0.1416658E+00
          2   -1    0    0  502    0  0.00000000000E+00  0.00000000000E+00  0.38655281863E+03  0.38655281863E+03  0.00000000000E+00 0. -1.
          1   -1    0    0  501    0 -0.00000000000E+00 -0.00000000000E+00 -0.96138123432E+03  0.96138123432E+03  0.00000000000E+00 0. -1.
         25    2    1    2    0    0 -0.75783793442E+02 -0.82874987059E+02 -0.36605754499E+03  0.40278242262E+03  0.12499642754E+03 0.  0.
          2    1    1    2  501    0  0.51067139413E+02  0.50427978914E+02 -0.57358840070E+03  0.57806097187E+03  0.00000000000E+00 0. -1.
          1    1    1    2  502    0  0.24716654029E+02  0.32447008144E+02  0.36481753001E+03  0.36709065846E+03  0.00000000000E+00 0. -1.
         22    1    3    3    0    0 -0.12203575707E+02 -0.99034235244E+02 -0.18479620849E+03  0.21001510822E+03  0.00000000000E+00 0. -1.
         22    1    3    3    0    0 -0.63580217736E+02  0.16159248185E+02 -0.18126133650E+03  0.19276731440E+03  0.00000000000E+00 0. -1.
</event>
<event>
 7    1  0.7802682E-006  0.3037866E+03  0.7818608E-02  0.1145963E+00
          2   -1    0    0  502    0  0.00000000000E+00  0.00000000000E+00  0.90767315798E+03  0.90767315798E+03  0.00000000000E+00 0. -1.
          1   -1    0    0  501    0 -0.00000000000E+00 -0.00000000000E+00 -0.19917851364E+03  0.19917851364E+03  0.00000000000E+00 0. -1.
         25    2    1    2    0    0 -0.25189511430E+03  0.49232489245E+02  0.25973218262E+03  0.38595498511E+03  0.12500182894E+03 0.  0.
          2    1    1    2  501    0  0.29780800970E+03 -0.17907302453E+03  0.12541038273E+03  0.36943811776E+03  0.00000000000E+00 0. -1.
          1    1    1    2  502    0 -0.45912895406E+02  0.12984053528E+03  0.32335207898E+03  0.35145856875E+03  0.00000000000E+00 0. -1.
         22    1    3    3    0    0  0.76315414637E+01 -0.12756671644E+02  0.31506355451E+02  0.34837099913E+02  0.00000000000E+00 0. -1.
         22    1    3    3    0    0 -0.25952665576E+03  0.61989160889E+02  0.22822582717E+03  0.35111788520E+03  0.00000000000E+00 0. -1.
</event>
<event>
 7    1  0.7802682E-006  0.9274454E+02  0.7818608E-02  0.1419083E+00
          2   -1    0    0  502    0  0.00000000000E+00  0.00000000000E+00  0.21416578075E+04  0.21416578075E+04  0.00000000000E+00 0. -1.
          1   -1    0    0  501    0 -0.00000000000E+00 -0.00000000000E+00 -0.80456681457E+03  0.80456681457E+03  0.00000000000E+00 0. -1.
         25    2    1    2    0    0 -0.55487747854E+02 -0.87925269060E+02 -0.48819814460E+03  0.51456084012E+03  0.12500274677E+03 0.  0.
          2    1    1    2  501    0  0.67654921257E+02  0.57387400613E+02 -0.29656748420E+03  0.30955253965E+03  0.00000000000E+00 0. -1.
          1    1    1    2  502    0 -0.12167173403E+02  0.30537868447E+02  0.21218566218E+04  0.21221112423E+04  0.00000000000E+00 0. -1.
         22    1    3    3    0    0  0.29323745285E+02 -0.61194441261E+02 -0.14602415959E+03  0.16102079637E+03  0.00000000000E+00 0.  1.
         22    1    3    3    0    0 -0.84811493139E+02 -0.26730827799E+02 -0.34217398501E+03  0.35354004376E+03  0.00000000000E+00 0.  1.
</event>
<event>
 7    1  0.7802682E-006  0.3540696E+02  0.7818608E-02  0.1552683E+00
          2   -1    0    0  502    0  0.00000000000E+00  0.00000000000E+00  0.77831966292E+03  0.77831966292E+03  0.00000000000E+00 0. -1.
          1   -1    0    0  501    0 -0.00000000000E+00 -0.00000000000E+00 -0.10243201571E+04  0.10243201571E+04  0.00000000000E+00 0. -1.
         25    2    1    2    0    0  0.43327855143E+01 -0.89295700395E+00  0.32526240875E+03  0.34849135195E+03  0.12502406740E+03 0.  0.
          2    1    1    2  501    0 -0.64813329612E+01 -0.34808691877E+02 -0.10116710179E+04  0.10122904234E+04  0.00000000000E+00 0. -1.
          1    1    1    2  502    0  0.21485474469E+01  0.35701648881E+02  0.44040811496E+03  0.44185804475E+03  0.00000000000E+00 0. -1.
         22    1    3    3    0    0  0.62840082590E+02  0.51810762212E+01  0.12869018263E+03  0.14330695251E+03  0.00000000000E+00 0. -1.
         22    1    3    3    0    0 -0.58507297076E+02 -0.60740332252E+01  0.19657222612E+03  0.20518439944E+03  0.00000000000E+00 0. -1.
</event>
<event>
 7    1  0.7802682E-006  0.1176336E+03  0.7818608E-02  0.1338207E+00
          2   -1    0    0  502    0  0.00000000000E+00  0.00000000000E+00  0.16904605766E+04  0.16904605766E+04  0.00000000000E+00 0. -1.
          1   -1    0    0  501    0 -0.00000000000E+00 -0.00000000000E+00 -0.83972217301E+02  0.83972217301E+02  0.00000000000E+00 0. -1.
         25    2    1    2    0    0  0.53479372290E+02  0.74425052731E+02  0.18904469442E+03  0.24446371727E+03  0.12500192334E+03 0.  0.
          2    1    1    2  501    0 -0.26011995444E+02  0.42956971864E+02 -0.42053678260E+02  0.65501428946E+02  0.00000000000E+00 0. -1.
          1    1    1    2  502    0 -0.27467376847E+02 -0.11738202460E+03  0.14594973432E+04  0.14644676477E+04  0.00000000000E+00 0. -1.
         22    1    3    3    0    0  0.21115324399E+02 -0.72636268193E+01 -0.11788510676E+02  0.25250468966E+02  0.00000000000E+00 0. -1.
         22    1    3    3    0    0  0.32364047891E+02  0.81688679550E+02  0.20083320510E+03  0.21921324831E+03  0.00000000000E+00 0. -1.
</event>
<event>
 7    1  0.7802682E-006  0.4577260E+02  0.7818608E-02  0.1516611E+00
          2   -1    0    0  502    0  0.00000000000E+00  0.00000000000E+00  0.94566268044E+02  0.94566268044E+02  0.00000000000E+00 0. -1.
          1   -1    0    0  501    0 -0.00000000000E+00 -0.00000000000E+00 -0.10446183011E+04  0.10446183011E+04  0.00000000000E+00 0. -1.
         25    2    1    2    0    0  0.27007162105E+02 -0.51064117625E+02 -0.58513752755E+03  0.60112250328E+03  0.12500162755E+03 0.  0.
          2    1    1    2  501    0 -0.32540915371E+02  0.56455696478E+01 -0.44478765303E+03  0.44601215221E+03  0.00000000000E+00 0. -1.
          1    1    1    2  502    0  0.55337532657E+01  0.45418547978E+02  0.79873147474E+02  0.92049913704E+02  0.00000000000E+00 0. -1.
         22    1    3    3    0    0 -0.94876687489E+01 -0.58166002070E+02 -0.11229573472E+03  0.12682125883E+03  0.00000000000E+00 0. -1.
         22    1    3    3    0    0  0.36494830854E+02  0.71018844446E+01 -0.47284179282E+03  0.47430124444E+03  0.00000000000E+00 0. -1.
</event>
<event>
 7    1  0.7802682E-006  0.1028716E+03  0.7818608E-02  0.1300485E+00
          2   -1    0    0  502    0  0.00000000000E+00  0.00000000000E+00  0.26652102439E+03  0.26652102439E+03  0.00000000000E+00 0. -1.
          1   -1    0    0  501    0 -0.00000000000E+00 -0.00000000000E+00 -0.51191548076E+03  0.51191548076E+03  0.00000000000E+00 0. -1.
         25    2    1    2    0    0  0.88702222660E+02 -0.19953374883E+02 -0.84643252126E+02  0.17623677909E+03  0.12501480192E+03 0.  0.
          2    1    1    2  501    0 -0.35065868293E+02 -0.72428753122E+02 -0.36389227915E+03  0.37268368655E+03  0.00000000000E+00 0. -1.
          1    1    1    2  502    0 -0.53636354367E+02  0.92382128005E+02  0.20314107490E+03  0.22951603952E+03  0.00000000000E+00 0. -1.
         22    1    3    3    0    0  0.44224885727E+02  0.88588868121E+01 -0.10896276800E+03  0.11792881414E+03  0.00000000000E+00 0. -1.
         22    1    3    3    0    0  0.44477336933E+02 -0.28812261695E+02  0.24319515874E+02  0.58307964953E+02  0.00000000000E+00 0. -1.
</event>
<event>
 7    1  0.7802682E-006  0.1061935E+03  0.7818608E-02  0.1269738E+00
          2   -1    0    0  502    0  0.00000000000E+00  0.00000000000E+00  0.36963490609E+03  0.36963490609E+03  0.00000000000E+00 0. -1.
          1   -1    0    0  501    0 -0.00000000000E+00 -0.00000000000E+00 -0.14301791377E+04  0.14301791377E+04  0.00000000000E+00 0. -1.
         25    2    1    2    0    0 -0.17956470208E+02 -0.18324902395E+02  0.12132242468E+03  0.17607098726E+03  0.12499449970E+03 0.  0.
          2    1    1    2  501    0  0.93182791107E+02 -0.53782435214E+02 -0.13883199000E+04  0.13924825772E+04  0.00000000000E+00 0. -1.
          1    1    1    2  502    0 -0.75226320899E+02  0.72107337609E+02  0.20645324371E+03  0.23126047940E+03  0.00000000000E+00 0. -1.
         22    1    3    3    0    0 -0.40817670562E+02 -0.60082176048E+02  0.10076641163E+03  0.12421682584E+03  0.00000000000E+00 0. -1.
         22    1    3    3    0    0  0.22861200355E+02  0.41757273653E+02  0.20556013047E+02  0.51854161424E+02  0.00000000000E+00 0. -1.
</event>
<event>
 7    1  0.7802682E-006  0.1258099E+03  0.7818608E-02  0.1334588E+00
          2   -1    0    0  502    0  0.00000000000E+00  0.00000000000E+00  0.11695438521E+04  0.11695438521E+04  0.00000000000E+00 0. -1.
          1   -1    0    0  501    0 -0.00000000000E+00 -0.00000000000E+00 -0.10056693070E+03  0.10056693070E+03  0.00000000000E+00 0. -1.
         25    2    1    2    0    0 -0.26204758034E+02 -0.81100601737E+02  0.60353078489E+02  0.16288319496E+03  0.12499777667E+03 0.  0.
          2    1    1    2  501    0 -0.36735608046E+02 -0.31602822618E+02 -0.32360230483E+02  0.58270299578E+02  0.00000000000E+00 0. -1.
          1    1    1    2  502    0  0.62940366080E+02  0.11270342435E+03  0.10409840734E+04  0.10489572883E+04  0.00000000000E+00 0. -1.
         22    1    3    3    0    0 -0.73112159270E+02 -0.49828800328E+02  0.59273329291E+02  0.10649706447E+03  0.00000000000E+00 0. -1.
         22    1    3    3    0    0  0.46907401235E+02 -0.31271801409E+02  0.10797491982E+01  0.56386130496E+02  0.00000000000E+00 0. -1.
</event>
<event>
 7    1  0.7802682E-006  0.6810701E+02  0.7818608E-02  0.1473789E+00
          2   -1    0    0  502    0  0.00000000000E+00  0.00000000000E+00  0.36094553069E+03  0.36094553069E+03  0.00000000000E+00 0. -1.
          1   -1    0    0  501    0 -0.00000000000E+00 -0.00000000000E+00 -0.22546530177E+03  0.22546530177E+03  0.00000000000E+00 0. -1.
         25    2    1    2    0    0 -0.91477004431E+02  0.50403622958E+01  0.16418682758E+03  0.22577917637E+03  0.12500189815E+03 0.  0.
          2    1    1    2  501    0  0.64861610464E+02 -0.18554796138E+02 -0.18739055537E+03  0.19916457821E+03  0.00000000000E+00 0. -1.
          1    1    1    2  502    0  0.26615393967E+02  0.13514433842E+02  0.15868395672E+03  0.16146707788E+03  0.00000000000E+00 0. -1.
         22    1    3    3    0    0 -0.28548434061E+02 -0.57264645192E+02  0.49585918597E+02  0.80950701043E+02  0.00000000000E+00 0. -1.
         22    1    3    3    0    0 -0.62928570370E+02  0.62305007487E+02  0.11460090898E+03  0.14482847533E+03  0.00000000000E+00 0. -1.
</event>
<event>
 7    1  0.7802682E-006  0.1064603E+03  0.7818608E-02  0.1273357E+00
          2   -1    0    0  502    0  0.00000000000E+00  0.00000000000E+00  0.11223076351E+04  0.11223076351E+04  0.00000000000E+00 0. -1.
          1   -1    0    0  501    0 -0.00000000000E+00 -0.00000000000E+00 -0.65713609842E+03  0.65713609842E+03  0.00000000000E+00 0. -1.
         25    2    1    2    0    0 -0.89203504062E+01 -0.12862627756E+02  0.39229355434E+03  0.41202586575E+03  0.12500424564E+03 0.  0.
          2    1    1    2  501    0 -0.44045595135E+02  0.98127381208E+02 -0.63925746352E+03  0.64824308871E+03  0.00000000000E+00 0. -1.
          1    1    1    2  502    0  0.52965945541E+02 -0.85264753453E+02  0.71213544590E+03  0.71917477909E+03  0.00000000000E+00 0. -1.
         22    1    3    3    0    0  0.22707948309E+02  0.34480950722E+02  0.49144922093E+02  0.64185748002E+02  0.00000000000E+00 0. -1.
         22    1    3    3    0    0 -0.31628298715E+02 -0.47343578478E+02  0.34314863225E+03  0.34784011775E+03  0.00000000000E+00 0. -1.
</event>
<event>
 7    1  0.7802682E-006  0.1286561E+03  0.7818608E-02  0.1272048E+00
          2   -1    0    0  502    0  0.00000000000E+00  0.00000000000E+00  0.84637602107E+03  0.84637602107E+03  0.00000000000E+00 0. -1.
          1   -1    0    0  501    0 -0.00000000000E+00 -0.00000000000E+00 -0.27073365148E+03  0.27073365148E+03  0.00000000000E+00 0. -1.
         25    2    1    2    0    0  0.16122649195E+03 -0.10091287955E+03  0.51226285487E+02  0.23329361112E+03  0.12499754277E+03 0.  0.
          2    1    1    2  501    0 -0.11726616974E+03  0.29201538359E+02 -0.15649803249E+03  0.19772637301E+03  0.00000000000E+00 0. -1.
          1    1    1    2  502    0 -0.43960322218E+02  0.71711341188E+02  0.68091411660E+03  0.68608968843E+03  0.00000000000E+00 0. -1.
         22    1    3    3    0    0  0.65648125276E+02 -0.40730012265E+02  0.85525423959E+02  0.11525280211E+03  0.00000000000E+00 0.  1.
         22    1    3    3    0    0  0.95578366679E+02 -0.60182867283E+02 -0.34299138472E+02  0.11804080901E+03  0.00000000000E+00 0.  1.
</event>
<event>
 7    1  0.7802682E-006  0.6559192E+02  0.7818608E-02  0.1379659E+00
          2   -1    0    0  502    0  0.00000000000E+00  0.00000000000E+00  0.18426823349E+04  0.18426823349E+04  0.00000000000E+00 0. -1.
          1   -1    0    0  501    0 -0.00000000000E+00 -0.00000000000E+00 -0.13002392710E+04  0.13002392710E+04  0.00000000000E+00 0. -1.
         25    2    1    2    0    0 -0.62246571319E+02  0.10960488104E+03  0.19994715977E+03  0.26738047501E+03  0.12500234450E+03 0.  0.
          2    1    1    2  501    0  0.40572751577E+02 -0.48888899320E+02 -0.12650793993E+04  0.12666736593E+04  0.00000000000E+00 0. -1.
          1    1    1    2  502    0  0.21673819742E+02 -0.60715981717E+02  0.16075753034E+04  0.16088674716E+04  0.00000000000E+00 0. -1.
         22    1    3    3    0    0 -0.31029059016E+02  0.11552254227E+03  0.81493009207E+02  0.14473897480E+03  0.00000000000E+00 0.  1.
         22    1    3    3    0    0 -0.31217512304E+02 -0.59176612367E+01  0.11845415056E+03  0.12264150021E+03  0.00000000000E+00 0.  1.
</event>
<event>
 7    1  0.7802682E-006  0.5997556E+02  0.7818608E-02  0.1530124E+00
          2   -1    0    0  502    0  0.00000000000E+00  0.00000000000E+00  0.19789226604E+03  0.19789226604E+03  0.00000000000E+00 0. -1.
          1   -1    0    0  501    0 -0.00000000000E+00 -0.00000000000E+00 -0.17113234263E+03  0.17113234263E+03  0.00000000000E+00 0. -1.
         25    2    1    2    0    0  0.27311146601E+02 -0.27001764649E+02  0.12239484971E+03  0.17911037609E+03  0.12500013425E+03 0.  0.
          2    1    1    2  501    0 -0.47372188506E+02  0.38328242725E+02 -0.13284265948E+03  0.14615180673E+03  0.00000000000E+00 0. -1.
          1    1    1    2  502    0  0.20061041905E+02 -0.11326478076E+02  0.37207733177E+02  0.43762425848E+02  0.00000000000E+00 0. -1.
         22    1    3    3    0    0  0.36061227484E+02  0.12488819118E+02  0.13211005545E+03  0.13751163399E+03  0.00000000000E+00 0. -1.
         22    1    3    3    0    0 -0.87500808827E+01 -0.39490583767E+02 -0.97152057365E+01  0.41598742099E+02  0.00000000000E+00 0. -1.
</event>
<event>
 7    1  0.7802682E-006  0.5795947E+02  0.7818608E-02  0.1455867E+00
          2   -1    0    0  502    0  0.00000000000E+00  0.00000000000E+00  0.42852082942E+03  0.42852082942E+03  0.00000000000E+00 0. -1.
          1   -1    0    0  501    0 -0.00000000000E+00 -0.00000000000E+00 -0.11531126834E+03  0.11531126834E+03  0.00000000000E+00 0. -1.
         25    2    1    2    0    0  0.32441639733E+02  0.75487260710E+01  0.16901667941E+03  0.21284602663E+03  0.12500939917E+03 0.  0.
          2    1    1    2  501    0  0.12269827773E+02  0.37985417089E+02 -0.84554651759E+02  0.93503634791E+02  0.00000000000E+00 0. -1.
          1    1    1    2  502    0 -0.44711467505E+02 -0.45534143160E+02  0.22874753342E+03  0.23748243633E+03  0.00000000000E+00 0. -1.
         22    1    3    3    0    0 -0.14048753337E+02 -0.50727869453E+02  0.89630989101E+02  0.10394420819E+03  0.00000000000E+00 0. -1.
         22    1    3    3    0    0  0.46490393070E+02  0.58276595524E+02  0.79385690310E+02  0.10890181844E+03  0.00000000000E+00 0. -1.
</event>
<event>
 7    1  0.7802682E-006  0.1160671E+03  0.7818608E-02  0.1367314E+00
          2   -1    0    0  502    0  0.00000000000E+00  0.00000000000E+00  0.77615727275E+03  0.77615727275E+03  0.00000000000E+00 0. -1.
          1   -1    0    0  501    0 -0.00000000000E+00 -0.00000000000E+00 -0.19573461864E+03  0.19573461864E+03  0.00000000000E+00 0. -1.
         25    2    1    2    0    0 -0.30678751699E+02 -0.13916921353E+03  0.21027308563E+03  0.28310691620E+03  0.12500199862E+03 0.  0.
          2    1    1    2  501    0 -0.15050722457E+02  0.36784832463E+02 -0.15077650149E+03  0.15592691091E+03  0.00000000000E+00 0. -1.
          1    1    1    2  502    0  0.45729474156E+02  0.10238438107E+03  0.52092606997E+03  0.53285806428E+03  0.00000000000E+00 0. -1.
         22    1    3    3    0    0  0.33442744141E+02 -0.11488774850E+03  0.11707179723E+03  0.16740196414E+03  0.00000000000E+00 0. -1.
         22    1    3    3    0    0 -0.64121495841E+02 -0.24281465034E+02  0.93201288391E+02  0.11570495206E+03  0.00000000000E+00 0. -1.
</event>
<event>
 7    1  0.7802682E-006  0.1062298E+03  0.7818608E-02  0.1417010E+00
          2   -1    0    0  502    0  0.00000000000E+00  0.00000000000E+00  0.59042036750E+02  0.59042036750E+02  0.00000000000E+00 0. -1.
          1   -1    0    0  501    0 -0.00000000000E+00 -0.00000000000E+00 -0.11154232321E+04  0.11154232321E+04  0.00000000000E+00 0. -1.
         25    2    1    2    0    0  0.73484636680E+02 -0.53295311875E+02 -0.52360822734E+03  0.54592273196E+03  0.12500268573E+03 0.  0.
          2    1    1    2  501    0 -0.31107304979E+01 -0.28995508610E+02 -0.51850899232E+03  0.51932840408E+03  0.00000000000E+00 0. -1.
          1    1    1    2  502    0 -0.70373906182E+02  0.82290820485E+02 -0.14263975714E+02  0.10921413283E+03  0.00000000000E+00 0. -1.
         22    1    3    3    0    0 -0.11296476932E+02  0.28071429589E+02 -0.18608024473E+03  0.18852446268E+03  0.00000000000E+00 0.  1.
         22    1    3    3    0    0  0.84781113613E+02 -0.81366741465E+02 -0.33752798261E+03  0.35739826928E+03  0.00000000000E+00 0.  1.
</event>
<event>
 7    1  0.7802682E-006  0.1408966E+03  0.7818608E-02  0.1218368E+00
          2   -1    0    0  502    0  0.00000000000E+00  0.00000000000E+00  0.68020686322E+03  0.68020686322E+03  0.00000000000E+00 0. -1.
          1   -1    0    0  501    0 -0.00000000000E+00 -0.00000000000E+00 -0.55218765981E+03  0.55218765981E+03  0.00000000000E+00 0. -1.
         25    2    1    2    0    0 -0.43409948294E+02 -0.25097116212E+03  0.69923636875E+02  0.29220675056E+03  0.12499808899E+03 0.  0.
          2    1    1    2  501    0 -0.13044998260E+02  0.13124599872E+03 -0.42202494783E+03  0.44215465704E+03  0.00000000000E+00 0. -1.
          1    1    1    2  502    0  0.56454946554E+02  0.11972516341E+03  0.48012051437E+03  0.49803311542E+03  0.00000000000E+00 0. -1.
         22    1    3    3    0    0  0.40800988505E+02 -0.92197249274E+02  0.44222449962E+01  0.10091882722E+03  0.00000000000E+00 0. -1.
         22    1    3    3    0    0 -0.84210936799E+02 -0.15877391285E+03  0.65501391879E+02  0.19128792334E+03  0.00000000000E+00 0. -1.
</event>
<event>
 7    1  0.7802682E-006  0.4913620E+02  0.7818608E-02  0.1452411E+00
          2   -1    0    0  502    0  0.00000000000E+00  0.00000000000E+00  0.66863809404E+01  0.66863809404E+01  0.00000000000E+00 0. -1.
          1   -1    0    0  501    0 -0.00000000000E+00 -0.00000000000E+00 -0.21863886086E+04  0.21863886086E+04  0.00000000000E+00 0. -1.
         25    2    1    2    0    0  0.53939836930E+01 -0.24100783969E+02 -0.12625504826E+04  0.12689633982E+04  0.12499776800E+03 0.  0.
          2    1    1    2  501    0 -0.37396424143E+02 -0.30556635665E+02 -0.32240160905E+03  0.32599846325E+03  0.00000000000E+00 0. -1.
          1    1    1    2  502    0  0.32002440450E+02  0.54657419633E+02 -0.59475013594E+03  0.59811312802E+03  0.00000000000E+00 0. -1.
         22    1    3    3    0    0 -0.47050193883E+02 -0.65474758959E+01 -0.97419175305E+03  0.97534925124E+03  0.00000000000E+00 0. -1.
         22    1    3    3    0    0  0.52444177576E+02 -0.17553308073E+02 -0.28835872957E+03  0.29361414698E+03  0.00000000000E+00 0. -1.
</event>
<event>
 7    1  0.7802682E-006  0.1299842E+03  0.7818608E-02  0.1345910E+00
          2   -1    0    0  502    0  0.00000000000E+00  0.00000000000E+00  0.15366242408E+04  0.15366242408E+04  0.00000000000E+00 0. -1.
          1   -1    0    0  501    0 -0.00000000000E+00 -0.00000000000E+00 -0.53867673790E+02  0.53867673790E+02  0.00000000000E+00 0. -1.
         25    2    1    2    0    0  0.15605150948E+02  0.11195244102E+03  0.29776400292E+03  0.34214592339E+03  0.12499424656E+03 0.  0.
          2    1    1    2  501    0 -0.54808160836E+02 -0.12842275808E+03  0.12471744525E+03  0.18721853657E+03  0.00000000000E+00 0. -1.
          1    1    1    2  502    0  0.39203009887E+02  0.16470317054E+02  0.10602751189E+04  0.10611274547E+04  0.00000000000E+00 0. -1.
         22    1    3    3    0    0  0.13129481219E+02  0.82676897346E+02  0.61035140046E+02  0.10360087332E+03  0.00000000000E+00 0. -1.
         22    1    3    3    0    0  0.24756697288E+01  0.29275543675E+02  0.23672886287E+03  0.23854505007E+03  0.00000000000E+00 0. -1.
</event>
<event>
 7    1  0.7802682E-006  0.8646149E+02  0.7818608E-02  0.1387328E+00
          2   -1    0    0  502    0  0.00000000000E+00  0.00000000000E+00  0.13423022394E+04  0.13423022394E+04  0.00000000000E+00 0. -1.
          1   -1    0    0  501    0 -0.00000000000E+00 -0.00000000000E+00 -0.40872841241E+03  0.40872841241E+03  0.00000000000E+00 0. -1.
         25    2    1    2    0    0 -0.96947413849E+02 -0.53694377795E+02  0.45878639919E+01  0.16711917051E+03  0.12500352554E+03 0.  0.
          2    1    1    2  501    0  0.11345019055E+02  0.43845415851E+02 -0.32441054271E+03  0.32755660605E+03  0.00000000000E+00 0. -1.
          1    1    1    2  502    0  0.85602394795E+02  0.98489619445E+01  0.12533965057E+04  0.12563548753E+04  0.00000000000E+00 0. -1.
         22    1    3    3    0    0 -0.54051779410E+02  0.35497482034E+02 -0.14629225611E+02  0.66299927075E+02  0.00000000000E+00 0. -1.
         22    1    3    3    0    0 -0.42895634440E+02 -0.89191859830E+02  0.19217089603E+02  0.10081924343E+03  0.00000000000E+00 0. -1.
</event>
<event>
 7    1  0.7802682E-006  0.1202531E+03  0.7818608E-02  0.1399498E+00
          2   -1    0    0  502    0  0.00000000000E+00  0.00000000000E+00  0.12862960697E+03  0.12862960697E+03  0.00000000000E+00 0. -1.
          1   -1    0    0  501    0 -0.00000000000E+00 -0.00000000000E+00 -0.38188060005E+03  0.38188060005E+03  0.00000000000E+00 0. -1.
         25    2    1    2    0    0  0.52432106128E+02  0.91240834863E+02 -0.19063157211E+03  0.25107683448E+03  0.12500065930E+03 0.  0.
          2    1    1    2  501    0 -0.63199749936E+02 -0.11875243400E+03 -0.12924627532E+03  0.18655012371E+03  0.00000000000E+00 0. -1.
          1    1    1    2  502    0  0.10767643808E+02  0.27511599134E+02  0.66626854349E+02  0.72883248833E+02  0.00000000000E+00 0. -1.
         22    1    3    3    0    0 -0.83123775498E+01  0.53499415303E+02 -0.77288607526E+01  0.54690203390E+02  0.00000000000E+00 0. -1.
         22    1    3    3    0    0  0.60744483678E+02  0.37741419560E+02 -0.18290271136E+03  0.19638663109E+03  0.00000000000E+00 0. -1.
</event>
<event>
 7    1  0.7802682E-006  0.1470716E+03  0.7818608E-02  0.1262108E+00
          2   -1    0    0  502    0  0.00000000000E+00  0.00000000000E+00  0.79252239687E+03  0.79252239687E+03  0.00000000000E+00 0. -1.
          1   -1    0    0  501    0 -0.00000000000E+00 -0.00000000000E+00 -0.52362200470E+03  0.52362200470E+03  0.00000000000E+00 0. -1.
         25    2    1    2    0    0  0.10649359244E+02  0.74790091984E+02 -0.97663809253E+01  0.14637818380E+03  0.12499689510E+03 0.  0.
          2    1    1    2  501    0 -0.13116901993E+02  0.79972761465E+02 -0.43348119551E+03  0.44099165815E+03  0.00000000000E+00 0. -1.
          1    1    1    2  502    0  0.24675427498E+01 -0.15476285345E+03  0.71214796861E+03  0.72877455963E+03  0.00000000000E+00 0. -1.
         22    1    3    3    0    0  0.27831628042E+02 -0.24904558998E+02 -0.23738657642E+02  0.44253366482E+02  0.00000000000E+00 0. -1.
         22    1    3    3    0    0 -0.17182268798E+02  0.99694650982E+02  0.13972276717E+02  0.10212481732E+03  0.00000000000E+00 0. -1.
</event>
<event>
 7    1  0.7802682E-006  0.7091531E+02  0.7818608E-02  0.1357631E+00
          2   -1    0    0  502    0  0.00000000000E+00  0.00000000000E+00  0.12385987319E+04  0.12385987319E+04  0.00000000000E+00 0. -1.
          1   -1    0    0  501    0 -0.00000000000E+00 -0.00000000000E+00 -0.11405505889E+04  0.11405505889E+04  0.00000000000E+00 0. -1.
         25    2    1    2    0    0 -0.21027562138E+02  0.39512506072E+01  0.76106079410E+02  0.14789837816E+03  0.12499609669E+03 0.  0.
          2    1    1    2  501    0  0.26944718819E+02  0.66343443653E+02 -0.11023874233E+04  0.11047105963E+04  0.00000000000E+00 0. -1.
          1    1    1    2  502    0 -0.59171566815E+01 -0.70294694261E+02  0.11243294870E+04  0.11265403464E+04  0.00000000000E+00 0. -1.
         22    1    3    3    0    0 -0.43848408362E+02  0.51283360804E+02  0.66006424942E+02  0.94390222719E+02  0.00000000000E+00 0. -1.
         22    1    3    3    0    0  0.22820846224E+02 -0.47332110197E+02  0.10099654468E+02  0.53508155439E+02  0.00000000000E+00 0. -1.
</event>
<event>
 7    1  0.7802682E-006  0.8529464E+02  0.7818608E-02  0.1350298E+00
          2   -1    0    0  502    0  0.00000000000E+00  0.00000000000E+00  0.58415920668E+03  0.58415920668E+03  0.00000000000E+00 0. -1.
          1   -1    0    0  501    0 -0.00000000000E+00 -0.00000000000E+00 -0.60922857154E+03  0.60922857154E+03  0.00000000000E+00 0. -1.
         25    2    1    2    0    0 -0.12742983709E+03  0.25264751087E+02  0.21822680455E+03  0.28306426374E+03  0.12500307259E+03 0.  0.
          2    1    1    2  501    0  0.59979601727E+02  0.17260457797E+02 -0.57031701106E+03  0.57372203124E+03  0.00000000000E+00 0. -1.
          1    1    1    2  502    0  0.67450235362E+02 -0.42525208884E+02  0.32702084165E+03  0.33660148323E+03  0.00000000000E+00 0. -1.
         22    1    3    3    0    0  0.65161322666E+01  0.26432624911E+02  0.25718238893E+00  0.27225168176E+02  0.00000000000E+00 0. -1.
         22    1    3    3    0    0 -0.13394596936E+03 -0.11678738247E+01  0.21796962216E+03  0.25583909557E+03  0.00000000000E+00 0. -1.
</event>
<event>
 7    1  0.7802682E-006  0.7470075E+02  0.7818608E-02  0.1447957E+00
          2   -1    0    0  502    0  0.00000000000E+00  0.00000000000E+00  0.81076472506E+02  0.81076472506E+02  0.00000000000E+00 0. -1.
          1   -1    0    0  501    0 -0.00000000000E+00 -0.00000000000E+00 -0.27288512212E+04  0.27288512212E+04  0.00000000000E+00 0. -1.
         25    2    1    2    0    0 -0.55692461474E+02  0.82214080158E+02 -0.21587594660E+03  0.26849338161E+03  0.12500186563E+03 0.  0.
          2    1    1    2  501    0  0.25306222078E+02 -0.69797722018E+02 -0.24811424532E+04  0.24822530088E+04  0.00000000000E+00 0. -1.
          1    1    1    2  502    0  0.30386239396E+02 -0.12416358140E+02  0.49243651034E+02  0.59181303308E+02  0.00000000000E+00 0. -1.
         22    1    3    3    0    0  0.18650348775E+02 -0.11559908352E+02 -0.31651576826E+00  0.21944638817E+02  0.00000000000E+00 0.  1.
         22    1    3    3    0    0 -0.74342810250E+02  0.93773988511E+02 -0.21555943083E+03  0.24654874280E+03  0.00000000000E+00 0.  1.
</event>
<event>
 7    1  0.7802682E-006  0.2293901E+02  0.7818608E-02  0.1701651E+00
          2   -1    0    0  502    0  0.00000000000E+00  0.00000000000E+00  0.61290071753E+03  0.61290071753E+03  0.00000000000E+00 0. -1.
          1   -1    0    0  501    0 -0.00000000000E+00 -0.00000000000E+00 -0.41862249704E+03  0.41862249704E+03  0.00000000000E+00 0. -1.
         25    2    1    2    0    0  0.22049245004E+02 -0.12346506534E+02  0.15917319746E+03  0.20395991608E+03  0.12499974059E+03 0.  0.
          2    1    1    2  501    0 -0.19149704829E+02 -0.10516598622E+02 -0.39561968958E+03  0.39622247390E+03  0.00000000000E+00 0. -1.
          1    1    1    2  502    0 -0.28995401749E+01  0.22863105156E+02  0.43072471260E+03  0.43134082459E+03  0.00000000000E+00 0. -1.
         22    1    3    3    0    0  0.68281384915E+02 -0.31466641041E+02  0.76033516782E+02  0.10692797903E+03  0.00000000000E+00 0.  1.
         22    1    3    3    0    0 -0.46232139911E+02  0.19120134507E+02  0.83139680683E+02  0.97031937053E+02  0.00000000000E+00 0.  1.
</event>
<event>
 7    1  0.7802682E-006  0.1982231E+03  0.7818608E-02  0.1334744E+00
          2   -1    0    0  502    0  0.00000000000E+00  0.00000000000E+00  0.15761854193E+04  0.15761854193E+04  0.00000000000E+00 0. -1.
          1   -1    0    0  501    0 -0.00000000000E+00 -0.00000000000E+00 -0.23687614623E+03  0.23687614623E+03  0.00000000000E+00 0. -1.
         25    2    1    2    0    0  0.74447666014E+02  0.20821645229E+03  0.55430127396E+03  0.60973058307E+03  0.12499974256E+03 0.  0.
          2    1    1    2  501    0 -0.13739088297E+02 -0.27470079557E+02 -0.19882947869E+03  0.20118779639E+03  0.00000000000E+00 0. -1.
          1    1    1    2  502    0 -0.60708577716E+02 -0.18074637273E+03  0.98383747779E+03  0.10021431861E+04  0.00000000000E+00 0. -1.
         22    1    3    3    0    0  0.10493271173E+03  0.16091705096E+03  0.36813049855E+03  0.41524117720E+03  0.00000000000E+00 0.  1.
         22    1    3    3    0    0 -0.30485045719E+02  0.47299401329E+02  0.18617077541E+03  0.19448940587E+03  0.00000000000E+00 0.  1.
</event>
<event>
 7    1  0.7802682E-006  0.8287951E+02  0.7818608E-02  0.1351496E+00
          2   -1    0    0  502    0  0.00000000000E+00  0.00000000000E+00  0.19679794910E+04  0.19679794910E+04  0.00000000000E+00 0. -1.
          1   -1    0    0  501    0 -0.00000000000E+00 -0.00000000000E+00 -0.16526081224E+03  0.16526081224E+03  0.00000000000E+00 0. -1.
         25    2    1    2    0    0 -0.31164674948E+02 -0.45218454080E+02  0.20486755965E+02  0.13806111032E+03  0.12500086984E+03 0.  0.
          2    1    1    2  501    0  0.90524617018E+02  0.22439433335E+02 -0.85404925379E+02  0.12646041172E+03  0.00000000000E+00 0. -1.
          1    1    1    2  502    0 -0.59359942069E+02  0.22779020745E+02  0.18676368482E+04  0.18687187812E+04  0.00000000000E+00 0. -1.
         22    1    3    3    0    0  0.17501040941E+02 -0.20403985268E+00 -0.42905169466E+02  0.46337691280E+02  0.00000000000E+00 0.  1.
         22    1    3    3    0    0 -0.48665715889E+02 -0.45014414227E+02  0.63391925431E+02  0.91723419044E+02  0.00000000000E+00 0.  1.
</event>
<event>
 7    1  0.7802682E-006  0.1523334E+03  0.7818608E-02  0.1266986E+00
          2   -1    0    0  502    0  0.00000000000E+00  0.00000000000E+00  0.12041238094E+04  0.12041238094E+04  0.00000000000E+00 0. -1.
          1   -1    0    0  501    0 -0.00000000000E+00 -0.00000000000E+00 -0.59983183827E+03  0.59983183827E+03  0.00000000000E+00 0. -1.
         25    2    1    2    0    0  0.10007885487E+03  0.51230376480E+02 -0.64705458283E+02  0.18013907416E+03  0.12499184390E+03 0.  0.
          2    1    1    2  501    0 -0.16352151552E+03 -0.11973536080E+02 -0.46206695080E+03  0.49029431837E+03  0.00000000000E+00 0. -1.
          1    1    1    2  502    0  0.63442660654E+02 -0.39256840401E+02  0.11310643803E+04  0.11335222552E+04  0.00000000000E+00 0. -1.
         22    1    3    3    0    0  0.17078976562E+02  0.67046802390E+02 -0.66023913987E+02  0.95635361501E+02  0.00000000000E+00 0. -1.
         22    1    3    3    0    0  0.82999878304E+02 -0.15816425910E+02  0.13184557042E+01  0.84503712655E+02  0.00000000000E+00 0. -1.
</event>
<event>
 7    1  0.7802682E-006  0.1733432E+03  0.7818608E-02  0.1309711E+00
          2   -1    0    0  502    0  0.00000000000E+00  0.00000000000E+00  0.73981911285E+03  0.73981911285E+03  0.00000000000E+00 0. -1.
          1   -1    0    0  501    0 -0.00000000000E+00 -0.00000000000E+00 -0.91754783699E+03  0.91754783699E+03  0.00000000000E+00 0. -1.
         25    2    1    2    0    0 -0.14224729364E+03  0.86282526614E+02  0.49632839270E+03  0.53818794240E+03  0.12500168397E+03 0.  0.
          2    1    1    2  501    0  0.12081292287E+03 -0.12458530403E+03 -0.88595035489E+03  0.90278751190E+03  0.00000000000E+00 0. -1.
          1    1    1    2  502    0  0.21434370771E+02  0.38302777420E+02  0.21189323805E+03  0.21639149553E+03  0.00000000000E+00 0. -1.
         22    1    3    3    0    0 -0.13608019509E+03  0.15570491908E+02  0.33644096745E+03  0.36325305820E+03  0.00000000000E+00 0. -1.
         22    1    3    3    0    0 -0.61670985569E+01  0.70712034706E+02  0.15988742525E+03  0.17493488420E+03  0.00000000000E+00 0. -1.
</event>
<event>
 7    1  0.7802682E-006  0.4088129E+02  0.7818608E-02  0.1543049E+00
          2   -1    0    0  502    0  0.00000000000E+00  0.00000000000E+00  0.23848308138E+03  0.23848308138E+03  0.00000000000E+00 0. -1.
          1   -1    0    0  501    0 -0.00000000000E+00 -0.00000000000E+00 -0.16371221694E+04  0.16371221694E+04  0.00000000000E+00 0. -1.
         25    2    1    2    0    0 -0.74524708146E+01  0.10204422617E+02 -0.24950500097E+02  0.12808418427E+03  0.12499344480E+03 0.  0.
          2    1    1    2  501    0  0.38097103483E+02 -0.15258791381E+02 -0.15590427309E+04  0.15595827829E+04  0.00000000000E+00 0. -1.
          1    1    1    2  502    0 -0.30644632668E+02  0.50543687644E+01  0.18535414293E+03  0.18793828364E+03  0.00000000000E+00 0. -1.
         22    1    3    3    0    0 -0.27598289417E+02 -0.52717331611E+02 -0.13765260328E+02  0.61075895595E+02  0.00000000000E+00 0. -1.
         22    1    3    3    0    0  0.20145818602E+02  0.62921754228E+02 -0.11185239769E+02  0.67008288673E+02  0.00000000000E+00 0. -1.
</event>
<event>
 7    1  0.7802682E-006  0.1491431E+03  0.7818608E-02  0.1406979E+00
          2   -1    0    0  502    0  0.00000000000E+00  0.00000000000E+00  0.33833199844E+03  0.33833199844E+03  0.00000000000E+00 0. -1.
          1   -1    0    0  501    0 -0.00000000000E+00 -0.00000000000E+00 -0.20248928761E+04  0.20248928761E+04  0.00000000000E+00 0. -1.
         25    2    1    2    0    0  0.14742752426E+03  0.53330037585E+02 -0.70672506102E+03  0.73461897143E+03  0.12500301394E+03 0.  0.
          2    1    1    2  501    0 -0.15616797566E+02  0.16138106882E+02 -0.12870085224E+04  0.12872044358E+04  0.00000000000E+00 0. -1.
          1    1    1    2  502    0 -0.13181072670E+03 -0.69468144467E+02  0.30717270571E+03  0.34140146734E+03  0.00000000000E+00 0. -1.
         22    1    3    3    0    0  0.84469418799E+02  0.66167084954E+02 -0.23255370170E+03  0.25611401761E+03  0.00000000000E+00 0. -1.
         22    1    3    3    0    0  0.62958105465E+02 -0.12837047369E+02 -0.47417135932E+03  0.47850495381E+03  0.00000000000E+00 0. -1.
</event>
<event>
 7    1  0.7802682E-006  0.1068922E+03  0.7818608E-02  0.1281968E+00
          2   -1    0    0  502    0  0.00000000000E+00  0.00000000000E+00  0.38782114043E+03  0.38782114043E+03  0.00000000000E+00 0. -1.
          1   -1    0    0  501    0 -0.00000000000E+00 -0.00000000000E+00 -0.62633087391E+03  0.62633087391E+03  0.00000000000E+00 0. -1.
         25    2    1    2    0    0 -0.61728945237E+02  0.30947646667E+01 -0.13974568865E+03  0.19741905318E+03  0.12500153925E+03 0.  0.
          2    1    1    2  501    0 -0.40419301768E+01 -0.91989690212E+02 -0.44439980584E+03  0.45383876843E+03  0.00000000000E+00 0. -1.
          1    1    1    2  502    0  0.65770875414E+02  0.88894925546E+02  0.34563576100E+03  0.36289419273E+03  0.00000000000E+00 0. -1.
         22    1    3    3    0    0  0.27659455783E+02  0.47596786010E+01  0.37860533058E+01  0.28320208937E+02  0.00000000000E+00 0. -1.
         22    1    3    3    0    0 -0.89388401021E+02 -0.16649139342E+01 -0.14353174195E+03  0.16909884424E+03  0.00000000000E+00 0. -1.
</event>
<event>
 7    1  0.7802682E-006  0.5048266E+02  0.7818608E-02  0.1456261E+00
          2   -1    0    0  502    0  0.00000000000E+00  0.00000000000E+00  0.20963353582E+04  0.20963353582E+04  0.00000000000E+00 0. -1.
          1   -1    0    0  501    0 -0.00000000000E+00 -0.00000000000E+00 -0.19024805809E+02  0.19024805809E+02  0.00000000000E+00 0. -1.
         25    2    1    2    0    0 -0.66020972332E+02  0.36174525475E+02  0.10540129701E+04  0.10640633599E+04  0.12498050893E+03 0.  0.
          2    1    1    2  501    0  0.44983183777E+02  0.80530429904E+01  0.25565667362E+02  0.52363552895E+02  0.00000000000E+00 0. -1.
          1    1    1    2  502    0  0.21037788555E+02 -0.44227568465E+02  0.99773191488E+03  0.99893325118E+03  0.00000000000E+00 0. -1.
         22    1    3    3    0    0 -0.59454536100E+02  0.79708898853E+02  0.63427333746E+03  0.64202104096E+03  0.00000000000E+00 0. -1.
         22    1    3    3    0    0 -0.65664362323E+01 -0.43534373379E+02  0.41973963264E+03  0.42204231892E+03  0.00000000000E+00 0. -1.
</event>
<event>
 7    1  0.7802682E-006  0.2028049E+03  0.7818608E-02  0.1349889E+00
          2   -1    0    0  502    0  0.00000000000E+00  0.00000000000E+00  0.13793398498E+04  0.13793398498E+04  0.00000000000E+00 0. -1.
          1   -1    0    0  501    0 -0.00000000000E+00 -0.00000000000E+00 -0.48018894959E+03  0.48018894959E+03  0.00000000000E+00 0. -1.
         25    2    1    2    0    0 -0.79873609233E+02  0.20545475926E+03  0.29393228824E+03  0.38809480546E+03  0.12501974406E+03 0.  0.
          2    1    1    2  501    0  0.21807636075E+02 -0.14775128871E+02 -0.42312837745E+03  0.42394752178E+03  0.00000000000E+00 0. -1.
          1    1    1    2  502    0  0.58065973158E+02 -0.19067963039E+03  0.10283469894E+04  0.10474864721E+04  0.00000000000E+00 0. -1.
         22    1    3    3    0    0 -0.19387282265E+01  0.12126961830E+03  0.22117573090E+03  0.25224746368E+03  0.00000000000E+00 0. -1.
         22    1    3    3    0    0 -0.77934881006E+02  0.84185140963E+02  0.72756557332E+02  0.13584734179E+03  0.00000000000E+00 0. -1.
</event>
<event>
 7    1  0.7802682E-006  0.7866715E+02  0.7818608E-02  0.1467384E+00
          2   -1    0    0  502    0  0.00000000000E+00  0.00000000000E+00  0.28728199493E+03  0.28728199493E+03  0.00000000000E+00 0. -1.
          1   -1    0    0  501    0 -0.00000000000E+00 -0.00000000000E+00 -0.16107493989E+04  0.16107493989E+04  0.00000000000E+00 0. -1.
         25    2    1    2    0    0  0.98050890881E+02 -0.22922812366E+02 -0.14264329748E+04  0.14354354710E+04  0.12499810881E+03 0.  0.
          2    1    1    2  501    0 -0.19577157667E+02  0.18673727185E+02 -0.17328494434E+03  0.17538427844E+03  0.00000000000E+00 0. -1.
          1    1    1    2  502    0 -0.78473733215E+02  0.42490851813E+01  0.27625051519E+03  0.28721164439E+03  0.00000000000E+00 0. -1.
         22    1    3    3    0    0  0.29135384958E+02 -0.39397323856E+02 -0.16776155466E+03  0.17477116182E+03  0.00000000000E+00 0.  1.
         22    1    3    3    0    0  0.68915505923E+02  0.16474511490E+02 -0.12586714201E+04  0.12606643092E+04  0.00000000000E+00 0.  1.
</event>
<event>
 7    1  0.7802682E-006  0.7235501E+02  0.7818608E-02  0.1401348E+00
          2   -1    0    0  502    0  0.00000000000E+00  0.00000000000E+00  0.12704135551E+04  0.12704135551E+04  0.00000000000E+00 0. -1.
          1   -1    0    0  501    0 -0.00000000000E+00 -0.00000000000E+00 -0.13467891860E+04  0.13467891860E+04  0.00000000000E+00 0. -1.
         25    2    1    2    0    0  0.11595988275E+03  0.23346867681E+02  0.27047650540E+02  0.17421112764E+03  0.12500468375E+03 0.  0.
          2    1    1    2  501    0 -0.48384221353E+02  0.57956329293E+00 -0.12716486123E+04  0.12725688830E+04  0.00000000000E+00 0. -1.
          1    1    1    2  502    0 -0.67575661394E+02 -0.23926430974E+02  0.11682253309E+04  0.11704227305E+04  0.00000000000E+00 0. -1.
         22    1    3    3    0    0  0.84475150778E+02  0.74078052463E+02  0.15948157179E+02  0.11348106746E+03  0.00000000000E+00 0. -1.
         22    1    3    3    0    0  0.31484731969E+02 -0.50731184782E+02  0.11099493361E+02  0.60730060180E+02  0.00000000000E+00 0. -1.
</event>
<event>
 7    1  0.7802682E-006  0.9670573E+02  0.7818608E-02  0.1319208E+00
          2   -1    0    0  502    0  0.00000000000E+00  0.00000000000E+00  0.28557723055E+03  0.28557723055E+03  0.00000000000E+00 0. -1.
          1   -1    0    0  501    0 -0.00000000000E+00 -0.00000000000E+00 -0.34657924544E+03  0.34657924544E+03  0.00000000000E+00 0. -1.
         25    2    1    2    0    0  0.76647399432E+02 -0.42560373012E+01 -0.16609601291E+03  0.22159750720E+03  0.12499852800E+03 0.  0.
          2    1    1    2  501    0 -0.98452786375E+02  0.73108855486E+02 -0.12156414964E+03  0.17267222815E+03  0.00000000000E+00 0. -1.
          1    1    1    2  502    0  0.21805386943E+02 -0.68852818185E+02  0.22665814766E+03  0.23788674064E+03  0.00000000000E+00 0. -1.
         22    1    3    3    0    0  0.78499550689E+02 -0.65393932357E+01 -0.18573040314E+03  0.20174420878E+03  0.00000000000E+00 0.  1.
         22    1    3    3    0    0 -0.18521512574E+01  0.22833559345E+01  0.19634390235E+02  0.19853298429E+02  0.00000000000E+00 0.  1.
</event>
<event>
 7    1  0.7802682E-006  0.9396670E+02  0.7818608E-02  0.1343455E+00
          2   -1    0    0  502    0  0.00000000000E+00  0.00000000000E+00  0.49609902449E+03  0.49609902449E+03  0.00000000000E+00 0. -1.
          1   -1    0    0  501    0 -0.00000000000E+00 -0.00000000000E+00 -0.15844036450E+03  0.15844036450E+03  0.00000000000E+00 0. -1.
         25    2    1    2    0    0  0.86309968574E+02 -0.21905245055E+02  0.18195024945E+03  0.23803376548E+03  0.12499971919E+03 0.  0.
          2    1    1    2  501    0  0.62060675033E+01  0.59754908685E+02 -0.11400474356E+03  0.12886522394E+03  0.00000000000E+00 0. -1.
          1    1    1    2  502    0 -0.92516036077E+02 -0.37849663630E+02  0.26971315411E+03  0.28764039957E+03  0.00000000000E+00 0. -1.
         22    1    3    3    0    0 -0.22209342649E+02  0.60465106382E+01 -0.14979058685E+01  0.23066402272E+02  0.00000000000E+00 0.  1.
         22    1    3    3    0    0  0.10851931122E+03 -0.27951755693E+02  0.18344815531E+03  0.21496736320E+03  0.00000000000E+00 0.  1.
</event>
<event>
 7    1  0.7802682E-006  0.1297966E+03  0.7818608E-02  0.1367031E+00
          2   -1    0    0  502    0  0.00000000000E+00  0.00000000000E+00  0.42438353860E+03  0.42438353860E+03  0.00000000000E+00 0. -1.
          1   -1    0    0  501    0 -0.00000000000E+00 -0.00000000000E+00 -0.36075306455E+04  0.36075306455E+04  0.00000000000E+00 0. -1.
         25    2    1    2    0    0  0.12232256009E+02 -0.13257787583E+03  0.23915849531E+03  0.30091178897E+03  0.12499839046E+03 0.  0.
          2    1    1    2  501    0 -0.46044942773E+02  0.12136184000E+03 -0.35734042345E+04  0.35757609898E+04  0.00000000000E+00 0. -1.
          1    1    1    2  502    0  0.33812686764E+02  0.11216035836E+02  0.15109863230E+03  0.15524140533E+03  0.00000000000E+00 0. -1.
         22    1    3    3    0    0  0.49433503878E+02 -0.53572981158E+01  0.57131629483E+02  0.75738992838E+02  0.00000000000E+00 0. -1.
         22    1    3    3    0    0 -0.37201247869E+02 -0.12722057772E+03  0.18202686582E+03  0.22517279613E+03  0.00000000000E+00 0. -1.
</event>
<event>
 7    1  0.7802682E-006  0.2698189E+03  0.7818608E-02  0.1172159E+00
          2   -1    0    0  502    0  0.00000000000E+00  0.00000000000E+00  0.28206888763E+03  0.28206888763E+03  0.00000000000E+00 0. -1.
          1   -1    0    0  501    0 -0.00000000000E+00 -0.00000000000E+00 -0.12736920828E+04  0.12736920828E+04  0.00000000000E+00 0. -1.
         25    2    1    2    0    0 -0.14770034730E+02  0.17673423919E+03 -0.63159472390E+02  0.22598093380E+03  0.12500047304E+03 0.  0.
          2    1    1    2  501    0  0.19908000755E+02 -0.29086400073E+03 -0.10920233312E+04  0.11302712733E+04  0.00000000000E+00 0. -1.
          1    1    1    2  502    0 -0.51379660259E+01  0.11412976155E+03  0.16355960837E+03  0.19950876335E+03  0.00000000000E+00 0. -1.
         22    1    3    3    0    0  0.65881017043E+01  0.10187291210E+03  0.28241778163E+02  0.10592021213E+03  0.00000000000E+00 0. -1.
         22    1    3    3    0    0 -0.21358136434E+02  0.74861327089E+02 -0.91401250553E+02  0.12006072167E+03  0.00000000000E+00 0. -1.
</event>
<event>
 7    1  0.7802682E-006  0.5404140E+02  0.7818608E-02  0.1457001E+00
          2   -1    0    0  502    0  0.00000000000E+00  0.00000000000E+00  0.32125132235E+04  0.32125132235E+04  0.00000000000E+00 0. -1.
          1   -1    0    0  501    0 -0.00000000000E+00 -0.00000000000E+00 -0.51022345272E+03  0.51022345272E+03  0.00000000000E+00 0. -1.
         25    2    1    2    0    0 -0.50354016333E+02 -0.75395474588E+02  0.14779111310E+03  0.21374571595E+03  0.12500005371E+03 0.  0.
          2    1    1    2  501    0  0.15207657395E+02  0.51572958258E+02 -0.47558250622E+03  0.47861233069E+03  0.00000000000E+00 0. -1.
          1    1    1    2  502    0  0.35146358938E+02  0.23822516330E+02  0.30300811639E+04  0.30303786295E+04  0.00000000000E+00 0. -1.
         22    1    3    3    0    0 -0.54514059813E+02 -0.10265273080E+03  0.14528857828E+03  0.18605949811E+03  0.00000000000E+00 0.  1.
         22    1    3    3    0    0  0.41600434799E+01  0.27257256214E+02  0.25025348225E+01  0.27686217845E+02  0.00000000000E+00 0.  1.
</event>
<event>
 7    1  0.7802682E-006  0.1121081E+03  0.7818608E-02  0.1367780E+00
          2   -1    0    0  502    0  0.00000000000E+00  0.00000000000E+00  0.19063165417E+03  0.19063165417E+03  0.00000000000E+00 0. -1.
          1   -1    0    0  501    0 -0.00000000000E+00 -0.00000000000E+00 -0.10949935986E+04  0.10949935986E+04  0.00000000000E+00 0. -1.
         25    2    1    2    0    0 -0.95194880469E+02  0.29839467959E+02 -0.13176780704E+03  0.20722146609E+03  0.12500208767E+03 0.  0.
          2    1    1    2  501    0  0.51023315531E+01  0.40670721233E+02 -0.90356960372E+03  0.90449885026E+03  0.00000000000E+00 0. -1.
          1    1    1    2  502    0  0.90092548916E+02 -0.70510189191E+02  0.13097546629E+03  0.17390493645E+03  0.00000000000E+00 0. -1.
         22    1    3    3    0    0  0.26162936224E+02  0.11021481856E+02 -0.56369090468E+02  0.63114551843E+02  0.00000000000E+00 0.  1.
         22    1    3    3    0    0 -0.12135781669E+03  0.18817986103E+02 -0.75398716568E+02  0.14410691425E+03  0.00000000000E+00 0.  1.
</event>
<event>
 7    1  0.7802682E-006  0.6699881E+02  0.7818608E-02  0.1412403E+00
          2   -1    0    0  502    0  0.00000000000E+00  0.00000000000E+00  0.26610099144E+03  0.26610099144E+03  0.00000000000E+00 0. -1.
          1   -1    0    0  501    0 -0.00000000000E+00 -0.00000000000E+00 -0.19476287314E+03  0.19476287314E+03  0.00000000000E+00 0. -1.
         25    2    1    2    0    0  0.65480055307E+02 -0.16866373228E+01 -0.28357422079E+02  0.14394403128E+03  0.12500103346E+03 0.  0.
          2    1    1    2  501    0 -0.53899006531E+02 -0.44811182284E+02 -0.94072383326E+02  0.11731478282E+03  0.00000000000E+00 0. -1.
          1    1    1    2  502    0 -0.11581048776E+02  0.46497819607E+02  0.19376792371E+03  0.19960505048E+03  0.00000000000E+00 0. -1.
         22    1    3    3    0    0 -0.28240154837E+02 -0.14933512843E+02 -0.37018666634E+02  0.48896807977E+02  0.00000000000E+00 0. -1.
         22    1    3    3    0    0  0.93720210144E+02  0.13246875520E+02  0.86612445547E+01  0.95047223304E+02  0.00000000000E+00 0. -1.
</event>
<event>
 7    1  0.7802682E-006  0.4502062E+02  0.7818608E-02  0.1519504E+00
          2   -1    0    0  502    0  0.00000000000E+00  0.00000000000E+00  0.22824317120E+03  0.22824317120E+03  0.00000000000E+00 0. -1.
          1   -1    0    0  501    0 -0.00000000000E+00 -0.00000000000E+00 -0.72191772617E+03  0.72191772617E+03  0.00000000000E+00 0. -1.
         25    2    1    2    0    0  0.58091388947E+01  0.16272465571E+02 -0.16071738585E+03  0.20433746589E+03  0.12500073048E+03 0.  0.
          2    1    1    2  501    0  0.31464583689E+02  0.97268503133E+01 -0.53637793948E+03  0.53738805867E+03  0.00000000000E+00 0. -1.
          1    1    1    2  502    0 -0.37273722584E+02 -0.25999315885E+02  0.20342077037E+03  0.20843537281E+03  0.00000000000E+00 0. -1.
         22    1    3    3    0    0  0.37105093652E+02 -0.31457566276E+02 -0.20203081072E+02  0.52673816416E+02  0.00000000000E+00 0.  1.
         22    1    3    3    0    0 -0.31295954758E+02  0.47730031848E+02 -0.14051430478E+03  0.15166364947E+03  0.00000000000E+00 0.  1.
</event>
<event>
 7    1  0.7802682E-006  0.6912049E+02  0.7818608E-02  0.1373172E+00
          2   -1    0    0  502    0  0.00000000000E+00  0.00000000000E+00  0.24182256582E+03  0.24182256582E+03  0.00000000000E+00 0. -1.
          1   -1    0    0  501    0 -0.00000000000E+00 -0.00000000000E+00 -0.10814730210E+04  0.10814730210E+04  0.00000000000E+00 0. -1.
         25    2    1    2    0    0 -0.49928492398E+02  0.59535651849E+02  0.67071231590E+02  0.16174422225E+03  0.12500118051E+03 0.  0.
          2    1    1    2  501    0  0.69315702512E+02  0.10181080645E+01 -0.10249601232E+04  0.10273017850E+04  0.00000000000E+00 0. -1.
          1    1    1    2  502    0 -0.19387210114E+02 -0.60553759914E+02  0.11823843649E+03  0.13424957958E+03  0.00000000000E+00 0. -1.
         22    1    3    3    0    0 -0.82098364470E+02  0.71744356181E+02  0.34481938427E+02  0.11435207987E+03  0.00000000000E+00 0. -1.
         22    1    3    3    0    0  0.32169872072E+02 -0.12208704331E+02  0.32589293163E+02  0.47392142381E+02  0.00000000000E+00 0. -1.
</event>
<event>
 7    1  0.7802682E-006  0.3362597E+02  0.7818608E-02  0.1602000E+00
          2   -1    0    0  502    0  0.00000000000E+00  0.00000000000E+00  0.96955273913E+02  0.96955273913E+02  0.00000000000E+00 0. -1.
          1   -1    0    0  501    0 -0.00000000000E+00 -0.00000000000E+00 -0.21140994155E+04  0.21140994155E+04  0.00000000000E+00 0. -1.
         25    2    1    2    0    0  0.28865036700E+02 -0.21366682474E+02 -0.89676143200E+03  0.90614316438E+03  0.12499857187E+03 0.  0.
          2    1    1    2  501    0 -0.23315401960E+02 -0.11824994809E+02 -0.12094325679E+04  0.12097150800E+04  0.00000000000E+00 0. -1.
          1    1    1    2  502    0 -0.55496347399E+01  0.33191677283E+02  0.89049858300E+02  0.95196445048E+02  0.00000000000E+00 0. -1.
         22    1    3    3    0    0  0.45207638113E+02  0.87855117687E+01 -0.82822629676E+03  0.82950570487E+03  0.00000000000E+00 0.  1.
         22    1    3    3    0    0 -0.16342601412E+02 -0.30152194243E+02 -0.68535135232E+02  0.76637459508E+02  0.00000000000E+00 0.  1.
</event>
<event>
 7    1  0.7802682E-006  0.4528902E+02  0.7818608E-02  0.1590733E+00
          2   -1    0    0  502    0  0.00000000000E+00  0.00000000000E+00  0.85002582102E+03  0.85002582102E+03  0.00000000000E+00 0. -1.
          1   -1    0    0  501    0 -0.00000000000E+00 -0.00000000000E+00 -0.17420198322E+04  0.17420198322E+04  0.00000000000E+00 0. -1.
         25    2    1    2    0    0 -0.18048249165E+02  0.58359091102E+02  0.71621261067E+03  0.72960067605E+03  0.12500047998E+03 0.  0.
          2    1    1    2  501    0  0.19338060039E+01 -0.45242074664E+02 -0.17341791898E+04  0.17347703154E+04  0.00000000000E+00 0. -1.
          1    1    1    2  502    0  0.16114443161E+02 -0.13117016438E+02  0.12597256791E+03  0.12767466179E+03  0.00000000000E+00 0. -1.
         22    1    3    3    0    0  0.52207332306E+02  0.83417978051E+01  0.26665139627E+03  0.27184215691E+03  0.00000000000E+00 0.  1.
         22    1    3    3    0    0 -0.70255581471E+02  0.50017293297E+02  0.44956121440E+03  0.45775851914E+03  0.00000000000E+00 0.  1.
</event>
<event>
 7    1  0.7802682E-006  0.1966372E+03  0.7818608E-02  0.1192901E+00
          2   -1    0    0  502    0  0.00000000000E+00  0.00000000000E+00  0.94716095068E+02  0.94716095068E+02  0.00000000000E+00 0. -1.
          1   -1    0    0  501    0 -0.00000000000E+00 -0.00000000000E+00 -0.21414987011E+04  0.21414987011E+04  0.00000000000E+00 0. -1.
         25    2    1    2    0    0  0.15229971242E+03  0.25376182011E+03 -0.87834030441E+03  0.93525253072E+03  0.12500136843E+03 0.  0.
          2    1    1    2  501    0 -0.10580873558E+03 -0.13849584616E+03 -0.11635988712E+04  0.11765793305E+04  0.00000000000E+00 0. -1.
          1    1    1    2  502    0 -0.46490976834E+02 -0.11526597395E+03 -0.48434303876E+01  0.12438293491E+03  0.00000000000E+00 0. -1.
         22    1    3    3    0    0  0.11097167920E+03  0.17122204867E+03 -0.41073149746E+03  0.45861974068E+03  0.00000000000E+00 0.  1.
         22    1    3    3    0    0  0.41328033214E+02  0.82539771442E+02 -0.46760880695E+03  0.47663279004E+03  0.00000000000E+00 0.  1.
</event>
<event>
 7    1  0.7802682E-006  0.1097432E+03  0.7818608E-02  0.1349599E+00
          2   -1    0    0  502    0  0.00000000000E+00  0.00000000000E+00  0.68239988502E+03  0.68239988502E+03  0.00000000000E+00 0. -1.
          1   -1    0    0  501    0 -0.00000000000E+00 -0.00000000000E+00 -0.23904728307E+03  0.23904728307E+03  0.00000000000E+00 0. -1.
         25    2    1    2    0    0  0.14922072431E+03  0.53649645505E+01  0.13184729393E+03  0.23517227444E+03  0.12500672917E+03 0.  0.
          2    1    1    2  501    0 -0.44576606951E+02 -0.19857281027E+02 -0.17847966757E+03  0.18503074672E+03  0.00000000000E+00 0. -1.
          1    1    1    2  502    0 -0.10464411736E+03  0.14492316477E+02  0.48998497558E+03  0.50124414693E+03  0.00000000000E+00 0. -1.
         22    1    3    3    0    0  0.13292143111E+03  0.27652661622E+02  0.43431048202E+02  0.14254484379E+03  0.00000000000E+00 0.  1.
         22    1    3    3    0    0  0.16299293206E+02 -0.22287697072E+02  0.88416245728E+02  0.92627430648E+02  0.00000000000E+00 0.  1.
</event>
<event>
 7    1  0.7802682E-006  0.5255405E+02  0.7818608E-02  0.1548234E+00
          2   -1    0    0  502    0  0.00000000000E+00  0.00000000000E+00  0.10795590182E+02  0.10795590182E+02  0.00000000000E+00 0. -1.
          1   -1    0    0  501    0 -0.00000000000E+00 -0.00000000000E+00 -0.18854338673E+04  0.18854338673E+04  0.00000000000E+00 0. -1.
         25    2    1    2    0    0 -0.39395439502E+02  0.44492175132E+02 -0.63051595910E+03  0.64552826152E+03  0.12499922978E+03 0.  0.
          2    1    1    2  501    0 -0.69892059984E+01 -0.22294454454E+02 -0.10379470494E+04  0.10382099831E+04  0.00000000000E+00 0. -1.
          1    1    1    2  502    0  0.46384645500E+02 -0.22197720678E+02 -0.20617526859E+03  0.21249121281E+03  0.00000000000E+00 0. -1.
         22    1    3    3    0    0 -0.60085299792E+02  0.72981807874E+02 -0.34037645310E+03  0.35326012704E+03  0.00000000000E+00 0.  1.
         22    1    3    3    0    0  0.20689860290E+02 -0.28489632742E+02 -0.29013950600E+03  0.29226813448E+03  0.00000000000E+00 0.  1.
</event>
<event>
 7    1  0.7802682E-006  0.6933784E+02  0.7818608E-02  0.1390608E+00
          2   -1    0    0  502    0  0.00000000000E+00  0.00000000000E+00  0.18615946243E+03  0.18615946243E+03  0.00000000000E+00 0. -1.
          1   -1    0    0  501    0 -0.00000000000E+00 -0.00000000000E+00 -0.47792671051E+03  0.47792671051E+03  0.00000000000E+00 0. -1.
         25    2    1    2    0    0 -0.18036292750E+02 -0.15798374731E+01  0.19490466494E+02  0.12779739410E+03  0.12499796763E+03 0.  0.
          2    1    1    2  501    0  0.64280112872E+02  0.31359314137E+02 -0.41379509530E+03  0.41993061378E+03  0.00000000000E+00 0. -1.
          1    1    1    2  502    0 -0.46243820122E+02 -0.29779476664E+02  0.10253738073E+03  0.11635816507E+03  0.00000000000E+00 0. -1.
         22    1    3    3    0    0 -0.11143418927E+02 -0.21667154506E+02 -0.49737801939E+02  0.55384928559E+02  0.00000000000E+00 0. -1.
         22    1    3    3    0    0 -0.68928738235E+01  0.20087317033E+02  0.69228268433E+02  0.72412465538E+02  0.00000000000E+00 0. -1.
</event>
<event>
 7    1  0.7802682E-006  0.4481983E+02  0.7818608E-02  0.1573078E+00
          2   -1    0    0  502    0  0.00000000000E+00  0.00000000000E+00  0.45715056754E+03  0.45715056754E+03  0.00000000000E+00 0. -1.
          1   -1    0    0  501    0 -0.00000000000E+00 -0.00000000000E+00 -0.34871401433E+04  0.34871401433E+04  0.00000000000E+00 0. -1.
         25    2    1    2    0    0 -0.58262253341E+02  0.30479000851E+01 -0.79093627784E+03  0.80287563862E+03  0.12500126253E+03 0.  0.
          2    1    1    2  501    0  0.40558942220E+02 -0.18361467499E+02 -0.26897462404E+04  0.26901146833E+04  0.00000000000E+00 0. -1.
          1    1    1    2  502    0  0.17703311122E+02  0.15313567414E+02  0.45069294254E+03  0.45130038891E+03  0.00000000000E+00 0. -1.
         22    1    3    3    0    0 -0.89980156573E+02  0.31458358582E+02 -0.53727560811E+03  0.54566577314E+03  0.00000000000E+00 0.  1.
         22    1    3    3    0    0  0.31717903232E+02 -0.28410458497E+02 -0.25366066973E+03  0.25720986549E+03  0.00000000000E+00 0.  1.
</event>
<event>
 7    1  0.7802682E-006  0.9204372E+02  0.7818608E-02  0.1317329E+00
          2   -1    0    0  502    0  0.00000000000E+00  0.00000000000E+00  0.92694905592E+03  0.92694905592E+03  0.00000000000E+00 0. -1.
          1   -1    0    0  501    0 -0.00000000000E+00 -0.00000000000E+00 -0.25478517905E+03  0.25478517905E+03  0.00000000000E+00 0. -1.
         25    2    1    2    0    0  0.87807565772E+02  0.49404020708E+02  0.10287373760E+03  0.19067856507E+03  0.12499753367E+03 0.  0.
          2    1    1    2  501    0 -0.89323314600E+02  0.27750437969E+02 -0.19848096997E+03  0.21941612698E+03  0.00000000000E+00 0. -1.
          1    1    1    2  502    0  0.15157488277E+01 -0.77154458677E+02  0.76777110925E+03  0.77163954292E+03  0.00000000000E+00 0. -1.
         22    1    3    3    0    0  0.56083702539E+02  0.46533524608E+02  0.12987309158E+03  0.14892202832E+03  0.00000000000E+00 0.  1.
         22    1    3    3    0    0  0.31723863232E+02  0.28704960995E+01 -0.26999353982E+02  0.41756536754E+02  0.00000000000E+00 0.  1.
</event>
<event>
 7    1  0.7802682E-006  0.7352605E+02  0.7818608E-02  0.1421501E+00
          2   -1    0    0  502    0  0.00000000000E+00  0.00000000000E+00  0.11589346069E+04  0.11589346069E+04  0.00000000000E+00 0. -1.
          1   -1    0    0  501    0 -0.00000000000E+00 -0.00000000000E+00 -0.84443951395E+02  0.84443951395E+02  0.00000000000E+00 0. -1.
         25    2    1    2    0    0  0.10407590716E+03 -0.38388139922E+02  0.70339234565E+03  0.72297397293E+03  0.12500051948E+03 0.  0.
          2    1    1    2  501    0 -0.71170088784E+02  0.14434402497E+02 -0.55793087463E+02  0.91577301344E+02  0.00000000000E+00 0. -1.
          1    1    1    2  502    0 -0.32905818378E+02  0.23953737425E+02  0.42689139731E+03  0.42882728401E+03  0.00000000000E+00 0. -1.
         22    1    3    3    0    0  0.81860480273E+01 -0.35470104144E+02  0.45878157546E+03  0.46022350402E+03  0.00000000000E+00 0. -1.
         22    1    3    3    0    0  0.95889859135E+02 -0.29180357775E+01  0.24461077019E+03  0.26275046891E+03  0.00000000000E+00 0. -1.
</event>
<event>
 7    1  0.7802682E-006  0.2953710E+02  0.7818608E-02  0.1605368E+00
          2   -1    0    0  502    0  0.00000000000E+00  0.00000000000E+00  0.31791735327E+03  0.31791735327E+03  0.00000000000E+00 0. -1.
          1   -1    0    0  501    0 -0.00000000000E+00 -0.00000000000E+00 -0.18993659696E+04  0.18993659696E+04  0.00000000000E+00 0. -1.
         25    2    1    2    0    0 -0.42160073229E+02  0.14981466869E+02  0.12483325763E+03  0.18223755091E+03  0.12500106650E+03 0.  0.
          2    1    1    2  501    0  0.27667754868E+02  0.10330698484E+02 -0.18692524210E+04  0.18694857158E+04  0.00000000000E+00 0. -1.
          1    1    1    2  502    0  0.14492318361E+02 -0.25312165353E+02  0.16297054704E+03  0.16556005620E+03  0.00000000000E+00 0. -1.
         22    1    3    3    0    0 -0.28912889714E+02  0.69900286313E+02  0.80146843227E+02  0.11020672256E+03  0.00000000000E+00 0. -1.
         22    1    3    3    0    0 -0.13247183514E+02 -0.54918819444E+02  0.44686414407E+02  0.72030828350E+02  0.00000000000E+00 0. -1.
</event>
<event>
 7    1  0.7802682E-006  0.1044437E+03  0.7818608E-02  0.1409327E+00
          2   -1    0    0  502    0  0.00000000000E+00  0.00000000000E+00  0.14471822687E+02  0.14471822687E+02  0.00000000000E+00 0. -1.
          1   -1    0    0  501    0 -0.00000000000E+00 -0.00000000000E+00 -0.17599608968E+04  0.17599608968E+04  0.00000000000E+00 0. -1.
         25    2    1    2    0    0 -0.62969256143E+02 -0.56316825459E+02 -0.68606664843E+03  0.70245948167E+03  0.12500066098E+03 0.  0.
          2    1    1    2  501    0  0.93937075635E+02  0.61997434067E+02 -0.98147398614E+03  0.98790639308E+03  0.00000000000E+00 0. -1.
          1    1    1    2  502    0 -0.30967819491E+02 -0.56806086088E+01 -0.77948439537E+02  0.84066844740E+02  0.00000000000E+00 0. -1.
         22    1    3    3    0    0 -0.88664899407E+02 -0.16509662308E+00 -0.43081967550E+03  0.43984893366E+03  0.00000000000E+00 0.  1.
         22    1    3    3    0    0  0.25695643264E+02 -0.56151728835E+02 -0.25524697293E+03  0.26261054801E+03  0.00000000000E+00 0.  1.
</event>
<event>
 7    1  0.7802682E-006  0.7630133E+02  0.7818608E-02  0.1351766E+00
          2   -1    0    0  502    0  0.00000000000E+00  0.00000000000E+00  0.23696482369E+03  0.23696482369E+03  0.00000000000E+00 0. -1.
          1   -1    0    0  501    0 -0.00000000000E+00 -0.00000000000E+00 -0.22000608642E+04  0.22000608642E+04  0.00000000000E+00 0. -1.
         25    2    1    2    0    0 -0.54268978436E+02 -0.10676449566E+03  0.30318402805E+02  0.17575039642E+03  0.12500086696E+03 0.  0.
          2    1    1    2  501    0  0.65515954431E+02  0.38785145062E+02 -0.21177530754E+04  0.21191212131E+04  0.00000000000E+00 0. -1.
          1    1    1    2  502    0 -0.11246975995E+02  0.67979350594E+02  0.12433863203E+03  0.14215407835E+03  0.00000000000E+00 0. -1.
         22    1    3    3    0    0  0.37692871158E+02 -0.36795912602E+02 -0.95074863865E+01  0.53526479594E+02  0.00000000000E+00 0. -1.
         22    1    3    3    0    0 -0.91961849594E+02 -0.69968583054E+02  0.39825889192E+02  0.12222391683E+03  0.00000000000E+00 0. -1.
</event>
<event>
 7    1  0.7802682E-006  0.3812550E+02  0.7818608E-02  0.1566097E+00
          2   -1    0    0  502    0  0.00000000000E+00  0.00000000000E+00  0.15991341932E+03  0.15991341932E+03  0.00000000000E+00 0. -1.
          1   -1    0    0  501    0 -0.00000000000E+00 -0.00000000000E+00 -0.22244911668E+03  0.22244911668E+03  0.00000000000E+00 0. -1.
         25    2    1    2    0    0  0.70810838366E+01  0.52668603001E+02 -0.52759692815E+02  0.14571393720E+03  0.12499937127E+03 0.  0.
          2    1    1    2  501    0 -0.23714011970E+02 -0.29222713019E+02 -0.11842499728E+03  0.12426102085E+03  0.00000000000E+00 0. -1.
          1    1    1    2  502    0  0.16632928133E+02 -0.23445889983E+02  0.10864899273E+03  0.11238757795E+03  0.00000000000E+00 0. -1.
         22    1    3    3    0    0 -0.28730575120E+02 -0.31773707105E+02 -0.77091056969E+01  0.43525219363E+02  0.00000000000E+00 0.  1.
         22    1    3    3    0    0  0.35811658957E+02  0.84442310107E+02 -0.45050587118E+02  0.10218871784E+03  0.00000000000E+00 0.  1.
</event>
<event>
 7    1  0.7802682E-006  0.5719173E+02  0.7818608E-02  0.1472598E+00
          2   -1    0    0  502    0  0.00000000000E+00  0.00000000000E+00  0.12181009224E+04  0.12181009224E+04  0.00000000000E+00 0. -1.
          1   -1    0    0  501    0 -0.00000000000E+00 -0.00000000000E+00 -0.95052851269E+02  0.95052851269E+02  0.00000000000E+00 0. -1.
         25    2    1    2    0    0 -0.20703032224E+02  0.19768831454E+02  0.20733062990E+03  0.24378240560E+03  0.12499779576E+03 0.  0.
          2    1    1    2  501    0 -0.35686036823E+02 -0.34250700773E+01 -0.71724850324E+02  0.80185275974E+02  0.00000000000E+00 0. -1.
          1    1    1    2  502    0  0.56389069047E+02 -0.16343761377E+02  0.98744229155E+03  0.98918609209E+03  0.00000000000E+00 0. -1.
         22    1    3    3    0    0  0.45402615815E+02  0.32932725747E+02  0.12756659543E+03  0.13935278331E+03  0.00000000000E+00 0. -1.
         22    1    3    3    0    0 -0.66105648040E+02 -0.13163894293E+02  0.79764034473E+02  0.10442962229E+03  0.00000000000E+00 0. -1.
</event>
<event>
 7    1  0.7802682E-006  0.4015315E+02  0.7818608E-02  0.1605250E+00
          2   -1    0    0  502    0  0.00000000000E+00  0.00000000000E+00  0.18893080078E+02  0.18893080078E+02  0.00000000000E+00 0. -1.
          1   -1    0    0  501    0 -0.00000000000E+00 -0.00000000000E+00 -0.16404448940E+04  0.16404448940E+04  0.00000000000E+00 0. -1.
         25    2    1    2    0    0 -0.35638036139E+02 -0.48916555858E+02 -0.98085441229E+03  0.99063814020E+03  0.12500259064E+03 0.  0.
          2    1    1    2  501    0  0.93637253205E+01  0.19321489129E+02 -0.62617665106E+03  0.62654464935E+03  0.00000000000E+00 0. -1.
          1    1    1    2  502    0  0.26274310818E+02  0.29595066729E+02 -0.14520750547E+02  0.42155184498E+02  0.00000000000E+00 0. -1.
         22    1    3    3    0    0 -0.28607571937E+02  0.20717465900E+02 -0.84901632257E+02  0.91955933606E+02  0.00000000000E+00 0. -1.
         22    1    3    3    0    0 -0.70304642018E+01 -0.69634021757E+02 -0.89595278003E+03  0.89868220660E+03  0.00000000000E+00 0. -1.
</event>
<event>
 7    1  0.7802682E-006  0.9051824E+02  0.7818608E-02  0.1399685E+00
          2   -1    0    0  502    0  0.00000000000E+00  0.00000000000E+00  0.96648989236E+03  0.96648989236E+03  0.00000000000E+00 0. -1.
          1   -1    0    0  501    0 -0.00000000000E+00 -0.00000000000E+00 -0.12869071306E+03  0.12869071306E+03  0.00000000000E+00 0. -1.
         25    2    1    2    0    0 -0.43291288306E+02 -0.97374116945E+02  0.62536632101E+03  0.64657779864E+03  0.12499583970E+03 0.  0.
          2    1    1    2  501    0  0.36834593083E+02  0.13383350810E+02 -0.10925339247E+03  0.11606982852E+03  0.00000000000E+00 0. -1.
          1    1    1    2  502    0  0.64566952230E+01  0.83990766135E+02  0.32168625076E+03  0.33253297827E+03  0.00000000000E+00 0. -1.
         22    1    3    3    0    0 -0.81190450581E+02 -0.89024388367E+02  0.39507064517E+03  0.41303516275E+03  0.00000000000E+00 0. -1.
         22    1    3    3    0    0  0.37899162275E+02 -0.83497285789E+01  0.23029567584E+03  0.23354263589E+03  0.00000000000E+00 0. -1.
</event>
<event>
 7    1  0.7802682E-006  0.8488105E+02  0.7818608E-02  0.1356065E+00
          2   -1    0    0  502    0  0.00000000000E+00  0.00000000000E+00  0.70514935736E+03  0.70514935736E+03  0.00000000000E+00 0. -1.
          1   -1    0    0  501    0 -0.00000000000E+00 -0.00000000000E+00 -0.35200595202E+03  0.35200595202E+03  0.00000000000E+00 0. -1.
         25    2    1    2    0    0 -0.10912447775E+03  0.67463297687E+02  0.11837257551E+02  0.17951326016E+03  0.12500176691E+03 0.  0.
          2    1    1    2  501    0  0.59720876336E+02  0.93817295267E-01 -0.26191759630E+03  0.26863994327E+03  0.00000000000E+00 0. -1.
          1    1    1    2  502    0  0.49403601412E+02 -0.67557114983E+02  0.60322374408E+03  0.60900210594E+03  0.00000000000E+00 0. -1.
         22    1    3    3    0    0 -0.13548522246E+03  0.56534043170E+02  0.23517259024E+02  0.14867886540E+03  0.00000000000E+00 0. -1.
         22    1    3    3    0    0  0.26360744717E+02  0.10929254517E+02 -0.11680001472E+02  0.30834394768E+02  0.00000000000E+00 0. -1.
</event>
<event>
 7    1  0.7802682E-006  0.4474633E+02  0.7818608E-02  0.1549657E+00
          2   -1    0    0  502    0  0.00000000000E+00  0.00000000000E+00  0.52529197252E+03  0.52529197252E+03  0.00000000000E+00 0. -1.
          1   -1    0    0  501    0 -0.00000000000E+00 -0.00000000000E+00 -0.19768113286E+03  0.19768113286E+03  0.00000000000E+00 0. -1.
         25    2    1    2    0    0  0.18155321624E+02  0.39959829331E+02  0.19053393640E+03  0.23206362651E+03  0.12499576859E+03 0.  0.
          2    1    1    2  501    0  0.21110267337E+02 -0.17138281673E+02 -0.17421389650E+03  0.17632312900E+03  0.00000000000E+00 0. -1.
          1    1    1    2  502    0 -0.39265588961E+02 -0.22821547658E+02  0.31129079975E+03  0.31458634987E+03  0.00000000000E+00 0. -1.
         22    1    3    3    0    0 -0.24182739408E+02 -0.87234574783E+01 -0.49743411706E+01  0.26184874752E+02  0.00000000000E+00 0. -1.
         22    1    3    3    0    0  0.42338061033E+02  0.48683286809E+02  0.19550827758E+03  0.20587875176E+03  0.00000000000E+00 0. -1.
</event>
<event>
 7    1  0.7802682E-006  0.7611961E+02  0.7818608E-02  0.1497835E+00
          2   -1    0    0  502    0  0.00000000000E+00  0.00000000000E+00  0.80175819438E+03  0.80175819438E+03  0.00000000000E+00 0. -1.
          1   -1    0    0  501    0 -0.00000000000E+00 -0.00000000000E+00 -0.45032955621E+03  0.45032955621E+03  0.00000000000E+00 0. -1.
         25    2    1    2    0    0 -0.80382263474E+02  0.31685993615E+02 -0.42725011663E+02  0.15784815044E+03  0.12500120601E+03 0.  0.
          2    1    1    2  501    0  0.18688930131E+02  0.12647589343E+02 -0.34773745155E+03  0.34846889795E+03  0.00000000000E+00 0. -1.
          1    1    1    2  502    0  0.61693333343E+02 -0.44333582959E+02  0.74189110138E+03  0.74577070220E+03  0.00000000000E+00 0. -1.
         22    1    3    3    0    0 -0.41612565637E+02  0.41520014655E+02 -0.82592036506E+02  0.10137535070E+03  0.00000000000E+00 0. -1.
         22    1    3    3    0    0 -0.38769697836E+02 -0.98340210397E+01  0.39867024844E+02  0.56472799736E+02  0.00000000000E+00 0. -1.
</event>
<event>
 7    1  0.7802682E-006  0.1153779E+03  0.7818608E-02  0.1432166E+00
          2   -1    0    0  502    0  0.00000000000E+00  0.00000000000E+00  0.71179913258E+03  0.71179913258E+03  0.00000000000E+00 0. -1.
          1   -1    0    0  501    0 -0.00000000000E+00 -0.00000000000E+00 -0.29516338263E+03  0.29516338263E+03  0.00000000000E+00 0. -1.
         25    2    1    2    0    0  0.72953994604E+02 -0.73943817345E+02  0.43248519816E+03  0.46201611355E+03  0.12500187636E+03 0.  0.
          2    1    1    2  501    0  0.13031339697E+02 -0.20051716086E+02 -0.26449096747E+03  0.26556987594E+03  0.00000000000E+00 0. -1.
          1    1    1    2  502    0 -0.85985334301E+02  0.93995533431E+02  0.24864151927E+03  0.27937652572E+03  0.00000000000E+00 0. -1.
         22    1    3    3    0    0  0.15451700586E+02 -0.94651160801E+02  0.20271527568E+03  0.22425672852E+03  0.00000000000E+00 0.  1.
         22    1    3    3    0    0  0.57502294019E+02  0.20707343456E+02  0.22976992248E+03  0.23775938502E+03  0.00000000000E+00 0.  1.
</event>
<event>
 7    1  0.7802682E-006  0.7843409E+02  0.7818608E-02  0.1366154E+00
          2   -1    0    0  502    0  0.00000000000E+00  0.00000000000E+00  0.17328443868E+03  0.17328443868E+03  0.00000000000E+00 0. -1.
          1   -1    0    0  501    0 -0.00000000000E+00 -0.00000000000E+00 -0.59540009007E+03  0.59540009007E+03  0.00000000000E+00 0. -1.
         25    2    1    2    0    0 -0.44661160365E+02 -0.33345107442E+02 -0.15664382511E+03  0.20801055487E+03  0.12499835021E+03 0.  0.
          2    1    1    2  501    0 -0.34890679530E+02  0.48054291745E+02 -0.39962612342E+03  0.40401437226E+03  0.00000000000E+00 0. -1.
          1    1    1    2  502    0  0.79551839895E+02 -0.14709184303E+02  0.13415429715E+03  0.15665960161E+03  0.00000000000E+00 0. -1.
         22    1    3    3    0    0 -0.31969343103E+02  0.20934808316E+02 -0.14643551009E+03  0.15133956427E+03  0.00000000000E+00 0. -1.
         22    1    3    3    0    0 -0.12691817262E+02 -0.54279915758E+02 -0.10208315026E+02  0.56670990602E+02  0.00000000000E+00 0. -1.
</event>
<event>
 7    1  0.7802682E-006  0.1126664E+03  0.7818608E-02  0.1272004E+00
          2   -1    0    0  502    0  0.00000000000E+00  0.00000000000E+00  0.83900717341E+03  0.83900717341E+03  0.00000000000E+00 0. -1.
          1   -1    0    0  501    0 -0.00000000000E+00 -0.00000000000E+00 -0.28603087594E+04  0.28603087594E+04  0.00000000000E+00 0. -1.
         25    2    1    2    0    0  0.52482301099E+02 -0.22131508057E+02  0.10225702392E+03  0.17124564205E+03  0.12499750159E+03 0.  0.
          2    1    1    2  501    0 -0.92797587484E+02 -0.65093553148E+02 -0.28213839781E+04  0.28236600566E+04  0.00000000000E+00 0. -1.
          1    1    1    2  502    0  0.40315286385E+02  0.87225061205E+02  0.69782536819E+03  0.70441023424E+03  0.00000000000E+00 0. -1.
         22    1    3    3    0    0  0.44261741462E+02 -0.65419923461E+02  0.99579786238E+02  0.12710232874E+03  0.00000000000E+00 0.  1.
         22    1    3    3    0    0  0.82205596370E+01  0.43288415404E+02  0.26772376842E+01  0.44143313316E+02  0.00000000000E+00 0.  1.
</event>
<event>
 7    1  0.9077378E-006  0.9361742E+02  0.7818608E-02  0.1319714E+00
          2   -1    0    0  502    0  0.00000000000E+00  0.00000000000E+00  0.80962003410E+03  0.80962003410E+03  0.00000000000E+00 0. -1.
          1   -1    0    0  501    0 -0.00000000000E+00 -0.00000000000E+00 -0.14269680281E+04  0.14269680281E+04  0.00000000000E+00 0. -1.
         25    2    1    2    0    0 -0.11067908780E+03 -0.75633433465E+02 -0.11792734322E+03  0.21795112616E+03  0.12500223350E+03 0.  0.
          2    1    1    2  501    0  0.17471028120E+02  0.72184766681E+02 -0.12550636866E+04  0.12572592155E+04  0.00000000000E+00 0. -1.
          1    1    1    2  502    0  0.93208059683E+02  0.34486667839E+01  0.75564303587E+03  0.76137772055E+03  0.00000000000E+00 0. -1.
         22    1    3    3    0    0  0.16112686245E+02 -0.51831360229E+02 -0.34052870399E+02  0.64075787499E+02  0.00000000000E+00 0. -1.
         22    1    3    3    0    0 -0.12679177405E+03 -0.23802073236E+02 -0.83874472826E+02  0.15387533866E+03  0.00000000000E+00 0. -1.
</event>
<event>
 7    1  0.7802682E-006  0.4415600E+02  0.7818608E-02  0.1543711E+00
          2   -1    0    0  502    0  0.00000000000E+00  0.00000000000E+00  0.40990501834E+03  0.40990501834E+03  0.00000000000E+00 0. -1.
          1   -1    0    0  501    0 -0.00000000000E+00 -0.00000000000E+00 -0.20186453011E+04  0.20186453011E+04  0.00000000000E+00 0. -1.
         25    2    1    2    0    0 -0.37402517971E+02  0.41698779402E+02 -0.60030985810E+02  0.14955642277E+03  0.12500267110E+03 0.  0.
          2    1    1    2  501    0  0.28592116586E+02  0.15136976256E+01 -0.19124124111E+04  0.19126267358E+04  0.00000000000E+00 0. -1.
          1    1    1    2  502    0  0.88104013844E+01 -0.43212477028E+02  0.36370311412E+03  0.36636716087E+03  0.00000000000E+00 0. -1.
         22    1    3    3    0    0  0.19839412015E+02  0.69701550018E+02 -0.39899616973E+02  0.82727793266E+02  0.00000000000E+00 0. -1.
         22    1    3    3    0    0 -0.57241929985E+02 -0.28002770616E+02 -0.20131368837E+02  0.66828629508E+02  0.00000000000E+00 0. -1.
</event>
<event>
 7    1  0.7802682E-006  0.8999280E+02  0.7818608E-02  0.1464631E+00
          2   -1    0    0  502    0  0.00000000000E+00  0.00000000000E+00  0.18963291665E+04  0.18963291665E+04  0.00000000000E+00 0. -1.
          1   -1    0    0  501    0 -0.00000000000E+00 -0.00000000000E+00 -0.12277238069E+03  0.12277238069E+03  0.00000000000E+00 0. -1.
         25    2    1    2    0    0  0.75522172256E+02 -0.19637556522E+02  0.11183189852E+03  0.18498922161E+03  0.12500162582E+03 0.  0.
          2    1    1    2  501    0 -0.81674536293E+02  0.42963661129E+02 -0.61383135084E+02  0.11083544257E+03  0.00000000000E+00 0. -1.
          1    1    1    2  502    0  0.61523640373E+01 -0.23326104607E+02  0.17231080224E+04  0.17232768830E+04  0.00000000000E+00 0. -1.
         22    1    3    3    0    0 -0.24908154788E+02 -0.16146576894E+02 -0.58340270030E+01  0.30251677497E+02  0.00000000000E+00 0.  1.
         22    1    3    3    0    0  0.10043032704E+03 -0.34909796276E+01  0.11766592552E+03  0.15473754411E+03  0.00000000000E+00 0.  1.
</event>
<event>
 7    1  0.7802682E-006  0.6680391E+02  0.7818608E-02  0.1482344E+00
          2   -1    0    0  502    0  0.00000000000E+00  0.00000000000E+00  0.10271264452E+04  0.10271264452E+04  0.00000000000E+00 0. -1.
          1   -1    0    0  501    0 -0.00000000000E+00 -0.00000000000E+00 -0.14332684816E+03  0.14332684816E+03  0.00000000000E+00 0. -1.
         25    2    1    2    0    0  0.38040030623E+02 -0.36155119097E+02  0.16600840448E+02  0.13658806343E+03  0.12500589826E+03 0.  0.
          2    1    1    2  501    0 -0.12270617252E+02 -0.25881528747E+02 -0.79646323452E+02  0.84640170235E+02  0.00000000000E+00 0. -1.
          1    1    1    2  502    0 -0.25769413371E+02  0.62036647844E+02  0.94684508008E+03  0.94922505973E+03  0.00000000000E+00 0. -1.
         22    1    3    3    0    0  0.18344649954E+02  0.45467071857E+02 -0.66155319956E+01  0.49472680025E+02  0.00000000000E+00 0. -1.
         22    1    3    3    0    0  0.19695380669E+02 -0.81622190955E+02  0.23216372444E+02  0.87115383403E+02  0.00000000000E+00 0. -1.
</event>
<event>
 7    1  0.7802682E-006  0.3738565E+02  0.7818608E-02  0.1554462E+00
          2   -1    0    0  502    0  0.00000000000E+00  0.00000000000E+00  0.30970136357E+04  0.30970136357E+04  0.00000000000E+00 0. -1.
          1   -1    0    0  501    0 -0.00000000000E+00 -0.00000000000E+00 -0.18191919810E+02  0.18191919810E+02  0.00000000000E+00 0. -1.
         25    2    1    2    0    0 -0.23967862077E+02  0.50138852408E+02  0.16364967254E+04  0.16422042506E+04  0.12499962235E+03 0.  0.
          2    1    1    2  501    0  0.31713721926E+02 -0.19545837938E+02  0.77142805688E+01  0.38043528540E+02  0.00000000000E+00 0. -1.
          1    1    1    2  502    0 -0.77458598489E+01 -0.30593014470E+02  0.14346107099E+04  0.14349577764E+04  0.00000000000E+00 0. -1.
         22    1    3    3    0    0 -0.62435157337E+02  0.14062718191E+02  0.13023399752E+04  0.13039115460E+04  0.00000000000E+00 0. -1.
         22    1    3    3    0    0  0.38467295260E+02  0.36076134217E+02  0.33415675026E+03  0.33829270463E+03  0.00000000000E+00 0. -1.
</event>
<event>
 7    1  0.7802682E-006  0.9730471E+02  0.7818608E-02  0.1365615E+00
          2   -1    0    0  502    0  0.00000000000E+00  0.00000000000E+00  0.17242987378E+04  0.17242987378E+04  0.00000000000E+00 0. -1.
          1   -1    0    0  501    0 -0.00000000000E+00 -0.00000000000E+00 -0.58620495539E+03  0.58620495539E+03  0.00000000000E+00 0. -1.
         25    2    1    2    0    0  0.95453744598E+02 -0.74154865840E+02  0.78889261267E+03  0.80782794926E+03  0.12499631917E+03 0.  0.
          2    1    1    2  501    0 -0.93659680008E+02  0.26104941741E+02 -0.57200793264E+03  0.58021261503E+03  0.00000000000E+00 0. -1.
          1    1    1    2  502    0 -0.17940645902E+01  0.48049924099E+02  0.92120910241E+03  0.92246312893E+03  0.00000000000E+00 0. -1.
         22    1    3    3    0    0  0.66629270485E+02  0.20021511541E+02  0.43322397847E+03  0.43877481256E+03  0.00000000000E+00 0. -1.
         22    1    3    3    0    0  0.28824474113E+02 -0.94176377381E+02  0.35566863419E+03  0.36905313671E+03  0.00000000000E+00 0. -1.
</event>
<event>
 7    1  0.7802682E-006  0.5286050E+02  0.7818608E-02  0.1537591E+00
          2   -1    0    0  502    0  0.00000000000E+00  0.00000000000E+00  0.21199377988E+04  0.21199377988E+04  0.00000000000E+00 0. -1.
          1   -1    0    0  501    0 -0.00000000000E+00 -0.00000000000E+00 -0.74468435759E+02  0.74468435759E+02  0.00000000000E+00 0. -1.
         25    2    1    2    0    0 -0.65386801763E+02  0.29208599894E+02  0.70194988262E+03  0.71658018624E+03  0.12499979779E+03 0.  0.
          2    1    1    2  501    0  0.14386430911E+02 -0.20309314976E+02 -0.64354994724E+02  0.69000021849E+02  0.00000000000E+00 0. -1.
          1    1    1    2  502    0  0.51000370852E+02 -0.88992849175E+01  0.14078744752E+04  0.14088260265E+04  0.00000000000E+00 0. -1.
         22    1    3    3    0    0  0.29403030914E+02  0.83178001161E+01  0.59993656113E+02  0.67327281243E+02  0.00000000000E+00 0.  1.
         22    1    3    3    0    0 -0.94789832677E+02  0.20890799778E+02  0.64195622651E+03  0.64925290500E+03  0.00000000000E+00 0.  1.
</event>
<event>
 7    1  0.7802682E-006  0.2176322E+03  0.7818608E-02  0.1366086E+00
          2   -1    0    0  502    0  0.00000000000E+00  0.00000000000E+00  0.13110809715E+04  0.13110809715E+04  0.00000000000E+00 0. -1.
          1   -1    0    0  501    0 -0.00000000000E+00 -0.00000000000E+00 -0.81733970159E+02  0.81733970159E+02  0.00000000000E+00 0. -1.
         25    2    1    2    0    0 -0.17268053160E+03 -0.12279587047E+03  0.76726539003E+03  0.80574097656E+03  0.12499980306E+03 0.  0.
          2    1    1    2  501    0 -0.35690111129E+00 -0.21411319317E+02 -0.35173764414E+02  0.41179675525E+02  0.00000000000E+00 0. -1.
          1    1    1    2  502    0  0.17303743271E+03  0.14420718978E+03  0.49725537568E+03  0.54589428954E+03  0.00000000000E+00 0. -1.
         22    1    3    3    0    0 -0.29755298136E+02  0.65383347145E+01  0.28127656530E+03  0.28292160358E+03  0.00000000000E+00 0. -1.
         22    1    3    3    0    0 -0.14292523346E+03 -0.12933420518E+03  0.48598882474E+03  0.52281937298E+03  0.00000000000E+00 0. -1.
</event>
<event>
 7    1  0.7802682E-006  0.1381308E+03  0.7818608E-02  0.1404337E+00
          2   -1    0    0  502    0  0.00000000000E+00  0.00000000000E+00  0.67042501485E+03  0.67042501485E+03  0.00000000000E+00 0. -1.
          1   -1    0    0  501    0 -0.00000000000E+00 -0.00000000000E+00 -0.39683505484E+03  0.39683505484E+03  0.00000000000E+00 0. -1.
         25    2    1    2    0    0  0.58090790711E+02  0.13901480115E+03 -0.23249644440E+03  0.30393886779E+03  0.12499833516E+03 0.  0.
          2    1    1    2  501    0  0.13104773175E+02 -0.21002891812E+02 -0.11985540278E+03  0.12238535092E+03  0.00000000000E+00 0. -1.
          1    1    1    2  502    0 -0.71195563887E+02 -0.11801190934E+03  0.62594180719E+03  0.64093585097E+03  0.00000000000E+00 0. -1.
         22    1    3    3    0    0 -0.36648055062E+02  0.18194409112E+02 -0.64204874129E+02  0.76133976152E+02  0.00000000000E+00 0. -1.
         22    1    3    3    0    0  0.94738845774E+02  0.12082039204E+03 -0.16829157028E+03  0.22780489164E+03  0.00000000000E+00 0. -1.
</event>
<event>
 7    1  0.7802682E-006  0.1281471E+03  0.7818608E-02  0.1286397E+00
          2   -1    0    0  502    0  0.00000000000E+00  0.00000000000E+00  0.19474646705E+04  0.19474646705E+04  0.00000000000E+00 0. -1.
          1   -1    0    0  501    0 -0.00000000000E+00 -0.00000000000E+00 -0.10609666695E+04  0.10609666695E+04  0.00000000000E+00 0. -1.
         25    2    1    2    0    0  0.11548960970E+02 -0.14364858051E+03 -0.69022730090E+02  0.20287112320E+03  0.12499704867E+03 0.  0.
          2    1    1    2  501    0 -0.67920772484E+02  0.28497098011E+02 -0.92136305969E+03  0.92430254986E+03  0.00000000000E+00 0. -1.
          1    1    1    2  502    0  0.56371811514E+02  0.11515148250E+03  0.18768837908E+04  0.18812576669E+04  0.00000000000E+00 0. -1.
         22    1    3    3    0    0 -0.52009089746E+02 -0.94465828795E+02 -0.55824146063E+02  0.12142929428E+03  0.00000000000E+00 0.  1.
         22    1    3    3    0    0  0.63558050716E+02 -0.49182751712E+02 -0.13198584027E+02  0.81441828915E+02  0.00000000000E+00 0.  1.
</event>
<event>
 7    1  0.7802682E-006  0.6293709E+02  0.7818608E-02  0.1409259E+00
          2   -1    0    0  502    0  0.00000000000E+00  0.00000000000E+00  0.80493187648E+02  0.80493187648E+02  0.00000000000E+00 0. -1.
          1   -1    0    0  501    0 -0.00000000000E+00 -0.00000000000E+00 -0.51779945217E+03  0.51779945217E+03  0.00000000000E+00 0. -1.
         25    2    1    2    0    0  0.10622661918E+03  0.29051255510E+02 -0.15167335952E+03  0.22529367574E+03  0.12499744906E+03 0.  0.
          2    1    1    2  501    0 -0.50059131691E+02 -0.15063396218E+02 -0.30690914423E+03  0.31132948043E+03  0.00000000000E+00 0. -1.
          1    1    1    2  502    0 -0.56167487492E+02 -0.13987859292E+02  0.21276239222E+02  0.61669483654E+02  0.00000000000E+00 0. -1.
         22    1    3    3    0    0  0.12668062440E+03  0.12195548098E+02 -0.15268530372E+03  0.19877000268E+03  0.00000000000E+00 0. -1.
         22    1    3    3    0    0 -0.20454005218E+02  0.16855707413E+02  0.10119441992E+01  0.26523673066E+02  0.00000000000E+00 0. -1.
</event>
<event>
 7    1  0.7802682E-006  0.1427800E+03  0.7818608E-02  0.1316353E+00
          2   -1    0    0  502    0  0.00000000000E+00  0.00000000000E+00  0.27239589170E+03  0.27239589170E+03  0.00000000000E+00 0. -1.
          1   -1    0    0  501    0 -0.00000000000E+00 -0.00000000000E+00 -0.19030745243E+03  0.19030745243E+03  0.00000000000E+00 0. -1.
         25    2    1    2    0    0  0.92686033683E+02 -0.74777719806E+02  0.79295691386E+02  0.18999050541E+03  0.12500470892E+03 0.  0.
          2    1    1    2  501    0  0.48670338834E+02 -0.12238169152E+02 -0.74324818352E+02  0.89681398793E+02  0.00000000000E+00 0. -1.
          1    1    1    2  502    0 -0.14135637252E+03  0.87015888958E+02  0.77117566237E+02  0.18303143993E+03  0.00000000000E+00 0. -1.
         22    1    3    3    0    0  0.50916741363E+02  0.25927130848E+02  0.35720588448E+01  0.57249369162E+02  0.00000000000E+00 0.  1.
         22    1    3    3    0    0  0.41769292320E+02 -0.10070485065E+03  0.75723632541E+02  0.13274113624E+03  0.00000000000E+00 0.  1.
</event>
<event>
 7    1  0.7802682E-006  0.2689230E+02  0.7818608E-02  0.1668219E+00
          2   -1    0    0  502    0  0.00000000000E+00  0.00000000000E+00  0.21629458590E+04  0.21629458590E+04  0.00000000000E+00 0. -1.
          1   -1    0    0  501    0 -0.00000000000E+00 -0.00000000000E+00 -0.29786576289E+03  0.29786576289E+03  0.00000000000E+00 0. -1.
         25    2    1    2    0    0 -0.52986583291E+01  0.84069356385E+01  0.13893494725E+03  0.18715741002E+03  0.12500489675E+03 0.  0.
          2    1    1    2  501    0  0.14570780109E+02  0.16919985974E+02 -0.27320809770E+03  0.27411905846E+03  0.00000000000E+00 0. -1.
          1    1    1    2  502    0 -0.92721217802E+01 -0.25326921613E+02  0.19993532466E+04  0.19995351534E+04  0.00000000000E+00 0. -1.
         22    1    3    3    0    0 -0.27525063871E+02  0.33070263658E+02  0.14685224183E+03  0.15302565932E+03  0.00000000000E+00 0. -1.
         22    1    3    3    0    0  0.22226405542E+02 -0.24663328019E+02 -0.79172945827E+01  0.34131750699E+02  0.00000000000E+00 0. -1.
</event>
<event>
 7    1  0.7802682E-006  0.9859578E+02  0.7818608E-02  0.1468094E+00
          2   -1    0    0  502    0  0.00000000000E+00  0.00000000000E+00  0.95603516054E+02  0.95603516054E+02  0.00000000000E+00 0. -1.
          1   -1    0    0  501    0 -0.00000000000E+00 -0.00000000000E+00 -0.14990274605E+04  0.14990274605E+04  0.00000000000E+00 0. -1.
         25    2    1    2    0    0 -0.60178890894E+02 -0.65732243342E+02 -0.90728063452E+00  0.15351486222E+03  0.12499505207E+03 0.  0.
          2    1    1    2  501    0  0.80156478306E+02  0.57849051324E+02 -0.14135286060E+04  0.14169808375E+04  0.00000000000E+00 0. -1.
          1    1    1    2  502    0 -0.19977587412E+02  0.78831920185E+01  0.11011942238E+02  0.24135276818E+02  0.00000000000E+00 0. -1.
         22    1    3    3    0    0 -0.98144841504E+02 -0.34377633309E+02  0.37233818496E+01  0.10405813355E+03  0.00000000000E+00 0. -1.
         22    1    3    3    0    0  0.37965950610E+02 -0.31354610033E+02 -0.46306624841E+01  0.49456728674E+02  0.00000000000E+00 0. -1.
</event>
<event>
 7    1  0.7802682E-006  0.7246673E+02  0.7818608E-02  0.1423205E+00
          2   -1    0    0  502    0  0.00000000000E+00  0.00000000000E+00  0.50109292262E+03  0.50109292262E+03  0.00000000000E+00 0. -1.
          1   -1    0    0  501    0 -0.00000000000E+00 -0.00000000000E+00 -0.17512661404E+04  0.17512661404E+04  0.00000000000E+00 0. -1.
         25    2    1    2    0    0 -0.80133458447E+02  0.15460944802E+00 -0.36324744402E+03  0.39242220571E+03  0.12500034752E+03 0.  0.
          2    1    1    2  501    0  0.62555728675E+02 -0.36929946050E+02 -0.13716147266E+04  0.13735370393E+04  0.00000000000E+00 0. -1.
          1    1    1    2  502    0  0.17577729773E+02  0.36775336602E+02  0.48468895284E+03  0.48639981802E+03  0.00000000000E+00 0. -1.
         22    1    3    3    0    0 -0.37281762834E+02  0.56607459629E+02 -0.24826221769E+03  0.25734891307E+03  0.00000000000E+00 0. -1.
         22    1    3    3    0    0 -0.42851695613E+02 -0.56452850181E+02 -0.11498522632E+03  0.13507329263E+03  0.00000000000E+00 0. -1.
</event>
<event>
 7    1  0.7802682E-006  0.1640316E+03  0.7818608E-02  0.1201817E+00
          2   -1    0    0  502    0  0.00000000000E+00  0.00000000000E+00  0.37943097767E+03  0.37943097767E+03  0.00000000000E+00 0. -1.
          1   -1    0    0  501    0 -0.00000000000E+00 -0.00000000000E+00 -0.26904234521E+04  0.26904234521E+04  0.00000000000E+00 0. -1.
         25    2    1    2    0    0  0.20041201444E+03  0.13787815211E+01 -0.49389976134E+02  0.24131288057E+03  0.12500264003E+03 0.  0.
          2    1    1    2  501    0 -0.76912504581E+02 -0.11117364777E+03 -0.25190217756E+04  0.25226465902E+04  0.00000000000E+00 0. -1.
          1    1    1    2  502    0 -0.12349950986E+03  0.10979486625E+03  0.25741927730E+03  0.30589495896E+03  0.00000000000E+00 0. -1.
         22    1    3    3    0    0  0.19474705175E+02  0.32555087362E+02  0.22534986182E+02  0.44123955591E+02  0.00000000000E+00 0.  1.
         22    1    3    3    0    0  0.18093730926E+03 -0.31176305841E+02 -0.71924962315E+02  0.19718892498E+03  0.00000000000E+00 0.  1.
</event>
<event>
 7    1  0.7802682E-006  0.7438870E+02  0.7818608E-02  0.1456977E+00
          2   -1    0    0  502    0  0.00000000000E+00  0.00000000000E+00  0.29571293441E+03  0.29571293441E+03  0.00000000000E+00 0. -1.
          1   -1    0    0  501    0 -0.00000000000E+00 -0.00000000000E+00 -0.25973450811E+03  0.25973450811E+03  0.00000000000E+00 0. -1.
         25    2    1    2    0    0  0.29427170643E+02 -0.38733612003E+02  0.51873002231E+02  0.14380955105E+03  0.12499651012E+03 0.  0.
          2    1    1    2  501    0  0.11691745298E+02 -0.28549418360E+02 -0.20470844508E+03  0.20702008039E+03  0.00000000000E+00 0. -1.
          1    1    1    2  502    0 -0.41118915941E+02  0.67283030363E+02  0.18881386916E+03  0.20461781108E+03  0.00000000000E+00 0. -1.
         22    1    3    3    0    0  0.61423202243E+02  0.22066788583E+02  0.21806365201E+02  0.68813301733E+02  0.00000000000E+00 0.  1.
         22    1    3    3    0    0 -0.31996031600E+02 -0.60800400586E+02  0.30066637029E+02  0.74996249318E+02  0.00000000000E+00 0.  1.
</event>
<event>
 7    1  0.7802682E-006  0.7919509E+02  0.7818608E-02  0.1428557E+00
          2   -1    0    0  502    0  0.00000000000E+00  0.00000000000E+00  0.99367964387E+03  0.99367964387E+03  0.00000000000E+00 0. -1.
          1   -1    0    0  501    0 -0.00000000000E+00 -0.00000000000E+00 -0.16413061351E+03  0.16413061351E+03  0.00000000000E+00 0. -1.
         25    2    1    2    0    0  0.78694200135E+01 -0.53913465117E+02  0.57510656488E+02  0.14797659389E+03  0.12498402792E+03 0.  0.
          2    1    1    2  501    0  0.14641534188E+02  0.81757728423E+02 -0.10398162428E+03  0.13308222597E+03  0.00000000000E+00 0. -1.
          1    1    1    2  502    0 -0.22510954201E+02 -0.27844263306E+02  0.87601999815E+03  0.87675143753E+03  0.00000000000E+00 0. -1.
         22    1    3    3    0    0  0.94443630310E+01 -0.76535707082E+02 -0.90627404313E+01  0.77646916975E+02  0.00000000000E+00 0.  1.
         22    1    3    3    0    0 -0.15749430175E+01  0.22622241966E+02  0.66573396919E+02  0.70329676911E+02  0.00000000000E+00 0.  1.
</event>
<event>
 7    1  0.7802682E-006  0.2806303E+02  0.7818608E-02  0.1635700E+00
          2   -1    0    0  502    0  0.00000000000E+00  0.00000000000E+00  0.40243907698E+03  0.40243907698E+03  0.00000000000E+00 0. -1.
          1   -1    0    0  501    0 -0.00000000000E+00 -0.00000000000E+00 -0.90538587624E+02  0.90538587624E+02  0.00000000000E+00 0. -1.
         25    2    1    2    0    0 -0.20540837303E+02 -0.29175503338E+01  0.28746046837E+03  0.31414793577E+03  0.12499986632E+03 0.  0.
          2    1    1    2  501    0  0.10040499046E+02  0.26374024725E+02 -0.72890849741E+02  0.78163142064E+02  0.00000000000E+00 0. -1.
          1    1    1    2  502    0  0.10500338257E+02 -0.23456474392E+02  0.97330870726E+02  0.10066658676E+03  0.00000000000E+00 0. -1.
         22    1    3    3    0    0 -0.50246619769E+02  0.46000256702E+02  0.17878571575E+03  0.19132453729E+03  0.00000000000E+00 0. -1.
         22    1    3    3    0    0  0.29705782466E+02 -0.48917807036E+02  0.10867475262E+03  0.12282339848E+03  0.00000000000E+00 0. -1.
</event>
<event>
 7    1  0.7802682E-006  0.1537162E+03  0.7818608E-02  0.1287199E+00
          2   -1    0    0  502    0  0.00000000000E+00  0.00000000000E+00  0.29454940925E+04  0.29454940925E+04  0.00000000000E+00 0. -1.
          1   -1    0    0  501    0 -0.00000000000E+00 -0.00000000000E+00 -0.37025636967E+03  0.37025636967E+03  0.00000000000E+00 0. -1.
         25    2    1    2    0    0 -0.96084823982E+02 -0.13838576710E+03  0.14541056127E+02  0.21028435317E+03  0.12500061176E+03 0.  0.
          2    1    1    2  501    0 -0.31203961541E+02  0.52348510222E+02 -0.26686409519E+03  0.27373435853E+03  0.00000000000E+00 0. -1.
          1    1    1    2  502    0  0.12728878552E+03  0.86037256881E+02  0.28275607619E+04  0.28317317505E+04  0.00000000000E+00 0. -1.
         22    1    3    3    0    0  0.76440713134E+01 -0.55844410214E+02 -0.37687803202E+02  0.67804133271E+02  0.00000000000E+00 0. -1.
         22    1    3    3    0    0 -0.10372889529E+03 -0.82541356890E+02  0.52228859330E+02  0.14248021990E+03  0.00000000000E+00 0. -1.
</event>
<event>
 7    1  0.7802682E-006  0.9649578E+02  0.7818608E-02  0.1409724E+00
          2   -1    0    0  502    0  0.00000000000E+00  0.00000000000E+00  0.65476122306E+03  0.65476122306E+03  0.00000000000E+00 0. -1.
          1   -1    0    0  501    0 -0.00000000000E+00 -0.00000000000E+00 -0.15218218667E+03  0.15218218667E+03  0.00000000000E+00 0. -1.
         25    2    1    2    0    0 -0.56528388868E+02 -0.10954351089E+03  0.10758940963E+03  0.20590223119E+03  0.12500003287E+03 0.  0.
          2    1    1    2  501    0  0.30288166102E+02  0.87966402326E+02 -0.81293533381E+02  0.12354796442E+03  0.00000000000E+00 0. -1.
          1    1    1    2  502    0  0.26240222766E+02  0.21577108565E+02  0.47628316013E+03  0.47749321412E+03  0.00000000000E+00 0. -1.
         22    1    3    3    0    0 -0.93772331407E+02 -0.85845705961E+02  0.58693709032E+02  0.14002745034E+03  0.00000000000E+00 0.  1.
         22    1    3    3    0    0  0.37243942539E+02 -0.23697804929E+02  0.48895700600E+02  0.65874780846E+02  0.00000000000E+00 0.  1.
</event>
<event>
 7    1  0.7802682E-006  0.4555454E+02  0.7818608E-02  0.1472871E+00
          2   -1    0    0  502    0  0.00000000000E+00  0.00000000000E+00  0.22428644138E+03  0.22428644138E+03  0.00000000000E+00 0. -1.
          1   -1    0    0  501    0 -0.00000000000E+00 -0.00000000000E+00 -0.11307358447E+04  0.11307358447E+04  0.00000000000E+00 0. -1.
         25    2    1    2    0    0 -0.13093715111E+02  0.75476419744E+01 -0.99803126295E+01  0.12631782818E+03  0.12501269856E+03 0.  0.
          2    1    1    2  501    0 -0.22944929314E+02 -0.38618384004E+02 -0.10586932092E+04  0.10596457713E+04  0.00000000000E+00 0. -1.
          1    1    1    2  502    0  0.36038644425E+02  0.31070742029E+02  0.16222411851E+03  0.16905868664E+03  0.00000000000E+00 0. -1.
         22    1    3    3    0    0  0.11999860096E+02 -0.65360458068E-02 -0.64616822251E+02  0.65721612905E+02  0.00000000000E+00 0. -1.
         22    1    3    3    0    0 -0.25093575207E+02  0.75541780202E+01  0.54636509621E+02  0.60596215276E+02  0.00000000000E+00 0. -1.
</event>
<event>
 7    1  0.7802682E-006  0.4749951E+02  0.7818608E-02  0.1466403E+00
          2   -1    0    0  502    0  0.00000000000E+00  0.00000000000E+00  0.97035889837E+03  0.97035889837E+03  0.00000000000E+00 0. -1.
          1   -1    0    0  501    0 -0.00000000000E+00 -0.00000000000E+00 -0.11696833570E+04  0.11696833570E+04  0.00000000000E+00 0. -1.
         25    2    1    2    0    0 -0.43593868839E+02 -0.66230935528E+02 -0.12346573799E+02  0.14854486975E+03  0.12500471281E+03 0.  0.
          2    1    1    2  501    0  0.40944486435E+02  0.18969286438E+02 -0.10881488289E+04  0.10890840917E+04  0.00000000000E+00 0. -1.
          1    1    1    2  502    0  0.26493824042E+01  0.47261649090E+02  0.90117094407E+03  0.90241329398E+03  0.00000000000E+00 0. -1.
         22    1    3    3    0    0 -0.83942507607E+02 -0.32457688419E+02  0.11582443560E+02  0.90741385926E+02  0.00000000000E+00 0. -1.
         22    1    3    3    0    0  0.40348638768E+02 -0.33773247109E+02 -0.23929017359E+02  0.57803483827E+02  0.00000000000E+00 0. -1.
</event>
<event>
 7    1  0.7802682E-006  0.2034160E+03  0.7818608E-02  0.1229417E+00
          2   -1    0    0  502    0  0.00000000000E+00  0.00000000000E+00  0.18091395960E+04  0.18091395960E+04  0.00000000000E+00 0. -1.
          1   -1    0    0  501    0 -0.00000000000E+00 -0.00000000000E+00 -0.42776571428E+03  0.42776571428E+03  0.00000000000E+00 0. -1.
         25    2    1    2    0    0  0.10539100764E+03  0.69896075927E+02 -0.46666558597E+02  0.18383689396E+03  0.12500203986E+03 0.  0.
          2    1    1    2  501    0  0.72423818528E+02  0.37183149292E+02 -0.30089697797E+03  0.31171587613E+03  0.00000000000E+00 0. -1.
          1    1    1    2  502    0 -0.17781482616E+03 -0.10707922522E+03  0.17289374183E+04  0.17413525402E+04  0.00000000000E+00 0. -1.
         22    1    3    3    0    0  0.60459602186E+02  0.97975765301E+02 -0.59102627892E+02  0.12941303917E+03  0.00000000000E+00 0. -1.
         22    1    3    3    0    0  0.44931405449E+02 -0.28079689374E+02  0.12436069295E+02  0.54423854793E+02  0.00000000000E+00 0. -1.
</event>
<event>
 7    1  0.7802682E-006  0.8826382E+02  0.7818608E-02  0.1356188E+00
          2   -1    0    0  502    0  0.00000000000E+00  0.00000000000E+00  0.59298698966E+03  0.59298698966E+03  0.00000000000E+00 0. -1.
          1   -1    0    0  501    0 -0.00000000000E+00 -0.00000000000E+00 -0.83059869589E+03  0.83059869589E+03  0.00000000000E+00 0. -1.
         25    2    1    2    0    0 -0.35945035320E+02 -0.69836191004E+01 -0.27826619802E+03  0.30724302373E+03  0.12500152867E+03 0.  0.
          2    1    1    2  501    0 -0.50718536811E+02  0.26819005482E+02 -0.53287940672E+03  0.53595903868E+03  0.00000000000E+00 0. -1.
          1    1    1    2  502    0  0.86663572131E+02 -0.19835386382E+02  0.57353389850E+03  0.58038362315E+03  0.00000000000E+00 0. -1.
         22    1    3    3    0    0  0.17261386160E+02  0.13734981356E+02  0.11145827486E+01  0.22087269177E+02  0.00000000000E+00 0. -1.
         22    1    3    3    0    0 -0.53206421480E+02 -0.20718600456E+02 -0.27938078076E+03  0.28515575455E+03  0.00000000000E+00 0. -1.
</event>
<event>
 7    1  0.7802682E-006  0.1516279E+03  0.7818608E-02  0.1350470E+00
          2   -1    0    0  502    0  0.00000000000E+00  0.00000000000E+00  0.24820368184E+04  0.24820368184E+04  0.00000000000E+00 0. -1.
          1   -1    0    0  501    0 -0.00000000000E+00 -0.00000000000E+00 -0.37912728209E+03  0.37912728209E+03  0.00000000000E+00 0. -1.
         25    2    1    2    0    0 -0.15953028840E+03  0.38510670740E+02  0.38287919707E+03  0.43491891624E+03  0.12499999792E+03 0.  0.
          2    1    1    2  501    0  0.15120113686E+03 -0.44565307015E+01 -0.33675098526E+03  0.36916509928E+03  0.00000000000E+00 0. -1.
          1    1    1    2  502    0  0.83291515355E+01 -0.34054140038E+02  0.20567813245E+04  0.20570800850E+04  0.00000000000E+00 0. -1.
         22    1    3    3    0    0 -0.38186213139E+02  0.51416776300E+02  0.52796811750E+02  0.83002259547E+02  0.00000000000E+00 0. -1.
         22    1    3    3    0    0 -0.12134407526E+03 -0.12906105560E+02  0.33008238532E+03  0.35191665669E+03  0.00000000000E+00 0. -1.
</event>
<event>
 7    1  0.7802682E-006  0.1507962E+03  0.7818608E-02  0.1267158E+00
          2   -1    0    0  502    0  0.00000000000E+00  0.00000000000E+00  0.56558400631E+03  0.56558400631E+03  0.00000000000E+00 0. -1.
          1   -1    0    0  501    0 -0.00000000000E+00 -0.00000000000E+00 -0.26062761271E+03  0.26062761271E+03  0.00000000000E+00 0. -1.
         25    2    1    2    0    0  0.22615897847E+02 -0.15162848158E+03 -0.12762058654E+03  0.23540395136E+03  0.12500132377E+03 0.  0.
          2    1    1    2  501    0  0.68793279591E+02  0.30474461388E+02 -0.46374960628E+02  0.88384642823E+02  0.00000000000E+00 0. -1.
          1    1    1    2  502    0 -0.91409177438E+02  0.12115402019E+03  0.47895194077E+03  0.50242302485E+03  0.00000000000E+00 0. -1.
         22    1    3    3    0    0 -0.46695830635E+02 -0.73889626923E+02 -0.87825243646E+02  0.12390904320E+03  0.00000000000E+00 0. -1.
         22    1    3    3    0    0  0.69311728482E+02 -0.77738854654E+02 -0.39795342898E+02  0.11149490815E+03  0.00000000000E+00 0. -1.
</event>
<event>
 7    1  0.7802682E-006  0.6956318E+02  0.7818608E-02  0.1450609E+00
          2   -1    0    0  502    0  0.00000000000E+00  0.00000000000E+00  0.34459254811E+03  0.34459254811E+03  0.00000000000E+00 0. -1.
          1   -1    0    0  501    0 -0.00000000000E+00 -0.00000000000E+00 -0.12196281311E+04  0.12196281311E+04  0.00000000000E+00 0. -1.
         25    2    1    2    0    0 -0.51120760705E+01 -0.91706368464E+02  0.18403758060E+03  0.24069537389E+03  0.12501296173E+03 0.  0.
          2    1    1    2  501    0  0.18705664370E+02  0.29068119393E+02 -0.11832643477E+04  0.11837691388E+04  0.00000000000E+00 0. -1.
          1    1    1    2  502    0 -0.13593588299E+02  0.62638249071E+02  0.12419118407E+03  0.13975616656E+03  0.00000000000E+00 0. -1.
         22    1    3    3    0    0 -0.52371492023E+02 -0.17889228859E+01  0.49222266264E+02  0.71894401159E+02  0.00000000000E+00 0.  1.
         22    1    3    3    0    0  0.47259415953E+02 -0.89917445578E+02  0.13481531434E+03  0.16880097273E+03  0.00000000000E+00 0.  1.
</event>
<event>
 7    1  0.7802682E-006  0.1995509E+03  0.7818608E-02  0.1243193E+00
          2   -1    0    0  502    0  0.00000000000E+00  0.00000000000E+00  0.13408082279E+04  0.13408082279E+04  0.00000000000E+00 0. -1.
          1   -1    0    0  501    0 -0.00000000000E+00 -0.00000000000E+00 -0.17676143679E+04  0.17676143679E+04  0.00000000000E+00 0. -1.
         25    2    1    2    0    0 -0.22573254176E+03  0.98555005894E+02  0.18944859166E+03  0.33493892342E+03  0.12500017577E+03 0.  0.
          2    1    1    2  501    0  0.19592600770E+03 -0.32913260139E+02 -0.16878318547E+04  0.16994842315E+04  0.00000000000E+00 0. -1.
          1    1    1    2  502    0  0.29806534057E+02 -0.65641745755E+02  0.10715771231E+04  0.10739994409E+04  0.00000000000E+00 0. -1.
         22    1    3    3    0    0 -0.84721801103E+01 -0.11351512133E+02  0.55023326004E+02  0.56817260300E+02  0.00000000000E+00 0. -1.
         22    1    3    3    0    0 -0.21726036165E+03  0.10990651803E+03  0.13442526566E+03  0.27812166312E+03  0.00000000000E+00 0. -1.
</event>
<event>
 7    1  0.7802682E-006  0.7751965E+02  0.7818608E-02  0.1413536E+00
          2   -1    0    0  502    0  0.00000000000E+00  0.00000000000E+00  0.11163745197E+04  0.11163745197E+04  0.00000000000E+00 0. -1.
          1   -1    0    0  501    0 -0.00000000000E+00 -0.00000000000E+00 -0.78467203373E+03  0.78467203373E+03  0.00000000000E+00 0. -1.
         25    2    1    2    0    0 -0.64658358717E+02 -0.33667520091E+02  0.17275407311E+03  0.22535060692E+03  0.12499888401E+03 0.  0.
          2    1    1    2  501    0  0.40067561301E+02  0.66539593673E+02 -0.75592349597E+03  0.75990345358E+03  0.00000000000E+00 0. -1.
          1    1    1    2  502    0  0.24590797415E+02 -0.32872073581E+02  0.91487190883E+03  0.91579249293E+03  0.00000000000E+00 0. -1.
         22    1    3    3    0    0  0.32335518135E+02 -0.34725829254E+02  0.50586438092E+02  0.69357455758E+02  0.00000000000E+00 0. -1.
         22    1    3    3    0    0 -0.96993876851E+02  0.10583091623E+01  0.12216763502E+03  0.15599315117E+03  0.00000000000E+00 0. -1.
</event>
<event>
 7    1  0.7802682E-006  0.1045292E+03  0.7818608E-02  0.1365350E+00
          2   -1    0    0  502    0  0.00000000000E+00  0.00000000000E+00  0.25953094480E+04  0.25953094480E+04  0.00000000000E+00 0. -1.
          1   -1    0    0  501    0 -0.00000000000E+00 -0.00000000000E+00 -0.13625546217E+04  0.13625546217E+04  0.00000000000E+00 0. -1.
         25    2    1    2    0    0  0.46191390326E+02 -0.80194417101E+02  0.57321974428E+03  0.59394575495E+03  0.12500358198E+03 0.  0.
          2    1    1    2  501    0 -0.83393580573E+01  0.10426861857E+03 -0.13499179956E+04  0.13539645802E+04  0.00000000000E+00 0. -1.
          1    1    1    2  502    0 -0.37852032269E+02 -0.24074201472E+02  0.20094530777E+04  0.20099537345E+04  0.00000000000E+00 0. -1.
         22    1    3    3    0    0  0.51220420452E+02 -0.11117470593E+03  0.41652822549E+03  0.43414180787E+03  0.00000000000E+00 0. -1.
         22    1    3    3    0    0 -0.50290301253E+01  0.30980288826E+02  0.15669151879E+03  0.15980394708E+03  0.00000000000E+00 0. -1.
</event>
<event>
 7    1  0.7802682E-006  0.6213147E+02  0.7818608E-02  0.1403037E+00
          2   -1    0    0  502    0  0.00000000000E+00  0.00000000000E+00  0.25342376159E+04  0.25342376159E+04  0.00000000000E+00 0. -1.
          1   -1    0    0  501    0 -0.00000000000E+00 -0.00000000000E+00 -0.52674188953E+03  0.52674188953E+03  0.00000000000E+00 0. -1.
         25    2    1    2    0    0 -0.26270885336E+02  0.66405953250E+01  0.52853503663E+03  0.54378883728E+03  0.12499103041E+03 0.  0.
          2    1    1    2  501    0  0.40896104756E+02  0.47005184997E+02 -0.51685687031E+03  0.52059869687E+03  0.00000000000E+00 0. -1.
          1    1    1    2  502    0 -0.14625219420E+02 -0.53645780322E+02  0.19958175601E+04  0.19965919713E+04  0.00000000000E+00 0. -1.
         22    1    3    3    0    0 -0.76029776265E+02  0.58070133422E+01  0.27278012145E+03  0.28323707904E+03  0.00000000000E+00 0.  1.
         22    1    3    3    0    0  0.49758890929E+02  0.83358198285E+00  0.25575491518E+03  0.26055175824E+03  0.00000000000E+00 0.  1.
</event>
<event>
 7    1  0.7802682E-006  0.8035767E+02  0.7818608E-02  0.1420297E+00
          2   -1    0    0  502    0  0.00000000000E+00  0.00000000000E+00  0.26410022161E+03  0.26410022161E+03  0.00000000000E+00 0. -1.
          1   -1    0    0  501    0 -0.00000000000E+00 -0.00000000000E+00 -0.10722658639E+04  0.10722658639E+04  0.00000000000E+00 0. -1.
         25    2    1    2    0    0  0.44917422517E+02 -0.74589556405E+02 -0.24761335209E+02  0.15433591445E+03  0.12500109599E+03 0.  0.
          2    1    1    2  501    0 -0.67118396087E+02  0.44259839177E+02 -0.97928304643E+03  0.98257778190E+03  0.00000000000E+00 0. -1.
          1    1    1    2  502    0  0.22200973570E+02  0.30329717228E+02  0.19587873939E+03  0.19945238911E+03  0.00000000000E+00 0. -1.
         22    1    3    3    0    0  0.96468747668E+01 -0.78206809537E+01 -0.66776845474E+02  0.67921810450E+02  0.00000000000E+00 0.  1.
         22    1    3    3    0    0  0.35270547750E+02 -0.66768875451E+02  0.42015510265E+02  0.86414104002E+02  0.00000000000E+00 0.  1.
</event>
<event>
 7    1  0.7802682E-006  0.1000522E+03  0.7818608E-02  0.1359944E+00
          2   -1    0    0  502    0  0.00000000000E+00  0.00000000000E+00  0.11356043311E+04  0.11356043311E+04  0.00000000000E+00 0. -1.
          1   -1    0    0  501    0 -0.00000000000E+00 -0.00000000000E+00 -0.13048383465E+03  0.13048383465E+03  0.00000000000E+00 0. -1.
         25    2    1    2    0    0  0.29948803843E+02 -0.14179138196E+03  0.35588603260E+03  0.40408091038E+03  0.12499914830E+03 0.  0.
          2    1    1    2  501    0 -0.29846521994E+02  0.92755507927E+02 -0.83082036302E+02  0.12805086443E+03  0.00000000000E+00 0. -1.
          1    1    1    2  502    0 -0.10228184849E+00  0.49035874036E+02  0.73231650020E+03  0.73395639098E+03  0.00000000000E+00 0. -1.
         22    1    3    3    0    0  0.51136898832E+02 -0.13668293071E+03  0.35314911833E+03  0.38211451916E+03  0.00000000000E+00 0. -1.
         22    1    3    3    0    0 -0.21188094989E+02 -0.51084512519E+01  0.27369142690E+01  0.21966391219E+02  0.00000000000E+00 0. -1.
</event>
<event>
 7    1  0.7802682E-006  0.1587292E+03  0.7818608E-02  0.1325991E+00
          2   -1    0    0  502    0  0.00000000000E+00  0.00000000000E+00  0.36082930138E+03  0.36082930138E+03  0.00000000000E+00 0. -1.
          1   -1    0    0  501    0 -0.00000000000E+00 -0.00000000000E+00 -0.19130799317E+03  0.19130799317E+03  0.00000000000E+00 0. -1.
         25    2    1    2    0    0 -0.96365201560E+02  0.12282159887E+03  0.10329287858E+03  0.22508928185E+03  0.12499747526E+03 0.  0.
          2    1    1    2  501    0 -0.32956292558E+02 -0.25097383572E+02 -0.91772820519E+02  0.10068885970E+03  0.00000000000E+00 0. -1.
          1    1    1    2  502    0  0.12932149412E+03 -0.97724215295E+02  0.15800125016E+03  0.22635915300E+03  0.00000000000E+00 0. -1.
         22    1    3    3    0    0 -0.11238594979E+03  0.94713311132E+02  0.37362072200E+02  0.15164807106E+03  0.00000000000E+00 0. -1.
         22    1    3    3    0    0  0.16020748235E+02  0.28108287735E+02  0.65930806376E+02  0.73441210793E+02  0.00000000000E+00 0. -1.
</event>
<event>
 7    1  0.1227017E-005  0.8796517E+02  0.7818608E-02  0.1317988E+00
          2   -1    0    0  502    0  0.00000000000E+00  0.00000000000E+00  0.10818766643E+04  0.10818766643E+04  0.00000000000E+00 0. -1.
          1   -1    0    0  501    0 -0.00000000000E+00 -0.00000000000E+00 -0.19138804365E+04  0.19138804365E+04  0.00000000000E+00 0. -1.
         25    2    1    2    0    0  0.10101983902E+03  0.90131755283E+02 -0.25192372755E+03  0.31212235378E+03  0.12500423208E+03 0.  0.
          2    1    1    2  501    0 -0.13910831356E+02 -0.79057244987E+02 -0.16290346495E+04  0.16310111737E+04  0.00000000000E+00 0. -1.
          1    1    1    2  502    0 -0.87109007667E+02 -0.11074510296E+02  0.10489546049E+04  0.10526235733E+04  0.00000000000E+00 0. -1.
         22    1    3    3    0    0  0.23357057568E+02  0.62453878943E+02 -0.20857444272E+03  0.21897337119E+03  0.00000000000E+00 0. -1.
         22    1    3    3    0    0  0.77662781455E+02  0.27677876341E+02 -0.43349284826E+02  0.93148982587E+02  0.00000000000E+00 0. -1.
</event>
<event>
 7    1  0.7802682E-006  0.9418307E+02  0.7818608E-02  0.1320374E+00
          2   -1    0    0  502    0  0.00000000000E+00  0.00000000000E+00  0.19360421281E+04  0.19360421281E+04  0.00000000000E+00 0. -1.
          1   -1    0    0  501    0 -0.00000000000E+00 -0.00000000000E+00 -0.43410504629E+03  0.43410504629E+03  0.00000000000E+00 0. -1.
         25    2    1    2    0    0  0.88802420656E+02 -0.98187592635E+02  0.10786747619E+04  0.10939372724E+04  0.12503135886E+03 0.  0.
          2    1    1    2  501    0 -0.90765447723E+02  0.24824897950E+02 -0.41966933269E+03  0.43008951494E+03  0.00000000000E+00 0. -1.
          1    1    1    2  502    0  0.19630270663E+01  0.73362694685E+02  0.84293165263E+03  0.84612038709E+03  0.00000000000E+00 0. -1.
         22    1    3    3    0    0  0.14924679346E+01 -0.74576833872E+02  0.72705102067E+03  0.73086737393E+03  0.00000000000E+00 0.  1.
         22    1    3    3    0    0  0.87309952722E+02 -0.23610758763E+02  0.35162374124E+03  0.36306989848E+03  0.00000000000E+00 0.  1.
</event>
<event>
 7    1  0.7802682E-006  0.1253467E+03  0.7818608E-02  0.1388665E+00
          2   -1    0    0  502    0  0.00000000000E+00  0.00000000000E+00  0.15472120577E+04  0.15472120577E+04  0.00000000000E+00 0. -1.
          1   -1    0    0  501    0 -0.00000000000E+00 -0.00000000000E+00 -0.47013856871E+03  0.47013856871E+03  0.00000000000E+00 0. -1.
         25    2    1    2    0    0 -0.29374706762E+02  0.12602572587E+03 -0.27518809356E+03  0.32878305188E+03  0.12499780552E+03 0.  0.
          2    1    1    2  501    0  0.55925027399E+02 -0.11020830060E+03 -0.14526430407E+03  0.19072282571E+03  0.00000000000E+00 0. -1.
          1    1    1    2  502    0 -0.26550320636E+02 -0.15817425271E+02  0.14975258866E+04  0.14978447488E+04  0.00000000000E+00 0. -1.
         22    1    3    3    0    0 -0.18145832032E+02  0.13125088503E+03 -0.28413098845E+03  0.31350675374E+03  0.00000000000E+00 0. -1.
         22    1    3    3    0    0 -0.11228874730E+02 -0.52251591652E+01  0.89428948837E+01  0.15276298142E+02  0.00000000000E+00 0. -1.
</event>
<event>
 7    1  0.7802682E-006  0.2659663E+03  0.7818608E-02  0.1270792E+00
          2   -1    0    0  502    0  0.00000000000E+00  0.00000000000E+00  0.74088521861E+03  0.74088521861E+03  0.00000000000E+00 0. -1.
          1   -1    0    0  501    0 -0.00000000000E+00 -0.00000000000E+00 -0.91379394231E+03  0.91379394231E+03  0.00000000000E+00 0. -1.
         25    2    1    2    0    0 -0.28537911687E+03 -0.71372663091E+02 -0.30764449284E+03  0.44362802554E+03  0.12500157475E+03 0.  0.
          2    1    1    2  501    0  0.24751179677E+03  0.55180090826E+02 -0.50758790418E+03  0.56740850578E+03  0.00000000000E+00 0. -1.
          1    1    1    2  502    0  0.37867320099E+02  0.16192572265E+02  0.64232367331E+03  0.64364262959E+03  0.00000000000E+00 0. -1.
         22    1    3    3    0    0 -0.24697911270E+03 -0.53092608032E+02 -0.31134252541E+03  0.40093849312E+03  0.00000000000E+00 0. -1.
         22    1    3    3    0    0 -0.38400004169E+02 -0.18280055059E+02  0.36980325730E+01  0.42689532418E+02  0.00000000000E+00 0. -1.
</event>
<event>
 7    1  0.7802682E-006  0.8715663E+02  0.7818608E-02  0.1442851E+00
          2   -1    0    0  502    0  0.00000000000E+00  0.00000000000E+00  0.69813763858E+02  0.69813763858E+02  0.00000000000E+00 0. -1.
          1   -1    0    0  501    0 -0.00000000000E+00 -0.00000000000E+00 -0.13458427312E+04  0.13458427312E+04  0.00000000000E+00 0. -1.
         25    2    1    2    0    0 -0.43415879765E+02 -0.59923476853E+02 -0.58157483879E+02  0.15647160552E+03  0.12500123484E+03 0.  0.
          2    1    1    2  501    0  0.71270233552E+02  0.51095704773E+02 -0.12257807395E+04  0.12289136009E+04  0.00000000000E+00 0. -1.
          1    1    1    2  502    0 -0.27854353788E+02  0.88277720797E+01  0.79092560045E+01  0.30271288631E+02  0.00000000000E+00 0. -1.
         22    1    3    3    0    0  0.23457028206E+02 -0.61750013501E+02  0.25928165731E+01  0.66106119516E+02  0.00000000000E+00 0. -1.
         22    1    3    3    0    0 -0.66872907971E+02  0.18265366487E+01 -0.60750300452E+02  0.90365486009E+02  0.00000000000E+00 0. -1.
</event>
<event>
 7    1  0.7802682E-006  0.8225459E+02  0.7818608E-02  0.1404925E+00
          2   -1    0    0  502    0  0.00000000000E+00  0.00000000000E+00  0.33385556953E+03  0.33385556953E+03  0.00000000000E+00 0. -1.
          1   -1    0    0  501    0 -0.00000000000E+00 -0.00000000000E+00 -0.34201815397E+03  0.34201815397E+03  0.00000000000E+00 0. -1.
         25    2    1    2    0    0 -0.41738265722E+02 -0.21353393980E+02  0.40309196075E+02  0.13945901771E+03  0.12500374423E+03 0.  0.
          2    1    1    2  501    0 -0.33262072392E+02 -0.24617411951E+02 -0.28295952799E+03  0.28596936359E+03  0.00000000000E+00 0. -1.
          1    1    1    2  502    0  0.75000338114E+02  0.45970805931E+02  0.23448774747E+03  0.25044534220E+03  0.00000000000E+00 0. -1.
         22    1    3    3    0    0 -0.84738725884E+02 -0.29524347811E+02  0.27431505369E+02  0.93834035748E+02  0.00000000000E+00 0.  1.
         22    1    3    3    0    0  0.43000460162E+02  0.81709538306E+01  0.12877690707E+02  0.45624981957E+02  0.00000000000E+00 0.  1.
</event>
<event>
 7    1  0.7802682E-006  0.1606865E+03  0.7818608E-02  0.1333248E+00
          2   -1    0    0  502    0  0.00000000000E+00  0.00000000000E+00  0.23253269175E+04  0.23253269175E+04  0.00000000000E+00 0. -1.
          1   -1    0    0  501    0 -0.00000000000E+00 -0.00000000000E+00 -0.39762082091E+02  0.39762082091E+02  0.00000000000E+00 0. -1.
         25    2    1    2    0    0 -0.81203080412E+02 -0.12921899636E+03  0.12318731950E+04  0.12475683456E+04  0.12499487575E+03 0.  0.
          2    1    1    2  501    0  0.23883429240E+02 -0.30053892816E+02 -0.10621556291E+02  0.39830542599E+02  0.00000000000E+00 0. -1.
          1    1    1    2  502    0  0.57319651171E+02  0.15927288917E+03  0.10643131966E+04  0.10776901114E+04  0.00000000000E+00 0. -1.
         22    1    3    3    0    0 -0.56997029639E+02 -0.15303790069E+03  0.10220430288E+04  0.10350078324E+04  0.00000000000E+00 0. -1.
         22    1    3    3    0    0 -0.24206050773E+02  0.23818904327E+02  0.20983016629E+03  0.21256051322E+03  0.00000000000E+00 0. -1.
</event>
<event>
 7    1  0.7802682E-006  0.4273836E+02  0.7818608E-02  0.1505720E+00
          2   -1    0    0  502    0  0.00000000000E+00  0.00000000000E+00  0.38145728070E+02  0.38145728070E+02  0.00000000000E+00 0. -1.
          1   -1    0    0  501    0 -0.00000000000E+00 -0.00000000000E+00 -0.13157961927E+04  0.13157961927E+04  0.00000000000E+00 0. -1.
         25    2    1    2    0    0  0.90888469924E+01  0.79625485106E+02 -0.20581833566E+03  0.25378856313E+03  0.12499848984E+03 0.  0.
          2    1    1    2  501    0 -0.38473374127E+01 -0.41910748139E+02 -0.10591994689E+04  0.10600352955E+04  0.00000000000E+00 0. -1.
          1    1    1    2  502    0 -0.52415095797E+01 -0.37714736968E+02 -0.12632660049E+02  0.40118062106E+02  0.00000000000E+00 0. -1.
         22    1    3    3    0    0  0.25330122682E+02  0.10464954196E+03 -0.11208633236E+03  0.15542357495E+03  0.00000000000E+00 0. -1.
         22    1    3    3    0    0 -0.16241275689E+02 -0.25024056854E+02 -0.93732003302E+02  0.98364988184E+02  0.00000000000E+00 0. -1.
</event>
<event>
 7    1  0.2680366E-005  0.9616784E+02  0.7818608E-02  0.1378474E+00
          2   -1    0    0  502    0  0.00000000000E+00  0.00000000000E+00  0.15861969585E+04  0.15861969585E+04  0.00000000000E+00 0. -1.
          1   -1    0    0  501    0 -0.00000000000E+00 -0.00000000000E+00 -0.16674709808E+04  0.16674709808E+04  0.00000000000E+00 0. -1.
         25    2    1    2    0    0  0.37139577901E+02  0.38136725082E+02 -0.23895296304E+03  0.27487647763E+03  0.12499920543E+03 0.  0.
          2    1    1    2  501    0  0.36579057739E+02  0.24006715427E+02 -0.14087343331E+04  0.14094136267E+04  0.00000000000E+00 0. -1.
          1    1    1    2  502    0 -0.73718635641E+02 -0.62143440510E+02  0.15664132739E+04  0.15693778350E+04  0.00000000000E+00 0. -1.
         22    1    3    3    0    0 -0.13061538059E+02 -0.73918485056E+01  0.92215412611E+01  0.17614767215E+02  0.00000000000E+00 0. -1.
         22    1    3    3    0    0  0.50201115961E+02  0.45528573588E+02 -0.24817450430E+03  0.25726171041E+03  0.00000000000E+00 0. -1.
</event>
<event>
 7    1  0.7802682E-006  0.1564604E+03  0.7818608E-02  0.1195292E+00
          2   -1    0    0  502    0  0.00000000000E+00  0.00000000000E+00  0.20606457504E+04  0.20606457504E+04  0.00000000000E+00 0. -1.
          1   -1    0    0  501    0 -0.00000000000E+00 -0.00000000000E+00 -0.11525000804E+04  0.11525000804E+04  0.00000000000E+00 0. -1.
         25    2    1    2    0    0 -0.25646193234E+03  0.16250742614E+03 -0.98072521541E+02  0.34267188589E+03  0.12499766242E+03 0.  0.
          2    1    1    2  501    0  0.13868209535E+03 -0.62610389346E+02 -0.92281139962E+03  0.93527197312E+03  0.00000000000E+00 0. -1.
          1    1    1    2  502    0  0.11777983698E+03 -0.99897036794E+02  0.19290295912E+04  0.19352019718E+04  0.00000000000E+00 0. -1.
         22    1    3    3    0    0 -0.73955080084E+02  0.88423025539E+02  0.13885080567E+02  0.11610676457E+03  0.00000000000E+00 0. -1.
         22    1    3    3    0    0 -0.18250685225E+03  0.74084400601E+02 -0.11195760211E+03  0.22656512133E+03  0.00000000000E+00 0. -1.
</event>
<event>
 7    1  0.7802682E-006  0.4574323E+02  0.7818608E-02  0.1511765E+00
          2   -1    0    0  502    0  0.00000000000E+00  0.00000000000E+00  0.11218017954E+04  0.11218017954E+04  0.00000000000E+00 0. -1.
          1   -1    0    0  501    0 -0.00000000000E+00 -0.00000000000E+00 -0.76109449702E+02  0.76109449702E+02  0.00000000000E+00 0. -1.
         25    2    1    2    0    0  0.10760486183E+02  0.29463015126E+02  0.65765453196E+03  0.67016282934E+03  0.12499950843E+03 0.  0.
          2    1    1    2  501    0 -0.42659440133E+02 -0.17282347043E+02 -0.61555226651E+02  0.76860609416E+02  0.00000000000E+00 0. -1.
          1    1    1    2  502    0  0.31898953950E+02 -0.12180668083E+02  0.44959304042E+03  0.45088780636E+03  0.00000000000E+00 0. -1.
         22    1    3    3    0    0  0.51648434033E+02 -0.27193934245E+02  0.26654871261E+03  0.27286496109E+03  0.00000000000E+00 0.  1.
         22    1    3    3    0    0 -0.40887947849E+02  0.56656949370E+02  0.39110581935E+03  0.39729786825E+03  0.00000000000E+00 0.  1.
</event>
<event>
 7    1  0.7802682E-006  0.3134026E+02  0.7818608E-02  0.1624770E+00
          2   -1    0    0  502    0  0.00000000000E+00  0.00000000000E+00  0.11656925063E+04  0.11656925063E+04  0.00000000000E+00 0. -1.
          1   -1    0    0  501    0 -0.00000000000E+00 -0.00000000000E+00 -0.81316205503E+03  0.81316205503E+03  0.00000000000E+00 0. -1.
         25    2    1    2    0    0 -0.16121961529E+02 -0.52829101495E+02 -0.11717246847E+03  0.18001129641E+03  0.12499539135E+03 0.  0.
          2    1    1    2  501    0  0.10891394031E+02  0.21962969864E+02 -0.66412795775E+03  0.66458027263E+03  0.00000000000E+00 0. -1.
          1    1    1    2  502    0  0.52305674981E+01  0.30866131631E+02  0.11338308775E+04  0.11342629923E+04  0.00000000000E+00 0. -1.
         22    1    3    3    0    0 -0.40940639777E+02  0.19845229916E+02 -0.74787973249E+01  0.46107499880E+02  0.00000000000E+00 0. -1.
         22    1    3    3    0    0  0.24818678247E+02 -0.72674331411E+02 -0.10969367114E+03  0.13390379653E+03  0.00000000000E+00 0. -1.
</event>
<event>
 7    1  0.7802682E-006  0.7312594E+02  0.7818608E-02  0.1414811E+00
          2   -1    0    0  502    0  0.00000000000E+00  0.00000000000E+00  0.20576365316E+03  0.20576365316E+03  0.00000000000E+00 0. -1.
          1   -1    0    0  501    0 -0.00000000000E+00 -0.00000000000E+00 -0.15217284777E+04  0.15217284777E+04  0.00000000000E+00 0. -1.
         25    2    1    2    0    0  0.65014477172E+02  0.77081459383E+02 -0.37755610337E+03  0.41029436958E+03  0.12499769956E+03 0.  0.
          2    1    1    2  501    0 -0.42352745353E+02 -0.79397772076E+01 -0.11203855331E+04  0.11212138681E+04  0.00000000000E+00 0. -1.
          1    1    1    2  502    0 -0.22661731818E+02 -0.69141682175E+02  0.18197681197E+03  0.19598389321E+03  0.00000000000E+00 0. -1.
         22    1    3    3    0    0  0.96404885093E+01 -0.12111687945E+02 -0.22251438201E+03  0.22305219614E+03  0.00000000000E+00 0.  1.
         22    1    3    3    0    0  0.55373988662E+02  0.89193147328E+02 -0.15504172136E+03  0.18724217344E+03  0.00000000000E+00 0.  1.
</event>
<event>
 7    1  0.7802682E-006  0.1636721E+03  0.7818608E-02  0.1270862E+00
          2   -1    0    0  502    0  0.00000000000E+00  0.00000000000E+00  0.46440618597E+04  0.46440618597E+04  0.00000000000E+00 0. -1.
          1   -1    0    0  501    0 -0.00000000000E+00 -0.00000000000E+00 -0.48421658736E+02  0.48421658736E+02  0.00000000000E+00 0. -1.
         25    2    1    2    0    0 -0.17232375060E+02 -0.20651369968E+03  0.91887794970E+03  0.95021429299E+03  0.12500261294E+03 0.  0.
          2    1    1    2  501    0  0.49358321340E+02  0.14785605806E+03  0.15483771545E+03  0.21970975381E+03  0.00000000000E+00 0. -1.
          1    1    1    2  502    0 -0.32125946280E+02  0.58657641617E+02  0.35219245358E+04  0.35225594717E+04  0.00000000000E+00 0. -1.
         22    1    3    3    0    0 -0.59270708002E+02 -0.13169448805E+03  0.42322814043E+03  0.44718957262E+03  0.00000000000E+00 0. -1.
         22    1    3    3    0    0  0.42038332943E+02 -0.74819211625E+02  0.49564980927E+03  0.50302472036E+03  0.00000000000E+00 0. -1.
</event>
<event>
 7    1  0.7802682E-006  0.3319147E+03  0.7818608E-02  0.1155279E+00
          2   -1    0    0  502    0  0.00000000000E+00  0.00000000000E+00  0.26269194747E+03  0.26269194747E+03  0.00000000000E+00 0. -1.
          1   -1    0    0  501    0 -0.00000000000E+00 -0.00000000000E+00 -0.10853972273E+04  0.10853972273E+04  0.00000000000E+00 0. -1.
         25    2    1    2    0    0 -0.23137048008E+03 -0.60734978407E+02  0.46193257623E+02  0.27382462431E+03  0.12500028472E+03 0.  0.
          2    1    1    2  501    0  0.34358084956E+03  0.73100739728E+02 -0.89231932640E+03  0.95897095816E+03  0.00000000000E+00 0. -1.
          1    1    1    2  502    0 -0.11221036948E+03 -0.12365761320E+02  0.23420788939E+02  0.11529359230E+03  0.00000000000E+00 0. -1.
         22    1    3    3    0    0  0.90851863176E+01 -0.13440509577E+02 -0.14055028694E+02  0.21464662581E+02  0.00000000000E+00 0. -1.
         22    1    3    3    0    0 -0.24045566639E+03 -0.47294468830E+02  0.60248286317E+02  0.25235996173E+03  0.00000000000E+00 0. -1.
</event>
<event>
 7    1  0.7802682E-006  0.4584954E+02  0.7818608E-02  0.1478344E+00
          2   -1    0    0  502    0  0.00000000000E+00  0.00000000000E+00  0.11444552252E+04  0.11444552252E+04  0.00000000000E+00 0. -1.
          1   -1    0    0  501    0 -0.00000000000E+00 -0.00000000000E+00 -0.15587112154E+03  0.15587112154E+03  0.00000000000E+00 0. -1.
         25    2    1    2    0    0 -0.66816226698E+02 -0.29892490372E+01  0.44642599988E+02  0.14863138453E+03  0.12499993189E+03 0.  0.
          2    1    1    2  501    0  0.33813501540E+02  0.30443035763E+02 -0.98431459353E+02  0.10843838575E+03  0.00000000000E+00 0. -1.
          1    1    1    2  502    0  0.33002725158E+02 -0.27453786726E+02  0.10423729631E+04  0.10432565765E+04  0.00000000000E+00 0. -1.
         22    1    3    3    0    0 -0.35127116857E+02  0.59719384067E+02  0.90599698022E+01  0.69874188546E+02  0.00000000000E+00 0.  1.
         22    1    3    3    0    0 -0.31689109841E+02 -0.62708633105E+02  0.35582630186E+02  0.78757195984E+02  0.00000000000E+00 0.  1.
</event>
<event>
 7    1  0.7802682E-006  0.4399063E+02  0.7818608E-02  0.1533448E+00
          2   -1    0    0  502    0  0.00000000000E+00  0.00000000000E+00  0.94567120352E+03  0.94567120352E+03  0.00000000000E+00 0. -1.
          1   -1    0    0  501    0 -0.00000000000E+00 -0.00000000000E+00 -0.12948817707E+02  0.12948817707E+02  0.00000000000E+00 0. -1.
         25    2    1    2    0    0  0.14795660732E+02  0.54542214835E+02  0.53492714307E+03  0.55223911850E+03  0.12500892304E+03 0.  0.
          2    1    1    2  501    0 -0.31444482368E+02 -0.28713823755E+02  0.12926331406E+03  0.13609644929E+03  0.00000000000E+00 0. -1.
          1    1    1    2  502    0  0.16648821636E+02 -0.25828391080E+02  0.26853192869E+03  0.27028445344E+03  0.00000000000E+00 0. -1.
         22    1    3    3    0    0 -0.13491007895E+02  0.90092831120E+02  0.38159795518E+03  0.39232094630E+03  0.00000000000E+00 0. -1.
         22    1    3    3    0    0  0.28286668627E+02 -0.35550616285E+02  0.15332918789E+03  0.15991817220E+03  0.00000000000E+00 0. -1.
</event>
<event>
 7    1  0.7802682E-006  0.4112126E+02  0.7818608E-02  0.1609026E+00
          2   -1    0    0  502    0  0.00000000000E+00  0.00000000000E+00  0.10480740811E+04  0.10480740811E+04  0.00000000000E+00 0. -1.
          1   -1    0    0  501    0 -0.00000000000E+00 -0.00000000000E+00 -0.94420221811E+03  0.94420221811E+03  0.00000000000E+00 0. -1.
         25    2    1    2    0    0 -0.22337525206E+02 -0.82750666951E+01 -0.17664646058E+03  0.21770640941E+03  0.12499866760E+03 0.  0.
          2    1    1    2  501    0 -0.89906432598E+01 -0.18421922258E+02 -0.74647283269E+03  0.74675423590E+03  0.00000000000E+00 0. -1.
          1    1    1    2  502    0  0.31328168466E+02  0.26696988953E+02  0.10269911563E+04  0.10278156539E+04  0.00000000000E+00 0. -1.
         22    1    3    3    0    0  0.32728991331E+02  0.36319481008E+02 -0.11023590467E+03  0.12059123622E+03  0.00000000000E+00 0. -1.
         22    1    3    3    0    0 -0.55066516538E+02 -0.44594547703E+02 -0.66410555914E+02  0.97115173198E+02  0.00000000000E+00 0. -1.
</event>
<event>
 7    1  0.7802682E-006  0.1196948E+03  0.7818608E-02  0.1369977E+00
          2   -1    0    0  502    0  0.00000000000E+00  0.00000000000E+00  0.13975079898E+04  0.13975079898E+04  0.00000000000E+00 0. -1.
          1   -1    0    0  501    0 -0.00000000000E+00 -0.00000000000E+00 -0.93936043375E+03  0.93936043375E+03  0.00000000000E+00 0. -1.
         25    2    1    2    0    0 -0.55320775378E+02  0.13926315931E+03  0.88083623820E+02  0.21409800065E+03  0.12499845347E+03 0.  0.
          2    1    1    2  501    0 -0.50191579077E+01 -0.37362727167E+02 -0.87313261706E+03  0.87394606945E+03  0.00000000000E+00 0. -1.
          1    1    1    2  502    0  0.60339933286E+02 -0.10190043214E+03  0.12431965493E+04  0.12488243534E+04  0.00000000000E+00 0. -1.
         22    1    3    3    0    0  0.12069831180E+02 -0.14500932956E+02  0.31901925637E+02  0.37063334181E+02  0.00000000000E+00 0. -1.
         22    1    3    3    0    0 -0.67390606558E+02  0.15376409226E+03  0.56181698183E+02  0.17703466647E+03  0.00000000000E+00 0. -1.
</event>
<event>
 7    1  0.7802682E-006  0.2346503E+02  0.7818608E-02  0.1686054E+00
          2   -1    0    0  502    0  0.00000000000E+00  0.00000000000E+00  0.87944177273E+02  0.87944177273E+02  0.00000000000E+00 0. -1.
          1   -1    0    0  501    0 -0.00000000000E+00 -0.00000000000E+00 -0.13959506331E+04  0.13959506331E+04  0.00000000000E+00 0. -1.
         25    2    1    2    0    0 -0.20242119879E+01 -0.57236756125E+01 -0.30323630213E+03  0.32804544605E+03  0.12499880739E+03 0.  0.
          2    1    1    2  501    0  0.23492623814E+02 -0.31134262387E+01 -0.10783927127E+04  0.10786530673E+04  0.00000000000E+00 0. -1.
          1    1    1    2  502    0 -0.21468411826E+02  0.88371018513E+01  0.73622559016E+02  0.77196297006E+02  0.00000000000E+00 0. -1.
         22    1    3    3    0    0  0.43622396142E+02  0.20102814381E+02 -0.24504249345E+03  0.24970554697E+03  0.00000000000E+00 0.  1.
         22    1    3    3    0    0 -0.45646608130E+02 -0.25826489994E+02 -0.58193808674E+02  0.78339899076E+02  0.00000000000E+00 0.  1.
</event>
<event>
 7    1  0.7802682E-006  0.9226525E+02  0.7818608E-02  0.1333787E+00
          2   -1    0    0  502    0  0.00000000000E+00  0.00000000000E+00  0.11547537577E+04  0.11547537577E+04  0.00000000000E+00 0. -1.
          1   -1    0    0  501    0 -0.00000000000E+00 -0.00000000000E+00 -0.22560532258E+03  0.22560532258E+03  0.00000000000E+00 0. -1.
         25    2    1    2    0    0  0.14355385461E+03  0.34668654204E+02 -0.41474568258E+02  0.19787730893E+03  0.12500265925E+03 0.  0.
          2    1    1    2  501    0 -0.78735299381E+02 -0.19625954470E+02 -0.89191703327E+02  0.12058020318E+03  0.00000000000E+00 0. -1.
          1    1    1    2  502    0 -0.64818555232E+02 -0.15042699734E+02  0.10598147067E+04  0.10619015681E+04  0.00000000000E+00 0. -1.
         22    1    3    3    0    0  0.57581171133E+02 -0.45641569777E+02 -0.31053261426E+02  0.79768723232E+02  0.00000000000E+00 0.  1.
         22    1    3    3    0    0  0.85972683479E+02  0.80310223981E+02 -0.10421306833E+02  0.11810858570E+03  0.00000000000E+00 0.  1.
</event>
<event>
 7    1  0.7802682E-006  0.5551059E+02  0.7818608E-02  0.1419242E+00
          2   -1    0    0  502    0  0.00000000000E+00  0.00000000000E+00  0.17938447320E+03  0.17938447320E+03  0.00000000000E+00 0. -1.
          1   -1    0    0  501    0 -0.00000000000E+00 -0.00000000000E+00 -0.85847504438E+03  0.85847504438E+03  0.00000000000E+00 0. -1.
         25    2    1    2    0    0  0.90404466486E+02  0.51819010653E+02  0.65862692480E+02  0.17555633272E+03  0.12499581701E+03 0.  0.
          2    1    1    2  501    0 -0.54122272812E+02 -0.10677370360E+02 -0.78963135487E+03  0.79155600133E+03  0.00000000000E+00 0. -1.
          1    1    1    2  502    0 -0.36282193675E+02 -0.41141640293E+02  0.44678091214E+02  0.70747183537E+02  0.00000000000E+00 0. -1.
         22    1    3    3    0    0  0.47870607411E+02 -0.36586904332E+02  0.45142476984E+02  0.75286385561E+02  0.00000000000E+00 0. -1.
         22    1    3    3    0    0  0.42533859075E+02  0.88405914985E+02  0.20720215496E+02  0.10026994715E+03  0.00000000000E+00 0. -1.
</event>
<event>
 7    1  0.7802682E-006  0.6060064E+02  0.7818608E-02  0.1445172E+00
          2   -1    0    0  502    0  0.00000000000E+00  0.00000000000E+00  0.28852822276E+02  0.28852822276E+02  0.00000000000E+00 0. -1.
          1   -1    0    0  501    0 -0.00000000000E+00 -0.00000000000E+00 -0.85436634691E+03  0.85436634691E+03  0.00000000000E+00 0. -1.
         25    2    1    2    0    0 -0.74076590241E+01  0.30817386983E+02 -0.41096376554E+03  0.43072151020E+03  0.12500087203E+03 0.  0.
          2    1    1    2  501    0  0.37907132630E+02 -0.58673182975E+02 -0.40382536283E+03  0.40982242102E+03  0.00000000000E+00 0. -1.
          1    1    1    2  502    0 -0.30499473606E+02  0.27855795992E+02 -0.10724396265E+02  0.42675237971E+02  0.00000000000E+00 0. -1.
         22    1    3    3    0    0  0.24781442831E+01 -0.23989463004E+02 -0.33835978278E+03  0.33921818662E+03  0.00000000000E+00 0.  1.
         22    1    3    3    0    0 -0.98858033072E+01  0.54806849987E+02 -0.72603982765E+02  0.91503323578E+02  0.00000000000E+00 0.  1.
</event>
<event>
 7    1  0.7802682E-006  0.5458735E+02  0.7818608E-02  0.1547606E+00
          2   -1    0    0  502    0  0.00000000000E+00  0.00000000000E+00  0.11290176348E+04  0.11290176348E+04  0.00000000000E+00 0. -1.
          1   -1    0    0  501    0 -0.00000000000E+00 -0.00000000000E+00 -0.36254192818E+03  0.36254192818E+03  0.00000000000E+00 0. -1.
         25    2    1    2    0    0 -0.67406570680E+01 -0.47393059691E+02  0.57649190854E+03  0.59182552394E+03  0.12499196619E+03 0.  0.
          2    1    1    2  501    0 -0.22566413226E+02 -0.92233880891E+00 -0.35304812379E+03  0.35376980005E+03  0.00000000000E+00 0. -1.
          1    1    1    2  502    0  0.29307070293E+02  0.48315398500E+02  0.54303192189E+03  0.54596423902E+03  0.00000000000E+00 0. -1.
         22    1    3    3    0    0 -0.61714531836E+02 -0.55639259579E+01  0.33339519325E+03  0.33910469710E+03  0.00000000000E+00 0. -1.
         22    1    3    3    0    0  0.54973874768E+02 -0.41829133734E+02  0.24309671529E+03  0.25272082684E+03  0.00000000000E+00 0. -1.
</event>
<event>
 7    1  0.7802682E-006  0.4254696E+03  0.7818608E-02  0.1194057E+00
          2   -1    0    0  502    0  0.00000000000E+00  0.00000000000E+00  0.10104176912E+04  0.10104176912E+04  0.00000000000E+00 0. -1.
          1   -1    0    0  501    0 -0.00000000000E+00 -0.00000000000E+00 -0.12235394397E+04  0.12235394397E+04  0.00000000000E+00 0. -1.
         25    2    1    2    0    0  0.40642402513E+03 -0.24593054220E+03  0.25908214733E+03  0.55534742337E+03  0.12499952716E+03 0.  0.
          2    1    1    2  501    0 -0.36708977733E+03  0.20506876003E+03 -0.10328185558E+04  0.11151332970E+04  0.00000000000E+00 0. -1.
          1    1    1    2  502    0 -0.39334247805E+02  0.40861782168E+02  0.56061465993E+03  0.56347641053E+03  0.00000000000E+00 0. -1.
         22    1    3    3    0    0  0.12846503362E+03 -0.23292634571E+02  0.10398651950E+03  0.16691017922E+03  0.00000000000E+00 0.  1.
         22    1    3    3    0    0  0.27795899151E+03 -0.22263790763E+03  0.15509562783E+03  0.38843724415E+03  0.00000000000E+00 0.  1.
</event>
<event>
 7    1  0.7802682E-006  0.4380314E+02  0.7818608E-02  0.1532296E+00
          2   -1    0    0  502    0  0.00000000000E+00  0.00000000000E+00  0.19033545282E+04  0.19033545282E+04  0.00000000000E+00 0. -1.
          1   -1    0    0  501    0 -0.00000000000E+00 -0.00000000000E+00 -0.87448283520E+02  0.87448283520E+02  0.00000000000E+00 0. -1.
         25    2    1    2    0    0 -0.21187896823E+01  0.65255395663E+02  0.10550472752E+04  0.10644308470E+04  0.12500207635E+03 0.  0.
          2    1    1    2  501    0 -0.15213858645E+02 -0.27119304824E+02 -0.79295151733E+02  0.85174170248E+02  0.00000000000E+00 0. -1.
          1    1    1    2  502    0  0.17332648328E+02 -0.38136090839E+02  0.84015412123E+03  0.84119779454E+03  0.00000000000E+00 0. -1.
         22    1    3    3    0    0  0.24641608176E+02 -0.30130912048E+02  0.20808659996E+03  0.21169580487E+03  0.00000000000E+00 0.  1.
         22    1    3    3    0    0 -0.26760397858E+02  0.95386307711E+02  0.84696067527E+03  0.85273504211E+03  0.00000000000E+00 0.  1.
</event>
<event>
 7    1  0.7802682E-006  0.1478043E+03  0.7818608E-02  0.1298756E+00
          2   -1    0    0  502    0  0.00000000000E+00  0.00000000000E+00  0.40086412340E+03  0.40086412340E+03  0.00000000000E+00 0. -1.
          1   -1    0    0  501    0 -0.00000000000E+00 -0.00000000000E+00 -0.81495987966E+03  0.81495987966E+03  0.00000000000E+00 0. -1.
         25    2    1    2    0    0  0.17628699321E+03 -0.98725650980E+02  0.95085886698E+02  0.25590955418E+03  0.12499806373E+03 0.  0.
          2    1    1    2  501    0 -0.12979665088E+03  0.65905492392E+02 -0.72358736782E+03  0.73808494320E+03  0.00000000000E+00 0. -1.
          1    1    1    2  502    0 -0.46490342331E+02  0.32820158588E+02  0.21440572486E+03  0.22182950569E+03  0.00000000000E+00 0. -1.
         22    1    3    3    0    0  0.11855289293E+03 -0.12594661357E+03  0.78586504824E+02  0.18998204292E+03  0.00000000000E+00 0.  1.
         22    1    3    3    0    0  0.57734100276E+02  0.27220962587E+02  0.16499381874E+02  0.65927511261E+02  0.00000000000E+00 0.  1.
</event>
<event>
 7    1  0.7802682E-006  0.6421835E+02  0.7818608E-02  0.1402357E+00
          2   -1    0    0  502    0  0.00000000000E+00  0.00000000000E+00  0.15345868948E+04  0.15345868948E+04  0.00000000000E+00 0. -1.
          1   -1    0    0  501    0 -0.00000000000E+00 -0.00000000000E+00 -0.53495718146E+03  0.53495718146E+03  0.00000000000E+00 0. -1.
         25    2    1    2    0    0  0.65009785099E+02  0.58079777817E+01 -0.40631290283E+03  0.43008877407E+03  0.12500469516E+03 0.  0.
          2    1    1    2  501    0 -0.56364735565E+02  0.47582399134E+02 -0.10457337463E+03  0.12797132024E+03  0.00000000000E+00 0. -1.
          1    1    1    2  502    0 -0.86450495346E+01 -0.53390376916E+02  0.15105159908E+04  0.15114839820E+04  0.00000000000E+00 0. -1.
         22    1    3    3    0    0 -0.13690525287E+02  0.39638718887E+02 -0.23319531617E+03  0.23693609687E+03  0.00000000000E+00 0.  1.
         22    1    3    3    0    0  0.78700310386E+02 -0.33830741105E+02 -0.17311758666E+03  0.19315267720E+03  0.00000000000E+00 0.  1.
</event>
<event>
 7    1  0.7802682E-006  0.8012608E+02  0.7818608E-02  0.1443521E+00
          2   -1    0    0  502    0  0.00000000000E+00  0.00000000000E+00  0.17417990173E+04  0.17417990173E+04  0.00000000000E+00 0. -1.
          1   -1    0    0  501    0 -0.00000000000E+00 -0.00000000000E+00 -0.24408293643E+03  0.24408293643E+03  0.00000000000E+00 0. -1.
         25    2    1    2    0    0 -0.94932944090E+00 -0.10227022100E+03 -0.11663306930E+03  0.19922185213E+03  0.12500389666E+03 0.  0.
          2    1    1    2  501    0 -0.74435419969E+01  0.71778674035E+02 -0.70870039753E+02  0.10114418865E+03  0.00000000000E+00 0. -1.
          1    1    1    2  502    0  0.83928714378E+01  0.30491546965E+02  0.16852191899E+04  0.16855159129E+04  0.00000000000E+00 0. -1.
         22    1    3    3    0    0 -0.11425429343E+02 -0.12941520292E+03 -0.10778789504E+03  0.16881073869E+03  0.00000000000E+00 0. -1.
         22    1    3    3    0    0  0.10476099902E+02  0.27144981917E+02 -0.88451742653E+01  0.30411113433E+02  0.00000000000E+00 0. -1.
</event>
<event>
 7    1  0.7802682E-006  0.1683609E+03  0.7818608E-02  0.1274756E+00
          2   -1    0    0  502    0  0.00000000000E+00  0.00000000000E+00  0.18174086499E+03  0.18174086499E+03  0.00000000000E+00 0. -1.
          1   -1    0    0  501    0 -0.00000000000E+00 -0.00000000000E+00 -0.70812958832E+03  0.70812958832E+03  0.00000000000E+00 0. -1.
         25    2    1    2    0    0  0.61366868078E+02 -0.12771861520E+03 -0.17160862387E+03  0.25524947671E+03  0.12499935362E+03 0.  0.
          2    1    1    2  501    0 -0.40058962695E+02 -0.48135941681E+02 -0.43548301835E+03  0.43996278098E+03  0.00000000000E+00 0. -1.
          1    1    1    2  502    0 -0.21307905382E+02  0.17585455688E+03  0.80702918896E+02  0.19465819563E+03  0.00000000000E+00 0. -1.
         22    1    3    3    0    0  0.25011025123E+02 -0.14582382347E+03 -0.12775551440E+03  0.19547790241E+03  0.00000000000E+00 0.  1.
         22    1    3    3    0    0  0.36355842955E+02  0.18105208277E+02 -0.43853109474E+02  0.59771574300E+02  0.00000000000E+00 0.  1.
</event>
<event>
 7    1  0.7802682E-006  0.1957805E+03  0.7818608E-02  0.1285749E+00
          2   -1    0    0  502    0  0.00000000000E+00  0.00000000000E+00  0.15192328706E+04  0.15192328706E+04  0.00000000000E+00 0. -1.
          1   -1    0    0  501    0 -0.00000000000E+00 -0.00000000000E+00 -0.20393467783E+03  0.20393467783E+03  0.00000000000E+00 0. -1.
         25    2    1    2    0    0  0.38971311849E+02  0.15042826130E+03  0.45149611474E+02  0.20447925486E+03  0.12500341317E+03 0.  0.
          2    1    1    2  501    0 -0.11384661301E+02  0.47151993304E+02 -0.11208570738E+03  0.12213159617E+03  0.00000000000E+00 0. -1.
          1    1    1    2  502    0 -0.27586650549E+02 -0.19758025461E+03  0.13822342887E+04  0.13965566974E+04  0.00000000000E+00 0. -1.
         22    1    3    3    0    0  0.65189123875E+02  0.15263870880E+03  0.18457640171E+02  0.16699964603E+03  0.00000000000E+00 0. -1.
         22    1    3    3    0    0 -0.26217812026E+02 -0.22104474920E+01  0.26691971303E+02  0.37479608824E+02  0.00000000000E+00 0. -1.
</event>
<event>
 7    1  0.7802682E-006  0.1502093E+03  0.7818608E-02  0.1246890E+00
          2   -1    0    0  502    0  0.00000000000E+00  0.00000000000E+00  0.89745736598E+03  0.89745736598E+03  0.00000000000E+00 0. -1.
          1   -1    0    0  501    0 -0.00000000000E+00 -0.00000000000E+00 -0.10446817146E+04  0.10446817146E+04  0.00000000000E+00 0. -1.
         25    2    1    2    0    0  0.70123831553E+01  0.14751490720E+03 -0.49487511593E+02  0.19970819772E+03  0.12499811626E+03 0.  0.
          2    1    1    2  501    0 -0.90003095837E+02 -0.20343326934E+02 -0.91072218531E+03  0.91538478632E+03  0.00000000000E+00 0. -1.
          1    1    1    2  502    0  0.82990712682E+02 -0.12717158026E+03  0.81298534831E+03  0.82704609653E+03  0.00000000000E+00 0. -1.
         22    1    3    3    0    0  0.35700529551E+02  0.60264581551E+02  0.31921862651E+02  0.76976313986E+02  0.00000000000E+00 0. -1.
         22    1    3    3    0    0 -0.28688146396E+02  0.87250325645E+02 -0.81409374245E+02  0.12273188373E+03  0.00000000000E+00 0. -1.
</event>
<event>
 7    1  0.7802682E-006  0.1542845E+03  0.7818608E-02  0.1200290E+00
          2   -1    0    0  502    0  0.00000000000E+00  0.00000000000E+00  0.18358034935E+04  0.18358034935E+04  0.00000000000E+00 0. -1.
          1   -1    0    0  501    0 -0.00000000000E+00 -0.00000000000E+00 -0.55181794326E+03  0.55181794326E+03  0.00000000000E+00 0. -1.
         25    2    1    2    0    0  0.17088552028E+02 -0.27150116686E+02  0.10389830790E+04  0.10469663643E+04  0.12499432831E+03 0.  0.
          2    1    1    2  501    0  0.88302098341E+02  0.12836915317E+03 -0.52977852114E+03  0.55221479654E+03  0.00000000000E+00 0. -1.
          1    1    1    2  502    0 -0.10539065037E+03 -0.10121903649E+03  0.77478099241E+03  0.78844027594E+03  0.00000000000E+00 0. -1.
         22    1    3    3    0    0 -0.13279514848E+02 -0.52653611882E+02  0.91892949953E+03  0.92053254883E+03  0.00000000000E+00 0.  1.
         22    1    3    3    0    0  0.30368066876E+02  0.25503495196E+02  0.12005357948E+03  0.12643381549E+03  0.00000000000E+00 0.  1.
</event>
<event>
 7    1  0.7802682E-006  0.4700480E+02  0.7818608E-02  0.1546161E+00
          2   -1    0    0  502    0  0.00000000000E+00  0.00000000000E+00  0.88837164799E+03  0.88837164799E+03  0.00000000000E+00 0. -1.
          1   -1    0    0  501    0 -0.00000000000E+00 -0.00000000000E+00 -0.21495063017E+02  0.21495063017E+02  0.00000000000E+00 0. -1.
         25    2    1    2    0    0  0.20584403680E+02  0.42052389191E+02  0.26745308038E+03  0.29891088154E+03  0.12499777511E+03 0.  0.
          2    1    1    2  501    0  0.49937533201E+01 -0.48881460637E+02  0.10613192855E+03  0.11695435445E+03  0.00000000000E+00 0. -1.
          1    1    1    2  502    0 -0.25578157000E+02  0.68290714461E+01  0.49329157604E+03  0.49400147503E+03  0.00000000000E+00 0. -1.
         22    1    3    3    0    0  0.66681475727E+02  0.35714023092E+02  0.10167817990E+03  0.12672948717E+03  0.00000000000E+00 0.  1.
         22    1    3    3    0    0 -0.46097072047E+02  0.63383660994E+01  0.16577490049E+03  0.17218139437E+03  0.00000000000E+00 0.  1.
</event>
<event>
 7    1  0.7802682E-006  0.1441677E+03  0.7818608E-02  0.1255017E+00
          2   -1    0    0  502    0  0.00000000000E+00  0.00000000000E+00  0.39490087798E+03  0.39490087798E+03  0.00000000000E+00 0. -1.
          1   -1    0    0  501    0 -0.00000000000E+00 -0.00000000000E+00 -0.34608527121E+03  0.34608527121E+03  0.00000000000E+00 0. -1.
         25    2    1    2    0    0 -0.10172389207E+03 -0.95376174865E+02  0.13473096193E+03  0.23070078251E+03  0.12500421592E+03 0.  0.
          2    1    1    2  501    0 -0.53355122067E+02  0.70802065941E+02 -0.26068232914E+03  0.27534519846E+03  0.00000000000E+00 0. -1.
          1    1    1    2  502    0  0.15507901413E+03  0.24574108924E+02  0.17476697396E+03  0.23494016822E+03  0.00000000000E+00 0. -1.
         22    1    3    3    0    0 -0.33238131096E+02 -0.38896098402E+02  0.13235306061E+03  0.14189789456E+03  0.00000000000E+00 0. -1.
         22    1    3    3    0    0 -0.68485760970E+02 -0.56480076464E+02  0.23779013272E+01  0.88802887947E+02  0.00000000000E+00 0. -1.
</event>
<event>
 7    1  0.7802682E-006  0.9699854E+02  0.7818608E-02  0.1318881E+00
          2   -1    0    0  502    0  0.00000000000E+00  0.00000000000E+00  0.69984031580E+03  0.69984031580E+03  0.00000000000E+00 0. -1.
          1   -1    0    0  501    0 -0.00000000000E+00 -0.00000000000E+00 -0.39488882109E+04  0.39488882109E+04  0.00000000000E+00 0. -1.
         25    2    1    2    0    0  0.36467302717E+02 -0.14899467456E+03 -0.64480368928E+03  0.67448175366E+03  0.12499824438E+03 0.  0.
          2    1    1    2  501    0 -0.48998300899E+02  0.53049925143E+02 -0.32854297838E+04  0.32862233631E+04  0.00000000000E+00 0. -1.
          1    1    1    2  502    0  0.12530998182E+02  0.95944749417E+02  0.68118557801E+03  0.68802340988E+03  0.00000000000E+00 0. -1.
         22    1    3    3    0    0  0.82871502681E+01  0.11220285289E+02 -0.20638661011E+03  0.20685744970E+03  0.00000000000E+00 0. -1.
         22    1    3    3    0    0  0.28180152449E+02 -0.16021495985E+03 -0.43841707917E+03  0.46762430396E+03  0.00000000000E+00 0. -1.
</event>
<event>
 7    1  0.7802682E-006  0.1694314E+03  0.7818608E-02  0.1261655E+00
          2   -1    0    0  502    0  0.00000000000E+00  0.00000000000E+00  0.67287221587E+03  0.67287221587E+03  0.00000000000E+00 0. -1.
          1   -1    0    0  501    0 -0.00000000000E+00 -0.00000000000E+00 -0.14477382978E+04  0.14477382978E+04  0.00000000000E+00 0. -1.
         25    2    1    2    0    0  0.11751609344E+03 -0.51579803564E+01 -0.37488406794E+03  0.41230950633E+03  0.12499771054E+03 0.  0.
          2    1    1    2  501    0  0.46742008218E+02  0.52989575714E+02 -0.10417386470E+04  0.10441322326E+04  0.00000000000E+00 0. -1.
          1    1    1    2  502    0 -0.16425810165E+03 -0.47831595357E+02  0.64175663297E+03  0.66416877481E+03  0.00000000000E+00 0. -1.
         22    1    3    3    0    0  0.91853118750E+00 -0.45777346094E+02 -0.73245152636E+02  0.86378593990E+02  0.00000000000E+00 0. -1.
         22    1    3    3    0    0  0.11659756225E+03  0.40619365737E+02 -0.30163891531E+03  0.32593091235E+03  0.00000000000E+00 0. -1.
</event>
<event>
 7    1  0.7802682E-006  0.5055523E+02  0.7818608E-02  0.1471719E+00
          2   -1    0    0  502    0  0.00000000000E+00  0.00000000000E+00  0.20868629752E+04  0.20868629752E+04  0.00000000000E+00 0. -1.
          1   -1    0    0  501    0 -0.00000000000E+00 -0.00000000000E+00 -0.21987254827E+03  0.21987254827E+03  0.00000000000E+00 0. -1.
         25    2    1    2    0    0 -0.10564255073E+02 -0.44451787837E+02  0.11020011109E+04  0.11100083126E+04  0.12499776273E+03 0.  0.
          2    1    1    2  501    0  0.40811276858E+02 -0.13377754599E+00 -0.21319206398E+03  0.21706320360E+03  0.00000000000E+00 0. -1.
          1    1    1    2  502    0 -0.30247021785E+02  0.44585565383E+02  0.97818137991E+03  0.97966400719E+03  0.00000000000E+00 0. -1.
         22    1    3    3    0    0  0.36799946923E+02  0.27217700063E+02  0.46338127462E+03  0.46563638706E+03  0.00000000000E+00 0. -1.
         22    1    3    3    0    0 -0.47364201996E+02 -0.71669487900E+02  0.63861983633E+03  0.64437192558E+03  0.00000000000E+00 0. -1.
</event>
<event>
 7    1  0.7802682E-006  0.1223682E+03  0.7818608E-02  0.1394628E+00
          2   -1    0    0  502    0  0.00000000000E+00  0.00000000000E+00  0.24608246205E+04  0.24608246205E+04  0.00000000000E+00 0. -1.
          1   -1    0    0  501    0 -0.00000000000E+00 -0.00000000000E+00 -0.79540194274E+02  0.79540194274E+02  0.00000000000E+00 0. -1.
         25    2    1    2    0    0  0.29857769033E+01  0.13889609426E+03  0.26845332135E+03  0.32709812820E+03  0.12499983946E+03 0.  0.
          2    1    1    2  501    0 -0.23265685104E+02 -0.11654612609E+03  0.20358890223E+02  0.12057684695E+03  0.00000000000E+00 0. -1.
          1    1    1    2  502    0  0.20279908201E+02 -0.22349968175E+02  0.20924722147E+04  0.20926898397E+04  0.00000000000E+00 0. -1.
         22    1    3    3    0    0  0.42160052357E+02  0.13611726150E+03  0.23801643981E+03  0.27741161568E+03  0.00000000000E+00 0. -1.
         22    1    3    3    0    0 -0.39174275453E+02  0.27788327624E+01  0.30436881534E+02  0.49686512519E+02  0.00000000000E+00 0. -1.
</event>
<event>
 7    1  0.7802682E-006  0.1188966E+03  0.7818608E-02  0.1317351E+00
          2   -1    0    0  502    0  0.00000000000E+00  0.00000000000E+00  0.26724961491E+04  0.26724961491E+04  0.00000000000E+00 0. -1.
          1   -1    0    0  501    0 -0.00000000000E+00 -0.00000000000E+00 -0.28243370096E+03  0.28243370096E+03  0.00000000000E+00 0. -1.
         25    2    1    2    0    0  0.77829970896E+02  0.13358965593E+03  0.85073174308E+03  0.87365244982E+03  0.12498161408E+03 0.  0.
          2    1    1    2  501    0 -0.55776266614E+02 -0.21365785971E+02 -0.26585013665E+03  0.27247712544E+03  0.00000000000E+00 0. -1.
          1    1    1    2  502    0 -0.22053704282E+02 -0.11222386996E+03  0.18051808417E+04  0.18088002748E+04  0.00000000000E+00 0. -1.
         22    1    3    3    0    0 -0.10731394652E+02  0.68675742052E+02  0.53233078927E+03  0.53684968993E+03  0.00000000000E+00 0. -1.
         22    1    3    3    0    0  0.88561365547E+02  0.64913913878E+02  0.31840095381E+03  0.33680275989E+03  0.00000000000E+00 0. -1.
</event>
<event>
 7    1  0.7802682E-006  0.5973795E+02  0.7818608E-02  0.1461332E+00
          2   -1    0    0  502    0  0.00000000000E+00  0.00000000000E+00  0.45322376340E+03  0.45322376340E+03  0.00000000000E+00 0. -1.
          1   -1    0    0  501    0 -0.00000000000E+00 -0.00000000000E+00 -0.26223231580E+03  0.26223231580E+03  0.00000000000E+00 0. -1.
         25    2    1    2    0    0 -0.21142544473E+02 -0.73476362827E+02  0.64124391723E+02  0.15994616268E+03  0.12500021705E+03 0.  0.
          2    1    1    2  501    0  0.33817205523E+02  0.15545891957E+02 -0.21009665167E+03  0.21336794790E+03  0.00000000000E+00 0. -1.
          1    1    1    2  502    0 -0.12674661049E+02  0.57930470870E+02  0.33696370755E+03  0.34214196862E+03  0.00000000000E+00 0. -1.
         22    1    3    3    0    0 -0.69868473608E+02 -0.52743033985E+02  0.17245906082E+02  0.89223609627E+02  0.00000000000E+00 0. -1.
         22    1    3    3    0    0  0.48725929135E+02 -0.20733328842E+02  0.46878485642E+02  0.70722553057E+02  0.00000000000E+00 0. -1.
</event>
<event>
 7    1  0.7802682E-006  0.9580738E+02  0.7818608E-02  0.1401820E+00
          2   -1    0    0  502    0  0.00000000000E+00  0.00000000000E+00  0.16400742041E+04  0.16400742041E+04  0.00000000000E+00 0. -1.
          1   -1    0    0  501    0 -0.00000000000E+00 -0.00000000000E+00 -0.93899245737E+03  0.93899245737E+03  0.00000000000E+00 0. -1.
         25    2    1    2    0    0 -0.30303568760E+02  0.84160217942E+02  0.11287041002E+03  0.19069000009E+03  0.12498679175E+03 0.  0.
          2    1    1    2  501    0 -0.34159489605E+02 -0.12593428462E+02 -0.89815510968E+03  0.89889268893E+03  0.00000000000E+00 0. -1.
          1    1    1    2  502    0  0.64463058365E+02 -0.71566789481E+02  0.14863664464E+04  0.14894839725E+04  0.00000000000E+00 0. -1.
         22    1    3    3    0    0  0.47188933427E+02  0.35607095249E+02  0.26074905814E+02  0.64610845709E+02  0.00000000000E+00 0.  1.
         22    1    3    3    0    0 -0.77492502188E+02  0.48553122694E+02  0.86795504205E+02  0.12607915438E+03  0.00000000000E+00 0.  1.
</event>
<event>
 7    1  0.7802682E-006  0.7222738E+02  0.7818608E-02  0.1520639E+00
          2   -1    0    0  502    0  0.00000000000E+00  0.00000000000E+00  0.15050731574E+04  0.15050731574E+04  0.00000000000E+00 0. -1.
          1   -1    0    0  501    0 -0.00000000000E+00 -0.00000000000E+00 -0.88317298310E+02  0.88317298310E+02  0.00000000000E+00 0. -1.
         25    2    1    2    0    0 -0.57496489993E+02 -0.10106188224E+02  0.27566083576E+03  0.30825590569E+03  0.12499930246E+03 0.  0.
          2    1    1    2  501    0  0.67740955803E+02  0.27716171231E+02 -0.53314766247E+02  0.90551021754E+02  0.00000000000E+00 0. -1.
          1    1    1    2  502    0 -0.10244465810E+02 -0.17609983006E+02  0.11944097895E+04  0.11945835282E+04  0.00000000000E+00 0. -1.
         22    1    3    3    0    0 -0.94819239727E+02 -0.16276527281E+02  0.22756351259E+03  0.24706429492E+03  0.00000000000E+00 0.  1.
         22    1    3    3    0    0  0.37322749734E+02  0.61703390570E+01  0.48097323171E+02  0.61191610765E+02  0.00000000000E+00 0.  1.
</event>
<event>
 7    1  0.7802682E-006  0.2874463E+03  0.7818608E-02  0.1216835E+00
          2   -1    0    0  502    0  0.00000000000E+00  0.00000000000E+00  0.89308058953E+03  0.89308058953E+03  0.00000000000E+00 0. -1.
          1   -1    0    0  501    0 -0.00000000000E+00 -0.00000000000E+00 -0.60999879901E+03  0.60999879901E+03  0.00000000000E+00 0. -1.
         25    2    1    2    0    0  0.21760176517E+03 -0.25277496475E+03  0.62122809546E+02  0.36156498596E+03  0.12499713836E+03 0.  0.
          2    1    1    2  501    0 -0.11546240779E+02  0.64680027162E+02 -0.42910686814E+03  0.43410773533E+03  0.00000000000E+00 0. -1.
          1    1    1    2  502    0 -0.20605552439E+03  0.18809493759E+03  0.65006584912E+03  0.70740666725E+03  0.00000000000E+00 0. -1.
         22    1    3    3    0    0  0.12519970084E+02 -0.92598679720E+02  0.35610461059E+02  0.99996850319E+02  0.00000000000E+00 0. -1.
         22    1    3    3    0    0  0.20508179509E+03 -0.16017628503E+03  0.26512348487E+02  0.26156813564E+03  0.00000000000E+00 0. -1.
</event>
<event>
 7    1  0.7802682E-006  0.8974113E+02  0.7818608E-02  0.1419682E+00
          2   -1    0    0  502    0  0.00000000000E+00  0.00000000000E+00  0.62981987423E+02  0.62981987423E+02  0.00000000000E+00 0. -1.
          1   -1    0    0  501    0 -0.00000000000E+00 -0.00000000000E+00 -0.11453064978E+04  0.11453064978E+04  0.00000000000E+00 0. -1.
         25    2    1    2    0    0 -0.68553621776E+02  0.24850005965E+02 -0.16186647471E+03  0.21713626855E+03  0.12502112473E+03 0.  0.
          2    1    1    2  501    0  0.70135546491E+02 -0.58629271285E+02 -0.94497332217E+03  0.94938451954E+03  0.00000000000E+00 0. -1.
          1    1    1    2  502    0 -0.15819247155E+01  0.33779265320E+02  0.24515286503E+02  0.41767697132E+02  0.00000000000E+00 0. -1.
         22    1    3    3    0    0  0.15140170820E+02 -0.14249593455E+02  0.91887491151E+01  0.22731229540E+02  0.00000000000E+00 0.  1.
         22    1    3    3    0    0 -0.83693792596E+02  0.39099599420E+02 -0.17105522382E+03  0.19440503901E+03  0.00000000000E+00 0.  1.
</event>
<event>
 7    1  0.7802682E-006  0.5489510E+02  0.7818608E-02  0.1463917E+00
          2   -1    0    0  502    0  0.00000000000E+00  0.00000000000E+00  0.71080213931E+02  0.71080213931E+02  0.00000000000E+00 0. -1.
          1   -1    0    0  501    0 -0.00000000000E+00 -0.00000000000E+00 -0.11983743384E+04  0.11983743384E+04  0.00000000000E+00 0. -1.
         25    2    1    2    0    0  0.13591775778E+02  0.88837618669E+02 -0.16466795619E+03  0.22542655663E+03  0.12499895110E+03 0.  0.
          2    1    1    2  501    0  0.31808015507E+01 -0.39624525796E+02 -0.98615731435E+03  0.98695819019E+03  0.00000000000E+00 0. -1.
          1    1    1    2  502    0 -0.16772577329E+02 -0.49213092873E+02  0.23531146104E+02  0.57069805479E+02  0.00000000000E+00 0. -1.
         22    1    3    3    0    0 -0.12130048189E+02  0.11581136849E+03 -0.11925526612E+03  0.16667702193E+03  0.00000000000E+00 0.  1.
         22    1    3    3    0    0  0.25721823968E+02 -0.26973749825E+02 -0.45412690073E+02  0.58749534700E+02  0.00000000000E+00 0.  1.
</event>
<event>
 7    1  0.7802682E-006  0.1763368E+03  0.7818608E-02  0.1310791E+00
          2   -1    0    0  502    0  0.00000000000E+00  0.00000000000E+00  0.22810727450E+03  0.22810727450E+03  0.00000000000E+00 0. -1.
          1   -1    0    0  501    0 -0.00000000000E+00 -0.00000000000E+00 -0.22524646890E+04  0.22524646890E+04  0.00000000000E+00 0. -1.
         25    2    1    2    0    0  0.76727398670E+02 -0.19630391789E+03 -0.11748222803E+03  0.27175287844E+03  0.12500092459E+03 0.  0.
          2    1    1    2  501    0 -0.16401193821E+02  0.39453343523E+02 -0.20107838880E+04  0.20112377805E+04  0.00000000000E+00 0. -1.
          1    1    1    2  502    0 -0.60326204849E+02  0.15685057437E+03  0.10390870152E+03  0.19758130459E+03  0.00000000000E+00 0. -1.
         22    1    3    3    0    0  0.86382179571E+02 -0.55141665996E+02 -0.36894778417E+02  0.10892065438E+03  0.00000000000E+00 0.  1.
         22    1    3    3    0    0 -0.96547809016E+01 -0.14116225190E+03 -0.80587449617E+02  0.16283222406E+03  0.00000000000E+00 0.  1.
</event>
<event>
 7    1  0.7802682E-006  0.1814189E+03  0.7818608E-02  0.1216933E+00
          2   -1    0    0  502    0  0.00000000000E+00  0.00000000000E+00  0.26348462770E+03  0.26348462770E+03  0.00000000000E+00 0. -1.
          1   -1    0    0  501    0 -0.00000000000E+00 -0.00000000000E+00 -0.11304556917E+04  0.11304556917E+04  0.00000000000E+00 0. -1.
         25    2    1    2    0    0  0.30088624844E+02  0.10427523795E+03  0.16308834380E+02  0.16634072936E+03  0.12499843827E+03 0.  0.
          2    1    1    2  501    0 -0.12790754024E+03 -0.13957669942E+03 -0.10302820569E+04  0.10475319139E+04  0.00000000000E+00 0. -1.
          1    1    1    2  502    0  0.97818915401E+02  0.35301461472E+02  0.14700215850E+03  0.18006767616E+03  0.00000000000E+00 0. -1.
         22    1    3    3    0    0 -0.62258560033E+01 -0.60912778534E+01 -0.37356439792E+02  0.38358422058E+02  0.00000000000E+00 0.  1.
         22    1    3    3    0    0  0.36314480847E+02  0.11036651580E+03  0.53665274172E+02  0.12798230730E+03  0.00000000000E+00 0.  1.
</event>
<event>
 7    1  0.7802682E-006  0.4668225E+02  0.7818608E-02  0.1535030E+00
          2   -1    0    0  502    0  0.00000000000E+00  0.00000000000E+00  0.12503731397E+04  0.12503731397E+04  0.00000000000E+00 0. -1.
          1   -1    0    0  501    0 -0.00000000000E+00 -0.00000000000E+00 -0.48903445084E+03  0.48903445084E+03  0.00000000000E+00 0. -1.
         25    2    1    2    0    0 -0.49256517035E+02  0.13707388686E+02 -0.63027170021E+02  0.14903594218E+03  0.12500076370E+03 0.  0.
          2    1    1    2  501    0  0.30578025298E+02 -0.35442852225E+02 -0.38140170970E+03  0.38426354962E+03  0.00000000000E+00 0. -1.
          1    1    1    2  502    0  0.18678491737E+02  0.21735463539E+02  0.12057675686E+04  0.12061080987E+04  0.00000000000E+00 0. -1.
         22    1    3    3    0    0  0.25152440622E+02 -0.10555517951E+02  0.20836637500E+02  0.34325350555E+02  0.00000000000E+00 0. -1.
         22    1    3    3    0    0 -0.74408957657E+02  0.24262906637E+02 -0.83863807521E+02  0.11471059162E+03  0.00000000000E+00 0. -1.
</event>
<event>
 7    1  0.7802682E-006  0.1114064E+03  0.7818608E-02  0.1449041E+00
          2   -1    0    0  502    0  0.00000000000E+00  0.00000000000E+00  0.60504037237E+03  0.60504037237E+03  0.00000000000E+00 0. -1.
          1   -1    0    0  501    0 -0.00000000000E+00 -0.00000000000E+00 -0.46740305732E+03  0.46740305732E+03  0.00000000000E+00 0. -1.
         25    2    1    2    0    0  0.70920460511E+02 -0.58497514188E+02  0.47129786505E+02  0.16213227613E+03  0.12495594144E+03 0.  0.
          2    1    1    2  501    0  0.14736867123E+02 -0.16111297140E+02 -0.40315603677E+03  0.40374687508E+03  0.00000000000E+00 0. -1.
          1    1    1    2  502    0 -0.85657327634E+02  0.74608811328E+02  0.49366356532E+03  0.50656427848E+03  0.00000000000E+00 0. -1.
         22    1    3    3    0    0  0.96490451693E+02 -0.28973115916E+02 -0.22707950475E+00  0.10074671349E+03  0.00000000000E+00 0.  1.
         22    1    3    3    0    0 -0.25569991183E+02 -0.29524398271E+02  0.47356866010E+02  0.61385562640E+02  0.00000000000E+00 0.  1.
</event>
<event>
 7    1  0.7802682E-006  0.3943020E+02  0.7818608E-02  0.1613503E+00
          2   -1    0    0  502    0  0.00000000000E+00  0.00000000000E+00  0.15950345032E+04  0.15950345032E+04  0.00000000000E+00 0. -1.
          1   -1    0    0  501    0 -0.00000000000E+00 -0.00000000000E+00 -0.35921823977E+03  0.35921823977E+03  0.00000000000E+00 0. -1.
         25    2    1    2    0    0  0.14828846919E+02 -0.17381825881E+02  0.32402624239E+02  0.13113097203E+03  0.12499351661E+03 0.  0.
          2    1    1    2  501    0  0.20815719550E+02  0.29787694166E+00 -0.30924593129E+03  0.30994584838E+03  0.00000000000E+00 0. -1.
          1    1    1    2  502    0 -0.35644566469E+02  0.17083948940E+02  0.15126595705E+04  0.15131759226E+04  0.00000000000E+00 0. -1.
         22    1    3    3    0    0 -0.34286114563E+02 -0.40692175369E+02 -0.18814661280E+02  0.56439190880E+02  0.00000000000E+00 0. -1.
         22    1    3    3    0    0  0.49114961483E+02  0.23310349487E+02  0.51217285520E+02  0.74691781145E+02  0.00000000000E+00 0. -1.
</event>
<event>
 7    1  0.7802682E-006  0.5875985E+02  0.7818608E-02  0.1454155E+00
          2   -1    0    0  502    0  0.00000000000E+00  0.00000000000E+00  0.25228747628E+04  0.25228747628E+04  0.00000000000E+00 0. -1.
          1   -1    0    0  501    0 -0.00000000000E+00 -0.00000000000E+00 -0.41113615644E+03  0.41113615644E+03  0.00000000000E+00 0. -1.
         25    2    1    2    0    0  0.39578890109E+02 -0.84514187076E+02  0.86809422856E+03  0.88199896446E+03  0.12500178914E+03 0.  0.
          2    1    1    2  501    0 -0.54736086264E+01  0.39492794226E+02 -0.40271509320E+03  0.40468393529E+03  0.00000000000E+00 0. -1.
          1    1    1    2  502    0 -0.34105281482E+02  0.45021392850E+02  0.16463594710E+04  0.16473280195E+04  0.00000000000E+00 0. -1.
         22    1    3    3    0    0 -0.17518757516E+02  0.17938646931E+02  0.54467369113E+02  0.59961622866E+02  0.00000000000E+00 0.  1.
         22    1    3    3    0    0  0.57097647625E+02 -0.10245283401E+03  0.81362685945E+03  0.82203734159E+03  0.00000000000E+00 0.  1.
</event>
<event>
 7    1  0.7802682E-006  0.7774604E+02  0.7818608E-02  0.1400910E+00
          2   -1    0    0  502    0  0.00000000000E+00  0.00000000000E+00  0.23847316885E+03  0.23847316885E+03  0.00000000000E+00 0. -1.
          1   -1    0    0  501    0 -0.00000000000E+00 -0.00000000000E+00 -0.15485733869E+03  0.15485733869E+03  0.00000000000E+00 0. -1.
         25    2    1    2    0    0  0.78353449000E+01 -0.46738320228E+02  0.42308024742E+02  0.14021733726E+03  0.12500027802E+03 0.  0.
          2    1    1    2  501    0  0.35013114578E+02 -0.28567417813E+02 -0.87148809004E+02  0.98167868795E+02  0.00000000000E+00 0. -1.
          1    1    1    2  502    0 -0.42848459478E+02  0.75305738041E+02  0.12845661443E+03  0.15494530148E+03  0.00000000000E+00 0. -1.
         22    1    3    3    0    0 -0.48100057997E+02  0.14905253578E+02  0.13504973036E+02  0.52136038019E+02  0.00000000000E+00 0.  1.
         22    1    3    3    0    0  0.55935402897E+02 -0.61643573807E+02  0.28803051707E+02  0.88081299244E+02  0.00000000000E+00 0.  1.
</event>
<event>
 7    1  0.7802682E-006  0.6722528E+02  0.7818608E-02  0.1452583E+00
          2   -1    0    0  502    0  0.00000000000E+00  0.00000000000E+00  0.11915032595E+04  0.11915032595E+04  0.00000000000E+00 0. -1.
          1   -1    0    0  501    0 -0.00000000000E+00 -0.00000000000E+00 -0.97723483641E+02  0.97723483641E+02  0.00000000000E+00 0. -1.
         25    2    1    2    0    0  0.36574218136E+02  0.58906207617E+02  0.30692211515E+03  0.33857761132E+03  0.12500399749E+03 0.  0.
          2    1    1    2  501    0 -0.59419736708E+02 -0.32056711819E+02 -0.67555143178E+02  0.95509346416E+02  0.00000000000E+00 0. -1.
          1    1    1    2  502    0  0.22845518572E+02 -0.26849495798E+02  0.85441280386E+03  0.85513978538E+03  0.00000000000E+00 0. -1.
         22    1    3    3    0    0  0.72520760142E+02  0.53444260634E+02  0.13131311296E+03  0.15924409967E+03  0.00000000000E+00 0. -1.
         22    1    3    3    0    0 -0.35946542006E+02  0.54619469831E+01  0.17560900220E+03  0.17933351165E+03  0.00000000000E+00 0. -1.
</event>
<event>
 7    1  0.7802682E-006  0.8068785E+02  0.7818608E-02  0.1424836E+00
          2   -1    0    0  502    0  0.00000000000E+00  0.00000000000E+00  0.18549697297E+04  0.18549697297E+04  0.00000000000E+00 0. -1.
          1   -1    0    0  501    0 -0.00000000000E+00 -0.00000000000E+00 -0.23996518913E+03  0.23996518913E+03  0.00000000000E+00 0. -1.
         25    2    1    2    0    0  0.14958020513E+02 -0.57490176219E+02 -0.62283833963E+02  0.15178685995E+03  0.12502444618E+03 0.  0.
          2    1    1    2  501    0  0.39389011218E+01  0.88312110041E+02 -0.11803095425E+03  0.14746474116E+03  0.00000000000E+00 0. -1.
          1    1    1    2  502    0 -0.18896921635E+02 -0.30821933822E+02  0.17953193288E+04  0.17956833177E+04  0.00000000000E+00 0. -1.
         22    1    3    3    0    0 -0.32485958771E+02 -0.23676819511E+02  0.24636421092E+02  0.47147455325E+02  0.00000000000E+00 0. -1.
         22    1    3    3    0    0  0.47443979284E+02 -0.33813356707E+02 -0.86920255054E+02  0.10463940463E+03  0.00000000000E+00 0. -1.
</event>
<event>
 7    1  0.7802682E-006  0.7061336E+02  0.7818608E-02  0.1437062E+00
          2   -1    0    0  502    0  0.00000000000E+00  0.00000000000E+00  0.14787967691E+04  0.14787967691E+04  0.00000000000E+00 0. -1.
          1   -1    0    0  501    0 -0.00000000000E+00 -0.00000000000E+00 -0.78499948409E+03  0.78499948409E+03  0.00000000000E+00 0. -1.
         25    2    1    2    0    0 -0.62561582074E+02  0.26758204737E+02  0.58620852574E+03  0.60323692200E+03  0.12499758136E+03 0.  0.
          2    1    1    2  501    0  0.69910325551E+02  0.10177454802E+02 -0.77447573765E+03  0.77769126420E+03  0.00000000000E+00 0. -1.
          1    1    1    2  502    0 -0.73487434769E+01 -0.36935659538E+02  0.88206449695E+03  0.88286806701E+03  0.00000000000E+00 0. -1.
         22    1    3    3    0    0  0.53374229678E+01 -0.41906042390E+02  0.24549134973E+03  0.24909959306E+03  0.00000000000E+00 0.  1.
         22    1    3    3    0    0 -0.67899005042E+02  0.68664247127E+02  0.34071717601E+03  0.35413732894E+03  0.00000000000E+00 0.  1.
</event>
<event>
 7    1  0.7802682E-006  0.1432039E+03  0.7818608E-02  0.1240892E+00
          2   -1    0    0  502    0  0.00000000000E+00  0.00000000000E+00  0.84746900312E+03  0.84746900312E+03  0.00000000000E+00 0. -1.
          1   -1    0    0  501    0 -0.00000000000E+00 -0.00000000000E+00 -0.12074627654E+04  0.12074627654E+04  0.00000000000E+00 0. -1.
         25    2    1    2    0    0 -0.72944260521E+02 -0.82043611042E+02 -0.95824085049E+02  0.19198693633E+03  0.12499883676E+03 0.  0.
          2    1    1    2  501    0  0.80518347599E+02 -0.63951714606E+02 -0.10543513449E+04  0.10593534748E+04  0.00000000000E+00 0. -1.
          1    1    1    2  502    0 -0.75740870780E+01  0.14599532565E+03  0.79018166762E+03  0.80359135743E+03  0.00000000000E+00 0. -1.
         22    1    3    3    0    0 -0.48138751515E+02  0.12368079332E+02 -0.78401475107E+02  0.92828336636E+02  0.00000000000E+00 0.  1.
         22    1    3    3    0    0 -0.24805509007E+02 -0.94411690373E+02 -0.17422609943E+02  0.99158599695E+02  0.00000000000E+00 0.  1.
</event>
<event>
 7    1  0.7802682E-006  0.7603702E+02  0.7818608E-02  0.1403867E+00
          2   -1    0    0  502    0  0.00000000000E+00  0.00000000000E+00  0.14677716695E+04  0.14677716695E+04  0.00000000000E+00 0. -1.
          1   -1    0    0  501    0 -0.00000000000E+00 -0.00000000000E+00 -0.78765917075E+03  0.78765917075E+03  0.00000000000E+00 0. -1.
         25    2    1    2    0    0  0.89575954282E+02  0.76624651710E+02  0.31631719305E+03  0.35996705894E+03  0.12499811227E+03 0.  0.
          2    1    1    2  501    0 -0.65252339653E+02 -0.38600041583E+02 -0.76350512563E+03  0.76726000020E+03  0.00000000000E+00 0. -1.
          1    1    1    2  502    0 -0.24323614628E+02 -0.38024610127E+02  0.11273004314E+04  0.11282037811E+04  0.00000000000E+00 0. -1.
         22    1    3    3    0    0  0.20001699114E+02 -0.10655510619E+02  0.19022308275E+03  0.19156834051E+03  0.00000000000E+00 0.  1.
         22    1    3    3    0    0  0.69574255168E+02  0.87280162329E+02  0.12609411030E+03  0.16839871843E+03  0.00000000000E+00 0.  1.
</event>
<event>
 7    1  0.7802682E-006  0.5831921E+02  0.7818608E-02  0.1459478E+00
          2   -1    0    0  502    0  0.00000000000E+00  0.00000000000E+00  0.48906199459E+03  0.48906199459E+03  0.00000000000E+00 0. -1.
          1   -1    0    0  501    0 -0.00000000000E+00 -0.00000000000E+00 -0.44185797946E+03  0.44185797946E+03  0.00000000000E+00 0. -1.
         25    2    1    2    0    0 -0.73775383698E+02 -0.33917004731E+02  0.35883919106E+02  0.15331959523E+03  0.12500428865E+03 0.  0.
          2    1    1    2  501    0  0.37118951834E+02 -0.10739418966E+02 -0.38003968621E+03  0.38199910314E+03  0.00000000000E+00 0. -1.
          1    1    1    2  502    0  0.36656431863E+02  0.44656423697E+02  0.39135978222E+03  0.39560127568E+03  0.00000000000E+00 0. -1.
         22    1    3    3    0    0 -0.43596779951E+02 -0.80447888571E+02  0.97796226776E+01  0.92022730981E+02  0.00000000000E+00 0. -1.
         22    1    3    3    0    0 -0.30178603747E+02  0.46530883839E+02  0.26104296429E+02  0.61296864251E+02  0.00000000000E+00 0. -1.
</event>
<event>
 7    1  0.7802682E-006  0.8863044E+02  0.7818608E-02  0.1355794E+00
          2   -1    0    0  502    0  0.00000000000E+00  0.00000000000E+00  0.11263152157E+04  0.11263152157E+04  0.00000000000E+00 0. -1.
          1   -1    0    0  501    0 -0.00000000000E+00 -0.00000000000E+00 -0.37937995278E+03  0.37937995278E+03  0.00000000000E+00 0. -1.
         25    2    1    2    0    0 -0.64057911572E+02  0.91734149974E+02 -0.78677430800E+02  0.18526612494E+03  0.12495930788E+03 0.  0.
          2    1    1    2  501    0  0.57220102234E+02 -0.34795928647E+01 -0.24223142958E+03  0.24892230342E+03  0.00000000000E+00 0. -1.
          1    1    1    2  502    0  0.68378093386E+01 -0.88254557109E+02  0.10678441233E+04  0.10715067401E+04  0.00000000000E+00 0. -1.
         22    1    3    3    0    0 -0.38461152176E+02  0.67029203615E+02 -0.11229730818E+03  0.13631896342E+03  0.00000000000E+00 0.  1.
         22    1    3    3    0    0 -0.25596759397E+02  0.24704946358E+02  0.33619877376E+02  0.48947161521E+02  0.00000000000E+00 0.  1.
</event>
<event>
 7    1  0.7802682E-006  0.6928307E+02  0.7818608E-02  0.1443318E+00
          2   -1    0    0  502    0  0.00000000000E+00  0.00000000000E+00  0.18797093843E+02  0.18797093843E+02  0.00000000000E+00 0. -1.
          1   -1    0    0  501    0 -0.00000000000E+00 -0.00000000000E+00 -0.26523506436E+04  0.26523506436E+04  0.00000000000E+00 0. -1.
         25    2    1    2    0    0 -0.42437661877E+02 -0.78774092369E+02 -0.74145975118E+03  0.75722762199E+03  0.12499918440E+03 0.  0.
          2    1    1    2  501    0  0.34595360895E+02  0.12038669459E+02 -0.17975882703E+04  0.17979614451E+04  0.00000000000E+00 0. -1.
          1    1    1    2  502    0  0.78423009816E+01  0.66735422910E+02 -0.94505528273E+02  0.11595867035E+03  0.00000000000E+00 0. -1.
         22    1    3    3    0    0 -0.15721751451E+02 -0.11024672108E+03 -0.49868873728E+03  0.51097159380E+03  0.00000000000E+00 0. -1.
         22    1    3    3    0    0 -0.26715910425E+02  0.31472628713E+02 -0.24277101390E+03  0.24625602819E+03  0.00000000000E+00 0. -1.
</event>
<event>
 7    1  0.7802682E-006  0.7103300E+02  0.7818608E-02  0.1467376E+00
          2   -1    0    0  502    0  0.00000000000E+00  0.00000000000E+00  0.20511655980E+03  0.20511655980E+03  0.00000000000E+00 0. -1.
          1   -1    0    0  501    0 -0.00000000000E+00 -0.00000000000E+00 -0.54338113320E+03  0.54338113320E+03  0.00000000000E+00 0. -1.
         25    2    1    2    0    0 -0.44248487527E+02 -0.43101699110E+01 -0.15582000868E+03  0.20464877542E+03  0.12499895984E+03 0.  0.
          2    1    1    2  501    0 -0.24658068353E+02 -0.17025012172E+02 -0.35529213640E+03  0.35655346522E+03  0.00000000000E+00 0. -1.
          1    1    1    2  502    0  0.68906555880E+02  0.21335182083E+02  0.17284757168E+03  0.18729545235E+03  0.00000000000E+00 0. -1.
         22    1    3    3    0    0  0.76770201823E+01  0.53988394207E+02 -0.67313874155E+02  0.86630485406E+02  0.00000000000E+00 0. -1.
         22    1    3    3    0    0 -0.51925507709E+02 -0.58298564118E+02 -0.88506134526E+02  0.11801829001E+03  0.00000000000E+00 0. -1.
</event>
<event>
 7    1  0.7802682E-006  0.1652245E+03  0.7818608E-02  0.1365894E+00
          2   -1    0    0  502    0  0.00000000000E+00  0.00000000000E+00  0.16258455608E+04  0.16258455608E+04  0.00000000000E+00 0. -1.
          1   -1    0    0  501    0 -0.00000000000E+00 -0.00000000000E+00 -0.27349076452E+03  0.27349076452E+03  0.00000000000E+00 0. -1.
         25    2    1    2    0    0 -0.34909011964E+01 -0.14745208100E+03  0.97343525012E+02  0.21645752044E+03  0.12499517474E+03 0.  0.
          2    1    1    2  501    0 -0.15375872496E+02  0.16848098551E+03 -0.18032543989E+03  0.24726407788E+03  0.00000000000E+00 0. -1.
          1    1    1    2  502    0  0.18866773692E+02 -0.21028904511E+02  0.14353367111E+04  0.14356147270E+04  0.00000000000E+00 0. -1.
         22    1    3    3    0    0 -0.47322292532E+02 -0.19677774826E+02  0.23252256888E+01  0.51303224725E+02  0.00000000000E+00 0.  1.
         22    1    3    3    0    0  0.43831391336E+02 -0.12777430618E+03  0.95018299323E+02  0.16515429571E+03  0.00000000000E+00 0.  1.
</event>
<event>
 7    1  0.7802682E-006  0.1088408E+03  0.7818608E-02  0.1427464E+00
          2   -1    0    0  502    0  0.00000000000E+00  0.00000000000E+00  0.22196868014E+03  0.22196868014E+03  0.00000000000E+00 0. -1.
          1   -1    0    0  501    0 -0.00000000000E+00 -0.00000000000E+00 -0.10567642183E+04  0.10567642183E+04  0.00000000000E+00 0. -1.
         25    2    1    2    0    0 -0.26073802238E+02 -0.93768358448E+02 -0.12387537974E+03  0.20110302701E+03  0.12499987824E+03 0.  0.
          2    1    1    2  501    0  0.53526618056E+01  0.10991691646E+03 -0.88992713886E+03  0.89670546558E+03  0.00000000000E+00 0. -1.
          1    1    1    2  502    0  0.20721140432E+02 -0.16148558010E+02  0.17900698044E+03  0.18092440585E+03  0.00000000000E+00 0. -1.
         22    1    3    3    0    0 -0.69241373369E+02 -0.88242689667E+02 -0.71543731869E+02  0.13304001517E+03  0.00000000000E+00 0.  1.
         22    1    3    3    0    0  0.43167571131E+02 -0.55256687810E+01 -0.52331647870E+02  0.68063011847E+02  0.00000000000E+00 0.  1.
</event>
<event>
 7    1  0.7802682E-006  0.1145014E+03  0.7818608E-02  0.1288639E+00
          2   -1    0    0  502    0  0.00000000000E+00  0.00000000000E+00  0.17454044803E+04  0.17454044803E+04  0.00000000000E+00 0. -1.
          1   -1    0    0  501    0 -0.00000000000E+00 -0.00000000000E+00 -0.10693413328E+04  0.10693413328E+04  0.00000000000E+00 0. -1.
         25    2    1    2    0    0 -0.52373250561E+02  0.15532114690E+02  0.19878667583E+03  0.24109246262E+03  0.12500091633E+03 0.  0.
          2    1    1    2  501    0  0.10681326649E+03  0.44060385343E+02 -0.10439310878E+04  0.10503059114E+04  0.00000000000E+00 0. -1.
          1    1    1    2  502    0 -0.54440015926E+02 -0.59592500034E+02  0.15212075594E+04  0.15233474391E+04  0.00000000000E+00 0. -1.
         22    1    3    3    0    0 -0.62561956559E+02 -0.33867595507E+02  0.58798487771E+02  0.92294499284E+02  0.00000000000E+00 0.  1.
         22    1    3    3    0    0  0.10188705998E+02  0.49399710197E+02  0.13998818806E+03  0.14879796334E+03  0.00000000000E+00 0.  1.
</event>
<event>
 7    1  0.7802682E-006  0.1153726E+03  0.7818608E-02  0.1318386E+00
          2   -1    0    0  502    0  0.00000000000E+00  0.00000000000E+00  0.32979331373E+03  0.32979331373E+03  0.00000000000E+00 0. -1.
          1   -1    0    0  501    0 -0.00000000000E+00 -0.00000000000E+00 -0.19004513116E+04  0.19004513116E+04  0.00000000000E+00 0. -1.
         25    2    1    2    0    0 -0.27102343704E+02  0.84837138816E+02 -0.45727383821E+03  0.48234114026E+03  0.12498694057E+03 0.  0.
          2    1    1    2  501    0  0.88081444434E+02 -0.85640923655E+02 -0.14250457059E+04  0.14303314205E+04  0.00000000000E+00 0. -1.
          1    1    1    2  502    0 -0.60979100730E+02  0.80378483843E+00  0.31166154623E+03  0.31757206457E+03  0.00000000000E+00 0. -1.
         22    1    3    3    0    0  0.40506964317E+02  0.36150111468E+02 -0.85010207994E+02  0.10086813263E+03  0.00000000000E+00 0. -1.
         22    1    3    3    0    0 -0.67609308021E+02  0.48687027348E+02 -0.37226363022E+03  0.38147300763E+03  0.00000000000E+00 0. -1.
</event>
<event>
 7    1  0.7802682E-006  0.8038284E+02  0.7818608E-02  0.1333312E+00
          2   -1    0    0  502    0  0.00000000000E+00  0.00000000000E+00  0.13653570070E+04  0.13653570070E+04  0.00000000000E+00 0. -1.
          1   -1    0    0  501    0 -0.00000000000E+00 -0.00000000000E+00 -0.93257259186E+02  0.93257259186E+02  0.00000000000E+00 0. -1.
         25    2    1    2    0    0 -0.26897796477E+02  0.36767854480E+02  0.61641680735E+03  0.63060739731E+03  0.12498256911E+03 0.  0.
          2    1    1    2  501    0 -0.72029120710E+02 -0.35682027931E+02 -0.63259321632E+02  0.10228950641E+03  0.00000000000E+00 0. -1.
          1    1    1    2  502    0  0.98926917187E+02 -0.10858265489E+01  0.71894226207E+03  0.72571736244E+03  0.00000000000E+00 0. -1.
         22    1    3    3    0    0 -0.32408288942E+01 -0.45695527180E+02  0.26049473286E+03  0.26449213604E+03  0.00000000000E+00 0.  1.
         22    1    3    3    0    0 -0.23656967583E+02  0.82463381659E+02  0.35592207449E+03  0.36611526127E+03  0.00000000000E+00 0.  1.
</event>
<event>
 7    1  0.7802682E-006  0.5892629E+02  0.7818608E-02  0.1419655E+00
          2   -1    0    0  502    0  0.00000000000E+00  0.00000000000E+00  0.13848013719E+04  0.13848013719E+04  0.00000000000E+00 0. -1.
          1   -1    0    0  501    0 -0.00000000000E+00 -0.00000000000E+00 -0.38345061544E+03  0.38345061544E+03  0.00000000000E+00 0. -1.
         25    2    1    2    0    0 -0.48548012355E+02  0.73831174115E+02  0.67415436173E+02  0.16726831692E+03  0.12500358809E+03 0.  0.
          2    1    1    2  501    0 -0.65879011441E+00 -0.58597426900E+02 -0.33042159371E+03  0.33557789264E+03  0.00000000000E+00 0. -1.
          1    1    1    2  502    0  0.49206802470E+02 -0.15233747215E+02  0.12643569140E+04  0.12654057778E+04  0.00000000000E+00 0. -1.
         22    1    3    3    0    0  0.20093681599E+02 -0.21375330683E+02  0.34666771766E+02  0.45414159319E+02  0.00000000000E+00 0. -1.
         22    1    3    3    0    0 -0.68641693954E+02  0.95206504797E+02  0.32748664407E+02  0.12185415760E+03  0.00000000000E+00 0. -1.
</event>
<event>
 7    1  0.7802682E-006  0.6869481E+02  0.7818608E-02  0.1387924E+00
          2   -1    0    0  502    0  0.00000000000E+00  0.00000000000E+00  0.96931620830E+03  0.96931620830E+03  0.00000000000E+00 0. -1.
          1   -1    0    0  501    0 -0.00000000000E+00 -0.00000000000E+00 -0.27639518236E+03  0.27639518236E+03  0.00000000000E+00 0. -1.
         25    2    1    2    0    0  0.97867164837E+02 -0.77850121918E+02 -0.16155779427E+03  0.23950811186E+03  0.12499836527E+03 0.  0.
          2    1    1    2  501    0 -0.43838951347E+02  0.36004690001E+02 -0.63806671844E+02  0.85378467596E+02  0.00000000000E+00 0. -1.
          1    1    1    2  502    0 -0.54028213490E+02  0.41845431916E+02  0.91828549205E+03  0.92082481121E+03  0.00000000000E+00 0. -1.
         22    1    3    3    0    0  0.55009266623E+02 -0.54122286564E+02 -0.17279832667E+03  0.18924720082E+03  0.00000000000E+00 0. -1.
         22    1    3    3    0    0  0.42857898214E+02 -0.23727835354E+02  0.11240532401E+02  0.50260911039E+02  0.00000000000E+00 0. -1.
</event>
<event>
 7    1  0.7802682E-006  0.5258800E+02  0.7818608E-02  0.1483060E+00
          2   -1    0    0  502    0  0.00000000000E+00  0.00000000000E+00  0.11497991623E+03  0.11497991623E+03  0.00000000000E+00 0. -1.
          1   -1    0    0  501    0 -0.00000000000E+00 -0.00000000000E+00 -0.93639229790E+03  0.93639229790E+03  0.00000000000E+00 0. -1.
         25    2    1    2    0    0 -0.23043873089E+02  0.17040963723E+02 -0.15351004000E+03  0.20002920219E+03  0.12499973925E+03 0.  0.
          2    1    1    2  501    0 -0.30864694336E+02 -0.18921870139E+02 -0.75121805147E+03  0.75208990644E+03  0.00000000000E+00 0. -1.
          1    1    1    2  502    0  0.53908567425E+02  0.18809064160E+01  0.83315709803E+02  0.99253105497E+02  0.00000000000E+00 0. -1.
         22    1    3    3    0    0  0.18927113729E+02 -0.32217960316E+02 -0.12287242074E+03  0.12842844069E+03  0.00000000000E+00 0.  1.
         22    1    3    3    0    0 -0.41970986818E+02  0.49258924039E+02 -0.30637619266E+02  0.71600761492E+02  0.00000000000E+00 0.  1.
</event>
<event>
 7    1  0.7802682E-006  0.1772558E+03  0.7818608E-02  0.1323878E+00
          2   -1    0    0  502    0  0.00000000000E+00  0.00000000000E+00  0.61877643945E+03  0.61877643945E+03  0.00000000000E+00 0. -1.
          1   -1    0    0  501    0 -0.00000000000E+00 -0.00000000000E+00 -0.51817192521E+03  0.51817192521E+03  0.00000000000E+00 0. -1.
         25    2    1    2    0    0 -0.15163204063E+03 -0.12748523442E+03 -0.27897717413E+03  0.36428512840E+03  0.12502251936E+03 0.  0.
          2    1    1    2  501    0  0.11864728737E+03  0.10903045977E+03 -0.16274486397E+03  0.22902120143E+03  0.00000000000E+00 0. -1.
          1    1    1    2  502    0  0.32984753266E+02  0.18454774655E+02  0.54232655234E+03  0.54364203483E+03  0.00000000000E+00 0. -1.
         22    1    3    3    0    0 -0.12672117750E+03 -0.27410635266E+02 -0.13490842291E+03  0.18710927910E+03  0.00000000000E+00 0.  1.
         22    1    3    3    0    0 -0.24910863132E+02 -0.10007459916E+03 -0.14406875122E+03  0.17717584930E+03  0.00000000000E+00 0.  1.
</event>
<event>
 7    1  0.7802682E-006  0.9837836E+02  0.7818608E-02  0.1292952E+00
          2   -1    0    0  502    0  0.00000000000E+00  0.00000000000E+00  0.18151237018E+04  0.18151237018E+04  0.00000000000E+00 0. -1.
          1   -1    0    0  501    0 -0.00000000000E+00 -0.00000000000E+00 -0.15400765393E+03  0.15400765393E+03  0.00000000000E+00 0. -1.
         25    2    1    2    0    0  0.23349616542E+02  0.15413289824E+03  0.19781287901E+03  0.28117053150E+03  0.12499911105E+03 0.  0.
          2    1    1    2  501    0 -0.61771228684E+02 -0.72492491480E+02 -0.90593963059E+02  0.13144623295E+03  0.00000000000E+00 0. -1.
          1    1    1    2  502    0  0.38421612141E+02 -0.81640406765E+02  0.15538971320E+04  0.15565145913E+04  0.00000000000E+00 0. -1.
         22    1    3    3    0    0  0.12738477056E+02  0.63830911638E+02  0.17602410715E+03  0.18767296123E+03  0.00000000000E+00 0.  1.
         22    1    3    3    0    0  0.10611139486E+02  0.90301986607E+02  0.21788771861E+02  0.93497570265E+02  0.00000000000E+00 0.  1.
</event>
<event>
 7    1  0.7802682E-006  0.3352225E+02  0.7818608E-02  0.1605506E+00
          2   -1    0    0  502    0  0.00000000000E+00  0.00000000000E+00  0.93383008857E+03  0.93383008857E+03  0.00000000000E+00 0. -1.
          1   -1    0    0  501    0 -0.00000000000E+00 -0.00000000000E+00 -0.66771749217E+03  0.66771749217E+03  0.00000000000E+00 0. -1.
         25    2    1    2    0    0 -0.21258990193E+02  0.19665041090E+02  0.44116393715E+03  0.45944431751E+03  0.12499921177E+03 0.  0.
          2    1    1    2  501    0  0.33404748876E+02  0.29596532977E+01 -0.65780892903E+03  0.65866320978E+03  0.00000000000E+00 0. -1.
          1    1    1    2  502    0 -0.12145758683E+02 -0.22624694388E+02  0.48275758828E+03  0.48344005346E+03  0.00000000000E+00 0. -1.
         22    1    3    3    0    0 -0.26563313347E+02 -0.39141740531E+02  0.75867917247E+02  0.89407082131E+02  0.00000000000E+00 0.  1.
         22    1    3    3    0    0  0.53043231545E+01  0.58806781620E+02  0.36529601990E+03  0.37003723537E+03  0.00000000000E+00 0.  1.
</event>
<event>
 7    1  0.7802682E-006  0.8439709E+02  0.7818608E-02  0.1429008E+00
          2   -1    0    0  502    0  0.00000000000E+00  0.00000000000E+00  0.98642758536E+03  0.98642758536E+03  0.00000000000E+00 0. -1.
          1   -1    0    0  501    0 -0.00000000000E+00 -0.00000000000E+00 -0.41607112312E+03  0.41607112312E+03  0.00000000000E+00 0. -1.
         25    2    1    2    0    0  0.99057253457E+02  0.12632230603E+02  0.77378067043E+03  0.79014880242E+03  0.12500676510E+03 0.  0.
          2    1    1    2  501    0 -0.26412587539E+02 -0.20580469267E+02 -0.40063644941E+03  0.40203326366E+03  0.00000000000E+00 0. -1.
          1    1    1    2  502    0 -0.72644665918E+02  0.79482386634E+01  0.19721224122E+03  0.21031664240E+03  0.00000000000E+00 0. -1.
         22    1    3    3    0    0  0.11600095223E+03  0.43505838337E+02  0.63470842676E+03  0.64668676026E+03  0.00000000000E+00 0.  1.
         22    1    3    3    0    0 -0.16943698777E+02 -0.30873607734E+02  0.13907224367E+03  0.14346204216E+03  0.00000000000E+00 0.  1.
</event>
<event>
 7    1  0.7802682E-006  0.7586482E+02  0.7818608E-02  0.1351931E+00
          2   -1    0    0  502    0  0.00000000000E+00  0.00000000000E+00  0.19978734359E+04  0.19978734359E+04  0.00000000000E+00 0. -1.
          1   -1    0    0  501    0 -0.00000000000E+00 -0.00000000000E+00 -0.15408958958E+03  0.15408958958E+03  0.00000000000E+00 0. -1.
         25    2    1    2    0    0 -0.21724807170E+02  0.27505050256E+02  0.41648894007E+02  0.13633688085E+03  0.12499847867E+03 0.  0.
          2    1    1    2  501    0  0.73497417218E+02  0.27948237356E+02 -0.91401606699E+02  0.12057042762E+03  0.00000000000E+00 0. -1.
          1    1    1    2  502    0 -0.51772610048E+02 -0.55453287612E+02  0.18935365590E+04  0.18950557170E+04  0.00000000000E+00 0. -1.
         22    1    3    3    0    0  0.31492169283E+02  0.35735122358E+02  0.62508750257E+02  0.78588164216E+02  0.00000000000E+00 0.  1.
         22    1    3    3    0    0 -0.53216976453E+02 -0.82300721022E+01 -0.20859856251E+02  0.57748716630E+02  0.00000000000E+00 0.  1.
</event>
<event>
 7    1  0.7802682E-006  0.2032545E+03  0.7818608E-02  0.1375244E+00
          2   -1    0    0  502    0  0.00000000000E+00  0.00000000000E+00  0.59558780353E+03  0.59558780353E+03  0.00000000000E+00 0. -1.
          1   -1    0    0  501    0 -0.00000000000E+00 -0.00000000000E+00 -0.13946907342E+04  0.13946907342E+04  0.00000000000E+00 0. -1.
         25    2    1    2    0    0  0.91233797859E+02 -0.17935586179E+03  0.11561641067E+03  0.26360260294E+03  0.12500818706E+03 0.  0.
          2    1    1    2  501    0  0.19736630287E+02  0.78937671455E+01 -0.12949177488E+04  0.12950922061E+04  0.00000000000E+00 0. -1.
          1    1    1    2  502    0 -0.11097042815E+03  0.17146209465E+03  0.38019840747E+03  0.43158372869E+03  0.00000000000E+00 0. -1.
         22    1    3    3    0    0  0.29697938254E+02 -0.15895723632E+01 -0.16232324897E+02  0.33881892633E+02  0.00000000000E+00 0.  1.
         22    1    3    3    0    0  0.61535859605E+02 -0.17776628943E+03  0.13184873556E+03  0.22972071031E+03  0.00000000000E+00 0.  1.
</event>
<event>
 7    1  0.7802682E-006  0.6871627E+02  0.7818608E-02  0.1442942E+00
          2   -1    0    0  502    0  0.00000000000E+00  0.00000000000E+00  0.33806149134E+03  0.33806149134E+03  0.00000000000E+00 0. -1.
          1   -1    0    0  501    0 -0.00000000000E+00 -0.00000000000E+00 -0.86760931923E+03  0.86760931923E+03  0.00000000000E+00 0. -1.
         25    2    1    2    0    0  0.58727937274E+02  0.85326891370E+02 -0.16422614177E+03  0.23092335232E+03  0.12500287996E+03 0.  0.
          2    1    1    2  501    0 -0.41594250277E+02 -0.52492705706E+02 -0.66722652277E+03  0.67057944980E+03  0.00000000000E+00 0. -1.
          1    1    1    2  502    0 -0.17133686996E+02 -0.32834185664E+02  0.30190483664E+03  0.30416800845E+03  0.00000000000E+00 0. -1.
         22    1    3    3    0    0 -0.14015149341E+02  0.29226282190E+02  0.10035587946E+02  0.33931003626E+02  0.00000000000E+00 0. -1.
         22    1    3    3    0    0  0.72743086614E+02  0.56100609181E+02 -0.17426172971E+03  0.19699234869E+03  0.00000000000E+00 0. -1.
</event>
<event>
 7    1  0.7802682E-006  0.7748125E+02  0.7818608E-02  0.1413887E+00
          2   -1    0    0  502    0  0.00000000000E+00  0.00000000000E+00  0.15304113910E+04  0.15304113910E+04  0.00000000000E+00 0. -1.
          1   -1    0    0  501    0 -0.00000000000E+00 -0.00000000000E+00 -0.16700762153E+04  0.16700762153E+04  0.00000000000E+00 0. -1.
         25    2    1    2    0    0 -0.42358198815E+02  0.34736353569E+01  0.39631226073E+03  0.41772468297E+03  0.12499687842E+03 0.  0.
          2    1    1    2  501    0  0.74348381456E+02  0.22107453093E+02 -0.16580896971E+04  0.16599029686E+04  0.00000000000E+00 0. -1.
          1    1    1    2  502    0 -0.31990182640E+02 -0.25581088450E+02  0.11221126121E+04  0.11228599548E+04  0.00000000000E+00 0. -1.
         22    1    3    3    0    0 -0.85067339914E+01  0.34827743295E+02  0.35176885905E+03  0.35359110060E+03  0.00000000000E+00 0. -1.
         22    1    3    3    0    0 -0.33851464824E+02 -0.31354107938E+02  0.44543401676E+02  0.64133582374E+02  0.00000000000E+00 0. -1.
</event>
<event>
 7    1  0.7802682E-006  0.3952722E+02  0.7818608E-02  0.1539404E+00
          2   -1    0    0  502    0  0.00000000000E+00  0.00000000000E+00  0.75272309926E+03  0.75272309926E+03  0.00000000000E+00 0. -1.
          1   -1    0    0  501    0 -0.00000000000E+00 -0.00000000000E+00 -0.30323435827E+03  0.30323435827E+03  0.00000000000E+00 0. -1.
         25    2    1    2    0    0  0.20051605604E+02 -0.20359725885E+02 -0.31651503133E+02  0.13203814914E+03  0.12496267384E+03 0.  0.
          2    1    1    2  501    0 -0.39922543978E+02 -0.58522667321E+01 -0.21916184469E+03  0.22284517655E+03  0.00000000000E+00 0. -1.
          1    1    1    2  502    0  0.19870938374E+02  0.26211992617E+02  0.70030208881E+03  0.70107413185E+03  0.00000000000E+00 0. -1.
         22    1    3    3    0    0  0.46812846379E+01 -0.26670776627E+02 -0.78124465377E+02  0.82684199471E+02  0.00000000000E+00 0.  1.
         22    1    3    3    0    0  0.15370320966E+02  0.63110507415E+01  0.46472962244E+02  0.49353949668E+02  0.00000000000E+00 0.  1.
</event>
<event>
 7    1  0.7802682E-006  0.8018345E+02  0.7818608E-02  0.1370375E+00
          2   -1    0    0  502    0  0.00000000000E+00  0.00000000000E+00  0.22596876231E+03  0.22596876231E+03  0.00000000000E+00 0. -1.
          1   -1    0    0  501    0 -0.00000000000E+00 -0.00000000000E+00 -0.78655481463E+03  0.78655481463E+03  0.00000000000E+00 0. -1.
         25    2    1    2    0    0 -0.92143704235E+02 -0.86228615607E+02 -0.31057978978E+03  0.35778687663E+03  0.12500322753E+03 0.  0.
          2    1    1    2  501    0  0.20595809994E+02  0.52171394440E+02 -0.44277681185E+03  0.44631529987E+03  0.00000000000E+00 0. -1.
          1    1    1    2  502    0  0.71547894241E+02  0.34057221167E+02  0.19277054930E+03  0.20842140044E+03  0.00000000000E+00 0. -1.
         22    1    3    3    0    0 -0.12572275448E+02 -0.77091314841E+02 -0.23508077422E+03  0.24771778972E+03  0.00000000000E+00 0.  1.
         22    1    3    3    0    0 -0.79571428788E+02 -0.91373007659E+01 -0.75499015559E+02  0.11006908692E+03  0.00000000000E+00 0.  1.
</event>
<event>
 7    1  0.7802682E-006  0.5091892E+02  0.7818608E-02  0.1483411E+00
          2   -1    0    0  502    0  0.00000000000E+00  0.00000000000E+00  0.17510204096E+04  0.17510204096E+04  0.00000000000E+00 0. -1.
          1   -1    0    0  501    0 -0.00000000000E+00 -0.00000000000E+00 -0.11218108723E+03  0.11218108723E+03  0.00000000000E+00 0. -1.
         25    2    1    2    0    0 -0.13582591407E+02 -0.84132275469E+01 -0.36934787792E+01  0.12607240197E+03  0.12500135825E+03 0.  0.
          2    1    1    2  501    0 -0.14327217687E+02 -0.34436043705E+02 -0.39495778707E+02  0.54323354171E+02  0.00000000000E+00 0. -1.
          1    1    1    2  502    0  0.27909809094E+02  0.42849271252E+02  0.16820285798E+04  0.16828057407E+04  0.00000000000E+00 0. -1.
         22    1    3    3    0    0 -0.44124392765E+02  0.45298462497E+02 -0.97666936422E+01  0.63986725547E+02  0.00000000000E+00 0. -1.
         22    1    3    3    0    0  0.30541801358E+02 -0.53711690044E+02  0.60732148631E+01  0.62085676419E+02  0.00000000000E+00 0. -1.
</event>
<event>
 7    1  0.7802682E-006  0.6368756E+02  0.7818608E-02  0.1383260E+00
          2   -1    0    0  502    0  0.00000000000E+00  0.00000000000E+00  0.12490872734E+04  0.12490872734E+04  0.00000000000E+00 0. -1.
          1   -1    0    0  501    0 -0.00000000000E+00 -0.00000000000E+00 -0.59182462186E+03  0.59182462186E+03  0.00000000000E+00 0. -1.
         25    2    1    2    0    0  0.10896777090E+02 -0.41271881900E+02 -0.38186013077E+03  0.40404947055E+03  0.12496682436E+03 0.  0.
          2    1    1    2  501    0  0.38984860016E+02  0.80633860453E+02 -0.18792186713E+03  0.20817364605E+03  0.00000000000E+00 0. -1.
          1    1    1    2  502    0 -0.49881637106E+02 -0.39361978553E+02  0.12270446494E+04  0.12286887786E+04  0.00000000000E+00 0. -1.
         22    1    3    3    0    0 -0.25749979175E+02 -0.70296617259E+02 -0.15143099550E+03  0.16892608509E+03  0.00000000000E+00 0.  1.
         22    1    3    3    0    0  0.36646756266E+02  0.29024735359E+02 -0.23042913527E+03  0.23512338546E+03  0.00000000000E+00 0.  1.
</event>
<event>
 7    1  0.7802682E-006  0.8569047E+02  0.7818608E-02  0.1358441E+00
          2   -1    0    0  502    0  0.00000000000E+00  0.00000000000E+00  0.68399258805E+03  0.68399258805E+03  0.00000000000E+00 0. -1.
          1   -1    0    0  501    0 -0.00000000000E+00 -0.00000000000E+00 -0.15041504239E+03  0.15041504239E+03  0.00000000000E+00 0. -1.
         25    2    1    2    0    0 -0.66614511819E+02 -0.48413496633E+01  0.61345580890E+02  0.15442937873E+03  0.12499688344E+03 0.  0.
          2    1    1    2  501    0  0.44800540647E+01 -0.57809456179E+02 -0.92076904564E+02  0.10881250141E+03  0.00000000000E+00 0. -1.
          1    1    1    2  502    0  0.62134457754E+02  0.62650805843E+02  0.56430886933E+03  0.57116575030E+03  0.00000000000E+00 0. -1.
         22    1    3    3    0    0 -0.29552688797E+02 -0.62507657263E+02  0.12511942478E+02  0.70264623647E+02  0.00000000000E+00 0. -1.
         22    1    3    3    0    0 -0.37061823022E+02  0.57666307600E+02  0.48833638412E+02  0.84164755084E+02  0.00000000000E+00 0. -1.
</event>
<event>
 7    1  0.7802682E-006  0.5899440E+02  0.7818608E-02  0.1416455E+00
          2   -1    0    0  502    0  0.00000000000E+00  0.00000000000E+00  0.17657029710E+04  0.17657029710E+04  0.00000000000E+00 0. -1.
          1   -1    0    0  501    0 -0.00000000000E+00 -0.00000000000E+00 -0.30079456155E+03  0.30079456155E+03  0.00000000000E+00 0. -1.
         25    2    1    2    0    0 -0.81959514133E+02 -0.73564526354E+01  0.87550596406E+03  0.88820505081E+03  0.12500415926E+03 0.  0.
          2    1    1    2  501    0  0.41832700976E+02  0.41576689443E+02 -0.29069424542E+03  0.29661716117E+03  0.00000000000E+00 0. -1.
          1    1    1    2  502    0  0.40126813157E+02 -0.34220236807E+02  0.88009669077E+03  0.88167532054E+03  0.00000000000E+00 0. -1.
         22    1    3    3    0    0 -0.97357604389E+02 -0.44060023586E+02  0.55099556846E+03  0.56126277738E+03  0.00000000000E+00 0. -1.
         22    1    3    3    0    0  0.15398090256E+02  0.36703570950E+02  0.32451039560E+03  0.32694227343E+03  0.00000000000E+00 0. -1.
</event>
<event>
 7    1  0.7802682E-006  0.7806240E+02  0.7818608E-02  0.1359291E+00
          2   -1    0    0  502    0  0.00000000000E+00  0.00000000000E+00  0.32230862505E+03  0.32230862505E+03  0.00000000000E+00 0. -1.
          1   -1    0    0  501    0 -0.00000000000E+00 -0.00000000000E+00 -0.37636285190E+03  0.37636285190E+03  0.00000000000E+00 0. -1.
         25    2    1    2    0    0  0.23459770827E+01 -0.10092486343E+03 -0.10273085784E+03  0.19070956680E+03  0.12500071220E+03 0.  0.
          2    1    1    2  501    0  0.47058381926E+02  0.61518825408E+02 -0.21933066044E+03  0.23260480606E+03  0.00000000000E+00 0. -1.
          1    1    1    2  502    0 -0.49404359009E+02  0.39406038019E+02  0.26800729143E+03  0.27535710410E+03  0.00000000000E+00 0. -1.
         22    1    3    3    0    0  0.17901915637E+02 -0.12270781874E+03 -0.10677115140E+03  0.16363913387E+03  0.00000000000E+00 0.  1.
         22    1    3    3    0    0 -0.15555938554E+02  0.21782955312E+02  0.40402935681E+01  0.27070432921E+02  0.00000000000E+00 0.  1.
</event>
<event>
 7    1  0.7802682E-006  0.7286636E+02  0.7818608E-02  0.1352610E+00
          2   -1    0    0  502    0  0.00000000000E+00  0.00000000000E+00  0.77656999802E+03  0.77656999802E+03  0.00000000000E+00 0. -1.
          1   -1    0    0  501    0 -0.00000000000E+00 -0.00000000000E+00 -0.53680639821E+02  0.53680639821E+02  0.00000000000E+00 0. -1.
         25    2    1    2    0    0 -0.29320884143E+02  0.16227577759E+02  0.11247960754E+03  0.17146234701E+03  0.12499850320E+03 0.  0.
          2    1    1    2  501    0  0.36552342123E+02  0.61608396775E+02  0.38047939430E+02  0.81112970373E+02  0.00000000000E+00 0. -1.
          1    1    1    2  502    0 -0.72314579799E+01 -0.77835974534E+02  0.57236181123E+03  0.57767532046E+03  0.00000000000E+00 0. -1.
         22    1    3    3    0    0  0.13162040571E+02  0.62972867747E+02  0.42052953691E+02  0.76858781531E+02  0.00000000000E+00 0.  1.
         22    1    3    3    0    0 -0.42482924714E+02 -0.46745289988E+02  0.70426653849E+02  0.94603565476E+02  0.00000000000E+00 0.  1.
</event>
<event>
 7    1  0.7802682E-006  0.4173286E+02  0.7818608E-02  0.1591865E+00
          2   -1    0    0  502    0  0.00000000000E+00  0.00000000000E+00  0.71569445190E+03  0.71569445190E+03  0.00000000000E+00 0. -1.
          1   -1    0    0  501    0 -0.00000000000E+00 -0.00000000000E+00 -0.42591235472E+03  0.42591235472E+03  0.00000000000E+00 0. -1.
         25    2    1    2    0    0 -0.31069508581E+02  0.51089407888E+02 -0.10268051996E+03  0.17246281731E+03  0.12499876885E+03 0.  0.
          2    1    1    2  501    0  0.29282012969E+02 -0.28766815466E+02 -0.28669428330E+03  0.28961798637E+03  0.00000000000E+00 0. -1.
          1    1    1    2  502    0  0.17874956117E+01 -0.22322592422E+02  0.67915690043E+03  0.67952600294E+03  0.00000000000E+00 0. -1.
         22    1    3    3    0    0 -0.42416333401E+02  0.87461763650E+02 -0.89539662053E+02  0.13215920899E+03  0.00000000000E+00 0.  1.
         22    1    3    3    0    0  0.11346824820E+02 -0.36372355762E+02 -0.13140857905E+02  0.40303608321E+02  0.00000000000E+00 0.  1.
</event>
<event>
 7    1  0.7802682E-006  0.1922882E+03  0.7818608E-02  0.1277976E+00
          2   -1    0    0  502    0  0.00000000000E+00  0.00000000000E+00  0.46227770372E+03  0.46227770372E+03  0.00000000000E+00 0. -1.
          1   -1    0    0  501    0 -0.00000000000E+00 -0.00000000000E+00 -0.79584668448E+03  0.79584668448E+03  0.00000000000E+00 0. -1.
         25    2    1    2    0    0  0.10349626405E+03  0.10984137781E+03 -0.26716720212E+03  0.33133097481E+03  0.12500118412E+03 0.  0.
          2    1    1    2  501    0  0.52572125969E+02  0.79342683521E+01 -0.47281470159E+03  0.47579462279E+03  0.00000000000E+00 0. -1.
          1    1    1    2  502    0 -0.15606839002E+03 -0.11777564616E+03  0.40641292294E+03  0.45099879060E+03  0.00000000000E+00 0. -1.
         22    1    3    3    0    0  0.25058170185E+02  0.97269855803E+02 -0.21206911713E+03  0.23465431422E+03  0.00000000000E+00 0. -1.
         22    1    3    3    0    0  0.78438093862E+02  0.12571522003E+02 -0.55098084990E+02  0.96676660595E+02  0.00000000000E+00 0. -1.
</event>
<event>
 7    1  0.7802682E-006  0.1279955E+03  0.7818608E-02  0.1303472E+00
          2   -1    0    0  502    0  0.00000000000E+00  0.00000000000E+00  0.32894068053E+04  0.32894068053E+04  0.00000000000E+00 0. -1.
          1   -1    0    0  501    0 -0.00000000000E+00 -0.00000000000E+00 -0.37764478770E+03  0.37764478770E+03  0.00000000000E+00 0. -1.
         25    2    1    2    0    0 -0.13312295519E+03 -0.11171324110E+03 -0.64534834031E+02  0.22358860610E+03  0.12500220214E+03 0.  0.
          2    1    1    2  501    0  0.10660931133E+03  0.54647637477E+02 -0.21789219273E+03  0.24865421210E+03  0.00000000000E+00 0. -1.
          1    1    1    2  502    0  0.26513643860E+02  0.57065603619E+02  0.31941890443E+04  0.31948087748E+04  0.00000000000E+00 0. -1.
         22    1    3    3    0    0 -0.12449693314E+03 -0.95789315006E+02 -0.54353377353E+00  0.15708397327E+03  0.00000000000E+00 0.  1.
         22    1    3    3    0    0 -0.86260220503E+01 -0.15923926090E+02 -0.63991300257E+02  0.66504632824E+02  0.00000000000E+00 0.  1.
</event>
<event>
 7    1  0.7802682E-006  0.5784955E+02  0.7818608E-02  0.1407879E+00
          2   -1    0    0  502    0  0.00000000000E+00  0.00000000000E+00  0.72168615598E+03  0.72168615598E+03  0.00000000000E+00 0. -1.
          1   -1    0    0  501    0 -0.00000000000E+00 -0.00000000000E+00 -0.12705709680E+03  0.12705709680E+03  0.00000000000E+00 0. -1.
         25    2    1    2    0    0 -0.10220022422E+02  0.30337442424E+02 -0.14045123787E+02  0.12979689559E+03  0.12500063733E+03 0.  0.
          2    1    1    2  501    0  0.67874152434E+02 -0.25586479562E+02 -0.29390398009E+02  0.78264704689E+02  0.00000000000E+00 0. -1.
          1    1    1    2  502    0 -0.57654130012E+02 -0.47509628623E+01  0.63806458098E+03  0.64068165250E+03  0.00000000000E+00 0. -1.
         22    1    3    3    0    0  0.45861912885E+02  0.17344740567E+02 -0.43127677185E+02  0.65300471807E+02  0.00000000000E+00 0.  1.
         22    1    3    3    0    0 -0.56081935306E+02  0.12992701856E+02  0.29082553398E+02  0.64496423788E+02  0.00000000000E+00 0.  1.
</event>
<event>
 7    1  0.7802682E-006  0.5483231E+02  0.7818608E-02  0.1426722E+00
          2   -1    0    0  502    0  0.00000000000E+00  0.00000000000E+00  0.26610235757E+02  0.26610235757E+02  0.00000000000E+00 0. -1.
          1   -1    0    0  501    0 -0.00000000000E+00 -0.00000000000E+00 -0.10783205249E+04  0.10783205249E+04  0.00000000000E+00 0. -1.
         25    2    1    2    0    0  0.39492799631E+01  0.26724941722E+02 -0.63372838184E+03  0.64650287811E+03  0.12499796054E+03 0.  0.
          2    1    1    2  501    0  0.34979172554E+02 -0.61863433137E+02 -0.39470568718E+03  0.40105262293E+03  0.00000000000E+00 0. -1.
          1    1    1    2  502    0 -0.38928452517E+02  0.35138491415E+02 -0.23276220161E+02  0.57375259644E+02  0.00000000000E+00 0. -1.
         22    1    3    3    0    0 -0.27474589895E+02  0.16428611218E+02 -0.37278053601E+02  0.49136601803E+02  0.00000000000E+00 0.  1.
         22    1    3    3    0    0  0.31423869858E+02  0.10296330503E+02 -0.59645032824E+03  0.59736627631E+03  0.00000000000E+00 0.  1.
</event>
<event>
 7    1  0.7802682E-006  0.8889629E+02  0.7818608E-02  0.1367889E+00
          2   -1    0    0  502    0  0.00000000000E+00  0.00000000000E+00  0.47418457301E+03  0.47418457301E+03  0.00000000000E+00 0. -1.
          1   -1    0    0  501    0 -0.00000000000E+00 -0.00000000000E+00 -0.22731013345E+03  0.22731013345E+03  0.00000000000E+00 0. -1.
         25    2    1    2    0    0 -0.89057441880E+02 -0.83288848792E+02 -0.13136842229E+03  0.21851855225E+03  0.12499774004E+03 0.  0.
          2    1    1    2  501    0  0.53123408995E+02  0.46194350300E+02 -0.26299086663E+02  0.75150891826E+02  0.00000000000E+00 0. -1.
          1    1    1    2  502    0  0.35934032885E+02  0.37094498492E+02  0.40454194850E+03  0.40782526238E+03  0.00000000000E+00 0. -1.
         22    1    3    3    0    0 -0.98769122065E+02 -0.12067772091E+02 -0.55203472184E+02  0.11379100992E+03  0.00000000000E+00 0. -1.
         22    1    3    3    0    0  0.97116801848E+01 -0.71221076701E+02 -0.76164950105E+02  0.10472754233E+03  0.00000000000E+00 0. -1.
</event>
<event>
 7    1  0.7802682E-006  0.5166734E+02  0.7818608E-02  0.1508561E+00
          2   -1    0    0  502    0  0.00000000000E+00  0.00000000000E+00  0.11106819397E+03  0.11106819397E+03  0.00000000000E+00 0. -1.
          1   -1    0    0  501    0 -0.00000000000E+00 -0.00000000000E+00 -0.87634757199E+03  0.87634757199E+03  0.00000000000E+00 0. -1.
         25    2    1    2    0    0 -0.12220827109E+02 -0.26131366050E+02 -0.21741941384E+03  0.25244536849E+03  0.12500106260E+03 0.  0.
          2    1    1    2  501    0 -0.25582189527E+01  0.53260863508E+02 -0.63772136021E+03  0.63994671445E+03  0.00000000000E+00 0. -1.
          1    1    1    2  502    0  0.14779046062E+02 -0.27129497458E+02  0.89861396037E+02  0.95023683009E+02  0.00000000000E+00 0. -1.
         22    1    3    3    0    0 -0.36066370759E+02 -0.59527574322E+02 -0.19187517610E+03  0.20410879062E+03  0.00000000000E+00 0.  1.
         22    1    3    3    0    0  0.23845543650E+02  0.33396208272E+02 -0.25544237744E+02  0.48336577877E+02  0.00000000000E+00 0.  1.
</event>
<event>
 7    1  0.7802682E-006  0.6460134E+02  0.7818608E-02  0.1399261E+00
          2   -1    0    0  502    0  0.00000000000E+00  0.00000000000E+00  0.55902194422E+03  0.55902194422E+03  0.00000000000E+00 0. -1.
          1   -1    0    0  501    0 -0.00000000000E+00 -0.00000000000E+00 -0.68626572587E+03  0.68626572587E+03  0.00000000000E+00 0. -1.
         25    2    1    2    0    0 -0.17515722808E+02 -0.92359274084E+02 -0.66944067555E+02  0.17013287078E+03  0.12500659776E+03 0.  0.
          2    1    1    2  501    0  0.45682967616E+02  0.45005312642E+02 -0.56441049770E+03  0.56804191889E+03  0.00000000000E+00 0. -1.
          1    1    1    2  502    0 -0.28167244808E+02  0.47353961442E+02  0.50411078360E+03  0.50711288042E+03  0.00000000000E+00 0. -1.
         22    1    3    3    0    0  0.29396467665E+02 -0.10360067602E+03 -0.52301868938E+02  0.11971941312E+03  0.00000000000E+00 0. -1.
         22    1    3    3    0    0 -0.46912190473E+02  0.11241401940E+02 -0.14642198617E+02  0.50413457657E+02  0.00000000000E+00 0. -1.
</event>
<event>
 7    1  0.7802682E-006  0.4439748E+02  0.7818608E-02  0.1595833E+00
          2   -1    0    0  502    0  0.00000000000E+00  0.00000000000E+00  0.22581018920E+04  0.22581018920E+04  0.00000000000E+00 0. -1.
          1   -1    0    0  501    0 -0.00000000000E+00 -0.00000000000E+00 -0.44167134104E+03  0.44167134104E+03  0.00000000000E+00 0. -1.
         25    2    1    2    0    0 -0.30862954743E+02 -0.94410624215E+00  0.64402708961E+02  0.14396468310E+03  0.12499883098E+03 0.  0.
          2    1    1    2  501    0 -0.92192414105E+01 -0.18365409927E+02 -0.40139774167E+03  0.40192341274E+03  0.00000000000E+00 0. -1.
          1    1    1    2  502    0  0.40082196153E+02  0.19309516169E+02  0.21534255836E+04  0.21538851372E+04  0.00000000000E+00 0. -1.
         22    1    3    3    0    0 -0.55489201030E+02  0.30419233011E+02 -0.54677799453E+01  0.63515964808E+02  0.00000000000E+00 0.  1.
         22    1    3    3    0    0  0.24626246287E+02 -0.31363339254E+02  0.69870488906E+02  0.80448718295E+02  0.00000000000E+00 0.  1.
</event>
<event>
 7    1  0.7802682E-006  0.6065815E+02  0.7818608E-02  0.1405805E+00
          2   -1    0    0  502    0  0.00000000000E+00  0.00000000000E+00  0.33177754376E+03  0.33177754376E+03  0.00000000000E+00 0. -1.
          1   -1    0    0  501    0 -0.00000000000E+00 -0.00000000000E+00 -0.37181470224E+03  0.37181470224E+03  0.00000000000E+00 0. -1.
         25    2    1    2    0    0 -0.45623199370E+02  0.10284338799E+03  0.54709913241E+02  0.17685138393E+03  0.12499999448E+03 0.  0.
          2    1    1    2  501    0  0.27931357216E+02 -0.48222373145E+02 -0.30435343310E+03  0.30941326770E+03  0.00000000000E+00 0. -1.
          1    1    1    2  502    0  0.17691842154E+02 -0.54621014840E+02  0.20960636138E+03  0.21732759437E+03  0.00000000000E+00 0. -1.
         22    1    3    3    0    0  0.43450451147E+02  0.34861560126E+02  0.12347675982E+02  0.57059049952E+02  0.00000000000E+00 0.  1.
         22    1    3    3    0    0 -0.89073650517E+02  0.67981827859E+02  0.42362237258E+02  0.11979233398E+03  0.00000000000E+00 0.  1.
</event>
<event>
 7    1  0.7802682E-006  0.2390633E+02  0.7818608E-02  0.1709666E+00
          2   -1    0    0  502    0  0.00000000000E+00  0.00000000000E+00  0.60806103833E+03  0.60806103833E+03  0.00000000000E+00 0. -1.
          1   -1    0    0  501    0 -0.00000000000E+00 -0.00000000000E+00 -0.13324398007E+04  0.13324398007E+04  0.00000000000E+00 0. -1.
         25    2    1    2    0    0 -0.10724455121E+01 -0.21507865035E+02  0.39689568377E+03  0.41667040504E+03  0.12499721695E+03 0.  0.
          2    1    1    2  501    0 -0.18131050678E+02  0.15585689561E+02 -0.13219424688E+04  0.13221586666E+04  0.00000000000E+00 0. -1.
          1    1    1    2  502    0  0.19203496190E+02  0.59221754744E+01  0.20066802270E+03  0.20167176739E+03  0.00000000000E+00 0. -1.
         22    1    3    3    0    0 -0.45992958504E+02  0.21673577236E+02  0.27619042437E+03  0.28083134920E+03  0.00000000000E+00 0. -1.
         22    1    3    3    0    0  0.44920512992E+02 -0.43181442272E+02  0.12070525940E+03  0.13583905584E+03  0.00000000000E+00 0. -1.
</event>
<event>
 7    1  0.7802682E-006  0.1206194E+03  0.7818608E-02  0.1284291E+00
          2   -1    0    0  502    0  0.00000000000E+00  0.00000000000E+00  0.83705386415E+03  0.83705386415E+03  0.00000000000E+00 0. -1.
          1   -1    0    0  501    0 -0.00000000000E+00 -0.00000000000E+00 -0.38677554875E+03  0.38677554875E+03  0.00000000000E+00 0. -1.
         25    2    1    2    0    0  0.19116977497E+02 -0.83475048196E+02  0.11082342141E+03  0.18772511324E+03  0.12500137963E+03 0.  0.
          2    1    1    2  501    0  0.79814539846E+02  0.12216812818E+01 -0.33761270588E+03  0.34692101759E+03  0.00000000000E+00 0. -1.
          1    1    1    2  502    0 -0.98931517343E+02  0.82253366914E+02  0.67706759987E+03  0.68918328207E+03  0.00000000000E+00 0. -1.
         22    1    3    3    0    0 -0.35375751896E+02 -0.43424178726E+02  0.10604618539E+03  0.11992871447E+03  0.00000000000E+00 0.  1.
         22    1    3    3    0    0  0.54492729393E+02 -0.40050869470E+02  0.47772360222E+01  0.67796398769E+02  0.00000000000E+00 0.  1.
</event>
<event>
 7    1  0.7802682E-006  0.7963705E+02  0.7818608E-02  0.1338713E+00
          2   -1    0    0  502    0  0.00000000000E+00  0.00000000000E+00  0.35780050388E+04  0.35780050388E+04  0.00000000000E+00 0. -1.
          1   -1    0    0  501    0 -0.00000000000E+00 -0.00000000000E+00 -0.10509961466E+04  0.10509961466E+04  0.00000000000E+00 0. -1.
         25    2    1    2    0    0 -0.93170204522E+02 -0.10470706259E+03  0.26444331819E+03  0.32434566592E+03  0.12500234597E+03 0.  0.
          2    1    1    2  501    0  0.25476601831E+02  0.75177863328E+02 -0.10190861496E+04  0.10221728566E+04  0.00000000000E+00 0. -1.
          1    1    1    2  502    0  0.67693602691E+02  0.29529199265E+02  0.32816517236E+04  0.32824826630E+04  0.00000000000E+00 0. -1.
         22    1    3    3    0    0 -0.92791098596E+02 -0.10607166228E+03  0.27748766353E+03  0.31122465990E+03  0.00000000000E+00 0.  1.
         22    1    3    3    0    0 -0.37910592547E+00  0.13645996847E+01 -0.13044345343E+02  0.13121006022E+02  0.00000000000E+00 0.  1.
</event>
<event>
 7    1  0.7802682E-006  0.1801229E+03  0.7818608E-02  0.1238888E+00
          2   -1    0    0  502    0  0.00000000000E+00  0.00000000000E+00  0.51793558714E+03  0.51793558714E+03  0.00000000000E+00 0. -1.
          1   -1    0    0  501    0 -0.00000000000E+00 -0.00000000000E+00 -0.21931933654E+04  0.21931933654E+04  0.00000000000E+00 0. -1.
         25    2    1    2    0    0 -0.10146708537E+03 -0.84437614357E+02 -0.51061911188E+03  0.54201683732E+03  0.12500037756E+03 0.  0.
          2    1    1    2  501    0  0.11009233309E+03  0.16742089101E+03 -0.16573339911E+04  0.16694028976E+04  0.00000000000E+00 0. -1.
          1    1    1    2  502    0 -0.86252477179E+01 -0.82983276648E+02  0.49269532474E+03  0.49970921757E+03  0.00000000000E+00 0. -1.
         22    1    3    3    0    0  0.17306717723E+02 -0.22327560843E+02 -0.23353047826E+02  0.36652520982E+02  0.00000000000E+00 0. -1.
         22    1    3    3    0    0 -0.11877380310E+03 -0.62110053514E+02 -0.48726606406E+03  0.50536431634E+03  0.00000000000E+00 0. -1.
</event>
<event>
 7    1  0.7802682E-006  0.6747793E+02  0.7818608E-02  0.1399517E+00
          2   -1    0    0  502    0  0.00000000000E+00  0.00000000000E+00  0.83224012971E+03  0.83224012971E+03  0.00000000000E+00 0. -1.
          1   -1    0    0  501    0 -0.00000000000E+00 -0.00000000000E+00 -0.11237530369E+03  0.11237530369E+03  0.00000000000E+00 0. -1.
         25    2    1    2    0    0 -0.13365844047E+02 -0.11443810050E+03  0.15489799166E+03  0.22997670254E+03  0.12498468410E+03 0.  0.
          2    1    1    2  501    0  0.16657189035E+02  0.61898818914E+02 -0.59796478034E+02  0.87661533838E+02  0.00000000000E+00 0. -1.
          1    1    1    2  502    0 -0.32913449882E+01  0.52539281589E+02  0.62476331239E+03  0.62697719701E+03  0.00000000000E+00 0. -1.
         22    1    3    3    0    0 -0.67906053526E+02 -0.44758948871E+02  0.79351269292E+02  0.11362754749E+03  0.00000000000E+00 0. -1.
         22    1    3    3    0    0  0.54540209478E+02 -0.69679151632E+02  0.75546722366E+02  0.11634915506E+03  0.00000000000E+00 0. -1.
</event>
<event>
 7    1  0.7802682E-006  0.6951927E+02  0.7818608E-02  0.1367545E+00
          2   -1    0    0  502    0  0.00000000000E+00  0.00000000000E+00  0.15707739031E+04  0.15707739031E+04  0.00000000000E+00 0. -1.
          1   -1    0    0  501    0 -0.00000000000E+00 -0.00000000000E+00 -0.14008655023E+04  0.14008655023E+04  0.00000000000E+00 0. -1.
         25    2    1    2    0    0  0.22517261684E+02  0.31855724754E+01  0.82112916996E+03  0.83090031548E+03  0.12500018219E+03 0.  0.
          2    1    1    2  501    0  0.63382538047E+02  0.28558403166E+02 -0.13922942314E+04  0.13940287498E+04  0.00000000000E+00 0. -1.
          1    1    1    2  502    0 -0.85899799731E+02 -0.31743975641E+02  0.74107346228E+03  0.74671034014E+03  0.00000000000E+00 0. -1.
         22    1    3    3    0    0 -0.68201858710E+01  0.20929339107E+01  0.78174774172E+03  0.78178029330E+03  0.00000000000E+00 0.  1.
         22    1    3    3    0    0  0.29337447555E+02  0.10926385647E+01  0.39381428242E+02  0.49120022174E+02  0.00000000000E+00 0.  1.
</event>
<event>
 7    1  0.7802682E-006  0.5269299E+02  0.7818608E-02  0.1535693E+00
          2   -1    0    0  502    0  0.00000000000E+00  0.00000000000E+00  0.28808961777E+03  0.28808961777E+03  0.00000000000E+00 0. -1.
          1   -1    0    0  501    0 -0.00000000000E+00 -0.00000000000E+00 -0.17238486056E+03  0.17238486056E+03  0.00000000000E+00 0. -1.
         25    2    1    2    0    0 -0.72192848642E+02 -0.22820333593E+02  0.64895811441E+02  0.15990135526E+03  0.12499760818E+03 0.  0.
          2    1    1    2  501    0  0.50747941875E+02  0.94350844158E+01 -0.11856991226E+03  0.12931820644E+03  0.00000000000E+00 0. -1.
          1    1    1    2  502    0  0.21444906767E+02  0.13385249177E+02  0.16937885804E+03  0.17125491664E+03  0.00000000000E+00 0. -1.
         22    1    3    3    0    0 -0.81844326955E+02 -0.11713029746E+02 -0.10265605404E+02  0.83313093658E+02  0.00000000000E+00 0.  1.
         22    1    3    3    0    0  0.96514783123E+01 -0.11107303848E+02  0.75161416845E+02  0.76588261598E+02  0.00000000000E+00 0.  1.
</event>
<event>
 7    1  0.7802682E-006  0.1939862E+03  0.7818608E-02  0.1202546E+00
          2   -1    0    0  502    0  0.00000000000E+00  0.00000000000E+00  0.20618917153E+04  0.20618917153E+04  0.00000000000E+00 0. -1.
          1   -1    0    0  501    0 -0.00000000000E+00 -0.00000000000E+00 -0.57050712717E+03  0.57050712717E+03  0.00000000000E+00 0. -1.
         25    2    1    2    0    0 -0.25958370293E+03 -0.71590933732E+02  0.25900359033E+03  0.39397602327E+03  0.12500114595E+03 0.  0.
          2    1    1    2  501    0  0.70949340809E+02  0.88478422877E+02 -0.49137539383E+03  0.50429358308E+03  0.00000000000E+00 0. -1.
          1    1    1    2  502    0  0.18863436212E+03 -0.16887489145E+02  0.17237563916E+04  0.17341292361E+04  0.00000000000E+00 0. -1.
         22    1    3    3    0    0 -0.15926680870E+03 -0.10465197072E+03  0.17921356404E+03  0.26160170654E+03  0.00000000000E+00 0. -1.
         22    1    3    3    0    0 -0.10031689423E+03  0.33061036987E+02  0.79790026291E+02  0.13237431673E+03  0.00000000000E+00 0. -1.
</event>
<event>
 7    1  0.7802682E-006  0.3916835E+02  0.7818608E-02  0.1532059E+00
          2   -1    0    0  502    0  0.00000000000E+00  0.00000000000E+00  0.10425102525E+04  0.10425102525E+04  0.00000000000E+00 0. -1.
          1   -1    0    0  501    0 -0.00000000000E+00 -0.00000000000E+00 -0.47230624993E+03  0.47230624993E+03  0.00000000000E+00 0. -1.
         25    2    1    2    0    0 -0.15169977261E+02 -0.38836997219E+01  0.12951196651E+03  0.18067532644E+03  0.12500005112E+03 0.  0.
          2    1    1    2  501    0 -0.12268158862E+02  0.32596776550E+02 -0.44560034150E+03  0.44695941863E+03  0.00000000000E+00 0. -1.
          1    1    1    2  502    0  0.27438136123E+02 -0.28713076828E+02  0.88629237752E+03  0.88718175733E+03  0.00000000000E+00 0. -1.
         22    1    3    3    0    0  0.39878657095E+02  0.30114563889E+02  0.95008925010E+02  0.10734938324E+03  0.00000000000E+00 0. -1.
         22    1    3    3    0    0 -0.55048634356E+02 -0.33998263611E+02  0.34503041504E+02  0.73325943199E+02  0.00000000000E+00 0. -1.
</event>
<event>
 7    1  0.7802682E-006  0.1054483E+03  0.7818608E-02  0.1363135E+00
          2   -1    0    0  502    0  0.00000000000E+00  0.00000000000E+00  0.17027259847E+04  0.17027259847E+04  0.00000000000E+00 0. -1.
          1   -1    0    0  501    0 -0.00000000000E+00 -0.00000000000E+00 -0.12783773957E+04  0.12783773957E+04  0.00000000000E+00 0. -1.
         25    2    1    2    0    0  0.50745592873E+02  0.41004835212E+02 -0.10587110180E+03  0.17632294286E+03  0.12499831309E+03 0.  0.
          2    1    1    2  501    0 -0.72304557751E+02 -0.80843646952E+02 -0.11343856449E+04  0.11395588777E+04  0.00000000000E+00 0. -1.
          1    1    1    2  502    0  0.21558964879E+02  0.39838811740E+02  0.16646053357E+04  0.16652215599E+04  0.00000000000E+00 0. -1.
         22    1    3    3    0    0 -0.65983891747E+01 -0.38938956232E+02 -0.14551481816E+02  0.42089507899E+02  0.00000000000E+00 0.  1.
         22    1    3    3    0    0  0.57343982047E+02  0.79943791444E+02 -0.91319619983E+02  0.13423343496E+03  0.00000000000E+00 0.  1.
</event>
<event>
 7    1  0.7802682E-006  0.6239487E+02  0.7818608E-02  0.1402615E+00
          2   -1    0    0  502    0  0.00000000000E+00  0.00000000000E+00  0.43207649820E+03  0.43207649820E+03  0.00000000000E+00 0. -1.
          1   -1    0    0  501    0 -0.00000000000E+00 -0.00000000000E+00 -0.90916045247E+02  0.90916045247E+02  0.00000000000E+00 0. -1.
         25    2    1    2    0    0 -0.21451299131E+02  0.27342314334E+02  0.10824800515E+03  0.16897229546E+03  0.12500498241E+03 0.  0.
          2    1    1    2  501    0 -0.18615550263E+02 -0.65824010103E+02 -0.37465845725E+02  0.77993772916E+02  0.00000000000E+00 0. -1.
          1    1    1    2  502    0  0.40066849394E+02  0.38481695769E+02  0.27037829353E+03  0.27602647507E+03  0.00000000000E+00 0. -1.
         22    1    3    3    0    0 -0.12051903479E+02 -0.44361637162E+02  0.10111838402E+02  0.47068593616E+02  0.00000000000E+00 0.  1.
         22    1    3    3    0    0 -0.93993956523E+01  0.71703951496E+02  0.98136166750E+02  0.12190370184E+03  0.00000000000E+00 0.  1.
</event>
<event>
 7    1  0.7802682E-006  0.6817991E+02  0.7818608E-02  0.1387083E+00
          2   -1    0    0  502    0  0.00000000000E+00  0.00000000000E+00  0.19243650709E+03  0.19243650709E+03  0.00000000000E+00 0. -1.
          1   -1    0    0  501    0 -0.00000000000E+00 -0.00000000000E+00 -0.26805346639E+03  0.26805346639E+03  0.00000000000E+00 0. -1.
         25    2    1    2    0    0  0.23762840907E+02  0.28557659112E+02 -0.13367592899E+03  0.18674125403E+03  0.12499131755E+03 0.  0.
          2    1    1    2  501    0 -0.45891296051E+02 -0.81679781994E+02 -0.80621865633E+02  0.12360211591E+03  0.00000000000E+00 0. -1.
          1    1    1    2  502    0  0.22128455144E+02  0.53122122882E+02  0.13868083532E+03  0.15014660353E+03  0.00000000000E+00 0. -1.
         22    1    3    3    0    0 -0.42597753747E+02 -0.19733772651E+02 -0.35989639882E+02  0.59154413075E+02  0.00000000000E+00 0.  1.
         22    1    3    3    0    0  0.66360594654E+02  0.48291431763E+02 -0.97686289112E+02  0.12758684096E+03  0.00000000000E+00 0.  1.
</event>
<event>
 7    1  0.7802682E-006  0.4588816E+02  0.7818608E-02  0.1483392E+00
          2   -1    0    0  502    0  0.00000000000E+00  0.00000000000E+00  0.42699908518E+03  0.42699908518E+03  0.00000000000E+00 0. -1.
          1   -1    0    0  501    0 -0.00000000000E+00 -0.00000000000E+00 -0.31740894278E+03  0.31740894278E+03  0.00000000000E+00 0. -1.
         25    2    1    2    0    0 -0.68452587585E+02  0.91493994630E+01  0.12713201040E+03  0.19119831330E+03  0.12499911472E+03 0.  0.
          2    1    1    2  501    0  0.35315177662E+02  0.21590466162E+02 -0.28194690121E+03  0.28496905991E+03  0.00000000000E+00 0. -1.
          1    1    1    2  502    0  0.33137409923E+02 -0.30739865625E+02  0.26440503322E+03  0.26824065476E+03  0.00000000000E+00 0. -1.
         22    1    3    3    0    0 -0.25375608107E+02  0.55953706833E+02  0.16554547770E+02  0.63630117452E+02  0.00000000000E+00 0. -1.
         22    1    3    3    0    0 -0.43076979478E+02 -0.46804307370E+02  0.11057746263E+03  0.12756819584E+03  0.00000000000E+00 0. -1.
</event>
<event>
 7    1  0.7802682E-006  0.1461070E+03  0.7818608E-02  0.1243389E+00
          2   -1    0    0  502    0  0.00000000000E+00  0.00000000000E+00  0.71121546017E+03  0.71121546017E+03  0.00000000000E+00 0. -1.
          1   -1    0    0  501    0 -0.00000000000E+00 -0.00000000000E+00 -0.26244184548E+03  0.26244184548E+03  0.00000000000E+00 0. -1.
         25    2    1    2    0    0  0.13235941144E+02  0.81308280470E+02  0.46613099938E+02  0.15679141860E+03  0.12499816498E+03 0.  0.
          2    1    1    2  501    0 -0.86995908504E+02 -0.14623964520E+03 -0.16751355978E+03  0.23877837975E+03  0.00000000000E+00 0. -1.
          1    1    1    2  502    0  0.73759967360E+02  0.64931364734E+02  0.56967407453E+03  0.57808750731E+03  0.00000000000E+00 0. -1.
         22    1    3    3    0    0  0.67611328867E+02  0.62611404900E+02  0.30728030185E+02  0.97137488406E+02  0.00000000000E+00 0. -1.
         22    1    3    3    0    0 -0.54375387723E+02  0.18696875570E+02  0.15885069754E+02  0.59653930191E+02  0.00000000000E+00 0. -1.
</event>
<event>
 7    1  0.7802682E-006  0.1010319E+03  0.7818608E-02  0.1365508E+00
          2   -1    0    0  502    0  0.00000000000E+00  0.00000000000E+00  0.17602547635E+04  0.17602547635E+04  0.00000000000E+00 0. -1.
          1   -1    0    0  501    0 -0.00000000000E+00 -0.00000000000E+00 -0.27270020765E+04  0.27270020765E+04  0.00000000000E+00 0. -1.
         25    2    1    2    0    0  0.11558473178E+03  0.69260629543E+02  0.48303820237E+03  0.51682503132E+03  0.12500137211E+03 0.  0.
          2    1    1    2  501    0 -0.69413353420E+02 -0.73336961026E+02 -0.27087414316E+04  0.27106229297E+04  0.00000000000E+00 0. -1.
          1    1    1    2  502    0 -0.46171378359E+02  0.40763314836E+01  0.12589559162E+04  0.12598088790E+04  0.00000000000E+00 0. -1.
         22    1    3    3    0    0 -0.21752601266E+02  0.34710325249E+02  0.85267625738E+02  0.94596777639E+02  0.00000000000E+00 0.  1.
         22    1    3    3    0    0  0.13733733304E+03  0.34550304294E+02  0.39777057663E+03  0.42222825368E+03  0.00000000000E+00 0.  1.
</event>
<event>
 7    1  0.7802682E-006  0.9440121E+02  0.7818608E-02  0.1353240E+00
          2   -1    0    0  502    0  0.00000000000E+00  0.00000000000E+00  0.80235042649E+03  0.80235042649E+03  0.00000000000E+00 0. -1.
          1   -1    0    0  501    0 -0.00000000000E+00 -0.00000000000E+00 -0.31831162349E+03  0.31831162349E+03  0.00000000000E+00 0. -1.
         25    2    1    2    0    0  0.14716111006E+03 -0.47910708696E+01 -0.98850989021E+00  0.19317081111E+03  0.12503854781E+03 0.  0.
          2    1    1    2  501    0 -0.54461135640E+02  0.76741918720E+01 -0.21470597851E+03  0.22163836699E+03  0.00000000000E+00 0. -1.
          1    1    1    2  502    0 -0.92699974422E+02 -0.28831210024E+01  0.69973329140E+03  0.70585287187E+03  0.00000000000E+00 0. -1.
         22    1    3    3    0    0  0.16027714020E+02 -0.58136411054E+01 -0.50267355297E+02  0.53080062624E+02  0.00000000000E+00 0.  1.
         22    1    3    3    0    0  0.13113339604E+03  0.10225702358E+01  0.49278845407E+02  0.14009074849E+03  0.00000000000E+00 0.  1.
</event>
<event>
 7    1  0.7802682E-006  0.6560928E+02  0.7818608E-02  0.1422869E+00
          2   -1    0    0  502    0  0.00000000000E+00  0.00000000000E+00  0.12069759040E+04  0.12069759040E+04  0.00000000000E+00 0. -1.
          1   -1    0    0  501    0 -0.00000000000E+00 -0.00000000000E+00 -0.96011202296E+02  0.96011202296E+02  0.00000000000E+00 0. -1.
         25    2    1    2    0    0  0.21162105134E+02  0.60149001907E+02  0.34938151069E+03  0.37650777790E+03  0.12499971875E+03 0.  0.
          2    1    1    2  501    0 -0.45059924914E+02  0.26298212996E+01 -0.74821390031E+02  0.87381652534E+02  0.00000000000E+00 0. -1.
          1    1    1    2  502    0  0.23897819780E+02 -0.62778823206E+02  0.83640458102E+03  0.83909767583E+03  0.00000000000E+00 0. -1.
         22    1    3    3    0    0  0.12192561285E+02  0.95870841894E+02  0.29807338924E+03  0.31334904220E+03  0.00000000000E+00 0. -1.
         22    1    3    3    0    0  0.89695438485E+01 -0.35721839987E+02  0.51308121449E+02  0.63158735702E+02  0.00000000000E+00 0. -1.
</event>
<event>
 7    1  0.7802682E-006  0.7415950E+02  0.7818608E-02  0.1381332E+00
          2   -1    0    0  502    0  0.00000000000E+00  0.00000000000E+00  0.27873849824E+04  0.27873849824E+04  0.00000000000E+00 0. -1.
          1   -1    0    0  501    0 -0.00000000000E+00 -0.00000000000E+00 -0.16294849470E+04  0.16294849470E+04  0.00000000000E+00 0. -1.
         25    2    1    2    0    0  0.85945444620E+01 -0.19886005450E+02 -0.12947956219E+02  0.12752206135E+03  0.12499962861E+03 0.  0.
          2    1    1    2  501    0 -0.52949953920E+02  0.53130076557E+02 -0.15580662046E+04  0.15598707640E+04  0.00000000000E+00 0. -1.
          1    1    1    2  502    0  0.44355409458E+02 -0.33244071108E+02  0.27289141962E+04  0.27294771040E+04  0.00000000000E+00 0. -1.
         22    1    3    3    0    0  0.63828401463E+02  0.55624772121E+01 -0.17849835063E+02  0.66510319484E+02  0.00000000000E+00 0.  1.
         22    1    3    3    0    0 -0.55233857001E+02 -0.25448482662E+02  0.49018788431E+01  0.61011741864E+02  0.00000000000E+00 0.  1.
</event>
<event>
 7    1  0.7802682E-006  0.2671576E+03  0.7818608E-02  0.1187273E+00
          2   -1    0    0  502    0  0.00000000000E+00  0.00000000000E+00  0.39398729166E+03  0.39398729166E+03  0.00000000000E+00 0. -1.
          1   -1    0    0  501    0 -0.00000000000E+00 -0.00000000000E+00 -0.43359762709E+03  0.43359762709E+03  0.00000000000E+00 0. -1.
         25    2    1    2    0    0 -0.23779000852E+03  0.22981204680E+03  0.59673248686E+02  0.35853060796E+03  0.12500254090E+03 0.  0.
          2    1    1    2  501    0  0.64887947304E+02 -0.72568264424E+02 -0.19386253113E+03  0.21693150919E+03  0.00000000000E+00 0. -1.
          1    1    1    2  502    0  0.17290206121E+03 -0.15724378237E+03  0.94578947013E+02  0.25212280160E+03  0.00000000000E+00 0. -1.
         22    1    3    3    0    0 -0.38891034368E+02  0.37012036680E+02 -0.36929366685E+02  0.65162731198E+02  0.00000000000E+00 0.  1.
         22    1    3    3    0    0 -0.19889897415E+03  0.19280001012E+03  0.96602615371E+02  0.29336787676E+03  0.00000000000E+00 0.  1.
</event>
<event>
 7    1  0.7802682E-006  0.9096278E+02  0.7818608E-02  0.1306184E+00
          2   -1    0    0  502    0  0.00000000000E+00  0.00000000000E+00  0.11412734106E+03  0.11412734106E+03  0.00000000000E+00 0. -1.
          1   -1    0    0  501    0 -0.00000000000E+00 -0.00000000000E+00 -0.26014047779E+04  0.26014047779E+04  0.00000000000E+00 0. -1.
         25    2    1    2    0    0  0.75425518470E+01 -0.16933363129E+03 -0.65217119121E+03  0.68533436593E+03  0.12500064684E+03 0.  0.
          2    1    1    2  501    0 -0.20760140567E+02  0.83978422484E+02 -0.19123608285E+04  0.19143164046E+04  0.00000000000E+00 0. -1.
          1    1    1    2  502    0  0.13217588720E+02  0.85355208802E+02  0.77254582860E+02  0.11588134834E+03  0.00000000000E+00 0. -1.
         22    1    3    3    0    0 -0.46134458251E+02 -0.10783373914E+03 -0.48918275368E+03  0.50304698591E+03  0.00000000000E+00 0. -1.
         22    1    3    3    0    0  0.53677010098E+02 -0.61499892144E+02 -0.16298843753E+03  0.18228738002E+03  0.00000000000E+00 0. -1.
</event>
<event>
 7    1  0.7802682E-006  0.2703064E+02  0.7818608E-02  0.1682012E+00
          2   -1    0    0  502    0  0.00000000000E+00  0.00000000000E+00  0.50538360076E+02  0.50538360076E+02  0.00000000000E+00 0. -1.
          1   -1    0    0  501    0 -0.00000000000E+00 -0.00000000000E+00 -0.49509177206E+03  0.49509177206E+03  0.00000000000E+00 0. -1.
         25    2    1    2    0    0  0.14270083238E+02  0.26708384986E+02 -0.15923764486E+03  0.20469359214E+03  0.12500346402E+03 0.  0.
          2    1    1    2  501    0  0.11222752179E+02 -0.17273892544E+02 -0.30605393816E+03  0.30674639458E+03  0.00000000000E+00 0. -1.
          1    1    1    2  502    0 -0.25492835417E+02 -0.94344924423E+01  0.20738171038E+02  0.34190145411E+02  0.00000000000E+00 0. -1.
         22    1    3    3    0    0 -0.41309800670E+02  0.50287375288E+01 -0.13329239053E+03  0.13963756374E+03  0.00000000000E+00 0.  1.
         22    1    3    3    0    0  0.55579883908E+02  0.21679647458E+02 -0.25945254332E+02  0.65056028402E+02  0.00000000000E+00 0.  1.
</event>
<event>
 7    1  0.7802682E-006  0.8690068E+02  0.7818608E-02  0.1352483E+00
          2   -1    0    0  502    0  0.00000000000E+00  0.00000000000E+00  0.11875958709E+04  0.11875958709E+04  0.00000000000E+00 0. -1.
          1   -1    0    0  501    0 -0.00000000000E+00 -0.00000000000E+00 -0.35251584583E+02  0.35251584583E+02  0.00000000000E+00 0. -1.
         25    2    1    2    0    0 -0.44733146808E+02  0.45522451763E+02  0.33706232947E+03  0.36511754624E+03  0.12500584222E+03 0.  0.
          2    1    1    2  501    0  0.14252030327E+02 -0.97355959823E+02  0.10129778288E+03  0.14121807285E+03  0.00000000000E+00 0. -1.
          1    1    1    2  502    0  0.30481116481E+02  0.51833508061E+02  0.71398417396E+03  0.71651183639E+03  0.00000000000E+00 0. -1.
         22    1    3    3    0    0 -0.81002826640E+02  0.52490498718E+02  0.28775300194E+03  0.30351029720E+03  0.00000000000E+00 0. -1.
         22    1    3    3    0    0  0.36269679832E+02 -0.69680469552E+01  0.49309327522E+02  0.61607249039E+02  0.00000000000E+00 0. -1.
</event>
<event>
 7    1  0.7802682E-006  0.2414128E+03  0.7818608E-02  0.1281145E+00
          2   -1    0    0  502    0  0.00000000000E+00  0.00000000000E+00  0.27604182794E+04  0.27604182794E+04  0.00000000000E+00 0. -1.
          1   -1    0    0  501    0 -0.00000000000E+00 -0.00000000000E+00 -0.18725953991E+03  0.18725953991E+03  0.00000000000E+00 0. -1.
         25    2    1    2    0    0 -0.26412435149E+03 -0.51724103504E+02  0.14571806648E+04  0.14870897696E+04  0.12499374791E+03 0.  0.
          2    1    1    2  501    0  0.23916954045E+03  0.19080157340E+02 -0.88260796579E+02  0.25564837120E+03  0.00000000000E+00 0. -1.
          1    1    1    2  502    0  0.24954811039E+02  0.32643946164E+02  0.12042388713E+04  0.12049396785E+04  0.00000000000E+00 0. -1.
         22    1    3    3    0    0 -0.26932841079E+02 -0.52121545483E+02  0.33753307031E+03  0.34259393892E+03  0.00000000000E+00 0.  1.
         22    1    3    3    0    0 -0.23719151041E+03  0.39744197871E+00  0.11196475945E+04  0.11444958307E+04  0.00000000000E+00 0.  1.
</event>
<event>
 7    1  0.1357670E-005  0.1336969E+03  0.7818608E-02  0.1316923E+00
          2   -1    0    0  502    0  0.00000000000E+00  0.00000000000E+00  0.16435890371E+04  0.16435890371E+04  0.00000000000E+00 0. -1.
          1   -1    0    0  501    0 -0.00000000000E+00 -0.00000000000E+00 -0.15808732453E+04  0.15808732453E+04  0.00000000000E+00 0. -1.
         25    2    1    2    0    0 -0.17624461482E+03 -0.20295093658E+02 -0.36020024894E+03  0.42052523731E+03  0.12499280301E+03 0.  0.
          2    1    1    2  501    0  0.12876965329E+03 -0.39794961639E+01 -0.11865823471E+04  0.11935556654E+04  0.00000000000E+00 0. -1.
          1    1    1    2  502    0  0.47474961526E+02  0.24274589822E+02  0.16094983878E+04  0.16103813797E+04  0.00000000000E+00 0. -1.
         22    1    3    3    0    0 -0.46124972245E+01  0.51441589102E+01  0.97257411139E+01  0.11930110718E+02  0.00000000000E+00 0.  1.
         22    1    3    3    0    0 -0.17163211760E+03 -0.25439252568E+02 -0.36992599005E+03  0.40859512660E+03  0.00000000000E+00 0.  1.
</event>
<event>
 7    1  0.7802682E-006  0.8258129E+02  0.7818608E-02  0.1359214E+00
          2   -1    0    0  502    0  0.00000000000E+00  0.00000000000E+00  0.13628987669E+04  0.13628987669E+04  0.00000000000E+00 0. -1.
          1   -1    0    0  501    0 -0.00000000000E+00 -0.00000000000E+00 -0.57068327987E+02  0.57068327987E+02  0.00000000000E+00 0. -1.
         25    2    1    2    0    0 -0.50127029238E+02  0.98411042896E+02  0.38833938503E+03  0.42264636365E+03  0.12500007328E+03 0.  0.
          2    1    1    2  501    0 -0.19473052267E+02 -0.56514755481E+02 -0.14732439740E+02  0.61564292674E+02  0.00000000000E+00 0. -1.
          1    1    1    2  502    0  0.69600081505E+02 -0.41896287415E+02  0.93222349360E+03  0.93575643854E+03  0.00000000000E+00 0. -1.
         22    1    3    3    0    0 -0.75644548327E+02  0.86441334445E+02  0.18785299504E+03  0.22018844142E+03  0.00000000000E+00 0. -1.
         22    1    3    3    0    0  0.25517519089E+02  0.11969708451E+02  0.20048639000E+03  0.20245792223E+03  0.00000000000E+00 0. -1.
</event>
<event>
 7    1  0.7802682E-006  0.9911761E+02  0.7818608E-02  0.1398484E+00
          2   -1    0    0  502    0  0.00000000000E+00  0.00000000000E+00  0.93273527218E+03  0.93273527218E+03  0.00000000000E+00 0. -1.
          1   -1    0    0  501    0 -0.00000000000E+00 -0.00000000000E+00 -0.48537154129E+02  0.48537154129E+02  0.00000000000E+00 0. -1.
         25    2    1    2    0    0 -0.22740959434E+02  0.84509383791E+02  0.26122187263E+03  0.30252244742E+03  0.12499590901E+03 0.  0.
          2    1    1    2  501    0  0.31648839356E+02  0.17434076919E+02 -0.10050949449E+02  0.37504901752E+02  0.00000000000E+00 0. -1.
          1    1    1    2  502    0 -0.89078799219E+01 -0.10194346071E+03  0.63302719487E+03  0.64124507714E+03  0.00000000000E+00 0. -1.
         22    1    3    3    0    0 -0.43448146231E+02  0.93769466367E+02  0.26002250778E+03  0.27980736013E+03  0.00000000000E+00 0. -1.
         22    1    3    3    0    0  0.20707186797E+02 -0.92600825759E+01  0.11993648504E+01  0.22715087285E+02  0.00000000000E+00 0. -1.
</event>
<event>
 7    1  0.7802682E-006  0.7344610E+02  0.7818608E-02  0.1374378E+00
          2   -1    0    0  502    0  0.00000000000E+00  0.00000000000E+00  0.10242095740E+04  0.10242095740E+04  0.00000000000E+00 0. -1.
          1   -1    0    0  501    0 -0.00000000000E+00 -0.00000000000E+00 -0.25815343698E+03  0.25815343698E+03  0.00000000000E+00 0. -1.
         25    2    1    2    0    0  0.16989389524E+02 -0.25931936328E+01  0.58407108508E+03  0.59754482381E+03  0.12500168008E+03 0.  0.
          2    1    1    2  501    0  0.58570948421E+02 -0.44314484444E+02 -0.24133137477E+03  0.25226010778E+03  0.00000000000E+00 0. -1.
          1    1    1    2  502    0 -0.75560337946E+02  0.46907678076E+02  0.42331642667E+03  0.43255807937E+03  0.00000000000E+00 0. -1.
         22    1    3    3    0    0 -0.20308465575E+02  0.49146753673E+02  0.38098756710E+03  0.38468085923E+03  0.00000000000E+00 0. -1.
         22    1    3    3    0    0  0.37297855100E+02 -0.51739947305E+02  0.20308351798E+03  0.21286396458E+03  0.00000000000E+00 0. -1.
</event>
<event>
 7    1  0.7802682E-006  0.6322098E+02  0.7818608E-02  0.1433875E+00
          2   -1    0    0  502    0  0.00000000000E+00  0.00000000000E+00  0.43325340958E+03  0.43325340958E+03  0.00000000000E+00 0. -1.
          1   -1    0    0  501    0 -0.00000000000E+00 -0.00000000000E+00 -0.60642929310E+03  0.60642929310E+03  0.00000000000E+00 0. -1.
         25    2    1    2    0    0 -0.26134870551E+02 -0.86047933129E+02  0.25157743125E+03  0.29496420384E+03  0.12500159750E+03 0.  0.
          2    1    1    2  501    0 -0.98381464248E+01  0.62338099306E+02 -0.58009247801E+03  0.58351530468E+03  0.00000000000E+00 0. -1.
          1    1    1    2  502    0  0.35973016976E+02  0.23709833823E+02  0.15533916324E+03  0.16120319415E+03  0.00000000000E+00 0. -1.
         22    1    3    3    0    0  0.25759297083E+02 -0.27586502103E+02  0.72462630638E+01  0.38432600912E+02  0.00000000000E+00 0.  1.
         22    1    3    3    0    0 -0.51894167634E+02 -0.58461431026E+02  0.24433116819E+03  0.25653160293E+03  0.00000000000E+00 0.  1.
</event>
<event>
 7    1  0.7802682E-006  0.6796561E+02  0.7818608E-02  0.1413450E+00
          2   -1    0    0  502    0  0.00000000000E+00  0.00000000000E+00  0.18527736028E+04  0.18527736028E+04  0.00000000000E+00 0. -1.
          1   -1    0    0  501    0 -0.00000000000E+00 -0.00000000000E+00 -0.69620275467E+02  0.69620275467E+02  0.00000000000E+00 0. -1.
         25    2    1    2    0    0  0.10175670977E+03  0.53119081404E+01  0.80116786996E+02  0.18007337362E+03  0.12500030391E+03 0.  0.
          2    1    1    2  501    0 -0.40568417145E+02  0.23441476081E+02  0.99679454173E+01  0.47902601248E+02  0.00000000000E+00 0. -1.
          1    1    1    2  502    0 -0.61188292622E+02 -0.28753384222E+02  0.16930685949E+04  0.16944179034E+04  0.00000000000E+00 0. -1.
         22    1    3    3    0    0  0.16410792062E+02 -0.42160134590E+02 -0.10943510362E+02  0.46546229319E+02  0.00000000000E+00 0.  1.
         22    1    3    3    0    0  0.85345917705E+02  0.47472042730E+02  0.91060297358E+02  0.13352714430E+03  0.00000000000E+00 0.  1.
</event>
<event>
 7    1  0.7802682E-006  0.6176903E+02  0.7818608E-02  0.1489183E+00
          2   -1    0    0  502    0  0.00000000000E+00  0.00000000000E+00  0.27573077356E+04  0.27573077356E+04  0.00000000000E+00 0. -1.
          1   -1    0    0  501    0 -0.00000000000E+00 -0.00000000000E+00 -0.83565834764E+02  0.83565834764E+02  0.00000000000E+00 0. -1.
         25    2    1    2    0    0 -0.80313604397E+02 -0.29661062613E+02  0.59207535828E+03  0.61115405845E+03  0.12500399832E+03 0.  0.
          2    1    1    2  501    0  0.20055548623E+02  0.21672360647E+02 -0.70635618909E+02  0.76559172574E+02  0.00000000000E+00 0. -1.
          1    1    1    2  502    0  0.60258055774E+02  0.79887019665E+01  0.21523021615E+04  0.21531603393E+04  0.00000000000E+00 0. -1.
         22    1    3    3    0    0 -0.22498983737E+02 -0.15869232801E+02  0.50486677274E+03  0.50561694496E+03  0.00000000000E+00 0. -1.
         22    1    3    3    0    0 -0.57814620660E+02 -0.13791829812E+02  0.87208585542E+02  0.10553711349E+03  0.00000000000E+00 0. -1.
</event>
<event>
 7    1  0.7802682E-006  0.4293134E+02  0.7818608E-02  0.1596479E+00
          2   -1    0    0  502    0  0.00000000000E+00  0.00000000000E+00  0.47327611876E+03  0.47327611876E+03  0.00000000000E+00 0. -1.
          1   -1    0    0  501    0 -0.00000000000E+00 -0.00000000000E+00 -0.40224647833E+03  0.40224647833E+03  0.00000000000E+00 0. -1.
         25    2    1    2    0    0  0.45091983403E+02 -0.44731495203E+02  0.49183219043E+02  0.14857615414E+03  0.12498676295E+03 0.  0.
          2    1    1    2  501    0 -0.28107533653E+02  0.32097015548E+02 -0.35095788287E+03  0.35354163461E+03  0.00000000000E+00 0. -1.
          1    1    1    2  502    0 -0.16984449751E+02  0.12634479655E+02  0.37280430426E+03  0.37340480833E+03  0.00000000000E+00 0. -1.
         22    1    3    3    0    0  0.57076885358E+02 -0.63417947419E+02 -0.94870147488E+01  0.85846434671E+02  0.00000000000E+00 0. -1.
         22    1    3    3    0    0 -0.11984901955E+02  0.18686452216E+02  0.58670233792E+02  0.62729719467E+02  0.00000000000E+00 0. -1.
</event>
<event>
 7    1  0.7802682E-006  0.1195332E+03  0.7818608E-02  0.1353211E+00
          2   -1    0    0  502    0  0.00000000000E+00  0.00000000000E+00  0.10032548542E+04  0.10032548542E+04  0.00000000000E+00 0. -1.
          1   -1    0    0  501    0 -0.00000000000E+00 -0.00000000000E+00 -0.99679214216E+03  0.99679214216E+03  0.00000000000E+00 0. -1.
         25    2    1    2    0    0 -0.47332601456E+02  0.74644459355E+02  0.11629561035E+03  0.19226078942E+03  0.12500948640E+03 0.  0.
          2    1    1    2  501    0  0.90522110721E+02 -0.79358594513E+02 -0.95447037741E+03  0.96203208908E+03  0.00000000000E+00 0. -1.
          1    1    1    2  502    0 -0.43189509265E+02  0.47141351586E+01  0.84463747913E+03  0.84575411789E+03  0.00000000000E+00 0. -1.
         22    1    3    3    0    0  0.59231926019E+01  0.54226430559E+02 -0.83511918836E+01  0.55184530329E+02  0.00000000000E+00 0.  1.
         22    1    3    3    0    0 -0.53255794058E+02  0.20418028796E+02  0.12464680223E+03  0.13707625909E+03  0.00000000000E+00 0.  1.
</event>
<event>
 7    1  0.8292073E-006  0.1312635E+03  0.7818608E-02  0.1301275E+00
          2   -1    0    0  502    0  0.00000000000E+00  0.00000000000E+00  0.29167904013E+04  0.29167904013E+04  0.00000000000E+00 0. -1.
          1   -1    0    0  501    0 -0.00000000000E+00 -0.00000000000E+00 -0.14064564888E+04  0.14064564888E+04  0.00000000000E+00 0. -1.
         25    2    1    2    0    0 -0.12145539247E+03  0.80572925587E+02 -0.18298595613E+03  0.26524826808E+03  0.12501749830E+03 0.  0.
          2    1    1    2  501    0 -0.84886769237E+01 -0.62030113158E+02 -0.11800112150E+04  0.11816709610E+04  0.00000000000E+00 0. -1.
          1    1    1    2  502    0  0.12994406940E+03 -0.18542812429E+02  0.28733310836E+04  0.28763276609E+04  0.00000000000E+00 0. -1.
         22    1    3    3    0    0 -0.14672438035E+03  0.56959935882E+02 -0.14777369449E+03  0.21589243356E+03  0.00000000000E+00 0. -1.
         22    1    3    3    0    0  0.25268987882E+02  0.23612989705E+02 -0.35212261645E+02  0.49355834524E+02  0.00000000000E+00 0. -1.
</event>
<event>
 7    1  0.7802682E-006  0.2895754E+02  0.7818608E-02  0.1669273E+00
          2   -1    0    0  502    0  0.00000000000E+00  0.00000000000E+00  0.12092098788E+04  0.12092098788E+04  0.00000000000E+00 0. -1.
          1   -1    0    0  501    0 -0.00000000000E+00 -0.00000000000E+00 -0.66842809062E+02  0.66842809062E+02  0.00000000000E+00 0. -1.
         25    2    1    2    0    0  0.39075223457E+00 -0.87903744489E+01  0.19643570098E+03  0.23300076043E+03  0.12499978549E+03 0.  0.
          2    1    1    2  501    0  0.63173457106E+01 -0.19624694273E+02 -0.46147605144E+02  0.50543436197E+02  0.00000000000E+00 0. -1.
          1    1    1    2  502    0 -0.67080979452E+01  0.28415068722E+02  0.99207897388E+03  0.99250849121E+03  0.00000000000E+00 0. -1.
         22    1    3    3    0    0  0.62496636539E+02 -0.91170971641E+01  0.95947384627E+02  0.11486884545E+03  0.00000000000E+00 0.  1.
         22    1    3    3    0    0 -0.62105884304E+02  0.32672271512E+00  0.10048831635E+03  0.11813191498E+03  0.00000000000E+00 0.  1.
</event>
<event>
 7    1  0.7802682E-006  0.8156795E+02  0.7818608E-02  0.1426387E+00
          2   -1    0    0  502    0  0.00000000000E+00  0.00000000000E+00  0.10015583574E+04  0.10015583574E+04  0.00000000000E+00 0. -1.
          1   -1    0    0  501    0 -0.00000000000E+00 -0.00000000000E+00 -0.26992136235E+03  0.26992136235E+03  0.00000000000E+00 0. -1.
         25    2    1    2    0    0 -0.16831015495E+02  0.11224842935E+03  0.30231291534E+03  0.34626842044E+03  0.12500290892E+03 0.  0.
          2    1    1    2  501    0  0.28444506516E+01 -0.35228235673E+02 -0.24440632734E+03  0.24694852162E+03  0.00000000000E+00 0. -1.
          1    1    1    2  502    0  0.13986564843E+02 -0.77020193674E+02  0.67373040702E+03  0.67826277767E+03  0.00000000000E+00 0. -1.
         22    1    3    3    0    0  0.49892741681E+02  0.71424458315E+02  0.12394834359E+03  0.15150554708E+03  0.00000000000E+00 0. -1.
         22    1    3    3    0    0 -0.66723757176E+02  0.40823971032E+02  0.17836457175E+03  0.19476287335E+03  0.00000000000E+00 0. -1.
</event>
<event>
 7    1  0.7802682E-006  0.4258140E+02  0.7818608E-02  0.1591778E+00
          2   -1    0    0  502    0  0.00000000000E+00  0.00000000000E+00  0.24821290865E+02  0.24821290865E+02  0.00000000000E+00 0. -1.
          1   -1    0    0  501    0 -0.00000000000E+00 -0.00000000000E+00 -0.88659005519E+03  0.88659005519E+03  0.00000000000E+00 0. -1.
         25    2    1    2    0    0  0.27023523493E+01 -0.40740580866E+02 -0.43830907036E+03  0.45760949668E+03  0.12499805060E+03 0.  0.
          2    1    1    2  501    0  0.21374679592E+02  0.50333244647E+01 -0.40716373004E+03  0.40775545900E+03  0.00000000000E+00 0. -1.
          1    1    1    2  502    0 -0.24077031941E+02  0.35707256401E+02 -0.16295963928E+02  0.46046390381E+02  0.00000000000E+00 0. -1.
         22    1    3    3    0    0  0.59573110129E+02  0.31398748897E+01 -0.19602934931E+03  0.20490563695E+03  0.00000000000E+00 0.  1.
         22    1    3    3    0    0 -0.56870757780E+02 -0.43880455755E+02 -0.24227972105E+03  0.25270385972E+03  0.00000000000E+00 0.  1.
</event>
<event>
 7    1  0.7802682E-006  0.5173376E+02  0.7818608E-02  0.1536710E+00
          2   -1    0    0  502    0  0.00000000000E+00  0.00000000000E+00  0.19546626538E+04  0.19546626538E+04  0.00000000000E+00 0. -1.
          1   -1    0    0  501    0 -0.00000000000E+00 -0.00000000000E+00 -0.95198597763E+02  0.95198597763E+02  0.00000000000E+00 0. -1.
         25    2    1    2    0    0  0.18545563203E+02  0.31268244207E+02  0.13012951699E+04  0.13077899026E+04  0.12499467575E+03 0.  0.
          2    1    1    2  501    0 -0.32157769187E+01 -0.51742669914E+02 -0.84369260041E+02  0.99024326056E+02  0.00000000000E+00 0. -1.
          1    1    1    2  502    0 -0.15329786285E+02  0.20474425707E+02  0.64253814612E+03  0.64304702291E+03  0.00000000000E+00 0. -1.
         22    1    3    3    0    0  0.63355082087E+02  0.44756566183E+02  0.60991557386E+03  0.61482845077E+03  0.00000000000E+00 0. -1.
         22    1    3    3    0    0 -0.44809518883E+02 -0.13488321977E+02  0.69137959608E+03  0.69296145181E+03  0.00000000000E+00 0. -1.
</event>
<event>
 7    1  0.7802682E-006  0.6974363E+02  0.7818608E-02  0.1400624E+00
          2   -1    0    0  502    0  0.00000000000E+00  0.00000000000E+00  0.25152525140E+02  0.25152525140E+02  0.00000000000E+00 0. -1.
          1   -1    0    0  501    0 -0.00000000000E+00 -0.00000000000E+00 -0.74199391101E+03  0.74199391101E+03  0.00000000000E+00 0. -1.
         25    2    1    2    0    0 -0.27738403787E+02  0.27004971699E+02 -0.33240887164E+03  0.35723603034E+03  0.12499294333E+03 0.  0.
          2    1    1    2  501    0 -0.39852439388E+02  0.30996296452E+02 -0.17939148798E+03  0.18636065379E+03  0.00000000000E+00 0. -1.
          1    1    1    2  502    0  0.67590843175E+02 -0.58001268151E+02 -0.20504102624E+03  0.22354975203E+03  0.00000000000E+00 0. -1.
         22    1    3    3    0    0  0.16571309418E+02 -0.40110126061E+02 -0.17710077066E+03  0.18234065229E+03  0.00000000000E+00 0.  1.
         22    1    3    3    0    0 -0.44309713205E+02  0.67115097760E+02 -0.15530810098E+03  0.17489537805E+03  0.00000000000E+00 0.  1.
</event>
<event>
 7    1  0.7802682E-006  0.2408702E+02  0.7818608E-02  0.1677609E+00
          2   -1    0    0  502    0  0.00000000000E+00  0.00000000000E+00  0.44135133778E+03  0.44135133778E+03  0.00000000000E+00 0. -1.
          1   -1    0    0  501    0 -0.00000000000E+00 -0.00000000000E+00 -0.40016037463E+03  0.40016037463E+03  0.00000000000E+00 0. -1.
         25    2    1    2    0    0 -0.21850928559E+01  0.13650375764E+01 -0.14110505144E+03  0.18853003047E+03  0.12500519545E+03 0.  0.
          2    1    1    2  501    0  0.21076660672E+02  0.12908554382E+02 -0.23435688899E+03  0.23565654631E+03  0.00000000000E+00 0. -1.
          1    1    1    2  502    0 -0.18891567816E+02 -0.14273591959E+02  0.41665290358E+03  0.41732513563E+03  0.00000000000E+00 0. -1.
         22    1    3    3    0    0  0.50011226688E+02 -0.35310656965E+02 -0.70699997502E+02  0.93522483591E+02  0.00000000000E+00 0. -1.
         22    1    3    3    0    0 -0.52196319544E+02  0.36675694542E+02 -0.70405053941E+02  0.95007546882E+02  0.00000000000E+00 0. -1.
</event>
<event>
 7    1  0.7802682E-006  0.1331306E+03  0.7818608E-02  0.1370532E+00
          2   -1    0    0  502    0  0.00000000000E+00  0.00000000000E+00  0.14096666730E+04  0.14096666730E+04  0.00000000000E+00 0. -1.
          1   -1    0    0  501    0 -0.00000000000E+00 -0.00000000000E+00 -0.62924314124E+03  0.62924314124E+03  0.00000000000E+00 0. -1.
         25    2    1    2    0    0  0.83480115371E+02 -0.12107595012E+03  0.16855079997E+03  0.25622420253E+03  0.12495260874E+03 0.  0.
          2    1    1    2  501    0  0.13325802362E+02  0.30995085397E+02 -0.58126460774E+03  0.58224291884E+03  0.00000000000E+00 0. -1.
          1    1    1    2  502    0 -0.96805917732E+02  0.90080864720E+02  0.11931373395E+04  0.12004426929E+04  0.00000000000E+00 0. -1.
         22    1    3    3    0    0  0.10968306767E+03 -0.10374808881E+03  0.10077014892E+03  0.18151766906E+03  0.00000000000E+00 0. -1.
         22    1    3    3    0    0 -0.26202952302E+02 -0.17327861305E+02  0.67780651049E+02  0.74706533472E+02  0.00000000000E+00 0. -1.
</event>
<event>
 7    1  0.7802682E-006  0.1234245E+03  0.7818608E-02  0.1298941E+00
          2   -1    0    0  502    0  0.00000000000E+00  0.00000000000E+00  0.85886270871E+03  0.85886270871E+03  0.00000000000E+00 0. -1.
          1   -1    0    0  501    0 -0.00000000000E+00 -0.00000000000E+00 -0.78551747566E+03  0.78551747566E+03  0.00000000000E+00 0. -1.
         25    2    1    2    0    0  0.15222663548E+03 -0.92734943045E+02 -0.10233418879E+02  0.21795070256E+03  0.12500027069E+03 0.  0.
          2    1    1    2  501    0 -0.11549249826E+03  0.35471869786E+02 -0.66443416516E+03  0.67532920160E+03  0.00000000000E+00 0. -1.
          1    1    1    2  502    0 -0.36734137224E+02  0.57263073259E+02  0.74801281710E+03  0.75110028021E+03  0.00000000000E+00 0. -1.
         22    1    3    3    0    0  0.27607543234E+02 -0.45150675581E+02 -0.55878934175E+02  0.76962427413E+02  0.00000000000E+00 0. -1.
         22    1    3    3    0    0  0.12461909225E+03 -0.47584267464E+02  0.45645515296E+02  0.14098827515E+03  0.00000000000E+00 0. -1.
</event>
<event>
 7    1  0.7802682E-006  0.6528008E+02  0.7818608E-02  0.1466428E+00
          2   -1    0    0  502    0  0.00000000000E+00  0.00000000000E+00  0.36050392403E+03  0.36050392403E+03  0.00000000000E+00 0. -1.
          1   -1    0    0  501    0 -0.00000000000E+00 -0.00000000000E+00 -0.15165623986E+04  0.15165623986E+04  0.00000000000E+00 0. -1.
         25    2    1    2    0    0 -0.76353142034E+02  0.25566362398E+02  0.78749214533E+02  0.16825447331E+03  0.12499875125E+03 0.  0.
          2    1    1    2  501    0  0.12195265112E+02 -0.30479100852E+02 -0.14672553423E+04  0.14676225467E+04  0.00000000000E+00 0. -1.
          1    1    1    2  502    0  0.64157876923E+02  0.49127384539E+01  0.23244765325E+03  0.24118930257E+03  0.00000000000E+00 0. -1.
         22    1    3    3    0    0 -0.47071484783E+02 -0.23660868626E+02 -0.18124827683E+02  0.55714188160E+02  0.00000000000E+00 0. -1.
         22    1    3    3    0    0 -0.29281657251E+02  0.49227231023E+02  0.96874042216E+02  0.11254028515E+03  0.00000000000E+00 0. -1.
</event>
<event>
 7    1  0.7802682E-006  0.1222891E+03  0.7818608E-02  0.1270880E+00
          2   -1    0    0  502    0  0.00000000000E+00  0.00000000000E+00  0.65721731581E+03  0.65721731581E+03  0.00000000000E+00 0. -1.
          1   -1    0    0  501    0 -0.00000000000E+00 -0.00000000000E+00 -0.61016054929E+03  0.61016054929E+03  0.00000000000E+00 0. -1.
         25    2    1    2    0    0 -0.14318512582E+03 -0.14415980120E+02  0.16687923884E+03  0.25334709280E+03  0.12500507324E+03 0.  0.
          2    1    1    2  501    0  0.54564135321E+02 -0.70937941882E+02 -0.55480723626E+03  0.56197909735E+03  0.00000000000E+00 0. -1.
          1    1    1    2  502    0  0.88620990501E+02  0.85353922001E+02  0.43498476394E+03  0.45205167494E+03  0.00000000000E+00 0. -1.
         22    1    3    3    0    0 -0.15344004364E+03 -0.22069171369E+01  0.17715593225E+03  0.23437777584E+03  0.00000000000E+00 0. -1.
         22    1    3    3    0    0  0.10254917819E+02 -0.12209062983E+02 -0.10276693414E+02  0.18969316960E+02  0.00000000000E+00 0. -1.
</event>
<event>
 7    1  0.7802682E-006  0.1088729E+03  0.7818608E-02  0.1320312E+00
          2   -1    0    0  502    0  0.00000000000E+00  0.00000000000E+00  0.13214921934E+03  0.13214921934E+03  0.00000000000E+00 0. -1.
          1   -1    0    0  501    0 -0.00000000000E+00 -0.00000000000E+00 -0.44804330605E+03  0.44804330605E+03  0.00000000000E+00 0. -1.
         25    2    1    2    0    0  0.59433873373E+02  0.36503935185E+02 -0.76554871673E+02  0.16232899296E+03  0.12500052396E+03 0.  0.
          2    1    1    2  501    0  0.62748966348E+02 -0.98783303061E+01 -0.27941811627E+03  0.28654754908E+03  0.00000000000E+00 0. -1.
          1    1    1    2  502    0 -0.12218283972E+03 -0.26625604879E+02  0.40078901236E+02  0.13131598334E+03  0.00000000000E+00 0. -1.
         22    1    3    3    0    0  0.95032416366E+02  0.50718271773E+01 -0.44679283429E+02  0.10513382880E+03  0.00000000000E+00 0. -1.
         22    1    3    3    0    0 -0.35598542993E+02  0.31432108008E+02 -0.31875588244E+02  0.57195164157E+02  0.00000000000E+00 0. -1.
</event>
<event>
 7    1  0.7802682E-006  0.6153856E+02  0.7818608E-02  0.1410545E+00
          2   -1    0    0  502    0  0.00000000000E+00  0.00000000000E+00  0.66467612638E+02  0.66467612638E+02  0.00000000000E+00 0. -1.
          1   -1    0    0  501    0 -0.00000000000E+00 -0.00000000000E+00 -0.29241886307E+03  0.29241886307E+03  0.00000000000E+00 0. -1.
         25    2    1    2    0    0  0.63551139128E+02 -0.50005827716E+02 -0.13422198684E+03  0.20045205961E+03  0.12500462536E+03 0.  0.
          2    1    1    2  501    0 -0.52045504741E+02 -0.96381552551E+01 -0.80984700832E+02  0.96747870102E+02  0.00000000000E+00 0. -1.
          1    1    1    2  502    0 -0.11505634387E+02  0.59643982971E+02 -0.10744562759E+02  0.61686545990E+02  0.00000000000E+00 0. -1.
         22    1    3    3    0    0  0.53064395455E+02 -0.83462019367E+02 -0.53502211483E+02  0.11244654452E+03  0.00000000000E+00 0.  1.
         22    1    3    3    0    0  0.10486743672E+02  0.33456191651E+02 -0.80719775356E+02  0.88005515089E+02  0.00000000000E+00 0.  1.
</event>
<event>
 7    1  0.7802682E-006  0.1530931E+03  0.7818608E-02  0.1341298E+00
          2   -1    0    0  502    0  0.00000000000E+00  0.00000000000E+00  0.14381686237E+04  0.14381686237E+04  0.00000000000E+00 0. -1.
          1   -1    0    0  501    0 -0.00000000000E+00 -0.00000000000E+00 -0.18244298530E+03  0.18244298530E+03  0.00000000000E+00 0. -1.
         25    2    1    2    0    0  0.11682457045E+03  0.25630683194E+02  0.25256738840E+02  0.17484295084E+03  0.12500896935E+03 0.  0.
          2    1    1    2  501    0  0.31133270218E+02  0.21024293431E+02 -0.99720921429E+02  0.10656248683E+03  0.00000000000E+00 0. -1.
          1    1    1    2  502    0 -0.14795784067E+03 -0.46654976624E+02  0.13301898210E+04  0.13392061713E+04  0.00000000000E+00 0. -1.
         22    1    3    3    0    0 -0.17781543194E+01 -0.20938469061E+02 -0.29449136394E+02  0.36177796420E+02  0.00000000000E+00 0.  1.
         22    1    3    3    0    0  0.11860272477E+03  0.46569152255E+02  0.54705875235E+02  0.13866515442E+03  0.00000000000E+00 0.  1.
</event>
<event>
 7    1  0.7802682E-006  0.6220840E+02  0.7818608E-02  0.1434979E+00
          2   -1    0    0  502    0  0.00000000000E+00  0.00000000000E+00  0.15746712536E+04  0.15746712536E+04  0.00000000000E+00 0. -1.
          1   -1    0    0  501    0 -0.00000000000E+00 -0.00000000000E+00 -0.24272887276E+03  0.24272887276E+03  0.00000000000E+00 0. -1.
         25    2    1    2    0    0  0.68693299848E+02  0.22058106291E+02  0.23596843738E+03  0.27660658803E+03  0.12499908642E+03 0.  0.
          2    1    1    2  501    0 -0.97274565734E+01 -0.42318903030E+02 -0.21954496795E+03  0.22379791312E+03  0.00000000000E+00 0. -1.
          1    1    1    2  502    0 -0.58965843274E+02  0.20260796739E+02  0.13155189114E+04  0.13169956252E+04  0.00000000000E+00 0. -1.
         22    1    3    3    0    0 -0.90299630555E+01  0.51155715020E+02  0.46338054389E+02  0.69610794397E+02  0.00000000000E+00 0.  1.
         22    1    3    3    0    0  0.77723262903E+02 -0.29097608729E+02  0.18963038299E+03  0.20699579364E+03  0.00000000000E+00 0.  1.
</event>
<event>
 7    1  0.7802682E-006  0.1948805E+03  0.7818608E-02  0.1201628E+00
          2   -1    0    0  502    0  0.00000000000E+00  0.00000000000E+00  0.15730147678E+04  0.15730147678E+04  0.00000000000E+00 0. -1.
          1   -1    0    0  501    0 -0.00000000000E+00 -0.00000000000E+00 -0.10831494524E+04  0.10831494524E+04  0.00000000000E+00 0. -1.
         25    2    1    2    0    0  0.12117635308E+03 -0.72545950618E+02  0.47788592302E+03  0.51375804328E+03  0.12500299246E+03 0.  0.
          2    1    1    2  501    0  0.33000810346E+02 -0.10913809656E+03 -0.10489083881E+04  0.10550871927E+04  0.00000000000E+00 0. -1.
          1    1    1    2  502    0 -0.15417716342E+03  0.18168404718E+03  0.10608877805E+04  0.10873189842E+04  0.00000000000E+00 0. -1.
         22    1    3    3    0    0  0.80198115720E+02 -0.70815936253E+02  0.45369818493E+03  0.46614233621E+03  0.00000000000E+00 0. -1.
         22    1    3    3    0    0  0.40978237358E+02 -0.17300143658E+01  0.24187738081E+02  0.47615707074E+02  0.00000000000E+00 0. -1.
</event>
<event>
 7    1  0.7802682E-006  0.1141014E+03  0.7818608E-02  0.1333588E+00
          2   -1    0    0  502    0  0.00000000000E+00  0.00000000000E+00  0.16095991528E+04  0.16095991528E+04  0.00000000000E+00 0. -1.
          1   -1    0    0  501    0 -0.00000000000E+00 -0.00000000000E+00 -0.23248226431E+03  0.23248226431E+03  0.00000000000E+00 0. -1.
         25    2    1    2    0    0 -0.13261336220E+03  0.33280777352E+02  0.67944762091E+03  0.70424962643E+03  0.12499821111E+03 0.  0.
          2    1    1    2  501    0  0.11259496673E+03  0.16764630753E+02 -0.20450256693E+03  0.23405123213E+03  0.00000000000E+00 0. -1.
          1    1    1    2  502    0  0.20018395470E+02 -0.50045408105E+02  0.90217183453E+03  0.90378055857E+03  0.00000000000E+00 0. -1.
         22    1    3    3    0    0 -0.12365434839E+03 -0.15533528340E+02  0.57837364973E+03  0.59164834748E+03  0.00000000000E+00 0.  1.
         22    1    3    3    0    0 -0.89590138150E+01  0.48814305692E+02  0.10107397119E+03  0.11260127895E+03  0.00000000000E+00 0.  1.
</event>
<event>
 7    1  0.7802682E-006  0.9316846E+02  0.7818608E-02  0.1477963E+00
          2   -1    0    0  502    0  0.00000000000E+00  0.00000000000E+00  0.46876931648E+03  0.46876931648E+03  0.00000000000E+00 0. -1.
          1   -1    0    0  501    0 -0.00000000000E+00 -0.00000000000E+00 -0.29492646566E+03  0.29492646566E+03  0.00000000000E+00 0. -1.
         25    2    1    2    0    0 -0.49850273422E+02 -0.74773085448E+02  0.23489615416E+03  0.28085176810E+03  0.12500179334E+03 0.  0.
          2    1    1    2  501    0  0.32826671991E+02  0.87379190846E+02 -0.26336985656E+03  0.27942153592E+03  0.00000000000E+00 0. -1.
          1    1    1    2  502    0  0.17023601432E+02 -0.12606105398E+02  0.20231655322E+03  0.20342247812E+03  0.00000000000E+00 0. -1.
         22    1    3    3    0    0  0.12799120823E+02  0.47741195801E+01  0.14441450530E+03  0.14505915708E+03  0.00000000000E+00 0. -1.
         22    1    3    3    0    0 -0.62649394246E+02 -0.79547205028E+02  0.90481648861E+02  0.13579261102E+03  0.00000000000E+00 0. -1.
</event>
<event>
 7    1  0.7802682E-006  0.1832856E+03  0.7818608E-02  0.1248424E+00
          2   -1    0    0  502    0  0.00000000000E+00  0.00000000000E+00  0.20918995953E+03  0.20918995953E+03  0.00000000000E+00 0. -1.
          1   -1    0    0  501    0 -0.00000000000E+00 -0.00000000000E+00 -0.10628709623E+04  0.10628709623E+04  0.00000000000E+00 0. -1.
         25    2    1    2    0    0  0.24157136085E+03  0.15969777272E+02 -0.17064397465E+03  0.32148998949E+03  0.12499876435E+03 0.  0.
          2    1    1    2  501    0 -0.73516852105E+02  0.11856093452E+02 -0.76000658218E+03  0.76364605640E+03  0.00000000000E+00 0. -1.
          1    1    1    2  502    0 -0.16805450875E+03 -0.27825870724E+02  0.76969554064E+02  0.18692487594E+03  0.00000000000E+00 0. -1.
         22    1    3    3    0    0  0.14561792211E+03  0.18418207227E+02 -0.17119615183E+03  0.22550372945E+03  0.00000000000E+00 0. -1.
         22    1    3    3    0    0  0.95953438743E+02 -0.24484299556E+01  0.55217718100E+00  0.95986260035E+02  0.00000000000E+00 0. -1.
</event>
<event>
 7    1  0.7802682E-006  0.2507543E+02  0.7818608E-02  0.1700805E+00
          2   -1    0    0  502    0  0.00000000000E+00  0.00000000000E+00  0.24268063064E+03  0.24268063064E+03  0.00000000000E+00 0. -1.
          1   -1    0    0  501    0 -0.00000000000E+00 -0.00000000000E+00 -0.61518377265E+02  0.61518377265E+02  0.00000000000E+00 0. -1.
         25    2    1    2    0    0  0.28818516662E+02 -0.71293468842E+01  0.11730200496E+03  0.17397865097E+03  0.12500990415E+03 0.  0.
          2    1    1    2  501    0 -0.22214775089E+02 -0.11829319915E+02 -0.27150695485E+02  0.37021470895E+02  0.00000000000E+00 0. -1.
          1    1    1    2  502    0 -0.66037415726E+01  0.18958666799E+02  0.91010943903E+02  0.93198886043E+02  0.00000000000E+00 0. -1.
         22    1    3    3    0    0 -0.23461550299E+02  0.25657114171E+02 -0.67584589350E+01  0.35417631445E+02  0.00000000000E+00 0.  1.
         22    1    3    3    0    0  0.52280066961E+02 -0.32786461055E+02  0.12406046389E+03  0.13856101952E+03  0.00000000000E+00 0.  1.
</event>
<event>
 7    1  0.7802682E-006  0.5396707E+02  0.7818608E-02  0.1430370E+00
          2   -1    0    0  502    0  0.00000000000E+00  0.00000000000E+00  0.26163620750E+04  0.26163620750E+04  0.00000000000E+00 0. -1.
          1   -1    0    0  501    0 -0.00000000000E+00 -0.00000000000E+00 -0.35368669655E+03  0.35368669655E+03  0.00000000000E+00 0. -1.
         25    2    1    2    0    0  0.36674286505E+01  0.21635417893E+01  0.56525995631E+03  0.57893681995E+03  0.12502356718E+03 0.  0.
          2    1    1    2  501    0 -0.49336734956E+02  0.22336857823E+02 -0.34440337179E+03  0.34863552764E+03  0.00000000000E+00 0. -1.
          1    1    1    2  502    0  0.45669306305E+02 -0.24500399613E+02  0.20418187940E+04  0.20424764240E+04  0.00000000000E+00 0. -1.
         22    1    3    3    0    0  0.35856292084E+02  0.32950291873E+02  0.96748347049E+02  0.10831268658E+03  0.00000000000E+00 0.  1.
         22    1    3    3    0    0 -0.32188863433E+02 -0.30786750084E+02  0.46851160926E+03  0.47062413338E+03  0.00000000000E+00 0.  1.
</event>
<event>
 7    1  0.7802682E-006  0.1050602E+03  0.7818608E-02  0.1401359E+00
          2   -1    0    0  502    0  0.00000000000E+00  0.00000000000E+00  0.52269306621E+03  0.52269306621E+03  0.00000000000E+00 0. -1.
          1   -1    0    0  501    0 -0.00000000000E+00 -0.00000000000E+00 -0.16658975144E+04  0.16658975144E+04  0.00000000000E+00 0. -1.
         25    2    1    2    0    0  0.22910136673E+02  0.95195428346E+02 -0.19216669534E+03  0.24928009802E+03  0.12500193810E+03 0.  0.
          2    1    1    2  501    0  0.87789857860E+01 -0.10549744732E+03 -0.14426707375E+04  0.14465495632E+04  0.00000000000E+00 0. -1.
          1    1    1    2  502    0 -0.31689122459E+02  0.10302018972E+02  0.49163298465E+03  0.49276091938E+03  0.00000000000E+00 0. -1.
         22    1    3    3    0    0 -0.19061304099E+02  0.10360621714E+03 -0.17261265258E+03  0.20221945844E+03  0.00000000000E+00 0.  1.
         22    1    3    3    0    0  0.41971440772E+02 -0.84107887919E+01 -0.19554042767E+02  0.47060639574E+02  0.00000000000E+00 0.  1.
</event>
<event>
 7    1  0.7802682E-006  0.7255688E+02  0.7818608E-02  0.1467710E+00
          2   -1    0    0  502    0  0.00000000000E+00  0.00000000000E+00  0.50240844105E+03  0.50240844105E+03  0.00000000000E+00 0. -1.
          1   -1    0    0  501    0 -0.00000000000E+00 -0.00000000000E+00 -0.44146610460E+03  0.44146610460E+03  0.00000000000E+00 0. -1.
         25    2    1    2    0    0 -0.84346996940E+01  0.44705826209E+02 -0.16223988561E+03  0.20980044362E+03  0.12499876241E+03 0.  0.
          2    1    1    2  501    0 -0.17371571366E+02  0.23551251007E+02 -0.25181220648E+03  0.25350704181E+03  0.00000000000E+00 0. -1.
          1    1    1    2  502    0  0.25806271060E+02 -0.68257077216E+02  0.47499442854E+03  0.48056706021E+03  0.00000000000E+00 0. -1.
         22    1    3    3    0    0 -0.64436962246E+02  0.16166975310E+02 -0.10790502821E+03  0.12671617224E+03  0.00000000000E+00 0.  1.
         22    1    3    3    0    0  0.56002262552E+02  0.28538850899E+02 -0.54334857407E+02  0.83084271381E+02  0.00000000000E+00 0.  1.
</event>
<event>
 7    1  0.7802682E-006  0.6743299E+02  0.7818608E-02  0.1449798E+00
          2   -1    0    0  502    0  0.00000000000E+00  0.00000000000E+00  0.17683977970E+04  0.17683977970E+04  0.00000000000E+00 0. -1.
          1   -1    0    0  501    0 -0.00000000000E+00 -0.00000000000E+00 -0.16835371105E+04  0.16835371105E+04  0.00000000000E+00 0. -1.
         25    2    1    2    0    0  0.72261337839E+02  0.51542329901E+02  0.27664827441E+02  0.15578151248E+03  0.12499689691E+03 0.  0.
          2    1    1    2  501    0 -0.35546066234E+02  0.48271545660E+01 -0.16186051797E+04  0.16190026411E+04  0.00000000000E+00 0. -1.
          1    1    1    2  502    0 -0.36715271605E+02 -0.56369484467E+02  0.16758010388E+04  0.16771507540E+04  0.00000000000E+00 0. -1.
         22    1    3    3    0    0 -0.12205206113E+02 -0.31941367630E+02  0.10611845216E+02  0.35802643495E+02  0.00000000000E+00 0.  1.
         22    1    3    3    0    0  0.84466543953E+02  0.83483697531E+02  0.17052982225E+02  0.11997886899E+03  0.00000000000E+00 0.  1.
</event>
<event>
 7    1  0.7802682E-006  0.6924658E+02  0.7818608E-02  0.1483814E+00
          2   -1    0    0  502    0  0.00000000000E+00  0.00000000000E+00  0.49466416031E+03  0.49466416031E+03  0.00000000000E+00 0. -1.
          1   -1    0    0  501    0 -0.00000000000E+00 -0.00000000000E+00 -0.24641966621E+03  0.24641966621E+03  0.00000000000E+00 0. -1.
         25    2    1    2    0    0 -0.40967999648E+02  0.53447431285E+02  0.24071032265E+02  0.14400693886E+03  0.12499431563E+03 0.  0.
          2    1    1    2  501    0  0.23537005344E+02  0.13926187683E+02 -0.18247679732E+03  0.18451479855E+03  0.00000000000E+00 0. -1.
          1    1    1    2  502    0  0.17430994304E+02 -0.67373618968E+02  0.40665025916E+03  0.41256208911E+03  0.00000000000E+00 0. -1.
         22    1    3    3    0    0  0.44752104349E+01  0.77940145524E+02 -0.14706517645E+02  0.79441648107E+02  0.00000000000E+00 0.  1.
         22    1    3    3    0    0 -0.45443210083E+02 -0.24492714239E+02  0.38777549910E+02  0.64565290756E+02  0.00000000000E+00 0.  1.
</event>
<event>
 7    1  0.7802682E-006  0.5590142E+02  0.7818608E-02  0.1481403E+00
          2   -1    0    0  502    0  0.00000000000E+00  0.00000000000E+00  0.64792100705E+02  0.64792100705E+02  0.00000000000E+00 0. -1.
          1   -1    0    0  501    0 -0.00000000000E+00 -0.00000000000E+00 -0.13727219335E+04  0.13727219335E+04  0.00000000000E+00 0. -1.
         25    2    1    2    0    0 -0.11522284444E+02 -0.80048262015E+02 -0.29649657813E+03  0.33177699985E+03  0.12500107800E+03 0.  0.
          2    1    1    2  501    0  0.25756696458E+02  0.48668873297E+02 -0.10514720573E+04  0.10529128900E+04  0.00000000000E+00 0. -1.
          1    1    1    2  502    0 -0.14234412014E+02  0.31379388719E+02  0.40038802572E+02  0.52824144415E+02  0.00000000000E+00 0. -1.
         22    1    3    3    0    0  0.66404494498E+01 -0.89914759661E+02 -0.10179581580E+03  0.13598215945E+03  0.00000000000E+00 0. -1.
         22    1    3    3    0    0 -0.18162733894E+02  0.98664976459E+01 -0.19470076233E+03  0.19579484041E+03  0.00000000000E+00 0. -1.
</event>
<event>
 7    1  0.7802682E-006  0.7260372E+02  0.7818608E-02  0.1391975E+00
          2   -1    0    0  502    0  0.00000000000E+00  0.00000000000E+00  0.12602244109E+04  0.12602244109E+04  0.00000000000E+00 0. -1.
          1   -1    0    0  501    0 -0.00000000000E+00 -0.00000000000E+00 -0.21006363957E+04  0.21006363957E+04  0.00000000000E+00 0. -1.
         25    2    1    2    0    0  0.21312352292E+02  0.10066969540E+02  0.11755971802E+03  0.17321300676E+03  0.12500759247E+03 0.  0.
          2    1    1    2  501    0  0.38617408474E+02  0.34757618592E+02 -0.20712276430E+04  0.20718791822E+04  0.00000000000E+00 0. -1.
          1    1    1    2  502    0 -0.59929760766E+02 -0.44824588132E+02  0.11132559401E+04  0.11157686177E+04  0.00000000000E+00 0. -1.
         22    1    3    3    0    0  0.72813418563E+02  0.97927409707E+01  0.84687801755E+02  0.11211474241E+03  0.00000000000E+00 0.  1.
         22    1    3    3    0    0 -0.51501066271E+02  0.27422856976E+00  0.32871916270E+02  0.61098264359E+02  0.00000000000E+00 0.  1.
</event>
<event>
 7    1  0.7802682E-006  0.1136121E+03  0.7818608E-02  0.1308755E+00
          2   -1    0    0  502    0  0.00000000000E+00  0.00000000000E+00  0.58740439560E+03  0.58740439560E+03  0.00000000000E+00 0. -1.
          1   -1    0    0  501    0 -0.00000000000E+00 -0.00000000000E+00 -0.10428988117E+04  0.10428988117E+04  0.00000000000E+00 0. -1.
         25    2    1    2    0    0 -0.34950389733E+02 -0.11000789272E+03  0.38012912390E+03  0.41646620347E+03  0.12499072601E+03 0.  0.
          2    1    1    2  501    0  0.89520317840E+02  0.70189868103E+02 -0.10154183778E+04  0.10217705158E+04  0.00000000000E+00 0. -1.
          1    1    1    2  502    0 -0.54569928107E+02  0.39818024615E+02  0.17979483781E+03  0.19206648807E+03  0.00000000000E+00 0. -1.
         22    1    3    3    0    0 -0.72664517078E+02 -0.56049653809E+02  0.13938054571E+03  0.16687909473E+03  0.00000000000E+00 0.  1.
         22    1    3    3    0    0  0.37714127345E+02 -0.53958238909E+02  0.24074857819E+03  0.24958710874E+03  0.00000000000E+00 0.  1.
</event>
<event>
 7    1  0.7802682E-006  0.8502025E+02  0.7818608E-02  0.1415470E+00
          2   -1    0    0  502    0  0.00000000000E+00  0.00000000000E+00  0.53734978986E+02  0.53734978986E+02  0.00000000000E+00 0. -1.
          1   -1    0    0  501    0 -0.00000000000E+00 -0.00000000000E+00 -0.16994009979E+04  0.16994009979E+04  0.00000000000E+00 0. -1.
         25    2    1    2    0    0  0.10948579387E+03  0.25735548393E+02 -0.69800696968E+03  0.71797508983E+03  0.12500016957E+03 0.  0.
          2    1    1    2  501    0 -0.25862475249E+02 -0.26282567209E+02 -0.95076342091E+03  0.95147817816E+03  0.00000000000E+00 0. -1.
          1    1    1    2  502    0 -0.83623318620E+02  0.54701881621E+00  0.31043716640E+01  0.83682708907E+02  0.00000000000E+00 0. -1.
         22    1    3    3    0    0  0.88326912439E+02  0.69449504255E+02 -0.37941249709E+03  0.39570029069E+03  0.00000000000E+00 0.  1.
         22    1    3    3    0    0  0.21158881430E+02 -0.43713955862E+02 -0.31859447259E+03  0.32227479915E+03  0.00000000000E+00 0.  1.
</event>
<event>
 7    1  0.7802682E-006  0.1327737E+03  0.7818608E-02  0.1381109E+00
          2   -1    0    0  502    0  0.00000000000E+00  0.00000000000E+00  0.78220038949E+03  0.78220038949E+03  0.00000000000E+00 0. -1.
          1   -1    0    0  501    0 -0.00000000000E+00 -0.00000000000E+00 -0.28401776388E+03  0.28401776388E+03  0.00000000000E+00 0. -1.
         25    2    1    2    0    0  0.11286848634E+03 -0.14453576534E+02  0.22249373343E+02  0.17049321577E+03  0.12499880370E+03 0.  0.
          2    1    1    2  501    0  0.21532874853E+02  0.22324110607E+02 -0.20209406215E+03  0.20446036430E+03  0.00000000000E+00 0. -1.
          1    1    1    2  502    0 -0.13440136119E+03 -0.78705340728E+01  0.67802731441E+03  0.69126457329E+03  0.00000000000E+00 0. -1.
         22    1    3    3    0    0  0.10730195986E+03 -0.60124146645E+02  0.17576560977E+02  0.12424797421E+03  0.00000000000E+00 0.  1.
         22    1    3    3    0    0  0.55665264748E+01  0.45670570111E+02  0.46728123662E+01  0.46245241557E+02  0.00000000000E+00 0.  1.
</event>
<event>
 7    1  0.7802682E-006  0.5292267E+02  0.7818608E-02  0.1463267E+00
          2   -1    0    0  502    0  0.00000000000E+00  0.00000000000E+00  0.34844272565E+03  0.34844272565E+03  0.00000000000E+00 0. -1.
          1   -1    0    0  501    0 -0.00000000000E+00 -0.00000000000E+00 -0.50841426259E+03  0.50841426259E+03  0.00000000000E+00 0. -1.
         25    2    1    2    0    0 -0.31684293732E+02 -0.95607227729E+01 -0.11351303842E+03  0.17206400331E+03  0.12500203780E+03 0.  0.
          2    1    1    2  501    0 -0.12582679319E+02  0.39470581382E+02 -0.36220105751E+03  0.36456255523E+03  0.00000000000E+00 0. -1.
          1    1    1    2  502    0  0.44266973050E+02 -0.29909858609E+02  0.31574255899E+03  0.32023042970E+03  0.00000000000E+00 0. -1.
         22    1    3    3    0    0  0.29008489139E+02 -0.30269280291E+02 -0.27249208017E+00  0.41926078082E+02  0.00000000000E+00 0.  1.
         22    1    3    3    0    0 -0.60692782870E+02  0.20708557518E+02 -0.11324054634E+03  0.13013792523E+03  0.00000000000E+00 0.  1.
</event>
<event>
 7    1  0.7802682E-006  0.1020526E+03  0.7818608E-02  0.1399079E+00
          2   -1    0    0  502    0  0.00000000000E+00  0.00000000000E+00  0.11334148805E+04  0.11334148805E+04  0.00000000000E+00 0. -1.
          1   -1    0    0  501    0 -0.00000000000E+00 -0.00000000000E+00 -0.21302207135E+03  0.21302207135E+03  0.00000000000E+00 0. -1.
         25    2    1    2    0    0  0.49381460746E+02 -0.61799314393E+02  0.14993782833E+03  0.21062586810E+03  0.12499688006E+03 0.  0.
          2    1    1    2  501    0 -0.84304660396E+02  0.61183866654E+02 -0.16747696505E+03  0.19722899159E+03  0.00000000000E+00 0. -1.
          1    1    1    2  502    0  0.34923199649E+02  0.61544773882E+00  0.93793194586E+03  0.93858209216E+03  0.00000000000E+00 0. -1.
         22    1    3    3    0    0  0.30712442308E+02  0.35049627270E+02  0.67800355691E+02  0.82271615495E+02  0.00000000000E+00 0. -1.
         22    1    3    3    0    0  0.18669018438E+02 -0.96848941663E+02  0.82137472643E+02  0.12835425261E+03  0.00000000000E+00 0. -1.
</event>
<event>
 7    1  0.7802682E-006  0.5041236E+02  0.7818608E-02  0.1484922E+00
          2   -1    0    0  502    0  0.00000000000E+00  0.00000000000E+00  0.10850946930E+03  0.10850946930E+03  0.00000000000E+00 0. -1.
          1   -1    0    0  501    0 -0.00000000000E+00 -0.00000000000E+00 -0.11769387303E+04  0.11769387303E+04  0.00000000000E+00 0. -1.
         25    2    1    2    0    0 -0.13836877188E+02  0.21314380073E+02 -0.26681964793E+03  0.29574160386E+03  0.12499843906E+03 0.  0.
          2    1    1    2  501    0 -0.36015428338E+02 -0.96069868271E+01 -0.88826749425E+03  0.88904923745E+03  0.00000000000E+00 0. -1.
          1    1    1    2  502    0  0.49852305526E+02 -0.11707393246E+02  0.86657881137E+02  0.10065735833E+03  0.00000000000E+00 0. -1.
         22    1    3    3    0    0 -0.51234314233E+02  0.52548820271E+02 -0.20001931873E+03  0.21305882130E+03  0.00000000000E+00 0.  1.
         22    1    3    3    0    0  0.37397437045E+02 -0.31234440198E+02 -0.66800329193E+02  0.82682782563E+02  0.00000000000E+00 0.  1.
</event>
<event>
 7    1  0.7802682E-006  0.7972640E+02  0.7818608E-02  0.1370738E+00
          2   -1    0    0  502    0  0.00000000000E+00  0.00000000000E+00  0.14017016327E+04  0.14017016327E+04  0.00000000000E+00 0. -1.
          1   -1    0    0  501    0 -0.00000000000E+00 -0.00000000000E+00 -0.34760849163E+03  0.34760849163E+03  0.00000000000E+00 0. -1.
         25    2    1    2    0    0  0.10088548198E+03 -0.62034750574E+02  0.28629621681E+02  0.17455885752E+03  0.12499979499E+03 0.  0.
          2    1    1    2  501    0 -0.22321722016E+02  0.51622495459E+02 -0.27054140030E+03  0.27632551563E+03  0.00000000000E+00 0. -1.
          1    1    1    2  502    0 -0.78563759969E+02  0.10412255115E+02  0.12960049197E+04  0.12984257512E+04  0.00000000000E+00 0. -1.
         22    1    3    3    0    0 -0.79907082580E+01 -0.49759357335E+02 -0.20595721421E+02  0.54442894869E+02  0.00000000000E+00 0.  1.
         22    1    3    3    0    0  0.10887619024E+03 -0.12275393239E+02  0.49225343102E+02  0.12011596265E+03  0.00000000000E+00 0.  1.
</event>
<event>
 7    1  0.7802682E-006  0.6586282E+02  0.7818608E-02  0.1453619E+00
          2   -1    0    0  502    0  0.00000000000E+00  0.00000000000E+00  0.24672154090E+03  0.24672154090E+03  0.00000000000E+00 0. -1.
          1   -1    0    0  501    0 -0.00000000000E+00 -0.00000000000E+00 -0.17300528940E+04  0.17300528940E+04  0.00000000000E+00 0. -1.
         25    2    1    2    0    0  0.70838919680E+02 -0.28299970609E+02 -0.35283396421E+03  0.38201432414E+03  0.12499638662E+03 0.  0.
          2    1    1    2  501    0 -0.28218185912E+02 -0.21885297730E+02 -0.13577204649E+04  0.13581900063E+04  0.00000000000E+00 0. -1.
          1    1    1    2  502    0 -0.42620733768E+02  0.50185268339E+02  0.22722307598E+03  0.23657010455E+03  0.00000000000E+00 0. -1.
         22    1    3    3    0    0 -0.21019163524E+02  0.15039277835E+02 -0.17761517816E+03  0.17948575606E+03  0.00000000000E+00 0.  1.
         22    1    3    3    0    0  0.91858083204E+02 -0.43339248444E+02 -0.17521878605E+03  0.20252856809E+03  0.00000000000E+00 0.  1.
</event>
<event>
 7    1  0.7802682E-006  0.3981963E+02  0.7818608E-02  0.1527263E+00
          2   -1    0    0  502    0  0.00000000000E+00  0.00000000000E+00  0.14773809733E+03  0.14773809733E+03  0.00000000000E+00 0. -1.
          1   -1    0    0  501    0 -0.00000000000E+00 -0.00000000000E+00 -0.81399136942E+03  0.81399136942E+03  0.00000000000E+00 0. -1.
         25    2    1    2    0    0  0.35881167369E+02  0.43893300710E+02 -0.35786352217E+03  0.38328237982E+03  0.12500000866E+03 0.  0.
          2    1    1    2  501    0 -0.35120404635E+02 -0.41196839681E+01 -0.43976326822E+03  0.44118266817E+03  0.00000000000E+00 0. -1.
          1    1    1    2  502    0 -0.76076273379E+00 -0.39773616742E+02  0.13137351829E+03  0.13726441876E+03  0.00000000000E+00 0. -1.
         22    1    3    3    0    0  0.25541203142E+02 -0.35325946319E+02 -0.21704883850E+03  0.22138309293E+03  0.00000000000E+00 0.  1.
         22    1    3    3    0    0  0.10339964227E+02  0.79219247029E+02 -0.14081468367E+03  0.16189928689E+03  0.00000000000E+00 0.  1.
</event>
<event>
 7    1  0.7802682E-006  0.4686420E+02  0.7818608E-02  0.1517360E+00
          2   -1    0    0  502    0  0.00000000000E+00  0.00000000000E+00  0.19882784699E+04  0.19882784699E+04  0.00000000000E+00 0. -1.
          1   -1    0    0  501    0 -0.00000000000E+00 -0.00000000000E+00 -0.13621278284E+03  0.13621278284E+03  0.00000000000E+00 0. -1.
         25    2    1    2    0    0  0.26719680493E+02  0.28889435816E+02  0.76658974881E+02  0.15182323934E+03  0.12500062698E+03 0.  0.
          2    1    1    2  501    0 -0.26495871652E+02  0.18113932728E+02 -0.95716547744E+02  0.10095446144E+03  0.00000000000E+00 0. -1.
          1    1    1    2  502    0 -0.22380884183E+00 -0.47003368544E+02  0.18711232599E+04  0.18717135520E+04  0.00000000000E+00 0. -1.
         22    1    3    3    0    0  0.90088277815E+01  0.14582267731E+02  0.11006758565E+03  0.11139423199E+03  0.00000000000E+00 0.  1.
         22    1    3    3    0    0  0.17710852712E+02  0.14307168084E+02 -0.33408610764E+02  0.40429007353E+02  0.00000000000E+00 0.  1.
</event>
<event>
 7    1  0.7802682E-006  0.7046363E+02  0.7818608E-02  0.1454639E+00
          2   -1    0    0  502    0  0.00000000000E+00  0.00000000000E+00  0.66900569636E+03  0.66900569636E+03  0.00000000000E+00 0. -1.
          1   -1    0    0  501    0 -0.00000000000E+00 -0.00000000000E+00 -0.90830002042E+03  0.90830002042E+03  0.00000000000E+00 0. -1.
         25    2    1    2    0    0 -0.38617926963E+02  0.82885708901E+02  0.35589137131E+03  0.38813147409E+03  0.12500395189E+03 0.  0.
          2    1    1    2  501    0  0.28159094692E+02 -0.17455151779E+02 -0.88817145880E+03  0.88878915226E+03  0.00000000000E+00 0. -1.
          1    1    1    2  502    0  0.10458832271E+02 -0.65430557122E+02  0.29298576344E+03  0.30038509044E+03  0.00000000000E+00 0. -1.
         22    1    3    3    0    0 -0.52848507293E+02 -0.15657140835E+02  0.13625674295E+03  0.14698302889E+03  0.00000000000E+00 0. -1.
         22    1    3    3    0    0  0.14230580330E+02  0.98542849737E+02  0.21963462836E+03  0.24114844520E+03  0.00000000000E+00 0. -1.
</event>
<event>
 7    1  0.7802682E-006  0.1060312E+03  0.7818608E-02  0.1299466E+00
          2   -1    0    0  502    0  0.00000000000E+00  0.00000000000E+00  0.11376125699E+03  0.11376125699E+03  0.00000000000E+00 0. -1.
          1   -1    0    0  501    0 -0.00000000000E+00 -0.00000000000E+00 -0.32977893595E+03  0.32977893595E+03  0.00000000000E+00 0. -1.
         25    2    1    2    0    0  0.35008820247E+02  0.39873043074E+02 -0.28272165812E+02  0.13871103603E+03  0.12500383634E+03 0.  0.
          2    1    1    2  501    0 -0.11209260846E+03 -0.56276161004E+02 -0.18802341119E+03  0.22601894240E+03  0.00000000000E+00 0. -1.
          1    1    1    2  502    0  0.77083788216E+02  0.16403117929E+02  0.27789804325E+00  0.78810214509E+02  0.00000000000E+00 0. -1.
         22    1    3    3    0    0  0.27601462595E+02  0.34137506106E+02 -0.77246083319E+02  0.88849127450E+02  0.00000000000E+00 0.  1.
         22    1    3    3    0    0  0.74073576516E+01  0.57355369680E+01  0.48973917507E+02  0.49861908584E+02  0.00000000000E+00 0.  1.
</event>
<event>
 7    1  0.7802682E-006  0.8542210E+02  0.7818608E-02  0.1399793E+00
          2   -1    0    0  502    0  0.00000000000E+00  0.00000000000E+00  0.74767470148E+03  0.74767470148E+03  0.00000000000E+00 0. -1.
          1   -1    0    0  501    0 -0.00000000000E+00 -0.00000000000E+00 -0.24534174545E+04  0.24534174545E+04  0.00000000000E+00 0. -1.
         25    2    1    2    0    0 -0.17016097799E+02 -0.49054060263E+02 -0.35170424146E+02  0.13985044857E+03  0.12500136327E+03 0.  0.
          2    1    1    2  501    0 -0.19714171609E+01  0.85947889603E+02 -0.23645061236E+04  0.23660684975E+04  0.00000000000E+00 0. -1.
          1    1    1    2  502    0  0.18987514959E+02 -0.36893829340E+02  0.69393379471E+03  0.69517320994E+03  0.00000000000E+00 0. -1.
         22    1    3    3    0    0  0.54515372624E+02 -0.22026671190E+02 -0.17839617305E+02  0.61443893445E+02  0.00000000000E+00 0. -1.
         22    1    3    3    0    0 -0.71531470423E+02 -0.27027389073E+02 -0.17330806841E+02  0.78406555126E+02  0.00000000000E+00 0. -1.
</event>
<event>
 7    1  0.7802682E-006  0.3232740E+02  0.7818608E-02  0.1623183E+00
          2   -1    0    0  502    0  0.00000000000E+00  0.00000000000E+00  0.13927512387E+04  0.13927512387E+04  0.00000000000E+00 0. -1.
          1   -1    0    0  501    0 -0.00000000000E+00 -0.00000000000E+00 -0.22693300462E+03  0.22693300462E+03  0.00000000000E+00 0. -1.
         25    2    1    2    0    0 -0.38623598439E+02 -0.37037217542E+02  0.64569352946E+02  0.15052839149E+03  0.12500422979E+03 0.  0.
          2    1    1    2  501    0  0.16650629362E+02  0.27414427220E+02 -0.18244240968E+03  0.18524045759E+03  0.00000000000E+00 0. -1.
          1    1    1    2  502    0  0.21972969077E+02  0.96227903215E+01  0.12836912908E+04  0.12839153943E+04  0.00000000000E+00 0. -1.
         22    1    3    3    0    0 -0.24101142952E+02  0.19149193264E+01  0.95627460836E+02  0.98636419610E+02  0.00000000000E+00 0. -1.
         22    1    3    3    0    0 -0.14522455487E+02 -0.38952136868E+02 -0.31058107890E+02  0.51891971880E+02  0.00000000000E+00 0. -1.
</event>
<event>
 7    1  0.7802682E-006  0.2029279E+03  0.7818608E-02  0.1227441E+00
          2   -1    0    0  502    0  0.00000000000E+00  0.00000000000E+00  0.54763834793E+03  0.54763834793E+03  0.00000000000E+00 0. -1.
          1   -1    0    0  501    0 -0.00000000000E+00 -0.00000000000E+00 -0.40044645286E+03  0.40044645286E+03  0.00000000000E+00 0. -1.
         25    2    1    2    0    0 -0.51713487273E+02  0.11957523060E+03  0.28929697034E+03  0.34101069014E+03  0.12499213256E+03 0.  0.
          2    1    1    2  501    0  0.11052694635E+03 -0.17855627549E+03 -0.33589824869E+03  0.39613909534E+03  0.00000000000E+00 0. -1.
          1    1    1    2  502    0 -0.58813459073E+02  0.58981044881E+02  0.19379317341E+03  0.21093501531E+03  0.00000000000E+00 0. -1.
         22    1    3    3    0    0 -0.76666939234E+02  0.47442952581E+02  0.22063475056E+03  0.23834501563E+03  0.00000000000E+00 0. -1.
         22    1    3    3    0    0  0.24953451961E+02  0.72132278023E+02  0.68662219782E+02  0.10266567451E+03  0.00000000000E+00 0. -1.
</event>
<event>
 7    1  0.7802682E-006  0.3949341E+02  0.7818608E-02  0.1551123E+00
          2   -1    0    0  502    0  0.00000000000E+00  0.00000000000E+00  0.30685873260E+03  0.30685873260E+03  0.00000000000E+00 0. -1.
          1   -1    0    0  501    0 -0.00000000000E+00 -0.00000000000E+00 -0.35117493003E+03  0.35117493003E+03  0.00000000000E+00 0. -1.
         25    2    1    2    0    0 -0.28211908808E+02  0.46523297138E+02 -0.32565679191E+02  0.14016267435E+03  0.12499889137E+03 0.  0.
          2    1    1    2  501    0  0.35510850277E+02 -0.16889681894E+02 -0.26242031467E+03  0.26535015243E+03  0.00000000000E+00 0. -1.
          1    1    1    2  502    0 -0.72989414683E+01 -0.29633615244E+02  0.25066979644E+03  0.25252083586E+03  0.00000000000E+00 0. -1.
         22    1    3    3    0    0  0.20842664994E+02  0.19416181331E+02 -0.68088913125E+02  0.73807214228E+02  0.00000000000E+00 0. -1.
         22    1    3    3    0    0 -0.49054573803E+02  0.27107115807E+02  0.35523233934E+02  0.66355460118E+02  0.00000000000E+00 0. -1.
</event>
<event>
 7    1  0.7802682E-006  0.1017757E+03  0.7818608E-02  0.1277406E+00
          2   -1    0    0  502    0  0.00000000000E+00  0.00000000000E+00  0.26824789092E+04  0.26824789092E+04  0.00000000000E+00 0. -1.
          1   -1    0    0  501    0 -0.00000000000E+00 -0.00000000000E+00 -0.45836929097E+02  0.45836929097E+02  0.00000000000E+00 0. -1.
         25    2    1    2    0    0 -0.21548710247E+02  0.18379510434E+02  0.32937519148E+03  0.35343272912E+03  0.12499809572E+03 0.  0.
          2    1    1    2  501    0  0.98277809384E+02 -0.84058129978E+02  0.95378947616E+02  0.16069051211E+03  0.00000000000E+00 0. -1.
          1    1    1    2  502    0 -0.76729099137E+02  0.65678619544E+02  0.22118878410E+04  0.22141925971E+04  0.00000000000E+00 0. -1.
         22    1    3    3    0    0 -0.30534848652E+02  0.69487373312E+02  0.18218973776E+03  0.19736760772E+03  0.00000000000E+00 0.  1.
         22    1    3    3    0    0  0.89861384050E+01 -0.51107862878E+02  0.14718545372E+03  0.15606512140E+03  0.00000000000E+00 0.  1.
</event>
<event>
 7    1  0.7802682E-006  0.6561471E+02  0.7818608E-02  0.1427949E+00
          2   -1    0    0  502    0  0.00000000000E+00  0.00000000000E+00  0.96876889160E+03  0.96876889160E+03  0.00000000000E+00 0. -1.
          1   -1    0    0  501    0 -0.00000000000E+00 -0.00000000000E+00 -0.13965727950E+03  0.13965727950E+03  0.00000000000E+00 0. -1.
         25    2    1    2    0    0 -0.35519102248E+02 -0.20456300294E+02 -0.16428940143E+01  0.13156052698E+03  0.12500162524E+03 0.  0.
          2    1    1    2  501    0 -0.29774833892E+02  0.31598717320E+02 -0.65272681774E+02  0.78393511565E+02  0.00000000000E+00 0. -1.
          1    1    1    2  502    0  0.65293936140E+02 -0.11142417026E+02  0.89602718789E+03  0.89847213256E+03  0.00000000000E+00 0. -1.
         22    1    3    3    0    0  0.22344208545E+02 -0.53900798518E+02  0.19405706446E+02  0.61490984535E+02  0.00000000000E+00 0. -1.
         22    1    3    3    0    0 -0.57863310793E+02  0.33444498224E+02 -0.21048600460E+02  0.70069542447E+02  0.00000000000E+00 0. -1.
</event>
<event>
 7    1  0.7802682E-006  0.1403580E+03  0.7818608E-02  0.1307758E+00
          2   -1    0    0  502    0  0.00000000000E+00  0.00000000000E+00  0.44459356445E+03  0.44459356445E+03  0.00000000000E+00 0. -1.
          1   -1    0    0  501    0 -0.00000000000E+00 -0.00000000000E+00 -0.36471212651E+04  0.36471212651E+04  0.00000000000E+00 0. -1.
         25    2    1    2    0    0  0.85406563889E+02  0.20067295228E+02 -0.11882490535E+04  0.11980225236E+04  0.12500070550E+03 0.  0.
          2    1    1    2  501    0  0.46185240543E+02  0.30192752502E+02 -0.24423842147E+04  0.24430074357E+04  0.00000000000E+00 0. -1.
          1    1    1    2  502    0 -0.13159180443E+03 -0.50260047730E+02  0.42810556750E+03  0.45068487030E+03  0.00000000000E+00 0. -1.
         22    1    3    3    0    0  0.18349713155E+02  0.40098428251E+01 -0.18912321734E+02  0.26654581702E+02  0.00000000000E+00 0. -1.
         22    1    3    3    0    0  0.67056850734E+02  0.16057452403E+02 -0.11693367317E+04  0.11713679419E+04  0.00000000000E+00 0. -1.
</event>
<event>
 7    1  0.7802682E-006  0.5145815E+02  0.7818608E-02  0.1519483E+00
          2   -1    0    0  502    0  0.00000000000E+00  0.00000000000E+00  0.19373718070E+03  0.19373718070E+03  0.00000000000E+00 0. -1.
          1   -1    0    0  501    0 -0.00000000000E+00 -0.00000000000E+00 -0.22971540818E+03  0.22971540818E+03  0.00000000000E+00 0. -1.
         25    2    1    2    0    0  0.28422041908E+02 -0.15559514760E+02 -0.25086069557E+02  0.13154549300E+03  0.12499997951E+03 0.  0.
          2    1    1    2  501    0  0.41801492036E+00 -0.28814734748E+02 -0.14494692194E+03  0.14778387549E+03  0.00000000000E+00 0. -1.
          1    1    1    2  502    0 -0.28840056828E+02  0.44374249509E+02  0.13405476402E+03  0.14412322038E+03  0.00000000000E+00 0. -1.
         22    1    3    3    0    0  0.15891728121E+02 -0.62539841208E+01  0.51047533710E+02  0.53828524390E+02  0.00000000000E+00 0.  1.
         22    1    3    3    0    0  0.12530313786E+02 -0.93055306397E+01 -0.76133603267E+02  0.77716968614E+02  0.00000000000E+00 0.  1.
</event>
<event>
 7    1  0.7802682E-006  0.1256013E+03  0.7818608E-02  0.1330556E+00
          2   -1    0    0  502    0  0.00000000000E+00  0.00000000000E+00  0.87580648221E+03  0.87580648221E+03  0.00000000000E+00 0. -1.
          1   -1    0    0  501    0 -0.00000000000E+00 -0.00000000000E+00 -0.29502865841E+03  0.29502865841E+03  0.00000000000E+00 0. -1.
         25    2    1    2    0    0 -0.13167437124E+03  0.79718490429E+02  0.34604694111E+02  0.20128563146E+03  0.12500097127E+03 0.  0.
          2    1    1    2  501    0  0.82471072076E+02 -0.90091759978E+02 -0.19314487819E+03  0.22852340562E+03  0.00000000000E+00 0. -1.
          1    1    1    2  502    0  0.49203299167E+02  0.10373269549E+02  0.73931800787E+03  0.74102610354E+03  0.00000000000E+00 0. -1.
         22    1    3    3    0    0 -0.91786322725E+02 -0.11039454541E+02  0.42672883816E+02  0.10182128269E+03  0.00000000000E+00 0.  1.
         22    1    3    3    0    0 -0.39888048518E+02  0.90757944971E+02 -0.80681897049E+01  0.99464348764E+02  0.00000000000E+00 0.  1.
</event>
<event>
 7    1  0.7802682E-006  0.1760286E+03  0.7818608E-02  0.1226131E+00
          2   -1    0    0  502    0  0.00000000000E+00  0.00000000000E+00  0.12329982561E+04  0.12329982561E+04  0.00000000000E+00 0. -1.
          1   -1    0    0  501    0 -0.00000000000E+00 -0.00000000000E+00 -0.43423658846E+03  0.43423658846E+03  0.00000000000E+00 0. -1.
         25    2    1    2    0    0  0.19838735315E+03  0.15320930458E+03 -0.16279516635E+03  0.32395495625E+03  0.12495565050E+03 0.  0.
          2    1    1    2  501    0 -0.35794595669E+02 -0.90516335013E+02 -0.17134060255E+03  0.19705852446E+03  0.00000000000E+00 0. -1.
          1    1    1    2  502    0 -0.16259275749E+03 -0.62692969567E+02  0.11328974366E+04  0.11462213639E+04  0.00000000000E+00 0. -1.
         22    1    3    3    0    0  0.12430765032E+03  0.10051887198E+03 -0.16925733075E+03  0.23281855503E+03  0.00000000000E+00 0.  1.
         22    1    3    3    0    0  0.74079702829E+02  0.52690432595E+02  0.64621644026E+01  0.91136401219E+02  0.00000000000E+00 0.  1.
</event>
<event>
 7    1  0.7802682E-006  0.6138268E+02  0.7818608E-02  0.1450893E+00
          2   -1    0    0  502    0  0.00000000000E+00  0.00000000000E+00  0.32514235493E+04  0.32514235493E+04  0.00000000000E+00 0. -1.
          1   -1    0    0  501    0 -0.00000000000E+00 -0.00000000000E+00 -0.38159110128E+02  0.38159110128E+02  0.00000000000E+00 0. -1.
         25    2    1    2    0    0 -0.17046765724E+02 -0.30102433585E+02  0.14281215519E+04  0.14339977219E+04  0.12498620210E+03 0.  0.
          2    1    1    2  501    0  0.11256207214E+02 -0.37436064626E+02 -0.23540062359E+02  0.45632178026E+02  0.00000000000E+00 0. -1.
          1    1    1    2  502    0  0.57905585096E+01  0.67538498210E+02  0.18086829496E+04  0.18099527595E+04  0.00000000000E+00 0. -1.
         22    1    3    3    0    0 -0.49486220262E+01 -0.65853269872E+01  0.32100315396E+01  0.88407971344E+01  0.00000000000E+00 0. -1.
         22    1    3    3    0    0 -0.12098143697E+02 -0.23517106597E+02  0.14249115203E+04  0.14251569247E+04  0.00000000000E+00 0. -1.
</event>
<event>
 7    1  0.7802682E-006  0.9839642E+02  0.7818608E-02  0.1384047E+00
          2   -1    0    0  502    0  0.00000000000E+00  0.00000000000E+00  0.27107612070E+04  0.27107612070E+04  0.00000000000E+00 0. -1.
          1   -1    0    0  501    0 -0.00000000000E+00 -0.00000000000E+00 -0.10262505019E+03  0.10262505019E+03  0.00000000000E+00 0. -1.
         25    2    1    2    0    0  0.12007252967E+03 -0.25473074757E+02  0.19840445592E+03  0.26468186892E+03  0.12500349468E+03 0.  0.
          2    1    1    2  501    0 -0.84216197121E+02  0.45078015900E+02 -0.36406829937E+02  0.10222452074E+03  0.00000000000E+00 0. -1.
          1    1    1    2  502    0 -0.35856332554E+02 -0.19604941143E+02  0.24461385308E+04  0.24464798675E+04  0.00000000000E+00 0. -1.
         22    1    3    3    0    0 -0.23455327816E+02 -0.20769943031E+02  0.41223880594E+02  0.51777903276E+02  0.00000000000E+00 0.  1.
         22    1    3    3    0    0  0.14352785749E+03 -0.47031317256E+01  0.15718057533E+03  0.21290396564E+03  0.00000000000E+00 0.  1.
</event>
<event>
 7    1  0.7802682E-006  0.2845293E+02  0.7818608E-02  0.1677490E+00
          2   -1    0    0  502    0  0.00000000000E+00  0.00000000000E+00  0.16162862701E+03  0.16162862701E+03  0.00000000000E+00 0. -1.
          1   -1    0    0  501    0 -0.00000000000E+00 -0.00000000000E+00 -0.41333827592E+03  0.41333827592E+03  0.00000000000E+00 0. -1.
         25    2    1    2    0    0 -0.12426579608E+02 -0.46576815190E+02  0.92392469400E+02  0.16275226817E+03  0.12501245058E+03 0.  0.
          2    1    1    2  501    0  0.50859905497E+01  0.27910920889E+02 -0.37462155518E+03  0.37569428584E+03  0.00000000000E+00 0. -1.
          1    1    1    2  502    0  0.73405890582E+01  0.18665894301E+02  0.30519436875E+02  0.36520348916E+02  0.00000000000E+00 0. -1.
         22    1    3    3    0    0  0.27332076456E+02  0.12059800851E+02 -0.15518040805E+02  0.33664384599E+02  0.00000000000E+00 0. -1.
         22    1    3    3    0    0 -0.39758656064E+02 -0.58636616040E+02  0.10791051021E+03  0.12908788357E+03  0.00000000000E+00 0. -1.
</event>
<event>
 7    1  0.7802682E-006  0.1233455E+03  0.7818608E-02  0.1293225E+00
          2   -1    0    0  502    0  0.00000000000E+00  0.00000000000E+00  0.14800745365E+04  0.14800745365E+04  0.00000000000E+00 0. -1.
          1   -1    0    0  501    0 -0.00000000000E+00 -0.00000000000E+00 -0.15233521051E+04  0.15233521051E+04  0.00000000000E+00 0. -1.
         25    2    1    2    0    0 -0.17516704134E+03 -0.33338498926E+02  0.63401411063E+03  0.67036792783E+03  0.12499727323E+03 0.  0.
          2    1    1    2  501    0  0.62807742314E+02  0.34755072103E+02 -0.15005003085E+04  0.15022163304E+04  0.00000000000E+00 0. -1.
          1    1    1    2  502    0  0.11235929902E+03 -0.14165731766E+01  0.82320862929E+03  0.83084238342E+03  0.00000000000E+00 0. -1.
         22    1    3    3    0    0 -0.14249720327E+03  0.13148258472E+02  0.31033710276E+03  0.34174178409E+03  0.00000000000E+00 0.  1.
         22    1    3    3    0    0 -0.32669838063E+02 -0.46486757398E+02  0.32367700787E+03  0.32862614375E+03  0.00000000000E+00 0.  1.
</event>
<event>
 7    1  0.7802682E-006  0.5636799E+02  0.7818608E-02  0.1441813E+00
          2   -1    0    0  502    0  0.00000000000E+00  0.00000000000E+00  0.22542914986E+03  0.22542914986E+03  0.00000000000E+00 0. -1.
          1   -1    0    0  501    0 -0.00000000000E+00 -0.00000000000E+00 -0.19532443451E+04  0.19532443451E+04  0.00000000000E+00 0. -1.
         25    2    1    2    0    0  0.18328283978E+02 -0.18214453751E+02 -0.13395951980E+03  0.18503755991E+03  0.12500421318E+03 0.  0.
          2    1    1    2  501    0  0.58759279491E+01  0.56778364102E+02 -0.17906924153E+04  0.17916019746E+04  0.00000000000E+00 0. -1.
          1    1    1    2  502    0 -0.24204211927E+02 -0.38563910351E+02  0.19683673982E+03  0.20203396051E+03  0.00000000000E+00 0. -1.
         22    1    3    3    0    0  0.40886322196E+02 -0.41020783977E+02 -0.14079272428E+03  0.15223990039E+03  0.00000000000E+00 0.  1.
         22    1    3    3    0    0 -0.22558038219E+02  0.22806330226E+02  0.68332044760E+01  0.32797659521E+02  0.00000000000E+00 0.  1.
</event>
<event>
 7    1  0.7802682E-006  0.9924327E+02  0.7818608E-02  0.1429423E+00
          2   -1    0    0  502    0  0.00000000000E+00  0.00000000000E+00  0.51319140880E+03  0.51319140880E+03  0.00000000000E+00 0. -1.
          1   -1    0    0  501    0 -0.00000000000E+00 -0.00000000000E+00 -0.15014803036E+03  0.15014803036E+03  0.00000000000E+00 0. -1.
         25    2    1    2    0    0 -0.50750864783E+01 -0.79044446429E+02  0.32072663323E+02  0.15140149156E+03  0.12497989799E+03 0.  0.
          2    1    1    2  501    0  0.16956073936E+02  0.10482378344E+03 -0.58634964978E+02  0.12129960072E+03  0.00000000000E+00 0. -1.
          1    1    1    2  502    0 -0.11880987458E+02 -0.25779337006E+02  0.38960568010E+03  0.39063834687E+03  0.00000000000E+00 0. -1.
         22    1    3    3    0    0 -0.13564902849E+02  0.32653052044E+02  0.13523248550E+02  0.37856395080E+02  0.00000000000E+00 0. -1.
         22    1    3    3    0    0  0.84898163709E+01 -0.11169749847E+03  0.18549414773E+02  0.11354509648E+03  0.00000000000E+00 0. -1.
</event>
<event>
 7    1  0.7802682E-006  0.1025951E+03  0.7818608E-02  0.1303746E+00
          2   -1    0    0  502    0  0.00000000000E+00  0.00000000000E+00  0.65380939331E+03  0.65380939331E+03  0.00000000000E+00 0. -1.
          1   -1    0    0  501    0 -0.00000000000E+00 -0.00000000000E+00 -0.13877561973E+04  0.13877561973E+04  0.00000000000E+00 0. -1.
         25    2    1    2    0    0 -0.54466448326E+02  0.15975322866E+03  0.22394159707E+03  0.30702170194E+03  0.12499919401E+03 0.  0.
          2    1    1    2  501    0  0.40628594174E+02 -0.66941382243E+02 -0.13393869817E+04  0.13416740730E+04  0.00000000000E+00 0. -1.
          1    1    1    2  502    0  0.13837854152E+02 -0.92811846414E+02  0.38149858065E+03  0.39286981569E+03  0.00000000000E+00 0. -1.
         22    1    3    3    0    0  0.10971400829E+02  0.13237058357E+03  0.10840597626E+03  0.17144736428E+03  0.00000000000E+00 0.  1.
         22    1    3    3    0    0 -0.65437849155E+02  0.27382645084E+02  0.11553562081E+03  0.13557433766E+03  0.00000000000E+00 0.  1.
</event>
<event>
 7    1  0.7802682E-006  0.9787368E+02  0.7818608E-02  0.1351584E+00
          2   -1    0    0  502    0  0.00000000000E+00  0.00000000000E+00  0.39756763266E+04  0.39756763266E+04  0.00000000000E+00 0. -1.
          1   -1    0    0  501    0 -0.00000000000E+00 -0.00000000000E+00 -0.12255424971E+02  0.12255424971E+02  0.00000000000E+00 0. -1.
         25    2    1    2    0    0 -0.67277634442E+02  0.74891322694E+01  0.14055578962E+04  0.14127279848E+04  0.12499996891E+03 0.  0.
          2    1    1    2  501    0  0.10073207645E+03  0.34643845587E+02  0.33157664590E+03  0.34826745379E+03  0.00000000000E+00 0. -1.
          1    1    1    2  502    0 -0.33454442013E+02 -0.42132977856E+02  0.22262863595E+04  0.22269363129E+04  0.00000000000E+00 0. -1.
         22    1    3    3    0    0 -0.63918255138E+02 -0.28293897782E+02  0.12856701040E+04  0.12875689125E+04  0.00000000000E+00 0.  1.
         22    1    3    3    0    0 -0.33593793038E+01  0.35783030052E+02  0.11988779221E+03  0.12515907234E+03  0.00000000000E+00 0.  1.
</event>
<event>
 7    1  0.7802682E-006  0.4873769E+02  0.7818608E-02  0.1471777E+00
          2   -1    0    0  502    0  0.00000000000E+00  0.00000000000E+00  0.48541753782E+03  0.48541753782E+03  0.00000000000E+00 0. -1.
          1   -1    0    0  501    0 -0.00000000000E+00 -0.00000000000E+00 -0.93311830271E+03  0.93311830271E+03  0.00000000000E+00 0. -1.
         25    2    1    2    0    0 -0.17468051496E+02  0.12779703104E+02  0.18126003759E+03  0.22124569706E+03  0.12500401435E+03 0.  0.
          2    1    1    2  501    0 -0.34082003248E+02 -0.25081195992E+02 -0.91015856031E+03  0.91114173115E+03  0.00000000000E+00 0. -1.
          1    1    1    2  502    0  0.51550054744E+02  0.12301492888E+02  0.28119775782E+03  0.28614841232E+03  0.00000000000E+00 0. -1.
         22    1    3    3    0    0  0.49427932840E+02  0.10048277952E+01  0.11996905261E+03  0.12975632473E+03  0.00000000000E+00 0.  1.
         22    1    3    3    0    0 -0.66895984336E+02  0.11774875308E+02  0.61290984987E+02  0.91489372331E+02  0.00000000000E+00 0.  1.
</event>
<event>
 7    1  0.7802682E-006  0.1655640E+03  0.7818608E-02  0.1333780E+00
          2   -1    0    0  502    0  0.00000000000E+00  0.00000000000E+00  0.26716048880E+03  0.26716048880E+03  0.00000000000E+00 0. -1.
          1   -1    0    0  501    0 -0.00000000000E+00 -0.00000000000E+00 -0.17092106911E+04  0.17092106911E+04  0.00000000000E+00 0. -1.
         25    2    1    2    0    0  0.14004875137E+03  0.39609891029E+02 -0.43520239378E+03  0.47561473576E+03  0.12500262835E+03 0.  0.
          2    1    1    2  501    0 -0.17082683483E+03 -0.18923004791E+02 -0.12464791022E+04  0.12582726413E+04  0.00000000000E+00 0. -1.
          1    1    1    2  502    0  0.30778083465E+02 -0.20686886238E+02  0.23963129373E+03  0.24248380280E+03  0.00000000000E+00 0. -1.
         22    1    3    3    0    0  0.45778200575E+02  0.21035493006E+02 -0.28846530471E+02  0.58053922641E+02  0.00000000000E+00 0.  1.
         22    1    3    3    0    0  0.94270550791E+02  0.18574398023E+02 -0.40635586330E+03  0.41756081312E+03  0.00000000000E+00 0.  1.
</event>
<event>
 7    1  0.7802682E-006  0.3804560E+02  0.7818608E-02  0.1533952E+00
          2   -1    0    0  502    0  0.00000000000E+00  0.00000000000E+00  0.25782600249E+02  0.25782600249E+02  0.00000000000E+00 0. -1.
          1   -1    0    0  501    0 -0.00000000000E+00 -0.00000000000E+00 -0.17993183930E+04  0.17993183930E+04  0.00000000000E+00 0. -1.
         25    2    1    2    0    0  0.30297856470E+02 -0.11082532386E+02 -0.11739410204E+04  0.11810181416E+04  0.12500219522E+03 0.  0.
          2    1    1    2  501    0 -0.23338334544E+02 -0.26635552105E+02 -0.60439254154E+03  0.60542916577E+03  0.00000000000E+00 0. -1.
          1    1    1    2  502    0 -0.69595219266E+01  0.37718084491E+02  0.47977691746E+01  0.38653685880E+02  0.00000000000E+00 0. -1.
         22    1    3    3    0    0  0.73606417491E+02  0.80430463153E+01 -0.89778824197E+03  0.90083645725E+03  0.00000000000E+00 0. -1.
         22    1    3    3    0    0 -0.43308561020E+02 -0.19125578701E+02 -0.27615277843E+03  0.28018168436E+03  0.00000000000E+00 0. -1.
</event>
<event>
 7    1  0.7802682E-006  0.4398479E+02  0.7818608E-02  0.1491514E+00
          2   -1    0    0  502    0  0.00000000000E+00  0.00000000000E+00  0.33885269957E+04  0.33885269957E+04  0.00000000000E+00 0. -1.
          1   -1    0    0  501    0 -0.00000000000E+00 -0.00000000000E+00 -0.24148979675E+02  0.24148979675E+02  0.00000000000E+00 0. -1.
         25    2    1    2    0    0 -0.10699475646E+02  0.81723074524E+02  0.66190178943E+03  0.67862618983E+03  0.12500554778E+03 0.  0.
          2    1    1    2  501    0 -0.56510645915E-01 -0.42366773342E+02  0.13074143222E+02  0.44338244190E+02  0.00000000000E+00 0. -1.
          1    1    1    2  502    0  0.10755986292E+02 -0.39356301183E+02  0.26894020834E+04  0.26897115413E+04  0.00000000000E+00 0. -1.
         22    1    3    3    0    0  0.41476523329E+02  0.85725706697E+02  0.47954854850E+03  0.48891308956E+03  0.00000000000E+00 0. -1.
         22    1    3    3    0    0 -0.52175998975E+02 -0.40026321733E+01  0.18235324093E+03  0.18971310026E+03  0.00000000000E+00 0. -1.
</event>
<event>
 7    1  0.7802682E-006  0.8658738E+02  0.7818608E-02  0.1320293E+00
          2   -1    0    0  502    0  0.00000000000E+00  0.00000000000E+00  0.41865742710E+03  0.41865742710E+03  0.00000000000E+00 0. -1.
          1   -1    0    0  501    0 -0.00000000000E+00 -0.00000000000E+00 -0.61627538261E+03  0.61627538261E+03  0.00000000000E+00 0. -1.
         25    2    1    2    0    0 -0.90553335863E+02  0.84188067022E+02 -0.57172353183E+02  0.18488200684E+03  0.12500056488E+03 0.  0.
          2    1    1    2  501    0  0.10676568859E+02 -0.85318969068E+02 -0.48693669209E+03  0.49447007767E+03  0.00000000000E+00 0. -1.
          1    1    1    2  502    0  0.79876767003E+02  0.11309020455E+01  0.34649108976E+03  0.35558072520E+03  0.00000000000E+00 0. -1.
         22    1    3    3    0    0  0.23496402297E+02  0.46510505892E+02 -0.34916318685E+02  0.62725253206E+02  0.00000000000E+00 0.  1.
         22    1    3    3    0    0 -0.11404973816E+03  0.37677561130E+02 -0.22256034497E+02  0.12215675364E+03  0.00000000000E+00 0.  1.
</event>
<event>
 7    1  0.7802682E-006  0.5797784E+02  0.7818608E-02  0.1465427E+00
          2   -1    0    0  502    0  0.00000000000E+00  0.00000000000E+00  0.30186048040E+03  0.30186048040E+03  0.00000000000E+00 0. -1.
          1   -1    0    0  501    0 -0.00000000000E+00 -0.00000000000E+00 -0.36609008682E+03  0.36609008682E+03  0.00000000000E+00 0. -1.
         25    2    1    2    0    0  0.16609989099E+02  0.30334677154E+02 -0.18235501698E+03  0.22377278755E+03  0.12499929541E+03 0.  0.
          2    1    1    2  501    0  0.36682363989E+02 -0.63646999467E+01 -0.15780006988E+03  0.16213256085E+03  0.00000000000E+00 0. -1.
          1    1    1    2  502    0 -0.53292353088E+02 -0.23969977207E+02  0.27592548044E+03  0.28204521883E+03  0.00000000000E+00 0. -1.
         22    1    3    3    0    0  0.48215895309E+01  0.26813450854E+02  0.11468626934E+02  0.29559064194E+02  0.00000000000E+00 0. -1.
         22    1    3    3    0    0  0.11788399569E+02  0.35212262999E+01 -0.19382364392E+03  0.19421372336E+03  0.00000000000E+00 0. -1.
</event>
<event>
 7    1  0.7802682E-006  0.7750483E+02  0.7818608E-02  0.1417032E+00
          2   -1    0    0  502    0  0.00000000000E+00  0.00000000000E+00  0.19732733598E+04  0.19732733598E+04  0.00000000000E+00 0. -1.
          1   -1    0    0  501    0 -0.00000000000E+00 -0.00000000000E+00 -0.21843517852E+03  0.21843517852E+03  0.00000000000E+00 0. -1.
         25    2    1    2    0    0  0.12389266118E+02  0.10197029031E+03 -0.57700236294E+02  0.17176990221E+03  0.12499659201E+03 0.  0.
          2    1    1    2  501    0 -0.29835044746E+02 -0.26588165277E+02 -0.99037991664E+02  0.10679692983E+03  0.00000000000E+00 0. -1.
          1    1    1    2  502    0  0.17445778628E+02 -0.75382125036E+02  0.19115764092E+04  0.19131417063E+04  0.00000000000E+00 0. -1.
         22    1    3    3    0    0  0.55310489347E+02  0.62560287265E+02 -0.73664146188E+02  0.11135280063E+03  0.00000000000E+00 0.  1.
         22    1    3    3    0    0 -0.42921223229E+02  0.39410003048E+02  0.15963909895E+02  0.60417101576E+02  0.00000000000E+00 0.  1.
</event>
<event>
 7    1  0.7802682E-006  0.1714503E+03  0.7818608E-02  0.1399717E+00
          2   -1    0    0  502    0  0.00000000000E+00  0.00000000000E+00  0.16712421430E+04  0.16712421430E+04  0.00000000000E+00 0. -1.
          1   -1    0    0  501    0 -0.00000000000E+00 -0.00000000000E+00 -0.11873811042E+04  0.11873811042E+04  0.00000000000E+00 0. -1.
         25    2    1    2    0    0 -0.15033671338E+03  0.44705652648E+02  0.16181798013E+04  0.16305614581E+04  0.12500030575E+03 0.  0.
          2    1    1    2  501    0  0.15940006578E+03 -0.63300039839E+02 -0.11723178375E+04  0.11847971929E+04  0.00000000000E+00 0. -1.
          1    1    1    2  502    0 -0.90633523958E+01  0.18594387191E+02  0.37999075038E+02  0.43264596327E+02  0.00000000000E+00 0. -1.
         22    1    3    3    0    0 -0.97428186588E+02 -0.21500405968E+02  0.11834148314E+04  0.11876132292E+04  0.00000000000E+00 0. -1.
         22    1    3    3    0    0 -0.52908526792E+02  0.66206058616E+02  0.43476496992E+03  0.44294822889E+03  0.00000000000E+00 0. -1.
</event>
<event>
 7    1  0.7802682E-006  0.4861679E+02  0.7818608E-02  0.1470846E+00
          2   -1    0    0  502    0  0.00000000000E+00  0.00000000000E+00  0.44824770589E+03  0.44824770589E+03  0.00000000000E+00 0. -1.
          1   -1    0    0  501    0 -0.00000000000E+00 -0.00000000000E+00 -0.14791074629E+04  0.14791074629E+04  0.00000000000E+00 0. -1.
         25    2    1    2    0    0 -0.71567595259E+02  0.23042016458E+01  0.84894916807E+02  0.16721066846E+03  0.12500012284E+03 0.  0.
          2    1    1    2  501    0  0.33223325162E+02  0.26830413848E+02 -0.14358308944E+04  0.14364658081E+04  0.00000000000E+00 0. -1.
          1    1    1    2  502    0  0.38344270097E+02 -0.29134615494E+02  0.32007622056E+03  0.32367869228E+03  0.00000000000E+00 0. -1.
         22    1    3    3    0    0 -0.65842392194E+02  0.39751816464E+02  0.29907869513E+01  0.76969944320E+02  0.00000000000E+00 0. -1.
         22    1    3    3    0    0 -0.57252030653E+01 -0.37447614818E+02  0.81904129856E+02  0.90240724139E+02  0.00000000000E+00 0. -1.
</event>
<event>
 7    1  0.7802682E-006  0.1348636E+03  0.7818608E-02  0.1339496E+00
          2   -1    0    0  502    0  0.00000000000E+00  0.00000000000E+00  0.10753090247E+04  0.10753090247E+04  0.00000000000E+00 0. -1.
          1   -1    0    0  501    0 -0.00000000000E+00 -0.00000000000E+00 -0.15055718835E+03  0.15055718835E+03  0.00000000000E+00 0. -1.
         25    2    1    2    0    0 -0.92618609016E+02  0.32838349213E+02  0.25027968332E+03  0.29651483727E+03  0.12499825969E+03 0.  0.
          2    1    1    2  501    0  0.12696281947E+03 -0.59233980633E+02 -0.88133487310E+02  0.16551656586E+03  0.00000000000E+00 0. -1.
          1    1    1    2  502    0 -0.34344210451E+02  0.26395631420E+02  0.76260564037E+03  0.76383480994E+03  0.00000000000E+00 0. -1.
         22    1    3    3    0    0 -0.12375067608E+03  0.20198933616E+02  0.19886865902E+03  0.23509778878E+03  0.00000000000E+00 0. -1.
         22    1    3    3    0    0  0.31132067059E+02  0.12639415597E+02  0.51411024293E+02  0.61417048487E+02  0.00000000000E+00 0. -1.
</event>
<event>
 7    1  0.7802682E-006  0.1217102E+03  0.7818608E-02  0.1376801E+00
          2   -1    0    0  502    0  0.00000000000E+00  0.00000000000E+00  0.50992533920E+03  0.50992533920E+03  0.00000000000E+00 0. -1.
          1   -1    0    0  501    0 -0.00000000000E+00 -0.00000000000E+00 -0.41287795187E+03  0.41287795187E+03  0.00000000000E+00 0. -1.
         25    2    1    2    0    0  0.40244083926E+02 -0.89882345679E+02  0.13415836840E+03  0.20813740700E+03  0.12499716006E+03 0.  0.
          2    1    1    2  501    0  0.28737408267E+02 -0.20062488878E+02 -0.36258067741E+03  0.36427062704E+03  0.00000000000E+00 0. -1.
          1    1    1    2  502    0 -0.68981492193E+02  0.10994483456E+03  0.32546969634E+03  0.35039525703E+03  0.00000000000E+00 0. -1.
         22    1    3    3    0    0  0.19906161666E+02 -0.65946181377E+02  0.15555995938E+03  0.17012952440E+03  0.00000000000E+00 0.  1.
         22    1    3    3    0    0  0.20337922259E+02 -0.23936164303E+02 -0.21401590977E+02  0.38007882599E+02  0.00000000000E+00 0.  1.
</event>
<event>
 7    1  0.7802682E-006  0.1259309E+03  0.7818608E-02  0.1307489E+00
          2   -1    0    0  502    0  0.00000000000E+00  0.00000000000E+00  0.83890372064E+03  0.83890372064E+03  0.00000000000E+00 0. -1.
          1   -1    0    0  501    0 -0.00000000000E+00 -0.00000000000E+00 -0.81681080696E+03  0.81681080696E+03  0.00000000000E+00 0. -1.
         25    2    1    2    0    0 -0.72570549208E+02  0.78822057841E+02 -0.78550029827E+02  0.18241124778E+03  0.12499741884E+03 0.  0.
          2    1    1    2  501    0 -0.48081140260E+02 -0.38588044722E+02 -0.67978755326E+03  0.68257743210E+03  0.00000000000E+00 0. -1.
          1    1    1    2  502    0  0.12065168947E+03 -0.40234013119E+02  0.78043049676E+03  0.79072584773E+03  0.00000000000E+00 0. -1.
         22    1    3    3    0    0  0.46095856732E+01  0.64929796804E+02 -0.81047458270E+02  0.10395103311E+03  0.00000000000E+00 0.  1.
         22    1    3    3    0    0 -0.77180134881E+02  0.13892261037E+02  0.24974284429E+01  0.78460214668E+02  0.00000000000E+00 0.  1.
</event>
<event>
 7    1  0.7802682E-006  0.6457793E+02  0.7818608E-02  0.1401197E+00
          2   -1    0    0  502    0  0.00000000000E+00  0.00000000000E+00  0.87033197856E+03  0.87033197856E+03  0.00000000000E+00 0. -1.
          1   -1    0    0  501    0 -0.00000000000E+00 -0.00000000000E+00 -0.10885352454E+03  0.10885352454E+03  0.00000000000E+00 0. -1.
         25    2    1    2    0    0  0.61741612523E+02 -0.97901594251E+02  0.83583188550E+02  0.18975976867E+03  0.12500348605E+03 0.  0.
          2    1    1    2  501    0 -0.37102406485E+02  0.39619394844E+02 -0.40829124934E+02  0.67921296054E+02  0.00000000000E+00 0. -1.
          1    1    1    2  502    0 -0.24639206038E+02  0.58282199408E+02  0.71872439040E+03  0.72150443838E+03  0.00000000000E+00 0. -1.
         22    1    3    3    0    0  0.82369509298E+02 -0.15070914692E+02  0.29865926848E+02  0.88903555149E+02  0.00000000000E+00 0. -1.
         22    1    3    3    0    0 -0.20627896775E+02 -0.82830679559E+02  0.53717261702E+02  0.10085621352E+03  0.00000000000E+00 0. -1.
</event>
<event>
 7    1  0.7802682E-006  0.6159799E+02  0.7818608E-02  0.1426706E+00
          2   -1    0    0  502    0  0.00000000000E+00  0.00000000000E+00  0.24444054517E+04  0.24444054517E+04  0.00000000000E+00 0. -1.
          1   -1    0    0  501    0 -0.00000000000E+00 -0.00000000000E+00 -0.59461310987E+02  0.59461310987E+02  0.00000000000E+00 0. -1.
         25    2    1    2    0    0 -0.48658388367E+02 -0.65104021468E+02  0.11746551044E+04  0.11840801332E+04  0.12499990121E+03 0.  0.
          2    1    1    2  501    0 -0.86326487189E+01  0.45882422692E+02 -0.43934022536E+02  0.64108639606E+02  0.00000000000E+00 0. -1.
          1    1    1    2  502    0  0.57291037086E+02  0.19221598776E+02  0.12542230589E+04  0.12556779899E+04  0.00000000000E+00 0. -1.
         22    1    3    3    0    0  0.18368467410E+02 -0.78461469710E+02  0.60703264231E+03  0.61235792773E+03  0.00000000000E+00 0. -1.
         22    1    3    3    0    0 -0.67026855777E+02  0.13357448242E+02  0.56762246207E+03  0.57172220550E+03  0.00000000000E+00 0. -1.
</event>
<event>
 7    1  0.7802682E-006  0.5966424E+02  0.7818608E-02  0.1415581E+00
          2   -1    0    0  502    0  0.00000000000E+00  0.00000000000E+00  0.11371317489E+03  0.11371317489E+03  0.00000000000E+00 0. -1.
          1   -1    0    0  501    0 -0.00000000000E+00 -0.00000000000E+00 -0.13829472006E+04  0.13829472006E+04  0.00000000000E+00 0. -1.
         25    2    1    2    0    0 -0.10789424320E+03 -0.16738292849E+02 -0.40756941614E+03  0.44006768386E+03  0.12500159693E+03 0.  0.
          2    1    1    2  501    0  0.55510368974E+02  0.13269086431E+02 -0.95114107656E+03  0.95285193878E+03  0.00000000000E+00 0. -1.
          1    1    1    2  502    0  0.52383874222E+02  0.34692064180E+01  0.89476466959E+02  0.10374075289E+03  0.00000000000E+00 0. -1.
         22    1    3    3    0    0 -0.41823018341E+02  0.49851984298E+02 -0.23268967404E+03  0.24161719642E+03  0.00000000000E+00 0. -1.
         22    1    3    3    0    0 -0.66071224855E+02 -0.66590277147E+02 -0.17487974211E+03  0.19845048744E+03  0.00000000000E+00 0. -1.
</event>
<event>
 7    1  0.7802682E-006  0.6598726E+02  0.7818608E-02  0.1456792E+00
          2   -1    0    0  502    0  0.00000000000E+00  0.00000000000E+00  0.19906137911E+04  0.19906137911E+04  0.00000000000E+00 0. -1.
          1   -1    0    0  501    0 -0.00000000000E+00 -0.00000000000E+00 -0.17314977904E+03  0.17314977904E+03  0.00000000000E+00 0. -1.
         25    2    1    2    0    0 -0.58403874635E+02  0.61212990923E+02  0.33559347575E+03  0.36797617173E+03  0.12500175664E+03 0.  0.
          2    1    1    2  501    0  0.34825359397E+02 -0.12194228659E+00 -0.15436367230E+03  0.15824336906E+03  0.00000000000E+00 0. -1.
          1    1    1    2  502    0  0.23578515238E+02 -0.61091048636E+02  0.16362342086E+04  0.16375440294E+04  0.00000000000E+00 0. -1.
         22    1    3    3    0    0 -0.36022195977E+02  0.41013005805E+02  0.33329936360E+03  0.33773973859E+03  0.00000000000E+00 0. -1.
         22    1    3    3    0    0 -0.22381678657E+02  0.20199985118E+02  0.22941121524E+01  0.30236433137E+02  0.00000000000E+00 0. -1.
</event>
<event>
 7    1  0.7802682E-006  0.1429238E+03  0.7818608E-02  0.1293705E+00
          2   -1    0    0  502    0  0.00000000000E+00  0.00000000000E+00  0.19369912731E+03  0.19369912731E+03  0.00000000000E+00 0. -1.
          1   -1    0    0  501    0 -0.00000000000E+00 -0.00000000000E+00 -0.23605433001E+04  0.23605433001E+04  0.00000000000E+00 0. -1.
         25    2    1    2    0    0 -0.81072461543E+02 -0.15495216756E+02  0.70500014283E+02  0.16555121942E+03  0.12499643385E+03 0.  0.
          2    1    1    2  501    0  0.14041118065E+03  0.32303741535E+02 -0.22978093236E+04  0.23023219842E+04  0.00000000000E+00 0. -1.
          1    1    1    2  502    0 -0.59338719104E+02 -0.16808524779E+02  0.60465136492E+02  0.86369223808E+02  0.00000000000E+00 0. -1.
         22    1    3    3    0    0  0.13138652614E+02 -0.48093704445E+02  0.27977714574E+02  0.57169756974E+02  0.00000000000E+00 0. -1.
         22    1    3    3    0    0 -0.94211114156E+02  0.32598487689E+02  0.42522299710E+02  0.10838146245E+03  0.00000000000E+00 0. -1.
</event>
<event>
 7    1  0.7802682E-006  0.7367077E+02  0.7818608E-02  0.1349802E+00
          2   -1    0    0  502    0  0.00000000000E+00  0.00000000000E+00  0.58116524274E+03  0.58116524274E+03  0.00000000000E+00 0. -1.
          1   -1    0    0  501    0 -0.00000000000E+00 -0.00000000000E+00 -0.25050013848E+03  0.25050013848E+03  0.00000000000E+00 0. -1.
         25    2    1    2    0    0  0.59655763087E+01  0.36191382493E+01  0.13402275444E+03  0.18340552182E+03  0.12500720165E+03 0.  0.
          2    1    1    2  501    0 -0.56236197330E+02  0.50234808602E+02 -0.21616015644E+03  0.22893505437E+03  0.00000000000E+00 0. -1.
          1    1    1    2  502    0  0.50270621021E+02 -0.53853946851E+02  0.41280250626E+03  0.41932480502E+03  0.00000000000E+00 0. -1.
         22    1    3    3    0    0  0.98324834993E+01  0.58505256428E+02  0.10644057049E+03  0.12185703840E+03  0.00000000000E+00 0. -1.
         22    1    3    3    0    0 -0.38669071906E+01 -0.54886118178E+02  0.27582183950E+02  0.61548483420E+02  0.00000000000E+00 0. -1.
</event>
<event>
 7    1  0.7802682E-006  0.9934366E+02  0.7818608E-02  0.1437325E+00
          2   -1    0    0  502    0  0.00000000000E+00  0.00000000000E+00  0.66814597547E+03  0.66814597547E+03  0.00000000000E+00 0. -1.
          1   -1    0    0  501    0 -0.00000000000E+00 -0.00000000000E+00 -0.28025283000E+03  0.28025283000E+03  0.00000000000E+00 0. -1.
         25    2    1    2    0    0 -0.84567458709E+02 -0.86956342783E+02  0.11884222290E+03  0.21087242253E+03  0.12502257403E+03 0.  0.
          2    1    1    2  501    0  0.59406706544E+02  0.77974742100E+02 -0.22360410008E+03  0.24414751844E+03  0.00000000000E+00 0. -1.
          1    1    1    2  502    0  0.25160752166E+02  0.89816006825E+01  0.49265502264E+03  0.49337886450E+03  0.00000000000E+00 0. -1.
         22    1    3    3    0    0  0.27770025743E+02 -0.39984960272E+02  0.54780875411E+02  0.73286531427E+02  0.00000000000E+00 0.  1.
         22    1    3    3    0    0 -0.11233748445E+03 -0.46971382510E+02  0.64061347494E+02  0.13758589110E+03  0.00000000000E+00 0.  1.
</event>
<event>
 7    1  0.7802682E-006  0.6412984E+03  0.7818608E-02  0.1166459E+00
          2   -1    0    0  502    0  0.00000000000E+00  0.00000000000E+00  0.10452633306E+04  0.10452633306E+04  0.00000000000E+00 0. -1.
          1   -1    0    0  501    0 -0.00000000000E+00 -0.00000000000E+00 -0.17832310973E+04  0.17832310973E+04  0.00000000000E+00 0. -1.
         25    2    1    2    0    0  0.57618050385E+03 -0.21259033174E+03  0.14578677752E+03  0.64347314974E+03  0.12500115107E+03 0.  0.
          2    1    1    2  501    0  0.33892670190E+02 -0.38521850428E+02 -0.13665430295E+04  0.13675059406E+04  0.00000000000E+00 0. -1.
          1    1    1    2  502    0 -0.61007317404E+03  0.25111218217E+03  0.48278848523E+03  0.81751533758E+03  0.00000000000E+00 0. -1.
         22    1    3    3    0    0  0.55475239994E+03 -0.20434487566E+03  0.11058411714E+03  0.60144484403E+03  0.00000000000E+00 0. -1.
         22    1    3    3    0    0  0.21428103909E+02 -0.82454560808E+01  0.35202660374E+02  0.42028305706E+02  0.00000000000E+00 0. -1.
</event>
<event>
 7    1  0.7802682E-006  0.1177972E+03  0.7818608E-02  0.1308034E+00
          2   -1    0    0  502    0  0.00000000000E+00  0.00000000000E+00  0.20086978353E+03  0.20086978353E+03  0.00000000000E+00 0. -1.
          1   -1    0    0  501    0 -0.00000000000E+00 -0.00000000000E+00 -0.10620854446E+04  0.10620854446E+04  0.00000000000E+00 0. -1.
         25    2    1    2    0    0  0.17021550492E+03  0.31265106709E+02 -0.57000623970E+03  0.60867333692E+03  0.12500117106E+03 0.  0.
          2    1    1    2  501    0 -0.54183487554E+02 -0.36947000206E+02 -0.45154570937E+03  0.45628330979E+03  0.00000000000E+00 0. -1.
          1    1    1    2  502    0 -0.11603201737E+03  0.56818934963E+01  0.16033628803E+03  0.19799858138E+03  0.00000000000E+00 0. -1.
         22    1    3    3    0    0  0.17949208630E+03  0.37802404896E+02 -0.42086638098E+03  0.45910232139E+03  0.00000000000E+00 0.  1.
         22    1    3    3    0    0 -0.92765813785E+01 -0.65372981865E+01 -0.14913985871E+03  0.14957101553E+03  0.00000000000E+00 0.  1.
</event>
<event>
 7    1  0.7802682E-006  0.1428132E+03  0.7818608E-02  0.1338888E+00
          2   -1    0    0  502    0  0.00000000000E+00  0.00000000000E+00  0.11707426003E+04  0.11707426003E+04  0.00000000000E+00 0. -1.
          1   -1    0    0  501    0 -0.00000000000E+00 -0.00000000000E+00 -0.11380053745E+04  0.11380053745E+04  0.00000000000E+00 0. -1.
         25    2    1    2    0    0  0.12769759151E+03  0.12775868468E+01  0.83335460196E+02  0.19717492485E+03  0.12499937982E+03 0.  0.
          2    1    1    2  501    0 -0.13744196238E+03 -0.41227003055E+02 -0.10759102929E+04  0.10854367403E+04  0.00000000000E+00 0. -1.
          1    1    1    2  502    0  0.97443708623E+01  0.39949416208E+02  0.10253120585E+04  0.10261363096E+04  0.00000000000E+00 0. -1.
         22    1    3    3    0    0  0.64707539396E+02 -0.38401476929E+02  0.95669425140E+02  0.12171432944E+03  0.00000000000E+00 0.  1.
         22    1    3    3    0    0  0.62990052119E+02  0.39679063776E+02 -0.12333964943E+02  0.75460595407E+02  0.00000000000E+00 0.  1.
</event>
<event>
 7    1  0.7802682E-006  0.3956362E+02  0.7818608E-02  0.1559090E+00
          2   -1    0    0  502    0  0.00000000000E+00  0.00000000000E+00  0.70304515474E+03  0.70304515474E+03  0.00000000000E+00 0. -1.
          1   -1    0    0  501    0 -0.00000000000E+00 -0.00000000000E+00 -0.62108487064E+02  0.62108487064E+02  0.00000000000E+00 0. -1.
         25    2    1    2    0    0  0.46649364175E+02  0.34253353556E+02  0.24821096676E+03  0.28387172488E+03  0.12500006704E+03 0.  0.
          2    1    1    2  501    0 -0.28952027594E+02  0.43970857659E+00 -0.38571188279E+02  0.48230175313E+02  0.00000000000E+00 0. -1.
          1    1    1    2  502    0 -0.17697336581E+02 -0.34693062133E+02  0.43129688919E+03  0.43305174161E+03  0.00000000000E+00 0. -1.
         22    1    3    3    0    0 -0.25312538803E+02  0.41143688515E+01  0.17504374931E+03  0.17691231394E+03  0.00000000000E+00 0.  1.
         22    1    3    3    0    0  0.71961902978E+02  0.30138984705E+02  0.73167217452E+02  0.10695941094E+03  0.00000000000E+00 0.  1.
</event>
<event>
 7    1  0.7802682E-006  0.1548974E+03  0.7818608E-02  0.1327233E+00
          2   -1    0    0  502    0  0.00000000000E+00  0.00000000000E+00  0.25873399910E+04  0.25873399910E+04  0.00000000000E+00 0. -1.
          1   -1    0    0  501    0 -0.00000000000E+00 -0.00000000000E+00 -0.10139257724E+04  0.10139257724E+04  0.00000000000E+00 0. -1.
         25    2    1    2    0    0 -0.11507818571E+03  0.60301820946E+02  0.15196866517E+00  0.18029082190E+03  0.12500183571E+03 0.  0.
          2    1    1    2  501    0 -0.35788034641E+02 -0.21954928899E+02 -0.92095169606E+03  0.92190825400E+03  0.00000000000E+00 0. -1.
          1    1    1    2  502    0  0.15086622035E+03 -0.38346892047E+02  0.24942139460E+04  0.24990666876E+04  0.00000000000E+00 0. -1.
         22    1    3    3    0    0 -0.82776671576E+02  0.86286447977E+02 -0.36434543183E+02  0.12499921759E+03  0.00000000000E+00 0. -1.
         22    1    3    3    0    0 -0.32301514134E+02 -0.25984627031E+02  0.36586511849E+02  0.55291604304E+02  0.00000000000E+00 0. -1.
</event>
<event>
 7    1  0.7802682E-006  0.6732016E+02  0.7818608E-02  0.1499182E+00
          2   -1    0    0  502    0  0.00000000000E+00  0.00000000000E+00  0.15353120892E+03  0.15353120892E+03  0.00000000000E+00 0. -1.
          1   -1    0    0  501    0 -0.00000000000E+00 -0.00000000000E+00 -0.61699039441E+03  0.61699039441E+03  0.00000000000E+00 0. -1.
         25    2    1    2    0    0 -0.13505828236E+02  0.47479280586E+02 -0.83437194066E+02  0.15819498305E+03  0.12500879100E+03 0.  0.
          2    1    1    2  501    0 -0.41699843543E+00 -0.68580297696E+02 -0.49239343810E+03  0.49714658704E+03  0.00000000000E+00 0. -1.
          1    1    1    2  502    0  0.13922826671E+02  0.21101017110E+02  0.11237144669E+03  0.11518003323E+03  0.00000000000E+00 0. -1.
         22    1    3    3    0    0  0.60919168673E+01  0.64999861463E+02 -0.10537256372E+03  0.12395753558E+03  0.00000000000E+00 0.  1.
         22    1    3    3    0    0 -0.19597745103E+02 -0.17520580877E+02  0.21935369657E+02  0.34237447472E+02  0.00000000000E+00 0.  1.
</event>
<event>
 7    1  0.7802682E-006  0.1067191E+03  0.7818608E-02  0.1391175E+00
          2   -1    0    0  502    0  0.00000000000E+00  0.00000000000E+00  0.10661860147E+04  0.10661860147E+04  0.00000000000E+00 0. -1.
          1   -1    0    0  501    0 -0.00000000000E+00 -0.00000000000E+00 -0.15931486042E+04  0.15931486042E+04  0.00000000000E+00 0. -1.
         25    2    1    2    0    0 -0.34549619040E+02 -0.11896522072E+03  0.85190125054E+03  0.86988888741E+03  0.12499814336E+03 0.  0.
          2    1    1    2  501    0  0.13095344205E+02  0.33076266144E+02 -0.15744004934E+04  0.15748023499E+04  0.00000000000E+00 0. -1.
          1    1    1    2  502    0  0.21454274834E+02  0.85888954576E+02  0.19553665338E+03  0.21464338155E+03  0.00000000000E+00 0. -1.
         22    1    3    3    0    0  0.30953984085E+02 -0.13678584866E+02  0.65043957755E+02  0.73321001460E+02  0.00000000000E+00 0.  1.
         22    1    3    3    0    0 -0.65503603125E+02 -0.10528663585E+03  0.78685729279E+03  0.79656788595E+03  0.00000000000E+00 0.  1.
</event>
<event>
 7    1  0.7802682E-006  0.1381279E+03  0.7818608E-02  0.1365450E+00
          2   -1    0    0  502    0  0.00000000000E+00  0.00000000000E+00  0.18455839759E+04  0.18455839759E+04  0.00000000000E+00 0. -1.
          1   -1    0    0  501    0 -0.00000000000E+00 -0.00000000000E+00 -0.41295625361E+03  0.41295625361E+03  0.00000000000E+00 0. -1.
         25    2    1    2    0    0  0.95096616791E+02 -0.13475385145E+03  0.69077383810E+02  0.21817257352E+03  0.12500247948E+03 0.  0.
          2    1    1    2  501    0 -0.90423447092E+02  0.10115810157E+03 -0.32463150007E+03  0.35184509679E+03  0.00000000000E+00 0. -1.
          1    1    1    2  502    0 -0.46731696995E+01  0.33595749878E+02  0.16881818386E+04  0.16885225592E+04  0.00000000000E+00 0. -1.
         22    1    3    3    0    0  0.88608617482E+02 -0.63459260953E+02 -0.12423825018E+02  0.10969465037E+03  0.00000000000E+00 0. -1.
         22    1    3    3    0    0  0.64879993097E+01 -0.71294590500E+02  0.81501208828E+02  0.10847792315E+03  0.00000000000E+00 0. -1.
</event>
<event>
 7    1  0.7802682E-006  0.3238340E+02  0.7818608E-02  0.1573490E+00
          2   -1    0    0  502    0  0.00000000000E+00  0.00000000000E+00  0.87796770128E+03  0.87796770128E+03  0.00000000000E+00 0. -1.
          1   -1    0    0  501    0 -0.00000000000E+00 -0.00000000000E+00 -0.23227784088E+03  0.23227784088E+03  0.00000000000E+00 0. -1.
         25    2    1    2    0    0  0.10607664541E+01  0.91989504607E+01  0.98679735975E+02  0.15952357019E+03  0.12499733292E+03 0.  0.
          2    1    1    2  501    0  0.31556572451E+02 -0.72709941649E+01 -0.20019779065E+03  0.20280000000E+03  0.00000000000E+00 0. -1.
          1    1    1    2  502    0 -0.32617338905E+02 -0.19279562958E+01  0.74720791507E+03  0.74792197197E+03  0.00000000000E+00 0. -1.
         22    1    3    3    0    0  0.55538810756E+02 -0.24999276634E+02  0.44632861777E+02  0.75509043716E+02  0.00000000000E+00 0. -1.
         22    1    3    3    0    0 -0.54478044302E+02  0.34198227095E+02  0.54046874198E+02  0.84014526470E+02  0.00000000000E+00 0. -1.
</event>
<event>
 7    1  0.7802682E-006  0.1260258E+03  0.7818608E-02  0.1357406E+00
          2   -1    0    0  502    0  0.00000000000E+00  0.00000000000E+00  0.30181685938E+03  0.30181685938E+03  0.00000000000E+00 0. -1.
          1   -1    0    0  501    0 -0.00000000000E+00 -0.00000000000E+00 -0.11056725234E+03  0.11056725234E+03  0.00000000000E+00 0. -1.
         25    2    1    2    0    0 -0.10185664615E+03  0.44278039014E+02  0.13536358223E+03  0.21513609457E+03  0.12499967476E+03 0.  0.
          2    1    1    2  501    0 -0.20074714811E+02  0.34332118064E+02 -0.46659025332E+01  0.40043216054E+02  0.00000000000E+00 0. -1.
          1    1    1    2  502    0  0.12193136096E+03 -0.78610157078E+02  0.60551927334E+02  0.15720480109E+03  0.00000000000E+00 0. -1.
         22    1    3    3    0    0 -0.45747175783E+02  0.64986168969E+02  0.15204038083E+02  0.80914578559E+02  0.00000000000E+00 0. -1.
         22    1    3    3    0    0 -0.56109470368E+02 -0.20708129955E+02  0.12015954415E+03  0.13422151602E+03  0.00000000000E+00 0. -1.
</event>
<event>
 7    1  0.7802682E-006  0.1167109E+03  0.7818608E-02  0.1346443E+00
          2   -1    0    0  502    0  0.00000000000E+00  0.00000000000E+00  0.13725080876E+03  0.13725080876E+03  0.00000000000E+00 0. -1.
          1   -1    0    0  501    0 -0.00000000000E+00 -0.00000000000E+00 -0.60335640863E+03  0.60335640863E+03  0.00000000000E+00 0. -1.
         25    2    1    2    0    0  0.75064668989E+02  0.26954119826E+02 -0.11221612745E+03  0.18595184719E+03  0.12499760440E+03 0.  0.
          2    1    1    2  501    0  0.42743284319E+02  0.19884841706E+02 -0.41235842088E+03  0.41504441034E+03  0.00000000000E+00 0. -1.
          1    1    1    2  502    0 -0.11780795331E+03 -0.46838961533E+02  0.58468948466E+02  0.13961095987E+03  0.00000000000E+00 0. -1.
         22    1    3    3    0    0  0.97695578481E+02  0.17051481271E+02 -0.35464528997E+02  0.10532289345E+03  0.00000000000E+00 0. -1.
         22    1    3    3    0    0 -0.22630909492E+02  0.99026385552E+01 -0.76751598456E+02  0.80628953735E+02  0.00000000000E+00 0. -1.
</event>
<event>
 7    1  0.7802682E-006  0.9683804E+02  0.7818608E-02  0.1336723E+00
          2   -1    0    0  502    0  0.00000000000E+00  0.00000000000E+00  0.10978195088E+04  0.10978195088E+04  0.00000000000E+00 0. -1.
          1   -1    0    0  501    0 -0.00000000000E+00 -0.00000000000E+00 -0.22683051037E+03  0.22683051037E+03  0.00000000000E+00 0. -1.
         25    2    1    2    0    0  0.85073970882E+02 -0.33984924989E+02  0.29006005749E+03  0.32886523793E+03  0.12499980847E+03 0.  0.
          2    1    1    2  501    0  0.11734311843E+02  0.60671291406E+02 -0.19953610949E+03  0.20888599443E+03  0.00000000000E+00 0. -1.
          1    1    1    2  502    0 -0.96808282725E+02 -0.26686366417E+02  0.78046505043E+03  0.78689878682E+03  0.00000000000E+00 0. -1.
         22    1    3    3    0    0  0.16380760212E+02 -0.68767459572E+02  0.18919386692E+03  0.20196933451E+03  0.00000000000E+00 0.  1.
         22    1    3    3    0    0  0.68693210670E+02  0.34782534583E+02  0.10086619057E+03  0.12689590342E+03  0.00000000000E+00 0.  1.
</event>
<event>
 7    1  0.7802682E-006  0.6968447E+02  0.7818608E-02  0.1364157E+00
          2   -1    0    0  502    0  0.00000000000E+00  0.00000000000E+00  0.20780690493E+04  0.20780690493E+04  0.00000000000E+00 0. -1.
          1   -1    0    0  501    0 -0.00000000000E+00 -0.00000000000E+00 -0.63146128184E+03  0.63146128184E+03  0.00000000000E+00 0. -1.
         25    2    1    2    0    0  0.14658799230E+02 -0.16355158254E+01  0.34053758272E+02  0.13039301642E+03  0.12500049989E+03 0.  0.
          2    1    1    2  501    0 -0.30970889383E+02 -0.64341650529E+02 -0.58052479914E+03  0.58490006531E+03  0.00000000000E+00 0. -1.
          1    1    1    2  502    0  0.16312090154E+02  0.65977166354E+02  0.19930788083E+04  0.19942372494E+04  0.00000000000E+00 0. -1.
         22    1    3    3    0    0  0.55012812355E+02 -0.36905536158E+02 -0.11766221086E+01  0.66255660603E+02  0.00000000000E+00 0.  1.
         22    1    3    3    0    0 -0.40354013125E+02  0.35270020332E+02  0.35230380381E+02  0.64137355818E+02  0.00000000000E+00 0.  1.
</event>
<event>
 7    1  0.7802682E-006  0.7970267E+02  0.7818608E-02  0.1408901E+00
          2   -1    0    0  502    0  0.00000000000E+00  0.00000000000E+00  0.15625008403E+04  0.15625008403E+04  0.00000000000E+00 0. -1.
          1   -1    0    0  501    0 -0.00000000000E+00 -0.00000000000E+00 -0.78784861323E+03  0.78784861323E+03  0.00000000000E+00 0. -1.
         25    2    1    2    0    0 -0.95951545205E+02 -0.38561044483E+02 -0.13385437789E+03  0.21032795069E+03  0.12500879642E+03 0.  0.
          2    1    1    2  501    0  0.57403310432E+02  0.53648370106E+02 -0.61296840716E+03  0.61798345919E+03  0.00000000000E+00 0. -1.
          1    1    1    2  502    0  0.38548234773E+02 -0.15087325623E+02  0.15214750121E+04  0.15220380437E+04  0.00000000000E+00 0. -1.
         22    1    3    3    0    0 -0.38938536566E+02  0.27845271975E+02 -0.10945842909E+03  0.11946847492E+03  0.00000000000E+00 0.  1.
         22    1    3    3    0    0 -0.57013008638E+02 -0.66406316459E+02 -0.24395948800E+02  0.90859475772E+02  0.00000000000E+00 0.  1.
</event>
<event>
 7    1  0.7802682E-006  0.1683241E+03  0.7818608E-02  0.1256419E+00
          2   -1    0    0  502    0  0.00000000000E+00  0.00000000000E+00  0.30659943211E+04  0.30659943211E+04  0.00000000000E+00 0. -1.
          1   -1    0    0  501    0 -0.00000000000E+00 -0.00000000000E+00 -0.24947334965E+04  0.24947334965E+04  0.00000000000E+00 0. -1.
         25    2    1    2    0    0  0.14665647905E+03 -0.56327996030E+02 -0.34023739196E+03  0.39505479509E+03  0.12500336898E+03 0.  0.
          2    1    1    2  501    0  0.21125727664E+02  0.71844172825E+02 -0.21240911435E+04  0.21254107997E+04  0.00000000000E+00 0. -1.
          1    1    1    2  502    0 -0.16778220672E+03 -0.15516176795E+02  0.30355893600E+04  0.30402622228E+04  0.00000000000E+00 0. -1.
         22    1    3    3    0    0  0.46895124327E+02  0.33575699527E+02 -0.16148863374E+03  0.17147903403E+03  0.00000000000E+00 0.  1.
         22    1    3    3    0    0  0.99761354725E+02 -0.89903695557E+02 -0.17874875821E+03  0.22357576106E+03  0.00000000000E+00 0.  1.
</event>
<event>
 7    1  0.7802682E-006  0.5303893E+02  0.7818608E-02  0.1545403E+00
          2   -1    0    0  502    0  0.00000000000E+00  0.00000000000E+00  0.80016832414E+03  0.80016832414E+03  0.00000000000E+00 0. -1.
          1   -1    0    0  501    0 -0.00000000000E+00 -0.00000000000E+00 -0.28716100181E+02  0.28716100181E+02  0.00000000000E+00 0. -1.
         25    2    1    2    0    0 -0.44080076133E+02  0.84711281414E+01  0.34359928275E+03  0.36837495000E+03  0.12499929421E+03 0.  0.
          2    1    1    2  501    0  0.52945869776E+02  0.13375855615E+02  0.30680080731E+02  0.62637416880E+02  0.00000000000E+00 0. -1.
          1    1    1    2  502    0 -0.88657936428E+01 -0.21846983756E+02  0.39717286047E+03  0.39787205744E+03  0.00000000000E+00 0. -1.
         22    1    3    3    0    0  0.19781409442E+01 -0.46506478094E+02  0.60516505913E+02  0.76347973347E+02  0.00000000000E+00 0. -1.
         22    1    3    3    0    0 -0.46058217077E+02  0.54977606236E+02  0.28308277684E+03  0.29202697665E+03  0.00000000000E+00 0. -1.
</event>
<event>
 7    1  0.7802682E-006  0.1250630E+03  0.7818608E-02  0.1389084E+00
          2   -1    0    0  502    0  0.00000000000E+00  0.00000000000E+00  0.91189040563E+03  0.91189040563E+03  0.00000000000E+00 0. -1.
          1   -1    0    0  501    0 -0.00000000000E+00 -0.00000000000E+00 -0.48650780050E+03  0.48650780050E+03  0.00000000000E+00 0. -1.
         25    2    1    2    0    0 -0.78274560515E+02 -0.11407897653E+03  0.66542539313E+03  0.69105642933E+03  0.12500845965E+03 0.  0.
          2    1    1    2  501    0  0.27084115815E+02  0.14813792239E+02 -0.45979811595E+03  0.46083327267E+03  0.00000000000E+00 0. -1.
          1    1    1    2  502    0  0.51190444700E+02  0.99265184292E+02  0.21975532796E+03  0.24650850413E+03  0.00000000000E+00 0. -1.
         22    1    3    3    0    0 -0.37763603043E+02 -0.12979902372E+03  0.57575857154E+03  0.59141509025E+03  0.00000000000E+00 0.  1.
         22    1    3    3    0    0 -0.40510957472E+02  0.15720047193E+02  0.89666821586E+02  0.99641339074E+02  0.00000000000E+00 0.  1.
</event>
<event>
 7    1  0.7802682E-006  0.2141415E+03  0.7818608E-02  0.1347105E+00
          2   -1    0    0  502    0  0.00000000000E+00  0.00000000000E+00  0.16246683708E+04  0.16246683708E+04  0.00000000000E+00 0. -1.
          1   -1    0    0  501    0 -0.00000000000E+00 -0.00000000000E+00 -0.12377596817E+04  0.12377596817E+04  0.00000000000E+00 0. -1.
         25    2    1    2    0    0  0.14619826200E+02 -0.23436522108E+03  0.14770331967E+04  0.15007975166E+04  0.12500130201E+03 0.  0.
          2    1    1    2  501    0 -0.27414108564E+02  0.21225175738E+03 -0.12152360352E+04  0.12339371795E+04  0.00000000000E+00 0. -1.
          1    1    1    2  502    0  0.12794282364E+02  0.22113463697E+02  0.12511152756E+03  0.12769335639E+03  0.00000000000E+00 0. -1.
         22    1    3    3    0    0  0.74348098283E+00 -0.15155532854E+03  0.12420737787E+04  0.12512860752E+04  0.00000000000E+00 0.  1.
         22    1    3    3    0    0  0.13876345217E+02 -0.82809892538E+02  0.23495941801E+03  0.24951144137E+03  0.00000000000E+00 0.  1.
</event>
<event>
 7    1  0.7802682E-006  0.1075458E+03  0.7818608E-02  0.1455466E+00
          2   -1    0    0  502    0  0.00000000000E+00  0.00000000000E+00  0.46840183792E+03  0.46840183792E+03  0.00000000000E+00 0. -1.
          1   -1    0    0  501    0 -0.00000000000E+00 -0.00000000000E+00 -0.26642363958E+03  0.26642363958E+03  0.00000000000E+00 0. -1.
         25    2    1    2    0    0 -0.59281334035E+02 -0.65064997450E+02 -0.98242394851E+01  0.15319618257E+03  0.12499929686E+03 0.  0.
          2    1    1    2  501    0 -0.16970162883E+02 -0.13324384866E+02 -0.17670840475E+03  0.17802074590E+03  0.00000000000E+00 0. -1.
          1    1    1    2  502    0  0.76251496918E+02  0.78389382315E+02  0.38851084258E+03  0.40360854902E+03  0.00000000000E+00 0. -1.
         22    1    3    3    0    0 -0.22496868895E+02  0.20974227943E+02 -0.43908135251E+02  0.53609250033E+02  0.00000000000E+00 0.  1.
         22    1    3    3    0    0 -0.36784465140E+02 -0.86039225392E+02  0.34083895766E+02  0.99586932538E+02  0.00000000000E+00 0.  1.
</event>
<event>
 7    1  0.7802682E-006  0.2281036E+03  0.7818608E-02  0.1170066E+00
          2   -1    0    0  502    0  0.00000000000E+00  0.00000000000E+00  0.45075906357E+04  0.45075906357E+04  0.00000000000E+00 0. -1.
          1   -1    0    0  501    0 -0.00000000000E+00 -0.00000000000E+00 -0.10922299819E+04  0.10922299819E+04  0.00000000000E+00 0. -1.
         25    2    1    2    0    0  0.19932314630E+03  0.23362283608E+03  0.23149718788E+04  0.23385955654E+04  0.12500029142E+03 0.  0.
          2    1    1    2  501    0 -0.13135298348E+03 -0.43616803742E+02 -0.10712885111E+04  0.10801921615E+04  0.00000000000E+00 0. -1.
          1    1    1    2  502    0 -0.67970162822E+02 -0.19000603234E+03  0.21716772861E+04  0.21810328907E+04  0.00000000000E+00 0. -1.
         22    1    3    3    0    0  0.41820022614E+02  0.29430770669E+02  0.81617639030E+03  0.81777685504E+03  0.00000000000E+00 0.  1.
         22    1    3    3    0    0  0.15750312368E+03  0.20419206541E+03  0.14987954885E+04  0.15208187104E+04  0.00000000000E+00 0.  1.
</event>
<event>
 7    1  0.7802682E-006  0.8108654E+02  0.7818608E-02  0.1344619E+00
          2   -1    0    0  502    0  0.00000000000E+00  0.00000000000E+00  0.11170194091E+03  0.11170194091E+03  0.00000000000E+00 0. -1.
          1   -1    0    0  501    0 -0.00000000000E+00 -0.00000000000E+00 -0.25579158172E+03  0.25579158172E+03  0.00000000000E+00 0. -1.
         25    2    1    2    0    0 -0.25376342122E+01  0.99391951505E+02 -0.69521435874E+01  0.15987012903E+03  0.12499970498E+03 0.  0.
          2    1    1    2  501    0 -0.52915471083E+02 -0.44166362581E+02 -0.98825104220E+02  0.12048699468E+03  0.00000000000E+00 0. -1.
          1    1    1    2  502    0  0.55453105295E+02 -0.55225588923E+02 -0.38312392996E+02  0.87136398915E+02  0.00000000000E+00 0. -1.
         22    1    3    3    0    0 -0.41526561067E+02  0.10250444202E+03 -0.29841469824E+02  0.11455186262E+03  0.00000000000E+00 0.  1.
         22    1    3    3    0    0  0.38988926855E+02 -0.31124905204E+01  0.22889326237E+02  0.45318266407E+02  0.00000000000E+00 0.  1.
</event>
<event>
 7    1  0.7802682E-006  0.4427655E+02  0.7818608E-02  0.1519009E+00
          2   -1    0    0  502    0  0.00000000000E+00  0.00000000000E+00  0.39305798300E+03  0.39305798300E+03  0.00000000000E+00 0. -1.
          1   -1    0    0  501    0 -0.00000000000E+00 -0.00000000000E+00 -0.17859512179E+03  0.17859512179E+03  0.00000000000E+00 0. -1.
         25    2    1    2    0    0 -0.76921792542E+01  0.41240000812E+02  0.23494970984E+02  0.13392778423E+03  0.12499892176E+03 0.  0.
          2    1    1    2  501    0  0.37258547974E+02 -0.25281286942E+02 -0.11833047949E+03  0.12660744545E+03  0.00000000000E+00 0. -1.
          1    1    1    2  502    0 -0.29566368720E+02 -0.15958713870E+02  0.30929836971E+03  0.31111787511E+03  0.00000000000E+00 0. -1.
         22    1    3    3    0    0 -0.32496001206E+02  0.13252576919E+02  0.67560952204E+02  0.76132142700E+02  0.00000000000E+00 0. -1.
         22    1    3    3    0    0  0.24803821952E+02  0.27987423893E+02 -0.44065981220E+02  0.57795641535E+02  0.00000000000E+00 0. -1.
</event>
<event>
 7    1  0.7802682E-006  0.4303047E+02  0.7818608E-02  0.1550367E+00
          2   -1    0    0  502    0  0.00000000000E+00  0.00000000000E+00  0.11262904676E+04  0.11262904676E+04  0.00000000000E+00 0. -1.
          1   -1    0    0  501    0 -0.00000000000E+00 -0.00000000000E+00 -0.10310931710E+03  0.10310931710E+03  0.00000000000E+00 0. -1.
         25    2    1    2    0    0 -0.56300977576E+02  0.31345536405E+02  0.14387063102E+03  0.20118634641E+03  0.12499937913E+03 0.  0.
          2    1    1    2  501    0  0.41778055664E+02 -0.72348768635E+01 -0.68188829247E+02  0.80296113308E+02  0.00000000000E+00 0. -1.
          1    1    1    2  502    0  0.14522921913E+02 -0.24110659542E+02  0.94749934877E+03  0.94791732503E+03  0.00000000000E+00 0. -1.
         22    1    3    3    0    0  0.29156019647E+02 -0.13359733204E+01  0.90888627597E+02  0.95459944127E+02  0.00000000000E+00 0.  1.
         22    1    3    3    0    0 -0.85456997223E+02  0.32681509725E+02  0.52982003424E+02  0.10572640228E+03  0.00000000000E+00 0.  1.
</event>
<event>
 7    1  0.7802682E-006  0.6900071E+02  0.7818608E-02  0.1371369E+00
          2   -1    0    0  502    0  0.00000000000E+00  0.00000000000E+00  0.32426966326E+04  0.32426966326E+04  0.00000000000E+00 0. -1.
          1   -1    0    0  501    0 -0.00000000000E+00 -0.00000000000E+00 -0.15234920106E+02  0.15234920106E+02  0.00000000000E+00 0. -1.
         25    2    1    2    0    0 -0.20361467855E+02 -0.25332806037E+02  0.87466241661E+03  0.88414813999E+03  0.12500899962E+03 0.  0.
          2    1    1    2  501    0  0.45006986230E+02 -0.46406214567E+02  0.96163759684E+02  0.11587335430E+03  0.00000000000E+00 0. -1.
          1    1    1    2  502    0 -0.24645518374E+02  0.71739020604E+02  0.22566355362E+04  0.22579100584E+04  0.00000000000E+00 0. -1.
         22    1    3    3    0    0  0.14315447899E+02 -0.62398869542E+02  0.67891923644E+03  0.68193099400E+03  0.00000000000E+00 0.  1.
         22    1    3    3    0    0 -0.34676915754E+02  0.37066063505E+02  0.19574318017E+03  0.20221714600E+03  0.00000000000E+00 0.  1.
</event>
<event>
 7    1  0.7802682E-006  0.2840135E+02  0.7818608E-02  0.1655705E+00
          2   -1    0    0  502    0  0.00000000000E+00  0.00000000000E+00  0.13309196420E+03  0.13309196420E+03  0.00000000000E+00 0. -1.
          1   -1    0    0  501    0 -0.00000000000E+00 -0.00000000000E+00 -0.10056316519E+04  0.10056316519E+04  0.00000000000E+00 0. -1.
         25    2    1    2    0    0 -0.27500369133E+02  0.29023377098E+02  0.15357589298E+02  0.13213222976E+03  0.12499777546E+03 0.  0.
          2    1    1    2  501    0  0.13670897853E+00 -0.22666676184E+02 -0.94377619215E+03  0.94404835563E+03  0.00000000000E+00 0. -1.
          1    1    1    2  502    0  0.27363660155E+02 -0.63567009142E+01  0.55878915102E+02  0.62543030759E+02  0.00000000000E+00 0. -1.
         22    1    3    3    0    0  0.25836521302E+02  0.56748960579E+02  0.31544050139E+02  0.69878447743E+02  0.00000000000E+00 0. -1.
         22    1    3    3    0    0 -0.53336890435E+02 -0.27725583481E+02 -0.16186460841E+02  0.62253782015E+02  0.00000000000E+00 0. -1.
</event>
<event>
 7    1  0.7802682E-006  0.8717691E+02  0.7818608E-02  0.1488134E+00
          2   -1    0    0  502    0  0.00000000000E+00  0.00000000000E+00  0.40928547016E+03  0.40928547016E+03  0.00000000000E+00 0. -1.
          1   -1    0    0  501    0 -0.00000000000E+00 -0.00000000000E+00 -0.86740373903E+02  0.86740373903E+02  0.00000000000E+00 0. -1.
         25    2    1    2    0    0  0.27011299163E+02  0.79972931465E+02  0.47322094115E+02  0.15811926492E+03  0.12504815592E+03 0.  0.
          2    1    1    2  501    0 -0.19706341877E+02  0.74733501085E+01 -0.20522658529E+02  0.29417178402E+02  0.00000000000E+00 0. -1.
          1    1    1    2  502    0 -0.73049572857E+01 -0.87446281574E+02  0.29574566067E+03  0.30848940073E+03  0.00000000000E+00 0. -1.
         22    1    3    3    0    0 -0.35022320894E+02  0.65760604296E+02  0.56918523829E+02  0.93758937670E+02  0.00000000000E+00 0. -1.
         22    1    3    3    0    0  0.62033620057E+02  0.14212327169E+02 -0.95964297141E+01  0.64360327253E+02  0.00000000000E+00 0. -1.
</event>
<event>
 7    1  0.7802682E-006  0.1764357E+03  0.7818608E-02  0.1327361E+00
          2   -1    0    0  502    0  0.00000000000E+00  0.00000000000E+00  0.11874798508E+04  0.11874798508E+04  0.00000000000E+00 0. -1.
          1   -1    0    0  501    0 -0.00000000000E+00 -0.00000000000E+00 -0.99390123060E+03  0.99390123060E+03  0.00000000000E+00 0. -1.
         25    2    1    2    0    0 -0.12301121393E+03  0.17095501778E+03 -0.32320501140E+02  0.24704095828E+03  0.12500897335E+03 0.  0.
          2    1    1    2  501    0  0.15005794210E+02 -0.33622115691E+02 -0.84675252640E+03  0.84755263051E+03  0.00000000000E+00 0. -1.
          1    1    1    2  502    0  0.10800541972E+03 -0.13733290209E+03  0.10726516478E+04  0.10867874926E+04  0.00000000000E+00 0. -1.
         22    1    3    3    0    0 -0.16314081771E+02  0.12663216588E+03 -0.31474228880E+02  0.13150088130E+03  0.00000000000E+00 0.  1.
         22    1    3    3    0    0 -0.10669713216E+03  0.44322851895E+02 -0.84627225994E+00  0.11554007697E+03  0.00000000000E+00 0.  1.
</event>
<event>
 7    1  0.7802682E-006  0.7521344E+02  0.7818608E-02  0.1442456E+00
          2   -1    0    0  502    0  0.00000000000E+00  0.00000000000E+00  0.10453493979E+04  0.10453493979E+04  0.00000000000E+00 0. -1.
          1   -1    0    0  501    0 -0.00000000000E+00 -0.00000000000E+00 -0.15615635813E+04  0.15615635813E+04  0.00000000000E+00 0. -1.
         25    2    1    2    0    0  0.19140729299E+02  0.52444706950E+02  0.62961272897E+02  0.15068581326E+03  0.12500111051E+03 0.  0.
          2    1    1    2  501    0 -0.53080657446E+02 -0.53589429600E+02 -0.15164564513E+04  0.15183311734E+04  0.00000000000E+00 0. -1.
          1    1    1    2  502    0  0.33939928146E+02  0.11447226503E+01  0.93728099504E+03  0.93789599252E+03  0.00000000000E+00 0. -1.
         22    1    3    3    0    0 -0.52754536713E+02  0.33268185505E+02  0.25513117025E+02  0.67384957156E+02  0.00000000000E+00 0.  1.
         22    1    3    3    0    0  0.71895266012E+02  0.19176521445E+02  0.37448155872E+02  0.83300856105E+02  0.00000000000E+00 0.  1.
</event>
<event>
 7    1  0.7802682E-006  0.2273787E+03  0.7818608E-02  0.1174909E+00
          2   -1    0    0  502    0  0.00000000000E+00  0.00000000000E+00  0.21468928179E+04  0.21468928179E+04  0.00000000000E+00 0. -1.
          1   -1    0    0  501    0 -0.00000000000E+00 -0.00000000000E+00 -0.11339305497E+04  0.11339305497E+04  0.00000000000E+00 0. -1.
         25    2    1    2    0    0  0.34331352141E+03 -0.53047390784E+02 -0.13557882684E+03  0.39329972276E+03  0.12499941594E+03 0.  0.
          2    1    1    2  501    0 -0.11869169003E+03  0.56368786823E+02 -0.85822366707E+03  0.86822406102E+03  0.00000000000E+00 0. -1.
          1    1    1    2  502    0 -0.22462183138E+03 -0.33213960394E+01  0.20067647621E+04  0.20192995839E+04  0.00000000000E+00 0. -1.
         22    1    3    3    0    0 -0.49345391226E+00 -0.20412609196E+02 -0.21360280394E+02  0.29549614032E+02  0.00000000000E+00 0. -1.
         22    1    3    3    0    0  0.34380697532E+03 -0.32634781588E+02 -0.11421854644E+03  0.36375010873E+03  0.00000000000E+00 0. -1.
</event>
<event>
 7    1  0.7802682E-006  0.1193744E+03  0.7818608E-02  0.1285774E+00
          2   -1    0    0  502    0  0.00000000000E+00  0.00000000000E+00  0.21811228305E+04  0.21811228305E+04  0.00000000000E+00 0. -1.
          1   -1    0    0  501    0 -0.00000000000E+00 -0.00000000000E+00 -0.30974106575E+03  0.30974106575E+03  0.00000000000E+00 0. -1.
         25    2    1    2    0    0 -0.96664804731E+02  0.47192704013E+02  0.48879267978E+02  0.17200322847E+03  0.12499876792E+03 0.  0.
          2    1    1    2  501    0  0.51751457778E+02 -0.11283357567E+03 -0.23183857617E+03  0.26298052129E+03  0.00000000000E+00 0. -1.
          1    1    1    2  502    0  0.44913346953E+02  0.65640871655E+02  0.20543410730E+04  0.20558801465E+04  0.00000000000E+00 0. -1.
         22    1    3    3    0    0 -0.11682495169E+03  0.59515516020E+02  0.16832044926E+02  0.13218730545E+03  0.00000000000E+00 0.  1.
         22    1    3    3    0    0  0.20160146960E+02 -0.12322812007E+02  0.32047223053E+02  0.39815923028E+02  0.00000000000E+00 0.  1.
</event>
<event>
 7    1  0.7802682E-006  0.9201160E+02  0.7818608E-02  0.1411584E+00
          2   -1    0    0  502    0  0.00000000000E+00  0.00000000000E+00  0.68382119894E+03  0.68382119894E+03  0.00000000000E+00 0. -1.
          1   -1    0    0  501    0 -0.00000000000E+00 -0.00000000000E+00 -0.85885867469E+03  0.85885867469E+03  0.00000000000E+00 0. -1.
         25    2    1    2    0    0 -0.89853853768E+02 -0.37008810862E+02 -0.48788136075E+03  0.51292960761E+03  0.12500077232E+03 0.  0.
          2    1    1    2  501    0  0.23161595932E+02 -0.26393426354E+02 -0.35442798607E+03  0.35616326283E+03  0.00000000000E+00 0. -1.
          1    1    1    2  502    0  0.66692257836E+02  0.63402237217E+02  0.66727187107E+03  0.67358700319E+03  0.00000000000E+00 0. -1.
         22    1    3    3    0    0 -0.93947473441E+02 -0.68453948668E+02 -0.28841979766E+03  0.31096310156E+03  0.00000000000E+00 0. -1.
         22    1    3    3    0    0  0.40936196730E+01  0.31445137805E+02 -0.19946156310E+03  0.20196650605E+03  0.00000000000E+00 0. -1.
</event>
<event>
 7    1  0.7802682E-006  0.6653207E+02  0.7818608E-02  0.1438697E+00
          2   -1    0    0  502    0  0.00000000000E+00  0.00000000000E+00  0.19759769141E+04  0.19759769141E+04  0.00000000000E+00 0. -1.
          1   -1    0    0  501    0 -0.00000000000E+00 -0.00000000000E+00 -0.98230471143E+03  0.98230471143E+03  0.00000000000E+00 0. -1.
         25    2    1    2    0    0  0.36589831674E+02 -0.20523557048E+01  0.25991777360E+03  0.29073138978E+03  0.12499785609E+03 0.  0.
          2    1    1    2  501    0  0.21747571830E+02 -0.32953735589E+02 -0.96581396219E+03  0.96662066765E+03  0.00000000000E+00 0. -1.
          1    1    1    2  502    0 -0.58337403505E+02  0.35006091294E+02  0.16995683913E+04  0.17009295681E+04  0.00000000000E+00 0. -1.
         22    1    3    3    0    0 -0.13749008377E+02 -0.40359968122E+01 -0.91412528515E+01  0.16996676302E+02  0.00000000000E+00 0. -1.
         22    1    3    3    0    0  0.50338840051E+02  0.19836411074E+01  0.26905902645E+03  0.27373471348E+03  0.00000000000E+00 0. -1.
</event>
<event>
 7    1  0.7802682E-006  0.5084532E+02  0.7818608E-02  0.1470625E+00
          2   -1    0    0  502    0  0.00000000000E+00  0.00000000000E+00  0.21950797236E+04  0.21950797236E+04  0.00000000000E+00 0. -1.
          1   -1    0    0  501    0 -0.00000000000E+00 -0.00000000000E+00 -0.24640391965E+02  0.24640391965E+02  0.00000000000E+00 0. -1.
         25    2    1    2    0    0 -0.30850502839E+02  0.15136598619E+02  0.22866702809E+03  0.26285570784E+03  0.12499457294E+03 0.  0.
          2    1    1    2  501    0  0.20655957148E+02  0.35297787779E+02  0.50912115987E+02  0.65304256692E+02  0.00000000000E+00 0. -1.
          1    1    1    2  502    0  0.10194545691E+02 -0.50434386398E+02  0.18908601875E+04  0.18915601510E+04  0.00000000000E+00 0. -1.
         22    1    3    3    0    0 -0.62432567691E+02 -0.15626949193E+02  0.58172597350E+02  0.86752971892E+02  0.00000000000E+00 0.  1.
         22    1    3    3    0    0  0.31582064852E+02  0.30763547811E+02  0.17049443074E+03  0.17610273595E+03  0.00000000000E+00 0.  1.
</event>
<event>
 7    1  0.7802682E-006  0.1084514E+03  0.7818608E-02  0.1382070E+00
          2   -1    0    0  502    0  0.00000000000E+00  0.00000000000E+00  0.15596076884E+04  0.15596076884E+04  0.00000000000E+00 0. -1.
          1   -1    0    0  501    0 -0.00000000000E+00 -0.00000000000E+00 -0.27934665435E+02  0.27934665435E+02  0.00000000000E+00 0. -1.
         25    2    1    2    0    0 -0.21807763930E+02  0.74393456968E+02  0.25664391381E+03  0.29580695542E+03  0.12500276545E+03 0.  0.
          2    1    1    2  501    0 -0.25258379840E+02  0.27956408607E+02  0.55895910961E+02  0.67408451966E+02  0.00000000000E+00 0. -1.
          1    1    1    2  502    0  0.47066143770E+02 -0.10234986557E+03  0.12191331982E+04  0.12243269464E+04  0.00000000000E+00 0. -1.
         22    1    3    3    0    0  0.67747238058E+01  0.23274373297E+02  0.23032641075E+03  0.23159846464E+03  0.00000000000E+00 0.  1.
         22    1    3    3    0    0 -0.28582487736E+02  0.51119083671E+02  0.26317503063E+02  0.64208490778E+02  0.00000000000E+00 0.  1.
</event>
<event>
 7    1  0.7802682E-006  0.4627728E+03  0.7818608E-02  0.1286307E+00
          2   -1    0    0  502    0  0.00000000000E+00  0.00000000000E+00  0.88214250379E+03  0.88214250379E+03  0.00000000000E+00 0. -1.
          1   -1    0    0  501    0 -0.00000000000E+00 -0.00000000000E+00 -0.14328307279E+04  0.14328307279E+04  0.00000000000E+00 0. -1.
         25    2    1    2    0    0 -0.47500851327E+03  0.75313382158E+02 -0.10347792928E+04  0.11479114159E+04  0.12500896302E+03 0.  0.
          2    1    1    2  501    0  0.20097918733E+02  0.35764632427E+01 -0.27652867985E+03  0.27728113569E+03  0.00000000000E+00 0. -1.
          1    1    1    2  502    0  0.45491059453E+03 -0.78889845401E+02  0.76061974855E+03  0.88978068006E+03  0.00000000000E+00 0. -1.
         22    1    3    3    0    0 -0.47985467151E+03  0.76981128228E+02 -0.99014670755E+03  0.11029855404E+04  0.00000000000E+00 0. -1.
         22    1    3    3    0    0  0.48461582427E+01 -0.16677460700E+01 -0.44632585246E+02  0.44925875533E+02  0.00000000000E+00 0. -1.
</event>
<event>
 7    1  0.7802682E-006  0.2830593E+02  0.7818608E-02  0.1647697E+00
          2   -1    0    0  502    0  0.00000000000E+00  0.00000000000E+00  0.47015727944E+03  0.47015727944E+03  0.00000000000E+00 0. -1.
          1   -1    0    0  501    0 -0.00000000000E+00 -0.00000000000E+00 -0.35435224124E+02  0.35435224124E+02  0.00000000000E+00 0. -1.
         25    2    1    2    0    0 -0.14785780717E+02 -0.18854473203E+02  0.22514984583E+03  0.25863316712E+03  0.12499820633E+03 0.  0.
          2    1    1    2  501    0 -0.14280867794E+02  0.19030877340E+02 -0.97543246060E+01  0.25715060292E+02  0.00000000000E+00 0. -1.
          1    1    1    2  502    0  0.29066648512E+02 -0.17640413776E+00  0.21932653409E+03  0.22124427616E+03  0.00000000000E+00 0. -1.
         22    1    3    3    0    0 -0.59901024931E+01 -0.72265487677E+02  0.14147276024E+03  0.15897397249E+03  0.00000000000E+00 0. -1.
         22    1    3    3    0    0 -0.87956782244E+01  0.53411014474E+02  0.83677085584E+02  0.99659194631E+02  0.00000000000E+00 0. -1.
</event>
<event>
 7    1  0.7802682E-006  0.2090068E+03  0.7818608E-02  0.1145057E+00
          2   -1    0    0  502    0  0.00000000000E+00  0.00000000000E+00  0.25720358433E+04  0.25720358433E+04  0.00000000000E+00 0. -1.
          1   -1    0    0  501    0 -0.00000000000E+00 -0.00000000000E+00 -0.23676246151E+03  0.23676246151E+03  0.00000000000E+00 0. -1.
         25    2    1    2    0    0 -0.46019008314E+02 -0.12676021949E+03  0.32874402099E+03  0.37667328312E+03  0.12499691402E+03 0.  0.
          2    1    1    2  501    0 -0.14895878996E+03  0.18087883720E+03 -0.14206554059E+03  0.27402279591E+03  0.00000000000E+00 0. -1.
          1    1    1    2  502    0  0.19497779828E+03 -0.54118617715E+02  0.21485949014E+04  0.21581022258E+04  0.00000000000E+00 0. -1.
         22    1    3    3    0    0  0.42951148304E+02 -0.29929992786E+02  0.90754568001E+02  0.10477116599E+03  0.00000000000E+00 0. -1.
         22    1    3    3    0    0 -0.88970156618E+02 -0.96830226701E+02  0.23798945298E+03  0.27190211714E+03  0.00000000000E+00 0. -1.
</event>
<event>
 7    1  0.7802682E-006  0.1794235E+03  0.7818608E-02  0.1187315E+00
          2   -1    0    0  502    0  0.00000000000E+00  0.00000000000E+00  0.13662627678E+04  0.13662627678E+04  0.00000000000E+00 0. -1.
          1   -1    0    0  501    0 -0.00000000000E+00 -0.00000000000E+00 -0.20425198723E+04  0.20425198723E+04  0.00000000000E+00 0. -1.
         25    2    1    2    0    0  0.25686803202E+03  0.76506707865E+02  0.21215824926E+03  0.36396455984E+03  0.12499846346E+03 0.  0.
          2    1    1    2  501    0 -0.17364827660E+03  0.42089366405E+02 -0.19576627483E+04  0.19657997545E+04  0.00000000000E+00 0. -1.
          1    1    1    2  502    0 -0.83219755416E+02 -0.11859607427E+03  0.10692473946E+04  0.10790183258E+04  0.00000000000E+00 0. -1.
         22    1    3    3    0    0  0.22913438162E+03  0.10722409655E+03  0.19384354194E+03  0.31870815878E+03  0.00000000000E+00 0.  1.
         22    1    3    3    0    0  0.27733650394E+02 -0.30717388689E+02  0.18314707326E+02  0.45256401055E+02  0.00000000000E+00 0.  1.
</event>
<event>
 7    1  0.7802682E-006  0.8111400E+02  0.7818608E-02  0.1351784E+00
          2   -1    0    0  502    0  0.00000000000E+00  0.00000000000E+00  0.93897456478E+03  0.93897456478E+03  0.00000000000E+00 0. -1.
          1   -1    0    0  501    0 -0.00000000000E+00 -0.00000000000E+00 -0.38347202976E+04  0.38347202976E+04  0.00000000000E+00 0. -1.
         25    2    1    2    0    0 -0.81011654936E+01 -0.42201301956E+02  0.16198775515E+03  0.20907493495E+03  0.12500286732E+03 0.  0.
          2    1    1    2  501    0 -0.54011052809E+02  0.60688696444E+02 -0.38093492838E+04  0.38102155159E+04  0.00000000000E+00 0. -1.
          1    1    1    2  502    0  0.62112218303E+02 -0.18487394488E+02  0.75161579588E+03  0.75440441146E+03  0.00000000000E+00 0. -1.
         22    1    3    3    0    0  0.35081464336E+02 -0.42934736520E+02  0.15589176816E+03  0.16545798294E+03  0.00000000000E+00 0. -1.
         22    1    3    3    0    0 -0.43182629830E+02  0.73343456439E+00  0.60959869931E+01  0.43616952010E+02  0.00000000000E+00 0. -1.
</event>
<event>
 7    1  0.7802682E-006  0.6869727E+02  0.7818608E-02  0.1400493E+00
          2   -1    0    0  502    0  0.00000000000E+00  0.00000000000E+00  0.24646733042E+03  0.24646733042E+03  0.00000000000E+00 0. -1.
          1   -1    0    0  501    0 -0.00000000000E+00 -0.00000000000E+00 -0.25413584945E+03  0.25413584945E+03  0.00000000000E+00 0. -1.
         25    2    1    2    0    0 -0.81743436080E+02 -0.47184410141E+02 -0.51381530913E+01  0.15671518921E+03  0.12499956803E+03 0.  0.
          2    1    1    2  501    0  0.49791118557E+02 -0.12390467769E+02 -0.16239990952E+03  0.17031268241E+03  0.00000000000E+00 0. -1.
          1    1    1    2  502    0  0.31952317523E+02  0.59574877910E+02  0.15986954357E+03  0.17357530825E+03  0.00000000000E+00 0. -1.
         22    1    3    3    0    0 -0.68062618374E+02  0.30607046851E+02 -0.17800499735E+02  0.76721373343E+02  0.00000000000E+00 0. -1.
         22    1    3    3    0    0 -0.13680817706E+02 -0.77791456993E+02  0.12662346644E+02  0.79993815865E+02  0.00000000000E+00 0. -1.
</event>
<event>
 7    1  0.7802682E-006  0.7127316E+02  0.7818608E-02  0.1485398E+00
          2   -1    0    0  502    0  0.00000000000E+00  0.00000000000E+00  0.62605180165E+03  0.62605180165E+03  0.00000000000E+00 0. -1.
          1   -1    0    0  501    0 -0.00000000000E+00 -0.00000000000E+00 -0.34592286529E+04  0.34592286529E+04  0.00000000000E+00 0. -1.
         25    2    1    2    0    0 -0.98627648616E+01  0.76156533755E+02 -0.15791361243E+04  0.15859358831E+04  0.12499853788E+03 0.  0.
          2    1    1    2  501    0 -0.15484666619E+02 -0.69229054759E+02 -0.18757446303E+04  0.18770856014E+04  0.00000000000E+00 0. -1.
          1    1    1    2  502    0  0.25347431481E+02 -0.69274789958E+01  0.62170390339E+03  0.62225897000E+03  0.00000000000E+00 0. -1.
         22    1    3    3    0    0  0.30462234281E+02  0.29899645955E+01 -0.10335866854E+03  0.10779564911E+03  0.00000000000E+00 0. -1.
         22    1    3    3    0    0 -0.40324999143E+02  0.73166569159E+02 -0.14757774557E+04  0.14781402339E+04  0.00000000000E+00 0. -1.
</event>
<event>
 7    1  0.7802682E-006  0.1443740E+03  0.7818608E-02  0.1348025E+00
          2   -1    0    0  502    0  0.00000000000E+00  0.00000000000E+00  0.41890937866E+03  0.41890937866E+03  0.00000000000E+00 0. -1.
          1   -1    0    0  501    0 -0.00000000000E+00 -0.00000000000E+00 -0.20848602687E+03  0.20848602687E+03  0.00000000000E+00 0. -1.
         25    2    1    2    0    0  0.94616474001E+02  0.86823721335E+02  0.16984121785E+03  0.24689807951E+03  0.12498794601E+03 0.  0.
          2    1    1    2  501    0 -0.12889409044E+03 -0.71378714875E+02 -0.13566560384E+03  0.20028420694E+03  0.00000000000E+00 0. -1.
          1    1    1    2  502    0  0.34277616436E+02 -0.15445006459E+02  0.17624773778E+03  0.18021311907E+03  0.00000000000E+00 0. -1.
         22    1    3    3    0    0  0.10101381723E+03  0.84074809144E+02  0.74042136159E+02  0.15084628843E+03  0.00000000000E+00 0. -1.
         22    1    3    3    0    0 -0.63973432333E+01  0.27489121905E+01  0.95799081687E+02  0.96051791086E+02  0.00000000000E+00 0. -1.
</event>
<event>
 7    1  0.7802682E-006  0.5079450E+02  0.7818608E-02  0.1491753E+00
          2   -1    0    0  502    0  0.00000000000E+00  0.00000000000E+00  0.10198634629E+04  0.10198634629E+04  0.00000000000E+00 0. -1.
          1   -1    0    0  501    0 -0.00000000000E+00 -0.00000000000E+00 -0.16480346556E+03  0.16480346556E+03  0.00000000000E+00 0. -1.
         25    2    1    2    0    0 -0.85551632009E+02  0.42556411360E+01  0.13756968690E+02  0.15215626100E+03  0.12500032542E+03 0.  0.
          2    1    1    2  501    0  0.35107419402E+02 -0.33946955623E+01 -0.91645733131E+02  0.98198753842E+02  0.00000000000E+00 0. -1.
          1    1    1    2  502    0  0.50444212607E+02 -0.86094557371E+00  0.93294876182E+03  0.93431191366E+03  0.00000000000E+00 0. -1.
         22    1    3    3    0    0 -0.10516891999E+03 -0.19877190484E+02  0.37091032269E+02  0.11327554506E+03  0.00000000000E+00 0.  1.
         22    1    3    3    0    0  0.19617287979E+02  0.24132831620E+02 -0.23334063578E+02  0.38880715949E+02  0.00000000000E+00 0.  1.
</event>
<event>
 7    1  0.7802682E-006  0.5093583E+02  0.7818608E-02  0.1456030E+00
          2   -1    0    0  502    0  0.00000000000E+00  0.00000000000E+00  0.10779596879E+04  0.10779596879E+04  0.00000000000E+00 0. -1.
          1   -1    0    0  501    0 -0.00000000000E+00 -0.00000000000E+00 -0.15189917800E+03  0.15189917800E+03  0.00000000000E+00 0. -1.
         25    2    1    2    0    0  0.51771500871E+02  0.32648928090E+02  0.26037679498E+02  0.14159538202E+03  0.12500020259E+03 0.  0.
          2    1    1    2  501    0 -0.23319291235E+01 -0.45308151856E+02 -0.87956070436E+02  0.98967352418E+02  0.00000000000E+00 0. -1.
          1    1    1    2  502    0 -0.49439571748E+02  0.12659223766E+02  0.98797890088E+03  0.98929613150E+03  0.00000000000E+00 0. -1.
         22    1    3    3    0    0  0.65894002124E+02  0.64671697196E+02 -0.81283562430E+01  0.92685047928E+02  0.00000000000E+00 0. -1.
         22    1    3    3    0    0 -0.14122501253E+02 -0.32022769106E+02  0.34166035741E+02  0.48910334093E+02  0.00000000000E+00 0. -1.
</event>
<event>
 7    1  0.7802682E-006  0.9894164E+02  0.7818608E-02  0.1349020E+00
          2   -1    0    0  502    0  0.00000000000E+00  0.00000000000E+00  0.59851044554E+03  0.59851044554E+03  0.00000000000E+00 0. -1.
          1   -1    0    0  501    0 -0.00000000000E+00 -0.00000000000E+00 -0.40291332737E+03  0.40291332737E+03  0.00000000000E+00 0. -1.
         25    2    1    2    0    0  0.64652027847E+02 -0.29559265187E+02  0.85441450284E+02  0.16727252737E+03  0.12500488840E+03 0.  0.
          2    1    1    2  501    0 -0.31139451549E+01 -0.54306207478E+02 -0.35416679185E+03  0.35831965796E+03  0.00000000000E+00 0. -1.
          1    1    1    2  502    0 -0.61538082692E+02  0.83865472665E+02  0.46432245974E+03  0.47583158759E+03  0.00000000000E+00 0. -1.
         22    1    3    3    0    0  0.69360696723E+02 -0.34529115556E+02 -0.39867957326E+01  0.77582605081E+02  0.00000000000E+00 0.  1.
         22    1    3    3    0    0 -0.47086688765E+01  0.49698503688E+01  0.89428246017E+02  0.89689922293E+02  0.00000000000E+00 0.  1.
</event>
<event>
 7    1  0.7802682E-006  0.2293740E+03  0.7818608E-02  0.1153875E+00
          2   -1    0    0  502    0  0.00000000000E+00  0.00000000000E+00  0.22088739961E+04  0.22088739961E+04  0.00000000000E+00 0. -1.
          1   -1    0    0  501    0 -0.00000000000E+00 -0.00000000000E+00 -0.78349836022E+03  0.78349836022E+03  0.00000000000E+00 0. -1.
         25    2    1    2    0    0  0.37118064055E+03  0.10965497310E+03  0.15680957325E+04  0.16199846039E+04  0.12500643761E+03 0.  0.
          2    1    1    2  501    0 -0.22580610869E+03 -0.29361001989E+02 -0.72863713788E+03  0.76338885626E+03  0.00000000000E+00 0. -1.
          1    1    1    2  502    0 -0.14537453186E+03 -0.80293971113E+02  0.58591704125E+03  0.60899889617E+03  0.00000000000E+00 0. -1.
         22    1    3    3    0    0  0.26558584758E+03  0.32093281051E+02  0.88954280051E+03  0.92889838791E+03  0.00000000000E+00 0. -1.
         22    1    3    3    0    0  0.10559479297E+03  0.77561692050E+02  0.67855293200E+03  0.69108621597E+03  0.00000000000E+00 0. -1.
</event>
<event>
 7    1  0.7802682E-006  0.1223157E+03  0.7818608E-02  0.1286474E+00
          2   -1    0    0  502    0  0.00000000000E+00  0.00000000000E+00  0.29836537499E+03  0.29836537499E+03  0.00000000000E+00 0. -1.
          1   -1    0    0  501    0 -0.00000000000E+00 -0.00000000000E+00 -0.39679568138E+03  0.39679568138E+03  0.00000000000E+00 0. -1.
         25    2    1    2    0    0 -0.55248285567E+02  0.36189397658E+02 -0.77530858105E+02  0.16124178158E+03  0.12500333039E+03 0.  0.
          2    1    1    2  501    0 -0.12878001221E+02  0.76029856872E+02 -0.25451717167E+03  0.26594242371E+03  0.00000000000E+00 0. -1.
          1    1    1    2  502    0  0.68126286788E+02 -0.11221925453E+03  0.23361772339E+03  0.26797685109E+03  0.00000000000E+00 0. -1.
         22    1    3    3    0    0 -0.28300388482E+02 -0.21220443607E+02  0.23133342988E+02  0.42265479684E+02  0.00000000000E+00 0. -1.
         22    1    3    3    0    0 -0.26947897085E+02  0.57409841266E+02 -0.10066420109E+03  0.11897630190E+03  0.00000000000E+00 0. -1.
</event>
<event>
 7    1  0.1419351E-005  0.8373983E+02  0.7818608E-02  0.1338433E+00
          2   -1    0    0  502    0  0.00000000000E+00  0.00000000000E+00  0.12658383704E+04  0.12658383704E+04  0.00000000000E+00 0. -1.
          1   -1    0    0  501    0 -0.00000000000E+00 -0.00000000000E+00 -0.12897958264E+04  0.12897958264E+04  0.00000000000E+00 0. -1.
         25    2    1    2    0    0  0.70522773467E+02 -0.35424938192E+01 -0.18999103640E+03  0.23812988085E+03  0.12499294142E+03 0.  0.
          2    1    1    2  501    0 -0.23779718736E+02 -0.66268902769E+02 -0.10731594423E+04  0.10754665179E+04  0.00000000000E+00 0. -1.
          1    1    1    2  502    0 -0.46743054731E+02  0.69811396588E+02  0.12391930227E+04  0.12420377981E+04  0.00000000000E+00 0. -1.
         22    1    3    3    0    0  0.22373996071E+01  0.47455669485E+02 -0.28156795819E+02  0.55225462190E+02  0.00000000000E+00 0. -1.
         22    1    3    3    0    0  0.68285373860E+02 -0.50998163304E+02 -0.16183424058E+03  0.18290441866E+03  0.00000000000E+00 0. -1.
</event>
<event>
 7    1  0.7802682E-006  0.7680581E+02  0.7818608E-02  0.1472097E+00
          2   -1    0    0  502    0  0.00000000000E+00  0.00000000000E+00  0.68113303951E+03  0.68113303951E+03  0.00000000000E+00 0. -1.
          1   -1    0    0  501    0 -0.00000000000E+00 -0.00000000000E+00 -0.28895982965E+03  0.28895982965E+03  0.00000000000E+00 0. -1.
         25    2    1    2    0    0 -0.96544160391E+02  0.20852360046E+02 -0.64506449860E+02  0.17188167537E+03  0.12500652954E+03 0.  0.
          2    1    1    2  501    0  0.25668578998E+02  0.76720999025E+01 -0.16737081857E+03  0.16950140994E+03  0.00000000000E+00 0. -1.
          1    1    1    2  502    0  0.70875581393E+02 -0.28524459949E+02  0.62405047829E+03  0.62870978385E+03  0.00000000000E+00 0. -1.
         22    1    3    3    0    0 -0.11564900871E+02  0.71482785104E+01 -0.82777633519E+02  0.83886717833E+02  0.00000000000E+00 0.  1.
         22    1    3    3    0    0 -0.84979259520E+02  0.13704081536E+02  0.18271183659E+02  0.87994957535E+02  0.00000000000E+00 0.  1.
</event>
<event>
 7    1  0.7802682E-006  0.6085969E+02  0.7818608E-02  0.1421186E+00
          2   -1    0    0  502    0  0.00000000000E+00  0.00000000000E+00  0.88116095809E+02  0.88116095809E+02  0.00000000000E+00 0. -1.
          1   -1    0    0  501    0 -0.00000000000E+00 -0.00000000000E+00 -0.11008098146E+04  0.11008098146E+04  0.00000000000E+00 0. -1.
         25    2    1    2    0    0  0.15080421090E+02 -0.26994022971E+02 -0.30608452251E+03  0.33207267587E+03  0.12501372232E+03 0.  0.
          2    1    1    2  501    0  0.19685629020E+02  0.61935621198E+02 -0.77213099675E+03  0.77486116260E+03  0.00000000000E+00 0. -1.
          1    1    1    2  502    0 -0.34766050110E+02 -0.34941598227E+02  0.65521800455E+02  0.81992071945E+02  0.00000000000E+00 0. -1.
         22    1    3    3    0    0  0.44069996994E+01  0.93890875572E+01 -0.29112849341E+03  0.29131319278E+03  0.00000000000E+00 0. -1.
         22    1    3    3    0    0  0.10673421391E+02 -0.36383110528E+02 -0.14956029094E+02  0.40759483095E+02  0.00000000000E+00 0. -1.
</event>
<event>
 7    1  0.7802682E-006  0.1754450E+03  0.7818608E-02  0.1310910E+00
          2   -1    0    0  502    0  0.00000000000E+00  0.00000000000E+00  0.88738318992E+03  0.88738318992E+03  0.00000000000E+00 0. -1.
          1   -1    0    0  501    0 -0.00000000000E+00 -0.00000000000E+00 -0.10430816192E+04  0.10430816192E+04  0.00000000000E+00 0. -1.
         25    2    1    2    0    0  0.13360146833E+03 -0.28936365048E+02  0.11532163056E+03  0.21819898173E+03  0.12500020636E+03 0.  0.
          2    1    1    2  501    0 -0.17593884531E+03  0.22028025523E+02 -0.98306611041E+03  0.99892877055E+03  0.00000000000E+00 0. -1.
          1    1    1    2  502    0  0.42337376977E+02  0.69083395255E+01  0.71204605054E+03  0.71333705689E+03  0.00000000000E+00 0. -1.
         22    1    3    3    0    0  0.13944754024E+03  0.95336032502E+01  0.63829234136E+02  0.15365766235E+03  0.00000000000E+00 0.  1.
         22    1    3    3    0    0 -0.58460719075E+01 -0.38469968299E+02  0.51492396423E+02  0.64541319377E+02  0.00000000000E+00 0.  1.
</event>
<event>
 7    1  0.7802682E-006  0.5474107E+02  0.7818608E-02  0.1534990E+00
          2   -1    0    0  502    0  0.00000000000E+00  0.00000000000E+00  0.23608337507E+03  0.23608337507E+03  0.00000000000E+00 0. -1.
          1   -1    0    0  501    0 -0.00000000000E+00 -0.00000000000E+00 -0.84141260781E+02  0.84141260781E+02  0.00000000000E+00 0. -1.
         25    2    1    2    0    0 -0.17127045942E+02  0.73435888641E+02  0.13161329731E+03  0.19657772805E+03  0.12503830490E+03 0.  0.
          2    1    1    2  501    0  0.19868193224E+02 -0.49144132150E+02 -0.34752343045E+02  0.63384668287E+02  0.00000000000E+00 0. -1.
          1    1    1    2  502    0 -0.27411472821E+01 -0.24291756491E+02  0.55081160018E+02  0.60262239510E+02  0.00000000000E+00 0. -1.
         22    1    3    3    0    0  0.12447665900E+02 -0.23831282193E+02  0.76175040958E+02  0.80780636679E+02  0.00000000000E+00 0. -1.
         22    1    3    3    0    0 -0.29574711843E+02  0.97267170834E+02  0.55438256355E+02  0.11579709137E+03  0.00000000000E+00 0. -1.
</event>
<event>
 7    1  0.7802682E-006  0.2154578E+03  0.7818608E-02  0.1245212E+00
          2   -1    0    0  502    0  0.00000000000E+00  0.00000000000E+00  0.30280830117E+04  0.30280830117E+04  0.00000000000E+00 0. -1.
          1   -1    0    0  501    0 -0.00000000000E+00 -0.00000000000E+00 -0.19541731932E+03  0.19541731932E+03  0.00000000000E+00 0. -1.
         25    2    1    2    0    0  0.47574078009E+02  0.24992103728E+03  0.34003724009E+03  0.44268803530E+03  0.12499421658E+03 0.  0.
          2    1    1    2  501    0  0.36224996185E+02 -0.54479585424E+02 -0.13213722386E+03  0.14744667343E+03  0.00000000000E+00 0. -1.
          1    1    1    2  502    0 -0.83799074194E+02 -0.19544145186E+03  0.26247656762E+04  0.26333656223E+04  0.00000000000E+00 0. -1.
         22    1    3    3    0    0  0.82239096582E+01  0.16772326329E+03  0.12563212631E+03  0.20971923350E+03  0.00000000000E+00 0.  1.
         22    1    3    3    0    0  0.39350168350E+02  0.82197773993E+02  0.21440511378E+03  0.23296880180E+03  0.00000000000E+00 0.  1.
</event>
<event>
 7    1  0.7802682E-006  0.5411977E+02  0.7818608E-02  0.1466023E+00
          2   -1    0    0  502    0  0.00000000000E+00  0.00000000000E+00  0.72861771768E+02  0.72861771768E+02  0.00000000000E+00 0. -1.
          1   -1    0    0  501    0 -0.00000000000E+00 -0.00000000000E+00 -0.19922908691E+04  0.19922908691E+04  0.00000000000E+00 0. -1.
         25    2    1    2    0    0 -0.63753212793E+02  0.44654767375E+02 -0.48722743546E+03  0.50899237379E+03  0.12499656923E+03 0.  0.
          2    1    1    2  501    0  0.24155441354E+02 -0.47686758698E+02 -0.14872894208E+04  0.14882497550E+04  0.00000000000E+00 0. -1.
          1    1    1    2  502    0  0.39597771439E+02  0.30319913228E+01  0.55087758849E+02  0.67910512068E+02  0.00000000000E+00 0. -1.
         22    1    3    3    0    0 -0.14269360872E+02 -0.15193210459E+02 -0.62128551903E+01  0.21749663752E+02  0.00000000000E+00 0. -1.
         22    1    3    3    0    0 -0.49483851922E+02  0.59847977833E+02 -0.48101458027E+03  0.48724271004E+03  0.00000000000E+00 0. -1.
</event>
<event>
 7    1  0.7802682E-006  0.6926622E+02  0.7818608E-02  0.1517025E+00
          2   -1    0    0  502    0  0.00000000000E+00  0.00000000000E+00  0.64864675480E+03  0.64864675480E+03  0.00000000000E+00 0. -1.
          1   -1    0    0  501    0 -0.00000000000E+00 -0.00000000000E+00 -0.13991621263E+04  0.13991621263E+04  0.00000000000E+00 0. -1.
         25    2    1    2    0    0  0.58315350547E+02  0.46820579228E+02  0.13162663663E+03  0.19632541256E+03  0.12500099759E+03 0.  0.
          2    1    1    2  501    0 -0.39146489073E+02 -0.57128175753E+02 -0.13656905640E+04  0.13674453527E+04  0.00000000000E+00 0. -1.
          1    1    1    2  502    0 -0.19168861474E+02  0.10307596525E+02  0.48354855582E+03  0.48403811589E+03  0.00000000000E+00 0. -1.
         22    1    3    3    0    0 -0.38983526804E+02  0.12380220138E+02  0.25058640284E+02  0.47967912876E+02  0.00000000000E+00 0. -1.
         22    1    3    3    0    0  0.97298877351E+02  0.34440359090E+02  0.10656799634E+03  0.14835749968E+03  0.00000000000E+00 0. -1.
</event>
<event>
 7    1  0.7802682E-006  0.5100646E+02  0.7818608E-02  0.1462525E+00
          2   -1    0    0  502    0  0.00000000000E+00  0.00000000000E+00  0.10536777732E+04  0.10536777732E+04  0.00000000000E+00 0. -1.
          1   -1    0    0  501    0 -0.00000000000E+00 -0.00000000000E+00 -0.97369086998E+02  0.97369086998E+02  0.00000000000E+00 0. -1.
         25    2    1    2    0    0  0.32840129174E+02  0.85601090780E+01 -0.13757946318E+02  0.13024168036E+03  0.12498745803E+03 0.  0.
          2    1    1    2  501    0 -0.37556170964E+02  0.42227863868E+02  0.76384675972E+01  0.57026350502E+02  0.00000000000E+00 0. -1.
          1    1    1    2  502    0  0.47160417907E+01 -0.50787972946E+02  0.96242816495E+03  0.96377882937E+03  0.00000000000E+00 0. -1.
         22    1    3    3    0    0  0.21804913151E+02  0.57520386373E+02 -0.40227995631E+02  0.73500617130E+02  0.00000000000E+00 0.  1.
         22    1    3    3    0    0  0.11035216022E+02 -0.48960277295E+02  0.26470049313E+02  0.56741063227E+02  0.00000000000E+00 0.  1.
</event>
<event>
 7    1  0.7802682E-006  0.7014168E+02  0.7818608E-02  0.1411196E+00
          2   -1    0    0  502    0  0.00000000000E+00  0.00000000000E+00  0.97336472251E+03  0.97336472251E+03  0.00000000000E+00 0. -1.
          1   -1    0    0  501    0 -0.00000000000E+00 -0.00000000000E+00 -0.46745536847E+03  0.46745536847E+03  0.00000000000E+00 0. -1.
         25    2    1    2    0    0  0.16499132836E+02 -0.18142095563E+02 -0.10435837037E+03  0.16467398887E+03  0.12500198449E+03 0.  0.
          2    1    1    2  501    0  0.26407030694E+02 -0.37913089486E+02 -0.33000679798E+03  0.33322547973E+03  0.00000000000E+00 0. -1.
          1    1    1    2  502    0 -0.42906163531E+02  0.56055185049E+02  0.94027452240E+03  0.94292062238E+03  0.00000000000E+00 0. -1.
         22    1    3    3    0    0  0.36807916629E+02 -0.40918513450E+02  0.93719623037E+00  0.55045670187E+02  0.00000000000E+00 0.  1.
         22    1    3    3    0    0 -0.20308783792E+02  0.22776417887E+02 -0.10529556660E+03  0.10962831868E+03  0.00000000000E+00 0.  1.
</event>
<event>
 7    1  0.7802682E-006  0.1570763E+03  0.7818608E-02  0.1316927E+00
          2   -1    0    0  502    0  0.00000000000E+00  0.00000000000E+00  0.77970594273E+03  0.77970594273E+03  0.00000000000E+00 0. -1.
          1   -1    0    0  501    0 -0.00000000000E+00 -0.00000000000E+00 -0.85219338076E+03  0.85219338076E+03  0.00000000000E+00 0. -1.
         25    2    1    2    0    0  0.10327979189E+03  0.56168665208E+02 -0.29866787939E+03  0.34445468185E+03  0.12499956523E+03 0.  0.
          2    1    1    2  501    0  0.45332098562E+02 -0.21482465264E+01 -0.52137606438E+03  0.52334750848E+03  0.00000000000E+00 0. -1.
          1    1    1    2  502    0 -0.14861189045E+03 -0.54020418681E+02  0.74755650574E+03  0.76409713316E+03  0.00000000000E+00 0. -1.
         22    1    3    3    0    0  0.68356873807E+02  0.12259869271E+02 -0.27487894577E+03  0.28351613961E+03  0.00000000000E+00 0. -1.
         22    1    3    3    0    0  0.34922918083E+02  0.43908795937E+02 -0.23788933621E+02  0.60938542245E+02  0.00000000000E+00 0. -1.
</event>
<event>
 7    1  0.7802682E-006  0.1000769E+03  0.7818608E-02  0.1450858E+00
          2   -1    0    0  502    0  0.00000000000E+00  0.00000000000E+00  0.19341357722E+04  0.19341357722E+04  0.00000000000E+00 0. -1.
          1   -1    0    0  501    0 -0.00000000000E+00 -0.00000000000E+00 -0.23056578256E+03  0.23056578256E+03  0.00000000000E+00 0. -1.
         25    2    1    2    0    0  0.38977049768E+02  0.94579626707E+02  0.32397430810E+03  0.36200739873E+03  0.12500195289E+03 0.  0.
          2    1    1    2  501    0 -0.23587107562E+02  0.43412091133E+01 -0.20928903389E+03  0.21065872269E+03  0.00000000000E+00 0. -1.
          1    1    1    2  502    0 -0.15389942206E+02 -0.98920835821E+02  0.15888847155E+04  0.15920354334E+04  0.00000000000E+00 0. -1.
         22    1    3    3    0    0  0.33527685275E+02  0.19078843847E+02  0.26014910899E+03  0.26299366318E+03  0.00000000000E+00 0. -1.
         22    1    3    3    0    0  0.54493644924E+01  0.75500782860E+02  0.63825199112E+02  0.99013735550E+02  0.00000000000E+00 0. -1.
</event>
<event>
 7    1  0.7802682E-006  0.1223423E+03  0.7818608E-02  0.1372852E+00
          2   -1    0    0  502    0  0.00000000000E+00  0.00000000000E+00  0.37524421204E+02  0.37524421204E+02  0.00000000000E+00 0. -1.
          1   -1    0    0  501    0 -0.00000000000E+00 -0.00000000000E+00 -0.10562450437E+04  0.10562450437E+04  0.00000000000E+00 0. -1.
         25    2    1    2    0    0 -0.93999503364E+02 -0.39719748947E+02 -0.35118069426E+03  0.38647989715E+03  0.12500106317E+03 0.  0.
          2    1    1    2  501    0 -0.36015394330E+02  0.33119035786E+00 -0.44573744071E+03  0.44719021050E+03  0.00000000000E+00 0. -1.
          1    1    1    2  502    0  0.13001489769E+03  0.39388558590E+02 -0.22180248753E+03  0.26009935726E+03  0.00000000000E+00 0. -1.
         22    1    3    3    0    0 -0.10769732158E+03 -0.52566744451E+02 -0.34717595202E+03  0.36727798377E+03  0.00000000000E+00 0. -1.
         22    1    3    3    0    0  0.13697818213E+02  0.12846995504E+02 -0.40047422363E+01  0.19201913385E+02  0.00000000000E+00 0. -1.
</event>
<event>
 7    1  0.7802682E-006  0.7215351E+02  0.7818608E-02  0.1418920E+00
          2   -1    0    0  502    0  0.00000000000E+00  0.00000000000E+00  0.10063745768E+03  0.10063745768E+03  0.00000000000E+00 0. -1.
          1   -1    0    0  501    0 -0.00000000000E+00 -0.00000000000E+00 -0.35517237154E+04  0.35517237154E+04  0.00000000000E+00 0. -1.
         25    2    1    2    0    0 -0.13938161437E+02  0.11308206957E+03 -0.16314280828E+04  0.16401726914E+04  0.12500816519E+03 0.  0.
          2    1    1    2  501    0  0.20890412738E+01 -0.42254947903E+02 -0.19022629386E+04  0.19027333319E+04  0.00000000000E+00 0. -1.
          1    1    1    2  502    0  0.11849120163E+02 -0.70827121668E+02  0.82604763755E+02  0.10945514975E+03  0.00000000000E+00 0. -1.
         22    1    3    3    0    0  0.27355345033E+02  0.23264306218E+02 -0.10338238516E+04  0.10344473399E+04  0.00000000000E+00 0.  1.
         22    1    3    3    0    0 -0.41293506469E+02  0.89817763354E+02 -0.59760423119E+03  0.60572535148E+03  0.00000000000E+00 0.  1.
</event>
<event>
 7    1  0.7802682E-006  0.9083640E+02  0.7818608E-02  0.1352944E+00
          2   -1    0    0  502    0  0.00000000000E+00  0.00000000000E+00  0.22276817140E+03  0.22276817140E+03  0.00000000000E+00 0. -1.
          1   -1    0    0  501    0 -0.00000000000E+00 -0.00000000000E+00 -0.65707851799E+03  0.65707851799E+03  0.00000000000E+00 0. -1.
         25    2    1    2    0    0  0.62383809395E+02  0.61839182556E+02 -0.35376062827E+03  0.38532902028E+03  0.12496418521E+03 0.  0.
          2    1    1    2  501    0  0.28231725852E+02 -0.49863594817E+02 -0.27433622162E+03  0.28025661620E+03  0.00000000000E+00 0. -1.
          1    1    1    2  502    0 -0.90615535247E+02 -0.11975587739E+02  0.19378650330E+03  0.21426105290E+03  0.00000000000E+00 0. -1.
         22    1    3    3    0    0  0.26309705483E+02 -0.32295022155E+02 -0.17706286665E+03  0.18189675039E+03  0.00000000000E+00 0.  1.
         22    1    3    3    0    0  0.36074103912E+02  0.94134204712E+02 -0.17669776162E+03  0.20343226989E+03  0.00000000000E+00 0.  1.
</event>
<event>
 7    1  0.7802682E-006  0.1809539E+03  0.7818608E-02  0.1357084E+00
          2   -1    0    0  502    0  0.00000000000E+00  0.00000000000E+00  0.17871605456E+04  0.17871605456E+04  0.00000000000E+00 0. -1.
          1   -1    0    0  501    0 -0.00000000000E+00 -0.00000000000E+00 -0.14263926912E+03  0.14263926912E+03  0.00000000000E+00 0. -1.
         25    2    1    2    0    0  0.14586663537E+03  0.59444877655E+02  0.28759390679E+03  0.35092037994E+03  0.12499635611E+03 0.  0.
          2    1    1    2  501    0  0.25764611083E+02  0.10370894625E+02 -0.10328721098E+03  0.10695615266E+03  0.00000000000E+00 0. -1.
          1    1    1    2  502    0 -0.17163124646E+03 -0.69815772280E+02  0.14602145807E+04  0.14719232821E+04  0.00000000000E+00 0. -1.
         22    1    3    3    0    0  0.96220445951E+02  0.96148724253E+02  0.22553910560E+03  0.26338344585E+03  0.00000000000E+00 0.  1.
         22    1    3    3    0    0  0.49646189424E+02 -0.36703846598E+02  0.62054801194E+02  0.87536934094E+02  0.00000000000E+00 0.  1.
</event>
<event>
 7    1  0.7802682E-006  0.1047462E+03  0.7818608E-02  0.1298982E+00
          2   -1    0    0  502    0  0.00000000000E+00  0.00000000000E+00  0.11551874514E+04  0.11551874514E+04  0.00000000000E+00 0. -1.
          1   -1    0    0  501    0 -0.00000000000E+00 -0.00000000000E+00 -0.56150271936E+03  0.56150271936E+03  0.00000000000E+00 0. -1.
         25    2    1    2    0    0  0.35894172941E+02 -0.10087712013E+03  0.51221080084E+03  0.53800530111E+03  0.12500085804E+03 0.  0.
          2    1    1    2  501    0  0.44047479995E+02  0.95331073503E+02 -0.54098782570E+03  0.55108621978E+03  0.00000000000E+00 0. -1.
          1    1    1    2  502    0 -0.79941652936E+02  0.55460466224E+01  0.62246175691E+03  0.62759864987E+03  0.00000000000E+00 0. -1.
         22    1    3    3    0    0 -0.88280901670E+01 -0.11002379592E+03  0.27284267594E+03  0.29432345584E+03  0.00000000000E+00 0. -1.
         22    1    3    3    0    0  0.44722263108E+02  0.91466757947E+01  0.23936812490E+03  0.24368184526E+03  0.00000000000E+00 0. -1.
</event>
<event>
 7    1  0.7802682E-006  0.1086546E+03  0.7818608E-02  0.1362522E+00
          2   -1    0    0  502    0  0.00000000000E+00  0.00000000000E+00  0.10143224177E+04  0.10143224177E+04  0.00000000000E+00 0. -1.
          1   -1    0    0  501    0 -0.00000000000E+00 -0.00000000000E+00 -0.27963765340E+04  0.27963765340E+04  0.00000000000E+00 0. -1.
         25    2    1    2    0    0 -0.46922437726E+02  0.72907929670E+02 -0.10286302204E+03  0.18363737766E+03  0.12499841519E+03 0.  0.
          2    1    1    2  501    0  0.89861862691E+02 -0.62479168548E+02 -0.26514955930E+04  0.26537535079E+04  0.00000000000E+00 0. -1.
          1    1    1    2  502    0 -0.42939424965E+02 -0.10428761122E+02  0.97230449878E+03  0.97330806614E+03  0.00000000000E+00 0. -1.
         22    1    3    3    0    0 -0.44172365961E+02  0.10163407252E+03 -0.46227189584E+02  0.12007345947E+03  0.00000000000E+00 0.  1.
         22    1    3    3    0    0 -0.27500717653E+01 -0.28726142852E+02 -0.56635832454E+02  0.63563918189E+02  0.00000000000E+00 0.  1.
</event>
<event>
 7    1  0.7802682E-006  0.5615830E+02  0.7818608E-02  0.1481182E+00
          2   -1    0    0  502    0  0.00000000000E+00  0.00000000000E+00  0.29623563432E+03  0.29623563432E+03  0.00000000000E+00 0. -1.
          1   -1    0    0  501    0 -0.00000000000E+00 -0.00000000000E+00 -0.10846545916E+03  0.10846545916E+03  0.00000000000E+00 0. -1.
         25    2    1    2    0    0  0.23610368936E+02 -0.45600146851E+02 -0.12492924417E+02  0.13571172056E+03  0.12499910008E+03 0.  0.
          2    1    1    2  501    0  0.27473266604E+02  0.20623485844E+02 -0.21183320811E+02  0.40358910130E+02  0.00000000000E+00 0. -1.
          1    1    1    2  502    0 -0.51083635540E+02  0.24976661007E+02  0.22144642039E+03  0.22863046279E+03  0.00000000000E+00 0. -1.
         22    1    3    3    0    0 -0.38096653466E+02  0.98894710139E+01 -0.31692211907E+02  0.50532691772E+02  0.00000000000E+00 0. -1.
         22    1    3    3    0    0  0.61707022401E+02 -0.55489617865E+02  0.19199287489E+02  0.85179028784E+02  0.00000000000E+00 0. -1.
</event>
<event>
 7    1  0.7802682E-006  0.8607395E+02  0.7818608E-02  0.1431876E+00
          2   -1    0    0  502    0  0.00000000000E+00  0.00000000000E+00  0.58787484017E+03  0.58787484017E+03  0.00000000000E+00 0. -1.
          1   -1    0    0  501    0 -0.00000000000E+00 -0.00000000000E+00 -0.56634341397E+03  0.56634341397E+03  0.00000000000E+00 0. -1.
         25    2    1    2    0    0 -0.59772373499E+02  0.18750674841E+02 -0.19237524740E+03  0.23781623350E+03  0.12499600258E+03 0.  0.
          2    1    1    2  501    0  0.82971866451E+02 -0.40973755250E+02 -0.34468329212E+03  0.35688898990E+03  0.00000000000E+00 0. -1.
          1    1    1    2  502    0 -0.23199492953E+02  0.22223080410E+02  0.55858996572E+03  0.55951303075E+03  0.00000000000E+00 0. -1.
         22    1    3    3    0    0 -0.28758500659E+02  0.60038606101E+02 -0.41736388021E+02  0.78572333985E+02  0.00000000000E+00 0.  1.
         22    1    3    3    0    0 -0.31013872839E+02 -0.41287931260E+02 -0.15063885938E+03  0.15924389951E+03  0.00000000000E+00 0.  1.
</event>
<event>
 7    1  0.7802682E-006  0.1267953E+03  0.7818608E-02  0.1318052E+00
          2   -1    0    0  502    0  0.00000000000E+00  0.00000000000E+00  0.17435004806E+04  0.17435004806E+04  0.00000000000E+00 0. -1.
          1   -1    0    0  501    0 -0.00000000000E+00 -0.00000000000E+00 -0.56835837776E+03  0.56835837776E+03  0.00000000000E+00 0. -1.
         25    2    1    2    0    0 -0.11133934323E+03 -0.21882975948E+02  0.85333905352E+03  0.86987718393E+03  0.12499384335E+03 0.  0.
          2    1    1    2  501    0 -0.25379866214E+02  0.49533244075E+02 -0.55316851406E+03  0.55596140587E+03  0.00000000000E+00 0. -1.
          1    1    1    2  502    0  0.13671920944E+03 -0.27650268128E+02  0.87497156340E+03  0.88602026857E+03  0.00000000000E+00 0. -1.
         22    1    3    3    0    0  0.22540875578E+02 -0.18717491108E+02  0.83839864717E+02  0.88811927470E+02  0.00000000000E+00 0. -1.
         22    1    3    3    0    0 -0.13388021880E+03 -0.31654848400E+01  0.76949918880E+03  0.78106525646E+03  0.00000000000E+00 0. -1.
</event>
<event>
 7    1  0.7802682E-006  0.5142047E+02  0.7818608E-02  0.1550203E+00
          2   -1    0    0  502    0  0.00000000000E+00  0.00000000000E+00  0.11328084493E+03  0.11328084493E+03  0.00000000000E+00 0. -1.
          1   -1    0    0  501    0 -0.00000000000E+00 -0.00000000000E+00 -0.16666674999E+04  0.16666674999E+04  0.00000000000E+00 0. -1.
         25    2    1    2    0    0  0.11320387872E+02 -0.26346304229E+02 -0.15120357390E+02  0.12909426090E+03  0.12495768909E+03 0.  0.
          2    1    1    2  501    0 -0.13319141233E+02  0.49840481777E+02 -0.15916547402E+04  0.15924905919E+04  0.00000000000E+00 0. -1.
          1    1    1    2  502    0  0.19987533608E+01 -0.23494177548E+02  0.53388442649E+02  0.58363492032E+02  0.00000000000E+00 0. -1.
         22    1    3    3    0    0 -0.34975942533E+02  0.28131876482E+02 -0.32624940038E+02  0.55489690420E+02  0.00000000000E+00 0.  1.
         22    1    3    3    0    0  0.46296330405E+02 -0.54478180711E+02  0.17504582647E+02  0.73604570485E+02  0.00000000000E+00 0.  1.
</event>
<event>
 7    1  0.7802682E-006  0.2908933E+03  0.7818608E-02  0.1211783E+00
          2   -1    0    0  502    0  0.00000000000E+00  0.00000000000E+00  0.10579957989E+04  0.10579957989E+04  0.00000000000E+00 0. -1.
          1   -1    0    0  501    0 -0.00000000000E+00 -0.00000000000E+00 -0.11909608433E+04  0.11909608433E+04  0.00000000000E+00 0. -1.
         25    2    1    2    0    0  0.29509308373E+03  0.19120172546E+03 -0.26403596845E+02  0.37411329736E+03  0.12500232577E+03 0.  0.
          2    1    1    2  501    0 -0.24274570136E+03 -0.14702818746E+03 -0.96899199859E+03  0.10096971114E+04  0.00000000000E+00 0. -1.
          1    1    1    2  502    0 -0.52347382372E+02 -0.44173538005E+02  0.86243055099E+03  0.86514623341E+03  0.00000000000E+00 0. -1.
         22    1    3    3    0    0  0.12883560929E+03  0.39644455791E+02 -0.58355141261E+02  0.14688641737E+03  0.00000000000E+00 0.  1.
         22    1    3    3    0    0  0.16625747443E+03  0.15155726967E+03  0.31951544416E+02  0.22722687998E+03  0.00000000000E+00 0.  1.
</event>
<event>
 7    1  0.7802682E-006  0.1291507E+03  0.7818608E-02  0.1239255E+00
          2   -1    0    0  502    0  0.00000000000E+00  0.00000000000E+00  0.19570643804E+04  0.19570643804E+04  0.00000000000E+00 0. -1.
          1   -1    0    0  501    0 -0.00000000000E+00 -0.00000000000E+00 -0.14225382150E+04  0.14225382150E+04  0.00000000000E+00 0. -1.
         25    2    1    2    0    0  0.23879494740E+02 -0.39430379489E+02  0.54906242038E+03  0.56499413767E+03  0.12499539602E+03 0.  0.
          2    1    1    2  501    0  0.67471172635E+02  0.11080108952E+03 -0.14091882008E+04  0.14151468567E+04  0.00000000000E+00 0. -1.
          1    1    1    2  502    0 -0.91350667375E+02 -0.71370710032E+02  0.13946519459E+04  0.13994616011E+04  0.00000000000E+00 0. -1.
         22    1    3    3    0    0  0.22932773805E+02  0.40733379928E+02  0.12575397094E+03  0.13416102848E+03  0.00000000000E+00 0. -1.
         22    1    3    3    0    0  0.94672093445E+00 -0.80163759417E+02  0.42330844944E+03  0.43083310919E+03  0.00000000000E+00 0. -1.
</event>
<event>
 7    1  0.7802682E-006  0.2383284E+02  0.7818608E-02  0.1682125E+00
          2   -1    0    0  502    0  0.00000000000E+00  0.00000000000E+00  0.32998175324E+03  0.32998175324E+03  0.00000000000E+00 0. -1.
          1   -1    0    0  501    0 -0.00000000000E+00 -0.00000000000E+00 -0.25489319978E+04  0.25489319978E+04  0.00000000000E+00 0. -1.
         25    2    1    2    0    0 -0.57633377604E+00 -0.52760331601E+00 -0.12314128797E+04  0.12377419395E+04  0.12500727137E+03 0.  0.
          2    1    1    2  501    0 -0.71214517299E+01  0.23083057018E+02 -0.13138089127E+04  0.13140309744E+04  0.00000000000E+00 0. -1.
          1    1    1    2  502    0  0.76977855059E+01 -0.22555453702E+02  0.32627154786E+03  0.32714083716E+03  0.00000000000E+00 0. -1.
         22    1    3    3    0    0 -0.23669899887E+01 -0.61115551777E+02 -0.47847574764E+03  0.48236889865E+03  0.00000000000E+00 0. -1.
         22    1    3    3    0    0  0.17906562126E+01  0.60587948461E+02 -0.75293713209E+03  0.75537304084E+03  0.00000000000E+00 0. -1.
</event>
<event>
 7    1  0.1056323E-005  0.7258561E+02  0.7818608E-02  0.1351645E+00
          2   -1    0    0  502    0  0.00000000000E+00  0.00000000000E+00  0.19856914663E+04  0.19856914663E+04  0.00000000000E+00 0. -1.
          1   -1    0    0  501    0 -0.00000000000E+00 -0.00000000000E+00 -0.28121327119E+04  0.28121327119E+04  0.00000000000E+00 0. -1.
         25    2    1    2    0    0  0.43998427980E+01  0.91028223938E+02 -0.21571838321E+03  0.26545132290E+03  0.12499795121E+03 0.  0.
          2    1    1    2  501    0  0.54361410989E+02 -0.48553170414E+02 -0.25703608158E+04  0.25713940376E+04  0.00000000000E+00 0. -1.
          1    1    1    2  502    0 -0.58761253787E+02 -0.42475053524E+02  0.19596379534E+04  0.19609788177E+04  0.00000000000E+00 0. -1.
         22    1    3    3    0    0  0.54084721272E+02  0.69773882114E+02 -0.79103657514E+02  0.11853666240E+03  0.00000000000E+00 0.  1.
         22    1    3    3    0    0 -0.49684878474E+02  0.21254341825E+02 -0.13661472569E+03  0.14691466051E+03  0.00000000000E+00 0.  1.
</event>
<event>
 7    1  0.7802682E-006  0.4863820E+02  0.7818608E-02  0.1481059E+00
          2   -1    0    0  502    0  0.00000000000E+00  0.00000000000E+00  0.18708996131E+04  0.18708996131E+04  0.00000000000E+00 0. -1.
          1   -1    0    0  501    0 -0.00000000000E+00 -0.00000000000E+00 -0.13989177652E+03  0.13989177652E+03  0.00000000000E+00 0. -1.
         25    2    1    2    0    0 -0.86769629937E+02  0.14922726022E+02  0.60532896630E+03  0.62433925317E+03  0.12499875666E+03 0.  0.
          2    1    1    2  501    0  0.47566958299E+02 -0.86678517991E+01 -0.12557864964E+03  0.13456501931E+03  0.00000000000E+00 0. -1.
          1    1    1    2  502    0  0.39202671638E+02 -0.62548742227E+01  0.12512575199E+04  0.12518871171E+04  0.00000000000E+00 0. -1.
         22    1    3    3    0    0 -0.11400612314E+03  0.15768452929E+01  0.37294885264E+03  0.38998811423E+03  0.00000000000E+00 0.  1.
         22    1    3    3    0    0  0.27236493207E+02  0.13345880729E+02  0.23238011366E+03  0.23435113893E+03  0.00000000000E+00 0.  1.
</event>
<event>
 7    1  0.7802682E-006  0.1050917E+03  0.7818608E-02  0.1398133E+00
          2   -1    0    0  502    0  0.00000000000E+00  0.00000000000E+00  0.14229038620E+04  0.14229038620E+04  0.00000000000E+00 0. -1.
          1   -1    0    0  501    0 -0.00000000000E+00 -0.00000000000E+00 -0.10552121945E+03  0.10552121945E+03  0.00000000000E+00 0. -1.
         25    2    1    2    0    0  0.99017482840E+02 -0.49776666017E+02  0.65934349244E+03  0.68017738285E+03  0.12500101091E+03 0.  0.
          2    1    1    2  501    0 -0.10385001806E+03  0.15946219033E+02 -0.65559009202E+02  0.12384301288E+03  0.00000000000E+00 0. -1.
          1    1    1    2  502    0  0.48325352155E+01  0.33830446984E+02  0.72359815933E+03  0.72440468575E+03  0.00000000000E+00 0. -1.
         22    1    3    3    0    0  0.59111557471E+02  0.17302070735E+02  0.11676482173E+03  0.13201348973E+03  0.00000000000E+00 0.  1.
         22    1    3    3    0    0  0.39905925369E+02 -0.67078736752E+02  0.54257867072E+03  0.54816389312E+03  0.00000000000E+00 0.  1.
</event>
<event>
 7    1  0.7802682E-006  0.7570271E+02  0.7818608E-02  0.1456579E+00
          2   -1    0    0  502    0  0.00000000000E+00  0.00000000000E+00  0.57174664237E+03  0.57174664237E+03  0.00000000000E+00 0. -1.
          1   -1    0    0  501    0 -0.00000000000E+00 -0.00000000000E+00 -0.22180972275E+03  0.22180972275E+03  0.00000000000E+00 0. -1.
         25    2    1    2    0    0  0.69673925584E+01 -0.52207360562E+02  0.16660396503E+03  0.21483898383E+03  0.12499901902E+03 0.  0.
          2    1    1    2  501    0  0.19805263880E+02 -0.23067653416E+02 -0.19229660723E+03  0.19468525949E+03  0.00000000000E+00 0. -1.
          1    1    1    2  502    0 -0.26772656438E+02  0.75275013978E+02  0.37562956182E+03  0.38403212180E+03  0.00000000000E+00 0. -1.
         22    1    3    3    0    0 -0.81037745435E+01 -0.92070562806E+02  0.12313574730E+03  0.15396451526E+03  0.00000000000E+00 0. -1.
         22    1    3    3    0    0  0.15071167102E+02  0.39863202245E+02  0.43468217729E+02  0.60874468569E+02  0.00000000000E+00 0. -1.
</event>
<event>
 7    1  0.7802682E-006  0.1241574E+03  0.7818608E-02  0.1390231E+00
          2   -1    0    0  502    0  0.00000000000E+00  0.00000000000E+00  0.45538405494E+03  0.45538405494E+03  0.00000000000E+00 0. -1.
          1   -1    0    0  501    0 -0.00000000000E+00 -0.00000000000E+00 -0.12833968536E+04  0.12833968536E+04  0.00000000000E+00 0. -1.
         25    2    1    2    0    0 -0.90540581572E+02 -0.38342091838E+02 -0.75143647707E+03  0.76808165680E+03  0.12499975811E+03 0.  0.
          2    1    1    2  501    0 -0.29960864982E+02  0.71849735578E+01 -0.51450511979E+03  0.51542680912E+03  0.00000000000E+00 0. -1.
          1    1    1    2  502    0  0.12050144655E+03  0.31157118280E+02  0.43792879824E+03  0.45527244258E+03  0.00000000000E+00 0. -1.
         22    1    3    3    0    0 -0.56013766283E+02 -0.65881471106E+02 -0.24670494241E+03  0.26142157305E+03  0.00000000000E+00 0.  1.
         22    1    3    3    0    0 -0.34526815290E+02  0.27539379268E+02 -0.50473153466E+03  0.50666008375E+03  0.00000000000E+00 0.  1.
</event>
<event>
 7    1  0.7802682E-006  0.2830463E+02  0.7818608E-02  0.1620244E+00
          2   -1    0    0  502    0  0.00000000000E+00  0.00000000000E+00  0.12690128622E+03  0.12690128622E+03  0.00000000000E+00 0. -1.
          1   -1    0    0  501    0 -0.00000000000E+00 -0.00000000000E+00 -0.31019979077E+03  0.31019979077E+03  0.00000000000E+00 0. -1.
         25    2    1    2    0    0  0.13165054108E+01 -0.35987050989E+01 -0.13068065472E+03  0.18087788341E+03  0.12499876530E+03 0.  0.
          2    1    1    2  501    0 -0.24572299414E+02 -0.13155133262E+02 -0.15110294626E+03  0.15365206083E+03  0.00000000000E+00 0. -1.
          1    1    1    2  502    0  0.23255794004E+02  0.16753838361E+02  0.98485096422E+02  0.10257113274E+03  0.00000000000E+00 0. -1.
         22    1    3    3    0    0 -0.13432719700E+02  0.54519079261E+02 -0.97070393877E+02  0.11214022173E+03  0.00000000000E+00 0.  1.
         22    1    3    3    0    0  0.14749225111E+02 -0.58117784360E+02 -0.33610260838E+02  0.68737661685E+02  0.00000000000E+00 0.  1.
</event>
<event>
 7    1  0.7802682E-006  0.5081570E+02  0.7818608E-02  0.1486066E+00
          2   -1    0    0  502    0  0.00000000000E+00  0.00000000000E+00  0.26171315302E+04  0.26171315302E+04  0.00000000000E+00 0. -1.
          1   -1    0    0  501    0 -0.00000000000E+00 -0.00000000000E+00 -0.13529910705E+02  0.13529910705E+02  0.00000000000E+00 0. -1.
         25    2    1    2    0    0  0.48238461489E+02  0.96881805191E+01  0.49070407983E+03  0.50875979348E+03  0.12500089396E+03 0.  0.
          2    1    1    2  501    0 -0.18136864432E+02  0.31886377660E+02  0.76330016113E+02  0.84687415190E+02  0.00000000000E+00 0. -1.
          1    1    1    2  502    0 -0.30101597057E+02 -0.41574558179E+02  0.20365675235E+04  0.20372142322E+04  0.00000000000E+00 0. -1.
         22    1    3    3    0    0  0.45331403543E+02  0.86763651007E+01  0.50002724105E+02  0.68047688252E+02  0.00000000000E+00 0.  1.
         22    1    3    3    0    0  0.29070579468E+01  0.10118154183E+01  0.44070135572E+03  0.44071210522E+03  0.00000000000E+00 0.  1.
</event>
<event>
 7    1  0.7802682E-006  0.3978600E+02  0.7818608E-02  0.1591723E+00
          2   -1    0    0  502    0  0.00000000000E+00  0.00000000000E+00  0.13320667017E+04  0.13320667017E+04  0.00000000000E+00 0. -1.
          1   -1    0    0  501    0 -0.00000000000E+00 -0.00000000000E+00 -0.44391317544E+03  0.44391317544E+03  0.00000000000E+00 0. -1.
         25    2    1    2    0    0 -0.34996259459E+02 -0.51326931484E+02  0.75982339207E+03  0.77253879953E+03  0.12500167027E+03 0.  0.
          2    1    1    2  501    0  0.26944148749E+02  0.29238761628E+02 -0.43640713814E+03  0.43821465351E+03  0.00000000000E+00 0. -1.
          1    1    1    2  502    0  0.80521107100E+01  0.22088169857E+02  0.56473727234E+03  0.56522642410E+03  0.00000000000E+00 0. -1.
         22    1    3    3    0    0 -0.11560946589E+02 -0.82566894922E+02  0.66166385265E+03  0.66689579511E+03  0.00000000000E+00 0.  1.
         22    1    3    3    0    0 -0.23435312870E+02  0.31239963438E+02  0.98159539419E+02  0.10564300442E+03  0.00000000000E+00 0.  1.
</event>
<event>
 7    1  0.7802682E-006  0.1334727E+03  0.7818608E-02  0.1266824E+00
          2   -1    0    0  502    0  0.00000000000E+00  0.00000000000E+00  0.21757211296E+04  0.21757211296E+04  0.00000000000E+00 0. -1.
          1   -1    0    0  501    0 -0.00000000000E+00 -0.00000000000E+00 -0.36993525197E+03  0.36993525197E+03  0.00000000000E+00 0. -1.
         25    2    1    2    0    0  0.58389173527E+02 -0.12845345298E+03  0.26195410920E+03  0.32272887019E+03  0.12499753261E+03 0.  0.
          2    1    1    2  501    0 -0.11679039971E+03  0.66305721265E+02 -0.32525768354E+03  0.35189345950E+03  0.00000000000E+00 0. -1.
          1    1    1    2  502    0  0.58401226179E+02  0.62147731719E+02  0.18690894520E+04  0.18710340519E+04  0.00000000000E+00 0. -1.
         22    1    3    3    0    0  0.88243006571E+02 -0.43383221245E+02  0.13884168832E+03  0.17013508312E+03  0.00000000000E+00 0. -1.
         22    1    3    3    0    0 -0.29853833044E+02 -0.85070231739E+02  0.12311242089E+03  0.15259378707E+03  0.00000000000E+00 0. -1.
</event>
<event>
 7    1  0.7802682E-006  0.1358571E+03  0.7818608E-02  0.1324806E+00
          2   -1    0    0  502    0  0.00000000000E+00  0.00000000000E+00  0.60381239745E+03  0.60381239745E+03  0.00000000000E+00 0. -1.
          1   -1    0    0  501    0 -0.00000000000E+00 -0.00000000000E+00 -0.67330995847E+03  0.67330995847E+03  0.00000000000E+00 0. -1.
         25    2    1    2    0    0  0.26005727947E+02  0.92930364684E+02 -0.12832564529E+03  0.20348016121E+03  0.12499741677E+03 0.  0.
          2    1    1    2  501    0  0.39900174620E+02  0.28286065997E+02 -0.49778564752E+03  0.50018264298E+03  0.00000000000E+00 0. -1.
          1    1    1    2  502    0 -0.65905902567E+02 -0.12121643068E+03  0.55661373179E+03  0.57345955173E+03  0.00000000000E+00 0. -1.
         22    1    3    3    0    0 -0.42262270844E+02  0.75798232526E+02 -0.80610207486E+02  0.11844609382E+03  0.00000000000E+00 0. -1.
         22    1    3    3    0    0  0.68267998791E+02  0.17132132158E+02 -0.47715437806E+02  0.85034067386E+02  0.00000000000E+00 0. -1.
</event>
<event>
 7    1  0.7802682E-006  0.2083545E+03  0.7818608E-02  0.1355754E+00
          2   -1    0    0  502    0  0.00000000000E+00  0.00000000000E+00  0.16440023581E+04  0.16440023581E+04  0.00000000000E+00 0. -1.
          1   -1    0    0  501    0 -0.00000000000E+00 -0.00000000000E+00 -0.54506182091E+03  0.54506182091E+03  0.00000000000E+00 0. -1.
         25    2    1    2    0    0 -0.45267018265E+02  0.19741259674E+03  0.61449973394E+03  0.65897460564E+03  0.12496708196E+03 0.  0.
          2    1    1    2  501    0  0.22974961824E+02 -0.20731792817E+03 -0.50186299431E+03  0.54348416469E+03  0.00000000000E+00 0. -1.
          1    1    1    2  502    0  0.22292056441E+02  0.99053314312E+01  0.98630379756E+03  0.98660540869E+03  0.00000000000E+00 0. -1.
         22    1    3    3    0    0 -0.69886518759E+02  0.18644484752E+03  0.58947972798E+03  0.62219945064E+03  0.00000000000E+00 0. -1.
         22    1    3    3    0    0  0.24619500494E+02  0.10967749217E+02  0.25020005959E+02  0.36775155006E+02  0.00000000000E+00 0. -1.
</event>
<event>
 7    1  0.7802682E-006  0.1433848E+03  0.7818608E-02  0.1298330E+00
          2   -1    0    0  502    0  0.00000000000E+00  0.00000000000E+00  0.76298357072E+02  0.76298357072E+02  0.00000000000E+00 0. -1.
          1   -1    0    0  501    0 -0.00000000000E+00 -0.00000000000E+00 -0.13133338087E+04  0.13133338087E+04  0.00000000000E+00 0. -1.
         25    2    1    2    0    0 -0.94902602259E+01 -0.90517329946E+02 -0.67558280456E+03  0.69305181938E+03  0.12500098586E+03 0.  0.
          2    1    1    2  501    0 -0.51542266924E+01 -0.58667643065E+02 -0.54226677979E+03  0.54545551501E+03  0.00000000000E+00 0. -1.
          1    1    1    2  502    0  0.14644486918E+02  0.14918497301E+03 -0.19185867327E+02  0.15112483143E+03  0.00000000000E+00 0. -1.
         22    1    3    3    0    0 -0.19686330771E+01 -0.87272471831E+02 -0.67869714742E+03  0.68428808099E+03  0.00000000000E+00 0. -1.
         22    1    3    3    0    0 -0.75216271488E+01 -0.32448581142E+01  0.31143428640E+01  0.87637383930E+01  0.00000000000E+00 0. -1.
</event>
<event>
 7    1  0.7802682E-006  0.1327216E+03  0.7818608E-02  0.1350109E+00
          2   -1    0    0  502    0  0.00000000000E+00  0.00000000000E+00  0.44781236576E+03  0.44781236576E+03  0.00000000000E+00 0. -1.
          1   -1    0    0  501    0 -0.00000000000E+00 -0.00000000000E+00 -0.13136457001E+04  0.13136457001E+04  0.00000000000E+00 0. -1.
         25    2    1    2    0    0 -0.43086018778E+02 -0.11120616806E+03 -0.75107898878E+03  0.77068719551E+03  0.12496355118E+03 0.  0.
          2    1    1    2  501    0  0.23026042331E+02  0.14601546653E+03 -0.54192065363E+03  0.56171942277E+03  0.00000000000E+00 0. -1.
          1    1    1    2  502    0  0.20059976446E+02 -0.34809298477E+02  0.42716630807E+03  0.42905144757E+03  0.00000000000E+00 0. -1.
         22    1    3    3    0    0 -0.52556785207E+02  0.59183546263E+01 -0.29564085889E+03  0.30033441368E+03  0.00000000000E+00 0. -1.
         22    1    3    3    0    0  0.94707664294E+01 -0.11712452268E+03 -0.45543812988E+03  0.47035278184E+03  0.00000000000E+00 0. -1.
</event>
<event>
 7    1  0.7802682E-006  0.2635427E+03  0.7818608E-02  0.1216361E+00
          2   -1    0    0  502    0  0.00000000000E+00  0.00000000000E+00  0.29704135229E+04  0.29704135229E+04  0.00000000000E+00 0. -1.
          1   -1    0    0  501    0 -0.00000000000E+00 -0.00000000000E+00 -0.13191220298E+04  0.13191220298E+04  0.00000000000E+00 0. -1.
         25    2    1    2    0    0  0.13125672331E+03 -0.18469942293E+03  0.20066242157E+04  0.20232420004E+04  0.12500097850E+03 0.  0.
          2    1    1    2  501    0 -0.94188003088E+02  0.24644838579E+03 -0.12961470987E+04  0.13227265357E+04  0.00000000000E+00 0. -1.
          1    1    1    2  502    0 -0.37068720226E+02 -0.61748962862E+02  0.94081437619E+03  0.94356701664E+03  0.00000000000E+00 0. -1.
         22    1    3    3    0    0  0.51770209086E+02 -0.13766007287E+03  0.82446602632E+03  0.83748115129E+03  0.00000000000E+00 0. -1.
         22    1    3    3    0    0  0.79486514228E+02 -0.47039350056E+02  0.11821581894E+04  0.11857608491E+04  0.00000000000E+00 0. -1.
</event>
<event>
 7    1  0.7802682E-006  0.1204992E+03  0.7818608E-02  0.1429997E+00
          2   -1    0    0  502    0  0.00000000000E+00  0.00000000000E+00  0.27698074185E+04  0.27698074185E+04  0.00000000000E+00 0. -1.
          1   -1    0    0  501    0 -0.00000000000E+00 -0.00000000000E+00 -0.19279497076E+02  0.19279497076E+02  0.00000000000E+00 0. -1.
         25    2    1    2    0    0 -0.50322078760E+02 -0.93443599009E+02  0.13647573072E+04  0.13745729786E+04  0.12499739246E+03 0.  0.
          2    1    1    2  501    0 -0.90384008722E+01 -0.21450294499E+02  0.56391874823E+00  0.23283595701E+02  0.00000000000E+00 0. -1.
          1    1    1    2  502    0  0.59360479632E+02  0.11489389351E+03  0.13852066954E+04  0.13912303412E+04  0.00000000000E+00 0. -1.
         22    1    3    3    0    0  0.14486721321E+02 -0.68753203340E+01  0.20758830952E+02  0.26230977619E+02  0.00000000000E+00 0.  1.
         22    1    3    3    0    0 -0.64808800080E+02 -0.86568278675E+02  0.13439984763E+04  0.13483420010E+04  0.00000000000E+00 0.  1.
</event>
<event>
 7    1  0.7802682E-006  0.4732120E+02  0.7818608E-02  0.1477198E+00
          2   -1    0    0  502    0  0.00000000000E+00  0.00000000000E+00  0.64809731594E+03  0.64809731594E+03  0.00000000000E+00 0. -1.
          1   -1    0    0  501    0 -0.00000000000E+00 -0.00000000000E+00 -0.27302359230E+03  0.27302359230E+03  0.00000000000E+00 0. -1.
         25    2    1    2    0    0 -0.36214999854E+02  0.44496551144E+02  0.35820198582E+03  0.38369777712E+03  0.12499540889E+03 0.  0.
          2    1    1    2  501    0 -0.11709655208E+02 -0.40264902211E+02 -0.25647213903E+03  0.25987754130E+03  0.00000000000E+00 0. -1.
          1    1    1    2  502    0  0.47924655062E+02 -0.42316489333E+01  0.27334387685E+03  0.27754558981E+03  0.00000000000E+00 0. -1.
         22    1    3    3    0    0 -0.33470987994E+02  0.58256806051E+02  0.77187205375E+02  0.10233292316E+03  0.00000000000E+00 0.  1.
         22    1    3    3    0    0 -0.27440118598E+01 -0.13760254906E+02  0.28101478045E+03  0.28136485396E+03  0.00000000000E+00 0.  1.
</event>
<event>
 7    1  0.7802682E-006  0.2717840E+03  0.7818608E-02  0.1291311E+00
          2   -1    0    0  502    0  0.00000000000E+00  0.00000000000E+00  0.50506278881E+03  0.50506278881E+03  0.00000000000E+00 0. -1.
          1   -1    0    0  501    0 -0.00000000000E+00 -0.00000000000E+00 -0.26768289671E+03  0.26768289671E+03  0.00000000000E+00 0. -1.
         25    2    1    2    0    0  0.15331776532E+03 -0.19801622026E+03  0.57162010543E+02  0.28566115787E+03  0.12497216098E+03 0.  0.
          2    1    1    2  501    0  0.24650281265E+02 -0.22186904893E+02 -0.89868966690E+02  0.95793143226E+02  0.00000000000E+00 0. -1.
          1    1    1    2  502    0 -0.17796804658E+03  0.22020312515E+03  0.27008684825E+03  0.39129138443E+03  0.00000000000E+00 0. -1.
         22    1    3    3    0    0  0.91757422630E+02 -0.19310249056E+03  0.64886185038E+02  0.22342384268E+03  0.00000000000E+00 0.  1.
         22    1    3    3    0    0  0.61560342685E+02 -0.49137296987E+01 -0.77241744947E+01  0.62237315195E+02  0.00000000000E+00 0.  1.
</event>
<event>
 7    1  0.8168893E-006  0.1346333E+03  0.7818608E-02  0.1302661E+00
          2   -1    0    0  502    0  0.00000000000E+00  0.00000000000E+00  0.16251311230E+04  0.16251311230E+04  0.00000000000E+00 0. -1.
          1   -1    0    0  501    0 -0.00000000000E+00 -0.00000000000E+00 -0.13221806655E+04  0.13221806655E+04  0.00000000000E+00 0. -1.
         25    2    1    2    0    0 -0.15793702232E+03 -0.49725753429E+02 -0.90187568618E+03  0.92543062186E+03  0.12500131591E+03 0.  0.
          2    1    1    2  501    0  0.23492471613E+02  0.55501566101E+02 -0.40347934137E+03  0.40795575615E+03  0.00000000000E+00 0. -1.
          1    1    1    2  502    0  0.13444455071E+03 -0.57758126726E+01  0.16083054851E+04  0.16139254105E+04  0.00000000000E+00 0. -1.
         22    1    3    3    0    0 -0.13159344747E+03 -0.59358446488E+02 -0.87415300466E+03  0.88599307906E+03  0.00000000000E+00 0.  1.
         22    1    3    3    0    0 -0.26343574851E+02  0.96326930590E+01 -0.27722681522E+02  0.39437542802E+02  0.00000000000E+00 0.  1.
</event>
<event>
 7    1  0.7802682E-006  0.4282128E+02  0.7818608E-02  0.1601727E+00
          2   -1    0    0  502    0  0.00000000000E+00  0.00000000000E+00  0.15356550232E+03  0.15356550232E+03  0.00000000000E+00 0. -1.
          1   -1    0    0  501    0 -0.00000000000E+00 -0.00000000000E+00 -0.12128157788E+03  0.12128157788E+03  0.00000000000E+00 0. -1.
         25    2    1    2    0    0  0.22769592441E+02 -0.10102274342E+02  0.18502973523E+01  0.12746171420E+03  0.12499021841E+03 0.  0.
          2    1    1    2  501    0 -0.39938368587E+02  0.21418067900E+02 -0.48169591948E+02  0.66137103855E+02  0.00000000000E+00 0. -1.
          1    1    1    2  502    0  0.17168776146E+02 -0.11315793558E+02  0.78603219038E+02  0.81248262143E+02  0.00000000000E+00 0. -1.
         22    1    3    3    0    0  0.43164539753E+02 -0.18841652389E+01 -0.52993473413E+02  0.68374233415E+02  0.00000000000E+00 0.  1.
         22    1    3    3    0    0 -0.20394947312E+02 -0.82181091031E+01  0.54843770766E+02  0.59087480780E+02  0.00000000000E+00 0.  1.
</event>
<event>
 7    1  0.7802682E-006  0.9929037E+02  0.7818608E-02  0.1312791E+00
          2   -1    0    0  502    0  0.00000000000E+00  0.00000000000E+00  0.69279197471E+03  0.69279197471E+03  0.00000000000E+00 0. -1.
          1   -1    0    0  501    0 -0.00000000000E+00 -0.00000000000E+00 -0.75564932639E+02  0.75564932639E+02  0.00000000000E+00 0. -1.
         25    2    1    2    0    0 -0.81416453430E+02 -0.89065686857E+02  0.16497757608E+03  0.23959218019E+03  0.12500190692E+03 0.  0.
          2    1    1    2  501    0  0.96973892017E+02  0.16187549825E+02  0.34152620380E+02  0.10407869129E+03  0.00000000000E+00 0. -1.
          1    1    1    2  502    0 -0.15557438588E+02  0.72878137032E+02  0.41809684561E+03  0.42468603587E+03  0.00000000000E+00 0. -1.
         22    1    3    3    0    0 -0.91031795303E+02 -0.44539024916E+02  0.16546798903E+03  0.19403651174E+03  0.00000000000E+00 0. -1.
         22    1    3    3    0    0  0.96153418735E+01 -0.44526661941E+02 -0.49041294259E+00  0.45555668449E+02  0.00000000000E+00 0. -1.
</event>
<event>
 7    1  0.7802682E-006  0.2020872E+03  0.7818608E-02  0.1170290E+00
          2   -1    0    0  502    0  0.00000000000E+00  0.00000000000E+00  0.14023530717E+04  0.14023530717E+04  0.00000000000E+00 0. -1.
          1   -1    0    0  501    0 -0.00000000000E+00 -0.00000000000E+00 -0.66222049141E+03  0.66222049141E+03  0.00000000000E+00 0. -1.
         25    2    1    2    0    0 -0.11395684324E+03  0.26822988595E+02  0.56628914442E+03  0.59162025221E+03  0.12500197160E+03 0.  0.
          2    1    1    2  501    0  0.16726798908E+03  0.11959799079E+03 -0.62556804567E+03  0.65849649910E+03  0.00000000000E+00 0. -1.
          1    1    1    2  502    0 -0.53311145837E+02 -0.14642097938E+03  0.79941148158E+03  0.81445681184E+03  0.00000000000E+00 0. -1.
         22    1    3    3    0    0 -0.26145581136E+02 -0.44906971996E+02  0.11316115938E+03  0.12452178741E+03  0.00000000000E+00 0.  1.
         22    1    3    3    0    0 -0.87811262105E+02  0.71729960591E+02  0.45312798504E+03  0.46709846481E+03  0.00000000000E+00 0.  1.
</event>
<event>
 7    1  0.7802682E-006  0.5796223E+02  0.7818608E-02  0.1495614E+00
          2   -1    0    0  502    0  0.00000000000E+00  0.00000000000E+00  0.12919764490E+04  0.12919764490E+04  0.00000000000E+00 0. -1.
          1   -1    0    0  501    0 -0.00000000000E+00 -0.00000000000E+00 -0.15967461650E+03  0.15967461650E+03  0.00000000000E+00 0. -1.
         25    2    1    2    0    0  0.73195971667E+02 -0.43203566167E+01  0.22007594468E+02  0.14658339708E+03  0.12500416928E+03 0.  0.
          2    1    1    2  501    0 -0.21302149978E+02 -0.21256136071E+02 -0.94351030096E+02  0.99033942639E+02  0.00000000000E+00 0. -1.
          1    1    1    2  502    0 -0.51893821688E+02  0.25576492688E+02  0.12046452681E+04  0.12060337258E+04  0.00000000000E+00 0. -1.
         22    1    3    3    0    0 -0.34766549364E+02  0.23147643811E+01 -0.47258247018E+01  0.35162544105E+02  0.00000000000E+00 0. -1.
         22    1    3    3    0    0  0.10796252103E+03 -0.66351209978E+01  0.26733419169E+02  0.11142085298E+03  0.00000000000E+00 0. -1.
</event>
<event>
 7    1  0.7802683E-006  0.1097571E+03  0.7818608E-02  0.1341305E+00
          2   -1    0    0  502    0  0.00000000000E+00  0.00000000000E+00  0.12415591892E+04  0.12415591892E+04  0.00000000000E+00 0. -1.
          1   -1    0    0  501    0 -0.00000000000E+00 -0.00000000000E+00 -0.13254513885E+04  0.13254513885E+04  0.00000000000E+00 0. -1.
         25    2    1    2    0    0 -0.17855876434E+02  0.74965622247E+02 -0.96172421432E+02  0.17553947404E+03  0.12500518174E+03 0.  0.
          2    1    1    2  501    0 -0.51154807592E+02  0.11340852074E+02 -0.11864759691E+04  0.11876323735E+04  0.00000000000E+00 0. -1.
          1    1    1    2  502    0  0.69010684027E+02 -0.86306474322E+02  0.11987561913E+04  0.12038387302E+04  0.00000000000E+00 0. -1.
         22    1    3    3    0    0 -0.27669609951E+02  0.66939218020E+02  0.59096223482E+01  0.72673171531E+02  0.00000000000E+00 0. -1.
         22    1    3    3    0    0  0.98137335172E+01  0.80264042273E+01 -0.10208204378E+03  0.10286630251E+03  0.00000000000E+00 0. -1.
</event>
<event>
 7    1  0.7802682E-006  0.1271181E+03  0.7818608E-02  0.1431199E+00
          2   -1    0    0  502    0  0.00000000000E+00  0.00000000000E+00  0.14776504260E+04  0.14776504260E+04  0.00000000000E+00 0. -1.
          1   -1    0    0  501    0 -0.00000000000E+00 -0.00000000000E+00 -0.67417163863E+03  0.67417163863E+03  0.00000000000E+00 0. -1.
         25    2    1    2    0    0 -0.54375922817E+02 -0.11249024949E+03 -0.38940420617E+03  0.42763458506E+03  0.12499962137E+03 0.  0.
          2    1    1    2  501    0  0.36163125972E+02  0.12458838935E+03 -0.24972604695E+03  0.28141275196E+03  0.00000000000E+00 0. -1.
          1    1    1    2  502    0  0.18212796845E+02 -0.12098139860E+02  0.14426090405E+04  0.14427747276E+04  0.00000000000E+00 0. -1.
         22    1    3    3    0    0 -0.28288591034E+02 -0.11438772732E+03 -0.17098704968E+03  0.20765685084E+03  0.00000000000E+00 0.  1.
         22    1    3    3    0    0 -0.26087331784E+02  0.18974778321E+01 -0.21841715649E+03  0.21997773421E+03  0.00000000000E+00 0.  1.
</event>
<event>
 7    1  0.7802682E-006  0.1131371E+03  0.7818608E-02  0.1298026E+00
          2   -1    0    0  502    0  0.00000000000E+00  0.00000000000E+00  0.54914552357E+03  0.54914552357E+03  0.00000000000E+00 0. -1.
          1   -1    0    0  501    0 -0.00000000000E+00 -0.00000000000E+00 -0.13441629092E+04  0.13441629092E+04  0.00000000000E+00 0. -1.
         25    2    1    2    0    0 -0.60798874729E+02 -0.13672081906E+03 -0.45347490950E+03  0.49361309697E+03  0.12500124170E+03 0.  0.
          2    1    1    2  501    0 -0.87569555173E+01  0.10907349194E+03 -0.86450545634E+03  0.87140311852E+03  0.00000000000E+00 0. -1.
          1    1    1    2  502    0  0.69555830246E+02  0.27647327124E+02  0.52296298018E+03  0.52829221730E+03  0.00000000000E+00 0. -1.
         22    1    3    3    0    0 -0.13488440795E+01 -0.43668945193E+02 -0.23344905766E+02  0.49535651604E+02  0.00000000000E+00 0.  1.
         22    1    3    3    0    0 -0.59450030650E+02 -0.93051873871E+02 -0.43013000373E+03  0.44407744537E+03  0.00000000000E+00 0.  1.
</event>
<event>
 7    1  0.7802682E-006  0.1010335E+03  0.7818608E-02  0.1285542E+00
          2   -1    0    0  502    0  0.00000000000E+00  0.00000000000E+00  0.68180659247E+03  0.68180659247E+03  0.00000000000E+00 0. -1.
          1   -1    0    0  501    0 -0.00000000000E+00 -0.00000000000E+00 -0.18202175010E+03  0.18202175010E+03  0.00000000000E+00 0. -1.
         25    2    1    2    0    0  0.11776910350E+03  0.40371499117E+02  0.15777257637E+03  0.23667824629E+03  0.12499994694E+03 0.  0.
          2    1    1    2  501    0 -0.89597036383E+02  0.49495792212E+02 -0.11879846315E+03  0.15681370228E+03  0.00000000000E+00 0. -1.
          1    1    1    2  502    0 -0.28172067113E+02 -0.89867291329E+02  0.46081072915E+03  0.47033639400E+03  0.00000000000E+00 0. -1.
         22    1    3    3    0    0  0.92246770016E+02 -0.32131770140E+02  0.10517935240E+03  0.14354307159E+03  0.00000000000E+00 0.  1.
         22    1    3    3    0    0  0.25522333480E+02  0.72503269257E+02  0.52593223969E+02  0.93135174701E+02  0.00000000000E+00 0.  1.
</event>
<event>
 7    1  0.7802682E-006  0.7722428E+02  0.7818608E-02  0.1445579E+00
          2   -1    0    0  502    0  0.00000000000E+00  0.00000000000E+00  0.82533223334E+03  0.82533223334E+03  0.00000000000E+00 0. -1.
          1   -1    0    0  501    0 -0.00000000000E+00 -0.00000000000E+00 -0.11166745382E+03  0.11166745382E+03  0.00000000000E+00 0. -1.
         25    2    1    2    0    0 -0.47731424317E+02 -0.86272216520E+01  0.13981445144E+03  0.19371505227E+03  0.12499889129E+03 0.  0.
          2    1    1    2  501    0  0.78129653882E+02  0.19594569650E+02 -0.65069415374E+02  0.10354814722E+03  0.00000000000E+00 0. -1.
          1    1    1    2  502    0 -0.30398229565E+02 -0.10967347998E+02  0.63891974346E+03  0.63973648768E+03  0.00000000000E+00 0. -1.
         22    1    3    3    0    0 -0.83318034601E+02 -0.11481336907E+02  0.13301200274E+03  0.15737188078E+03  0.00000000000E+00 0. -1.
         22    1    3    3    0    0  0.35586610283E+02  0.28541152549E+01  0.68024486931E+01  0.36343171485E+02  0.00000000000E+00 0. -1.
</event>
<event>
 7    1  0.7802682E-006  0.1320733E+03  0.7818608E-02  0.1381843E+00
          2   -1    0    0  502    0  0.00000000000E+00  0.00000000000E+00  0.60134376206E+03  0.60134376206E+03  0.00000000000E+00 0. -1.
          1   -1    0    0  501    0 -0.00000000000E+00 -0.00000000000E+00 -0.20291232600E+03  0.20291232600E+03  0.00000000000E+00 0. -1.
         25    2    1    2    0    0 -0.60931303896E+02  0.12434567023E+03  0.42031794133E+03  0.45985458060E+03  0.12499837597E+03 0.  0.
          2    1    1    2  501    0  0.30202116566E+02 -0.12839977130E+03 -0.15741536900E+03  0.20537348298E+03  0.00000000000E+00 0. -1.
          1    1    1    2  502    0  0.30729187330E+02  0.40541010646E+01  0.13552886372E+03  0.13902802448E+03  0.00000000000E+00 0. -1.
         22    1    3    3    0    0  0.28493854461E+02  0.82912507025E+02  0.21126308391E+03  0.22873231995E+03  0.00000000000E+00 0. -1.
         22    1    3    3    0    0 -0.89425158357E+02  0.41433163210E+02  0.20905485742E+03  0.23112226066E+03  0.00000000000E+00 0. -1.
</event>
<event>
 7    1  0.7802682E-006  0.9239474E+02  0.7818608E-02  0.1342237E+00
          2   -1    0    0  502    0  0.00000000000E+00  0.00000000000E+00  0.71720130689E+03  0.71720130689E+03  0.00000000000E+00 0. -1.
          1   -1    0    0  501    0 -0.00000000000E+00 -0.00000000000E+00 -0.94562455454E+03  0.94562455454E+03  0.00000000000E+00 0. -1.
         25    2    1    2    0    0 -0.82717532106E+02  0.11793470354E+03  0.51673900625E+02  0.19760020597E+03  0.12499945990E+03 0.  0.
          2    1    1    2  501    0  0.13373788141E+02 -0.60277847422E+02 -0.86812736323E+03  0.87032028351E+03  0.00000000000E+00 0. -1.
          1    1    1    2  502    0  0.69343743965E+02 -0.57656856115E+02  0.58803021495E+03  0.59490537195E+03  0.00000000000E+00 0. -1.
         22    1    3    3    0    0 -0.54895284877E+01  0.60178801959E+02  0.77012855904E+02  0.97890771285E+02  0.00000000000E+00 0. -1.
         22    1    3    3    0    0 -0.77228003618E+02  0.57755901578E+02 -0.25338955280E+02  0.99709434682E+02  0.00000000000E+00 0. -1.
</event>
<event>
 7    1  0.7802682E-006  0.6941462E+02  0.7818608E-02  0.1416375E+00
          2   -1    0    0  502    0  0.00000000000E+00  0.00000000000E+00  0.11252476644E+03  0.11252476644E+03  0.00000000000E+00 0. -1.
          1   -1    0    0  501    0 -0.00000000000E+00 -0.00000000000E+00 -0.83553277262E+03  0.83553277262E+03  0.00000000000E+00 0. -1.
         25    2    1    2    0    0 -0.67465029400E+02 -0.41361929386E+02 -0.44261661417E+03  0.46668692495E+03  0.12499951753E+03 0.  0.
          2    1    1    2  501    0  0.28512071882E+02  0.63588412309E+02 -0.37247938017E+03  0.37894236115E+03  0.00000000000E+00 0. -1.
          1    1    1    2  502    0  0.38952957518E+02 -0.22226482923E+02  0.92087988158E+02  0.10242825297E+03  0.00000000000E+00 0. -1.
         22    1    3    3    0    0 -0.17840954821E+02 -0.63375756245E+00 -0.36725403652E+03  0.36768767814E+03  0.00000000000E+00 0. -1.
         22    1    3    3    0    0 -0.49624074579E+02 -0.40728171824E+02 -0.75362577653E+02  0.98999246807E+02  0.00000000000E+00 0. -1.
</event>
<event>
 7    1  0.7802682E-006  0.9011101E+02  0.7818608E-02  0.1462481E+00
          2   -1    0    0  502    0  0.00000000000E+00  0.00000000000E+00  0.27973500536E+04  0.27973500536E+04  0.00000000000E+00 0. -1.
          1   -1    0    0  501    0 -0.00000000000E+00 -0.00000000000E+00 -0.27473585970E+03  0.27473585970E+03  0.00000000000E+00 0. -1.
         25    2    1    2    0    0 -0.58312203262E+02  0.37588792000E+02 -0.13932078634E+03  0.19962063401E+03  0.12499954274E+03 0.  0.
          2    1    1    2  501    0 -0.24415254654E+02 -0.16290736041E+01 -0.10309761510E+03  0.10596167600E+03  0.00000000000E+00 0. -1.
          1    1    1    2  502    0  0.82727457916E+02 -0.35959718396E+02  0.27650325954E+04  0.27665036033E+04  0.00000000000E+00 0. -1.
         22    1    3    3    0    0 -0.57062523367E+02 -0.29310367405E+02 -0.10828924349E+03  0.12586417070E+03  0.00000000000E+00 0.  1.
         22    1    3    3    0    0 -0.12496798948E+01  0.66899159404E+02 -0.31031542851E+02  0.73756463314E+02  0.00000000000E+00 0.  1.
</event>
<event>
 7    1  0.7802682E-006  0.6929608E+02  0.7818608E-02  0.1378568E+00
          2   -1    0    0  502    0  0.00000000000E+00  0.00000000000E+00  0.78930636074E+02  0.78930636074E+02  0.00000000000E+00 0. -1.
          1   -1    0    0  501    0 -0.00000000000E+00 -0.00000000000E+00 -0.73407140565E+03  0.73407140565E+03  0.00000000000E+00 0. -1.
         25    2    1    2    0    0  0.61492934901E+01 -0.92589211678E+01 -0.32627746137E+03  0.34957986295E+03  0.12500222936E+03 0.  0.
          2    1    1    2  501    0 -0.40399768955E+01  0.78522892957E+02 -0.37304407317E+03  0.38124014303E+03  0.00000000000E+00 0. -1.
          1    1    1    2  502    0 -0.21093165946E+01 -0.69263971790E+02  0.44180764974E+02  0.82182035739E+02  0.00000000000E+00 0. -1.
         22    1    3    3    0    0 -0.20636254095E+02 -0.41505183618E+02 -0.29135529509E+03  0.29501939466E+03  0.00000000000E+00 0. -1.
         22    1    3    3    0    0  0.26785547585E+02  0.32246262450E+02 -0.34922166284E+02  0.54560468284E+02  0.00000000000E+00 0. -1.
</event>
<event>
 7    1  0.7802682E-006  0.2150377E+03  0.7818608E-02  0.1203349E+00
          2   -1    0    0  502    0  0.00000000000E+00  0.00000000000E+00  0.96143257684E+03  0.96143257684E+03  0.00000000000E+00 0. -1.
          1   -1    0    0  501    0 -0.00000000000E+00 -0.00000000000E+00 -0.21545126762E+04  0.21545126762E+04  0.00000000000E+00 0. -1.
         25    2    1    2    0    0  0.20725153673E+03  0.71727289030E+02 -0.40650167192E+03  0.47851291356E+03  0.12503197873E+03 0.  0.
          2    1    1    2  501    0 -0.15173053900E+03 -0.15660692037E+03 -0.17022506402E+04  0.17161599943E+04  0.00000000000E+00 0. -1.
          1    1    1    2  502    0 -0.55520997737E+02  0.84879631343E+02  0.91567221269E+03  0.92127234524E+03  0.00000000000E+00 0. -1.
         22    1    3    3    0    0  0.64204278382E+02  0.34960770634E+02 -0.39917715694E+02  0.83293870556E+02  0.00000000000E+00 0. -1.
         22    1    3    3    0    0  0.14304725835E+03  0.36766518397E+02 -0.36658395622E+03  0.39521904301E+03  0.00000000000E+00 0. -1.
</event>
<event>
 7    1  0.7802682E-006  0.1170346E+03  0.7818608E-02  0.1296522E+00
          2   -1    0    0  502    0  0.00000000000E+00  0.00000000000E+00  0.27061029646E+03  0.27061029646E+03  0.00000000000E+00 0. -1.
          1   -1    0    0  501    0 -0.00000000000E+00 -0.00000000000E+00 -0.51441699438E+03  0.51441699438E+03  0.00000000000E+00 0. -1.
         25    2    1    2    0    0  0.66851322078E+02 -0.15510413611E+01 -0.65255634784E+02  0.15605551114E+03  0.12499407863E+03 0.  0.
          2    1    1    2  501    0 -0.11812964244E+03  0.54027746909E+02 -0.38687747296E+03  0.40810266961E+03  0.00000000000E+00 0. -1.
          1    1    1    2  502    0  0.51278320358E+02 -0.52476705548E+02  0.20832640983E+03  0.22086911010E+03  0.00000000000E+00 0. -1.
         22    1    3    3    0    0 -0.21091985909E+01 -0.28989223181E+02  0.25604763289E+02  0.38735354425E+02  0.00000000000E+00 0.  1.
         22    1    3    3    0    0  0.68960520669E+02  0.27438181820E+02 -0.90860398073E+02  0.11732015671E+03  0.00000000000E+00 0.  1.
</event>
<event>
 7    1  0.7802682E-006  0.8374012E+02  0.7818608E-02  0.1327536E+00
          2   -1    0    0  502    0  0.00000000000E+00  0.00000000000E+00  0.49703799275E+03  0.49703799275E+03  0.00000000000E+00 0. -1.
          1   -1    0    0  501    0 -0.00000000000E+00 -0.00000000000E+00 -0.25018877670E+03  0.25018877670E+03  0.00000000000E+00 0. -1.
         25    2    1    2    0    0 -0.47635490793E+02  0.17640896722E+02 -0.10962607060E+00  0.13492707629E+03  0.12499985071E+03 0.  0.
          2    1    1    2  501    0  0.22155656905E+02 -0.90785191270E+02 -0.16688608575E+03  0.19126889371E+03  0.00000000000E+00 0. -1.
          1    1    1    2  502    0  0.25479833888E+02  0.73144294548E+02  0.41384492787E+03  0.42103079945E+03  0.00000000000E+00 0. -1.
         22    1    3    3    0    0 -0.88894194554E+01  0.66466368246E+02 -0.19173944735E+02  0.69745537798E+02  0.00000000000E+00 0.  1.
         22    1    3    3    0    0 -0.38746071338E+02 -0.48825471524E+02  0.19064318664E+02  0.65181538489E+02  0.00000000000E+00 0.  1.
</event>
<event>
 7    1  0.7802682E-006  0.1182536E+03  0.7818608E-02  0.1300903E+00
          2   -1    0    0  502    0  0.00000000000E+00  0.00000000000E+00  0.82083888136E+03  0.82083888136E+03  0.00000000000E+00 0. -1.
          1   -1    0    0  501    0 -0.00000000000E+00 -0.00000000000E+00 -0.25735809681E+03  0.25735809681E+03  0.00000000000E+00 0. -1.
         25    2    1    2    0    0 -0.12825491595E+03 -0.20460387329E+02  0.46170256912E+01  0.18028189338E+03  0.12494916262E+03 0.  0.
          2    1    1    2  501    0  0.39045599568E+02 -0.57778867965E+02 -0.15725964007E+03  0.17202776178E+03  0.00000000000E+00 0. -1.
          1    1    1    2  502    0  0.89209316378E+02  0.78239255294E+02  0.71612339893E+03  0.72588732300E+03  0.00000000000E+00 0. -1.
         22    1    3    3    0    0 -0.13529134050E+03 -0.40160003042E+02  0.33087237070E+02  0.14495288171E+03  0.00000000000E+00 0. -1.
         22    1    3    3    0    0  0.70364245518E+01  0.19699615712E+02 -0.28470211379E+02  0.35329011671E+02  0.00000000000E+00 0. -1.
</event>
<event>
 7    1  0.7802682E-006  0.5312640E+02  0.7818608E-02  0.1488651E+00
          2   -1    0    0  502    0  0.00000000000E+00  0.00000000000E+00  0.11274847344E+02  0.11274847344E+02  0.00000000000E+00 0. -1.
          1   -1    0    0  501    0 -0.00000000000E+00 -0.00000000000E+00 -0.18034394697E+04  0.18034394697E+04  0.00000000000E+00 0. -1.
         25    2    1    2    0    0  0.45432762019E+02 -0.40144626749E+02 -0.11242511080E+04  0.11328021555E+04  0.12499777049E+03 0.  0.
          2    1    1    2  501    0 -0.52938334739E+02  0.65123880881E+01 -0.62311401846E+03  0.62539264346E+03  0.00000000000E+00 0. -1.
          1    1    1    2  502    0  0.75055727197E+01  0.33632238661E+02 -0.44799495921E+02  0.56519518168E+02  0.00000000000E+00 0. -1.
         22    1    3    3    0    0  0.36597424231E+02 -0.77110977273E+02 -0.97712832648E+03  0.98084924463E+03  0.00000000000E+00 0. -1.
         22    1    3    3    0    0  0.88353377885E+01  0.36966350524E+02 -0.14712278152E+03  0.15195291082E+03  0.00000000000E+00 0. -1.
</event>
<event>
 7    1  0.7802682E-006  0.4554281E+02  0.7818608E-02  0.1487936E+00
          2   -1    0    0  502    0  0.00000000000E+00  0.00000000000E+00  0.26694586731E+02  0.26694586731E+02  0.00000000000E+00 0. -1.
          1   -1    0    0  501    0 -0.00000000000E+00 -0.00000000000E+00 -0.89017303422E+03  0.89017303422E+03  0.00000000000E+00 0. -1.
         25    2    1    2    0    0 -0.54796402933E+02 -0.48732604748E+02 -0.31098645972E+03  0.34309669251E+03  0.12500099897E+03 0.  0.
          2    1    1    2  501    0  0.13606112915E+02  0.38038620039E+02 -0.51638049187E+03  0.51795837217E+03  0.00000000000E+00 0. -1.
          1    1    1    2  502    0  0.41190290018E+02  0.10693984709E+02 -0.36111495899E+02  0.55812556265E+02  0.00000000000E+00 0. -1.
         22    1    3    3    0    0 -0.53712620796E+01 -0.83645682333E+02 -0.19569472491E+03  0.21288935151E+03  0.00000000000E+00 0. -1.
         22    1    3    3    0    0 -0.49425140854E+02  0.34913077585E+02 -0.11529173481E+03  0.13020734100E+03  0.00000000000E+00 0. -1.
</event>
<event>
 7    1  0.7802682E-006  0.6478513E+02  0.7818608E-02  0.1414196E+00
          2   -1    0    0  502    0  0.00000000000E+00  0.00000000000E+00  0.90967780353E+03  0.90967780353E+03  0.00000000000E+00 0. -1.
          1   -1    0    0  501    0 -0.00000000000E+00 -0.00000000000E+00 -0.31792780731E+03  0.31792780731E+03  0.00000000000E+00 0. -1.
         25    2    1    2    0    0 -0.10930716241E+03  0.45673425451E+01 -0.19652494561E+03  0.25732356832E+03  0.12499779276E+03 0.  0.
          2    1    1    2  501    0  0.47143164098E+02  0.12878334687E+02 -0.83160915623E+02  0.96457593339E+02  0.00000000000E+00 0. -1.
          1    1    1    2  502    0  0.62163998307E+02 -0.17445677232E+02  0.87143585745E+03  0.87382444918E+03  0.00000000000E+00 0. -1.
         22    1    3    3    0    0  0.61581043578E+01 -0.38793640116E+02 -0.72226753026E+02  0.82216620068E+02  0.00000000000E+00 0. -1.
         22    1    3    3    0    0 -0.11546526676E+03  0.43360982661E+02 -0.12429819258E+03  0.17510694825E+03  0.00000000000E+00 0. -1.
</event>
<event>
 7    1  0.7802682E-006  0.1450678E+03  0.7818608E-02  0.1234992E+00
          2   -1    0    0  502    0  0.00000000000E+00  0.00000000000E+00  0.64292548761E+03  0.64292548761E+03  0.00000000000E+00 0. -1.
          1   -1    0    0  501    0 -0.00000000000E+00 -0.00000000000E+00 -0.52995411071E+03  0.52995411071E+03  0.00000000000E+00 0. -1.
         25    2    1    2    0    0  0.13521627231E+03  0.29576342983E+02 -0.17527811595E+03  0.25594076346E+03  0.12500022443E+03 0.  0.
          2    1    1    2  501    0 -0.95649778367E+02 -0.12984517648E+03 -0.28833110234E+03  0.33036869485E+03  0.00000000000E+00 0. -1.
          1    1    1    2  502    0 -0.39566493943E+02  0.10026883350E+03  0.57658059519E+03  0.58657014002E+03  0.00000000000E+00 0. -1.
         22    1    3    3    0    0  0.96716317039E+02  0.74223708051E+02 -0.14571352863E+03  0.18998851871E+03  0.00000000000E+00 0. -1.
         22    1    3    3    0    0  0.38499955271E+02 -0.44647365068E+02 -0.29564587320E+02  0.65952244745E+02  0.00000000000E+00 0. -1.
</event>
<event>
 7    1  0.7802682E-006  0.6877266E+02  0.7818608E-02  0.1512400E+00
          2   -1    0    0  502    0  0.00000000000E+00  0.00000000000E+00  0.58372658760E+03  0.58372658760E+03  0.00000000000E+00 0. -1.
          1   -1    0    0  501    0 -0.00000000000E+00 -0.00000000000E+00 -0.11199756432E+04  0.11199756432E+04  0.00000000000E+00 0. -1.
         25    2    1    2    0    0  0.28724856824E+02 -0.41802790364E+02 -0.22050633942E+03  0.25849606594E+03  0.12499831878E+03 0.  0.
          2    1    1    2  501    0  0.22104319958E+02 -0.47749398207E+01 -0.87822420772E+03  0.87851531577E+03  0.00000000000E+00 0. -1.
          1    1    1    2  502    0 -0.50829176783E+02  0.46577730185E+02  0.56248149152E+03  0.56669084911E+03  0.00000000000E+00 0. -1.
         22    1    3    3    0    0 -0.39078558120E+02  0.10292929861E+02 -0.32149914655E+02  0.51640053468E+02  0.00000000000E+00 0.  1.
         22    1    3    3    0    0  0.67803414944E+02 -0.52095720226E+02 -0.18835642476E+03  0.20685601247E+03  0.00000000000E+00 0.  1.
</event>
<event>
 7    1  0.7802682E-006  0.1716073E+03  0.7818608E-02  0.1391105E+00
          2   -1    0    0  502    0  0.00000000000E+00  0.00000000000E+00  0.52020846698E+03  0.52020846698E+03  0.00000000000E+00 0. -1.
          1   -1    0    0  501    0 -0.00000000000E+00 -0.00000000000E+00 -0.90251561822E+02  0.90251561822E+02  0.00000000000E+00 0. -1.
         25    2    1    2    0    0  0.20090974872E+02  0.15918893165E+03  0.17091506066E+03  0.26567215582E+03  0.12499989275E+03 0.  0.
          2    1    1    2  501    0 -0.16500777900E+02 -0.18103121027E+03  0.15645159453E+03  0.23983676990E+03  0.00000000000E+00 0. -1.
          1    1    1    2  502    0 -0.35901969719E+01  0.21842278628E+02  0.10259024997E+03  0.10495110309E+03  0.00000000000E+00 0. -1.
         22    1    3    3    0    0  0.30724651756E+02  0.17844757379E+03  0.14752460111E+03  0.23356165942E+03  0.00000000000E+00 0.  1.
         22    1    3    3    0    0 -0.10633676884E+02 -0.19258642144E+02  0.23390459546E+02  0.32110496400E+02  0.00000000000E+00 0.  1.
</event>
<event>
 7    1  0.8484291E-006  0.1505228E+03  0.7818608E-02  0.1288097E+00
          2   -1    0    0  502    0  0.00000000000E+00  0.00000000000E+00  0.21530610416E+04  0.21530610416E+04  0.00000000000E+00 0. -1.
          1   -1    0    0  501    0 -0.00000000000E+00 -0.00000000000E+00 -0.14070325825E+04  0.14070325825E+04  0.00000000000E+00 0. -1.
         25    2    1    2    0    0  0.88947337898E+02  0.56667842739E+02 -0.18461723821E+03  0.24663974612E+03  0.12499906561E+03 0.  0.
          2    1    1    2  501    0 -0.15036734363E+03 -0.50666096742E+02 -0.11856691660E+04  0.11962394253E+04  0.00000000000E+00 0. -1.
          1    1    1    2  502    0  0.61420005730E+02 -0.60017459975E+01  0.21163148633E+04  0.21172144527E+04  0.00000000000E+00 0. -1.
         22    1    3    3    0    0 -0.68824325878E+01  0.66461177647E+02 -0.84187238584E+02  0.10747998489E+03  0.00000000000E+00 0.  1.
         22    1    3    3    0    0  0.95829770486E+02 -0.97933349074E+01 -0.10042999963E+03  0.13915976123E+03  0.00000000000E+00 0.  1.
</event>
<event>
 7    1  0.7802682E-006  0.1210957E+03  0.7818608E-02  0.1325319E+00
          2   -1    0    0  502    0  0.00000000000E+00  0.00000000000E+00  0.40433051634E+03  0.40433051634E+03  0.00000000000E+00 0. -1.
          1   -1    0    0  501    0 -0.00000000000E+00 -0.00000000000E+00 -0.14512244024E+03  0.14512244024E+03  0.00000000000E+00 0. -1.
         25    2    1    2    0    0  0.58921136440E+02 -0.61302951857E+02  0.12572676162E+03  0.19663044833E+03  0.12500624942E+03 0.  0.
          2    1    1    2  501    0 -0.60775886123E+02  0.11589422562E+03 -0.65599087369E+02  0.14638449416E+03  0.00000000000E+00 0. -1.
          1    1    1    2  502    0  0.18547496821E+01 -0.54591273767E+02  0.19908040184E+03  0.20643801409E+03  0.00000000000E+00 0. -1.
         22    1    3    3    0    0  0.65316567314E+02 -0.85758204507E+02  0.13215793984E+03  0.17054748508E+03  0.00000000000E+00 0.  1.
         22    1    3    3    0    0 -0.63954308735E+01  0.24455252650E+02 -0.64311782158E+01  0.26082963242E+02  0.00000000000E+00 0.  1.
</event>
<event>
 7    1  0.7802682E-006  0.5063779E+02  0.7818608E-02  0.1474024E+00
          2   -1    0    0  502    0  0.00000000000E+00  0.00000000000E+00  0.28648606159E+04  0.28648606159E+04  0.00000000000E+00 0. -1.
          1   -1    0    0  501    0 -0.00000000000E+00 -0.00000000000E+00 -0.26249588587E+02  0.26249588587E+02  0.00000000000E+00 0. -1.
         25    2    1    2    0    0  0.36310896310E+02 -0.32491123314E+02  0.21300658488E+04  0.21342867943E+04  0.12500178288E+03 0.  0.
          2    1    1    2  501    0 -0.68663771900E+00  0.50858345062E+02  0.38707474547E+01  0.51010052143E+02  0.00000000000E+00 0. -1.
          1    1    1    2  502    0 -0.35624258591E+02 -0.18367221748E+02  0.70467443110E+03  0.70581335811E+03  0.00000000000E+00 0. -1.
         22    1    3    3    0    0  0.17560164860E+02  0.23363380075E+01  0.19431906867E+04  0.19432714331E+04  0.00000000000E+00 0. -1.
         22    1    3    3    0    0  0.18750731450E+02 -0.34827461321E+02  0.18687516206E+03  0.19101536112E+03  0.00000000000E+00 0. -1.
</event>
<event>
 7    1  0.7802682E-006  0.6207589E+02  0.7818608E-02  0.1508377E+00
          2   -1    0    0  502    0  0.00000000000E+00  0.00000000000E+00  0.22083618756E+04  0.22083618756E+04  0.00000000000E+00 0. -1.
          1   -1    0    0  501    0 -0.00000000000E+00 -0.00000000000E+00 -0.17355632662E+02  0.17355632662E+02  0.00000000000E+00 0. -1.
         25    2    1    2    0    0 -0.52546760332E+01 -0.51304972484E+02  0.16730104248E+04  0.16784662949E+04  0.12500164027E+03 0.  0.
          2    1    1    2  501    0  0.15279672109E+02 -0.20721596931E+02  0.16382625659E+01  0.25798001151E+02  0.00000000000E+00 0. -1.
          1    1    1    2  502    0 -0.10024996076E+02  0.72026569415E+02  0.51635755564E+03  0.52145321221E+03  0.00000000000E+00 0. -1.
         22    1    3    3    0    0  0.35611136363E+02 -0.18730505859E+02  0.13953844000E+04  0.13959644009E+04  0.00000000000E+00 0. -1.
         22    1    3    3    0    0 -0.40865812397E+02 -0.32574466625E+02  0.27762602480E+03  0.28250189406E+03  0.00000000000E+00 0. -1.
</event>
<event>
 7    1  0.7802682E-006  0.7905530E+02  0.7818608E-02  0.1336091E+00
          2   -1    0    0  502    0  0.00000000000E+00  0.00000000000E+00  0.32380659927E+03  0.32380659927E+03  0.00000000000E+00 0. -1.
          1   -1    0    0  501    0 -0.00000000000E+00 -0.00000000000E+00 -0.16946069455E+04  0.16946069455E+04  0.00000000000E+00 0. -1.
         25    2    1    2    0    0  0.70938711790E+02 -0.69946810281E+02  0.77089253514E+02  0.17747231856E+03  0.12501525407E+03 0.  0.
          2    1    1    2  501    0 -0.78945188549E+02 -0.57441830159E+01 -0.16360529769E+04  0.16379666302E+04  0.00000000000E+00 0. -1.
          1    1    1    2  502    0  0.80064767589E+01  0.75690993297E+02  0.18816337714E+03  0.20297459603E+03  0.00000000000E+00 0. -1.
         22    1    3    3    0    0 -0.26039780314E+01  0.32056988429E+02  0.27430750692E+02  0.42271471376E+02  0.00000000000E+00 0.  1.
         22    1    3    3    0    0  0.73542689821E+02 -0.10200379871E+03  0.49658502822E+02  0.13520084719E+03  0.00000000000E+00 0.  1.
</event>
<event>
 7    1  0.7802682E-006  0.1269907E+03  0.7818608E-02  0.1258941E+00
          2   -1    0    0  502    0  0.00000000000E+00  0.00000000000E+00  0.10576948682E+04  0.10576948682E+04  0.00000000000E+00 0. -1.
          1   -1    0    0  501    0 -0.00000000000E+00 -0.00000000000E+00 -0.11397132485E+03  0.11397132485E+03  0.00000000000E+00 0. -1.
         25    2    1    2    0    0 -0.17559815558E+02  0.20714469918E+03  0.23688791523E+03  0.33905491230E+03  0.12500030263E+03 0.  0.
          2    1    1    2  501    0 -0.17466344620E+01 -0.11226857040E+03 -0.67522366218E+01  0.11248500047E+03  0.00000000000E+00 0. -1.
          1    1    1    2  502    0  0.19306450020E+02 -0.94876128778E+02  0.71358786476E+03  0.72012628029E+03  0.00000000000E+00 0. -1.
         22    1    3    3    0    0  0.54267196185E+01  0.62837252233E+02  0.28392757150E+01  0.63135022298E+02  0.00000000000E+00 0. -1.
         22    1    3    3    0    0 -0.22986535176E+02  0.14430744695E+03  0.23404863951E+03  0.27591989000E+03  0.00000000000E+00 0. -1.
</event>
<event>
 7    1  0.7802682E-006  0.4694180E+02  0.7818608E-02  0.1546886E+00
          2   -1    0    0  502    0  0.00000000000E+00  0.00000000000E+00  0.59754925110E+03  0.59754925110E+03  0.00000000000E+00 0. -1.
          1   -1    0    0  501    0 -0.00000000000E+00 -0.00000000000E+00 -0.15580194171E+03  0.15580194171E+03  0.00000000000E+00 0. -1.
         25    2    1    2    0    0 -0.69421437567E+02  0.16001211117E+02  0.26091689875E+03  0.29795676413E+03  0.12500092195E+03 0.  0.
          2    1    1    2  501    0  0.25778722518E+02 -0.56280454079E+01 -0.13441148145E+03  0.13697687315E+03  0.00000000000E+00 0. -1.
          1    1    1    2  502    0  0.43642715049E+02 -0.10373165709E+02  0.31524189209E+03  0.31841755553E+03  0.00000000000E+00 0. -1.
         22    1    3    3    0    0 -0.68532440274E+02  0.28387223183E+02  0.27161746584E+03  0.28156451758E+03  0.00000000000E+00 0.  1.
         22    1    3    3    0    0 -0.88899729352E+00 -0.12386012066E+02 -0.10700567088E+02  0.16392246554E+02  0.00000000000E+00 0.  1.
</event>
<event>
 7    1  0.7802682E-006  0.2969614E+03  0.7818608E-02  0.1120478E+00
          2   -1    0    0  502    0  0.00000000000E+00  0.00000000000E+00  0.42039481492E+03  0.42039481492E+03  0.00000000000E+00 0. -1.
          1   -1    0    0  501    0 -0.00000000000E+00 -0.00000000000E+00 -0.14423974558E+04  0.14423974558E+04  0.00000000000E+00 0. -1.
         25    2    1    2    0    0 -0.21699152158E+03 -0.10283530878E+03 -0.83486325908E+02  0.28329645843E+03  0.12500598216E+03 0.  0.
          2    1    1    2  501    0  0.31066126645E+03 -0.65119460995E+02 -0.12076770589E+04  0.12486932551E+04  0.00000000000E+00 0. -1.
          1    1    1    2  502    0 -0.93669744872E+02  0.16795476978E+03  0.26916074392E+03  0.33080255722E+03  0.00000000000E+00 0. -1.
         22    1    3    3    0    0 -0.77048160494E+02 -0.92564231195E+02 -0.82227072571E+00  0.12043766878E+03  0.00000000000E+00 0.  1.
         22    1    3    3    0    0 -0.13994336108E+03 -0.10271077587E+02 -0.82664055182E+02  0.16285878965E+03  0.00000000000E+00 0.  1.
</event>
<event>
 7    1  0.7802682E-006  0.9986125E+02  0.7818608E-02  0.1399044E+00
          2   -1    0    0  502    0  0.00000000000E+00  0.00000000000E+00  0.42590090277E+03  0.42590090277E+03  0.00000000000E+00 0. -1.
          1   -1    0    0  501    0 -0.00000000000E+00 -0.00000000000E+00 -0.66339280407E+03  0.66339280407E+03  0.00000000000E+00 0. -1.
         25    2    1    2    0    0  0.20225330710E+02  0.10778919960E+02  0.33137569632E+03  0.35492500092E+03  0.12504661150E+03 0.  0.
          2    1    1    2  501    0 -0.38378706898E+02  0.92191882410E+02 -0.61285240303E+03  0.62093504992E+03  0.00000000000E+00 0. -1.
          1    1    1    2  502    0  0.18153376188E+02 -0.10297080237E+03  0.43984805415E+02  0.11343365601E+03  0.00000000000E+00 0. -1.
         22    1    3    3    0    0 -0.24266624744E+02  0.29566833494E+02  0.28635834467E+03  0.28890165849E+03  0.00000000000E+00 0. -1.
         22    1    3    3    0    0  0.44491955454E+02 -0.18787913534E+02  0.45017351647E+02  0.66023342421E+02  0.00000000000E+00 0. -1.
</event>
<event>
 7    1  0.7802682E-006  0.1549412E+03  0.7818608E-02  0.1261693E+00
          2   -1    0    0  502    0  0.00000000000E+00  0.00000000000E+00  0.14516477957E+03  0.14516477957E+03  0.00000000000E+00 0. -1.
          1   -1    0    0  501    0 -0.00000000000E+00 -0.00000000000E+00 -0.20281838879E+04  0.20281838879E+04  0.00000000000E+00 0. -1.
         25    2    1    2    0    0 -0.18834363558E+03  0.12692377493E+03 -0.77645912090E+03  0.81859429679E+03  0.12499954643E+03 0.  0.
          2    1    1    2  501    0  0.68904488965E+02 -0.34900091482E+02 -0.11831294899E+04  0.11856480231E+04  0.00000000000E+00 0. -1.
          1    1    1    2  502    0  0.11943914661E+03 -0.92023683444E+02  0.76569502473E+02  0.16910634751E+03  0.00000000000E+00 0. -1.
         22    1    3    3    0    0 -0.16359999252E+03  0.12771303066E+03 -0.50467889502E+03  0.54568888831E+03  0.00000000000E+00 0. -1.
         22    1    3    3    0    0 -0.24743643058E+02 -0.78925573059E+00 -0.27178022588E+03  0.27290540848E+03  0.00000000000E+00 0. -1.
</event>
<event>
 7    1  0.7802682E-006  0.1350947E+03  0.7818608E-02  0.1393540E+00
          2   -1    0    0  502    0  0.00000000000E+00  0.00000000000E+00  0.21385280073E+03  0.21385280073E+03  0.00000000000E+00 0. -1.
          1   -1    0    0  501    0 -0.00000000000E+00 -0.00000000000E+00 -0.73062217524E+03  0.73062217524E+03  0.00000000000E+00 0. -1.
         25    2    1    2    0    0 -0.52293812993E+02  0.13836249386E+03 -0.12598850594E+03  0.23103550663E+03  0.12500191642E+03 0.  0.
          2    1    1    2  501    0  0.67254951374E+02 -0.11519908334E+03 -0.54279434005E+03  0.55894521456E+03  0.00000000000E+00 0. -1.
          1    1    1    2  502    0 -0.14961138381E+02 -0.23163410518E+02  0.15201347148E+03  0.15449425478E+03  0.00000000000E+00 0. -1.
         22    1    3    3    0    0  0.47769139298E+01  0.67456499155E+02 -0.12252581735E+03  0.13994918400E+03  0.00000000000E+00 0. -1.
         22    1    3    3    0    0 -0.57070726923E+02  0.70905994709E+02 -0.34626885813E+01  0.91086322625E+02  0.00000000000E+00 0. -1.
</event>
<event>
 7    1  0.7802682E-006  0.8205154E+02  0.7818608E-02  0.1429869E+00
          2   -1    0    0  502    0  0.00000000000E+00  0.00000000000E+00  0.11407730103E+04  0.11407730103E+04  0.00000000000E+00 0. -1.
          1   -1    0    0  501    0 -0.00000000000E+00 -0.00000000000E+00 -0.31607873794E+03  0.31607873794E+03  0.00000000000E+00 0. -1.
         25    2    1    2    0    0  0.36047898592E+02 -0.34749413601E+02  0.55192649559E+02  0.14553119885E+03  0.12500451406E+03 0.  0.
          2    1    1    2  501    0 -0.63356315467E+02  0.55366063128E+02 -0.26408650303E+03  0.27716620418E+03  0.00000000000E+00 0. -1.
          1    1    1    2  502    0  0.27308416874E+02 -0.20616649527E+02  0.10335881258E+04  0.10341543452E+04  0.00000000000E+00 0. -1.
         22    1    3    3    0    0 -0.36264135549E+02 -0.44376269279E+02  0.61715792402E+01  0.57640516935E+02  0.00000000000E+00 0.  1.
         22    1    3    3    0    0  0.72312034142E+02  0.96268556777E+01  0.49021070319E+02  0.87890681913E+02  0.00000000000E+00 0.  1.
</event>
<event>
 7    1  0.1145882E-005  0.9551019E+02  0.7818608E-02  0.1323119E+00
          2   -1    0    0  502    0  0.00000000000E+00  0.00000000000E+00  0.27372487081E+04  0.27372487081E+04  0.00000000000E+00 0. -1.
          1   -1    0    0  501    0 -0.00000000000E+00 -0.00000000000E+00 -0.14540713087E+04  0.14540713087E+04  0.00000000000E+00 0. -1.
         25    2    1    2    0    0 -0.59800292635E+02  0.24002792324E+02 -0.11281993204E+03  0.18029000217E+03  0.12499575504E+03 0.  0.
          2    1    1    2  501    0  0.89762065716E+02  0.39947073164E+02 -0.13052085143E+04  0.13089011662E+04  0.00000000000E+00 0. -1.
          1    1    1    2  502    0 -0.29961773081E+02 -0.63949865487E+02  0.27012058457E+04  0.27021288485E+04  0.00000000000E+00 0. -1.
         22    1    3    3    0    0 -0.76843346658E+02  0.59406259780E+02 -0.98863314228E+02  0.13859277949E+03  0.00000000000E+00 0. -1.
         22    1    3    3    0    0  0.17043054023E+02 -0.35403467456E+02 -0.13956617808E+02  0.41697222677E+02  0.00000000000E+00 0. -1.
</event>
<event>
 7    1  0.7802682E-006  0.7550593E+02  0.7818608E-02  0.1370522E+00
          2   -1    0    0  502    0  0.00000000000E+00  0.00000000000E+00  0.59247231734E+03  0.59247231734E+03  0.00000000000E+00 0. -1.
          1   -1    0    0  501    0 -0.00000000000E+00 -0.00000000000E+00 -0.76394053354E+02  0.76394053354E+02  0.00000000000E+00 0. -1.
         25    2    1    2    0    0 -0.57318958990E+02 -0.10057018683E+03  0.75862002301E+02  0.18649816768E+03  0.12500679029E+03 0.  0.
          2    1    1    2  501    0  0.53046180472E+02  0.26933035722E+02  0.32020789173E+02  0.67561946502E+02  0.00000000000E+00 0. -1.
          1    1    1    2  502    0  0.42727785182E+01  0.73637151103E+02  0.40819547251E+03  0.41480625651E+03  0.00000000000E+00 0. -1.
         22    1    3    3    0    0 -0.96913942835E+02 -0.62256934784E+02  0.48514703696E+02  0.12498765827E+03  0.00000000000E+00 0. -1.
         22    1    3    3    0    0  0.39594983845E+02 -0.38313252041E+02  0.27347298605E+02  0.61510509416E+02  0.00000000000E+00 0. -1.
</event>
<event>
 7    1  0.7802682E-006  0.5073129E+02  0.7818608E-02  0.1465446E+00
          2   -1    0    0  502    0  0.00000000000E+00  0.00000000000E+00  0.89751654114E+03  0.89751654114E+03  0.00000000000E+00 0. -1.
          1   -1    0    0  501    0 -0.00000000000E+00 -0.00000000000E+00 -0.69197760468E+02  0.69197760468E+02  0.00000000000E+00 0. -1.
         25    2    1    2    0    0  0.54823655475E+02 -0.74125849542E+01  0.22435322147E+03  0.26271762475E+03  0.12500241099E+03 0.  0.
          2    1    1    2  501    0 -0.39878077680E+02 -0.32418523429E+02 -0.35918108425E+02  0.62700336949E+02  0.00000000000E+00 0. -1.
          1    1    1    2  502    0 -0.14945577795E+02  0.39831108383E+02  0.63988366762E+03  0.64129633991E+03  0.00000000000E+00 0. -1.
         22    1    3    3    0    0  0.11520546230E+02 -0.51922190326E+02  0.17644492822E+03  0.18428632485E+03  0.00000000000E+00 0.  1.
         22    1    3    3    0    0  0.43303109245E+02  0.44509605372E+02  0.47908293254E+02  0.78431299894E+02  0.00000000000E+00 0.  1.
</event>
<event>
 7    1  0.7802682E-006  0.1503905E+03  0.7818608E-02  0.1322655E+00
          2   -1    0    0  502    0  0.00000000000E+00  0.00000000000E+00  0.11119311299E+04  0.11119311299E+04  0.00000000000E+00 0. -1.
          1   -1    0    0  501    0 -0.00000000000E+00 -0.00000000000E+00 -0.14492653031E+03  0.14492653031E+03  0.00000000000E+00 0. -1.
         25    2    1    2    0    0 -0.80917264570E+02  0.73437247795E+02  0.28420144567E+02  0.16844440080E+03  0.12500071389E+03 0.  0.
          2    1    1    2  501    0 -0.37956157030E+02  0.24238312818E+02 -0.61687805479E+02  0.76377686594E+02  0.00000000000E+00 0. -1.
          1    1    1    2  502    0  0.11887342160E+03 -0.97675560612E+02  0.10002722605E+04  0.10120355728E+04  0.00000000000E+00 0. -1.
         22    1    3    3    0    0 -0.85566869730E+02  0.81658490658E+02  0.62012817113E+02  0.13354919610E+03  0.00000000000E+00 0.  1.
         22    1    3    3    0    0  0.46496051602E+01 -0.82212428638E+01 -0.33592672546E+02  0.34895204701E+02  0.00000000000E+00 0.  1.
</event>
<event>
 7    1  0.7802682E-006  0.3206659E+02  0.7818608E-02  0.1585002E+00
          2   -1    0    0  502    0  0.00000000000E+00  0.00000000000E+00  0.54259443115E+03  0.54259443115E+03  0.00000000000E+00 0. -1.
          1   -1    0    0  501    0 -0.00000000000E+00 -0.00000000000E+00 -0.81199218687E+02  0.81199218687E+02  0.00000000000E+00 0. -1.
         25    2    1    2    0    0 -0.27357145500E+02  0.24072285305E+02  0.13318671700E+03  0.18626065492E+03  0.12500576650E+03 0.  0.
          2    1    1    2  501    0 -0.43896008358E+01 -0.30073351200E+02 -0.49694523236E+02  0.58251357817E+02  0.00000000000E+00 0. -1.
          1    1    1    2  502    0  0.31746746336E+02  0.60010658948E+01  0.37790301870E+03  0.37928163709E+03  0.00000000000E+00 0. -1.
         22    1    3    3    0    0 -0.68795162941E+02 -0.13326911281E+02  0.50007815861E+02  0.86088109838E+02  0.00000000000E+00 0. -1.
         22    1    3    3    0    0  0.41438017440E+02  0.37399196586E+02  0.83178901137E+02  0.10017254509E+03  0.00000000000E+00 0. -1.
</event>
<event>
 7    1  0.7802682E-006  0.2258206E+03  0.7818608E-02  0.1231187E+00
          2   -1    0    0  502    0  0.00000000000E+00  0.00000000000E+00  0.46849172316E+03  0.46849172316E+03  0.00000000000E+00 0. -1.
          1   -1    0    0  501    0 -0.00000000000E+00 -0.00000000000E+00 -0.39663366976E+03  0.39663366976E+03  0.00000000000E+00 0. -1.
         25    2    1    2    0    0  0.22631182907E+03  0.94700013777E+02  0.14099162493E+03  0.30933555997E+03  0.12499885509E+03 0.  0.
          2    1    1    2  501    0 -0.57597166294E+02  0.43214948329E+02 -0.25772961147E+03  0.26759954775E+03  0.00000000000E+00 0. -1.
          1    1    1    2  502    0 -0.16871466277E+03 -0.13791496211E+03  0.18859603994E+03  0.28819028521E+03  0.00000000000E+00 0. -1.
         22    1    3    3    0    0  0.11303052614E+03  0.71499208685E+01  0.11935871543E+03  0.16454034203E+03  0.00000000000E+00 0.  1.
         22    1    3    3    0    0  0.11328130293E+03  0.87550092908E+02  0.21632909497E+02  0.14479521793E+03  0.00000000000E+00 0.  1.
</event>
<event>
 7    1  0.7802682E-006  0.3855998E+02  0.7818608E-02  0.1573816E+00
          2   -1    0    0  502    0  0.00000000000E+00  0.00000000000E+00  0.56383027098E+03  0.56383027098E+03  0.00000000000E+00 0. -1.
          1   -1    0    0  501    0 -0.00000000000E+00 -0.00000000000E+00 -0.15745968464E+04  0.15745968464E+04  0.00000000000E+00 0. -1.
         25    2    1    2    0    0  0.51506693773E+02  0.14118806565E+02  0.20986685686E+03  0.25004068758E+03  0.12499587047E+03 0.  0.
          2    1    1    2  501    0 -0.14447159447E+02 -0.22907555948E+02 -0.15533052865E+04  0.15535413704E+04  0.00000000000E+00 0. -1.
          1    1    1    2  502    0 -0.37059534327E+02  0.87887493824E+01  0.33267185423E+03  0.33484505939E+03  0.00000000000E+00 0. -1.
         22    1    3    3    0    0  0.35190239442E+02 -0.34292502931E+02  0.19375673924E+02  0.52818040945E+02  0.00000000000E+00 0.  1.
         22    1    3    3    0    0  0.16316454331E+02  0.48411309497E+02  0.19049118293E+03  0.19722264663E+03  0.00000000000E+00 0.  1.
</event>
<event>
 7    1  0.8654519E-006  0.7597011E+02  0.7818608E-02  0.1490252E+00
          2   -1    0    0  502    0  0.00000000000E+00  0.00000000000E+00  0.15731716401E+04  0.15731716401E+04  0.00000000000E+00 0. -1.
          1   -1    0    0  501    0 -0.00000000000E+00 -0.00000000000E+00 -0.88096075127E+03  0.88096075127E+03  0.00000000000E+00 0. -1.
         25    2    1    2    0    0 -0.21420656734E+00 -0.83684518469E+02 -0.11885138456E+03  0.19171229804E+03  0.12499923636E+03 0.  0.
          2    1    1    2  501    0 -0.21226828078E+02  0.10830507144E+02 -0.72454464447E+03  0.72493642476E+03  0.00000000000E+00 0. -1.
          1    1    1    2  502    0  0.21441034646E+02  0.72854011324E+02  0.15356069179E+04  0.15374836686E+04  0.00000000000E+00 0. -1.
         22    1    3    3    0    0  0.40653381888E+02 -0.70686305996E+01 -0.91986307593E+02  0.10081737837E+03  0.00000000000E+00 0.  1.
         22    1    3    3    0    0 -0.40867588455E+02 -0.76615887869E+02 -0.26865076970E+02  0.90894919664E+02  0.00000000000E+00 0.  1.
</event>
<event>
 7    1  0.7802682E-006  0.8133471E+02  0.7818608E-02  0.1465744E+00
          2   -1    0    0  502    0  0.00000000000E+00  0.00000000000E+00  0.15007191152E+04  0.15007191152E+04  0.00000000000E+00 0. -1.
          1   -1    0    0  501    0 -0.00000000000E+00 -0.00000000000E+00 -0.95469754630E+02  0.95469754630E+02  0.00000000000E+00 0. -1.
         25    2    1    2    0    0 -0.89502017874E+02  0.18605788512E+02  0.63635632893E+03  0.65492990669E+03  0.12500807469E+03 0.  0.
          2    1    1    2  501    0  0.71621333679E+02 -0.38134924797E+02 -0.66828131735E+02  0.10511844328E+03  0.00000000000E+00 0. -1.
          1    1    1    2  502    0  0.17880684195E+02  0.19529136285E+02  0.83572116341E+03  0.83614051989E+03  0.00000000000E+00 0. -1.
         22    1    3    3    0    0 -0.32542751275E+02  0.22478338803E+02  0.41456765436E+02  0.57297205659E+02  0.00000000000E+00 0. -1.
         22    1    3    3    0    0 -0.56959266599E+02 -0.38725502913E+01  0.59489956349E+03  0.59763270103E+03  0.00000000000E+00 0. -1.
</event>
<event>
 7    1  0.7802682E-006  0.1581873E+03  0.7818608E-02  0.1193309E+00
          2   -1    0    0  502    0  0.00000000000E+00  0.00000000000E+00  0.23033324981E+04  0.23033324981E+04  0.00000000000E+00 0. -1.
          1   -1    0    0  501    0 -0.00000000000E+00 -0.00000000000E+00 -0.26916134288E+03  0.26916134288E+03  0.00000000000E+00 0. -1.
         25    2    1    2    0    0 -0.45512300638E+02  0.82076951591E+01  0.13213796359E+04  0.13280842071E+04  0.12499913241E+03 0.  0.
          2    1    1    2  501    0  0.19232001708E+02 -0.15975315075E+03 -0.23467479147E+03  0.28454032546E+03  0.00000000000E+00 0. -1.
          1    1    1    2  502    0  0.26280298930E+02  0.15154545559E+03  0.94746631079E+03  0.95986930845E+03  0.00000000000E+00 0. -1.
         22    1    3    3    0    0  0.24078175303E+02  0.25158733302E+02  0.13093787915E+03  0.13548966228E+03  0.00000000000E+00 0.  1.
         22    1    3    3    0    0 -0.69590475941E+02 -0.16951038143E+02  0.11904417568E+04  0.11925945448E+04  0.00000000000E+00 0.  1.
</event>
<event>
 7    1  0.7802682E-006  0.8296372E+02  0.7818608E-02  0.1395430E+00
          2   -1    0    0  502    0  0.00000000000E+00  0.00000000000E+00  0.28070671374E+04  0.28070671374E+04  0.00000000000E+00 0. -1.
          1   -1    0    0  501    0 -0.00000000000E+00 -0.00000000000E+00 -0.59238697115E+03  0.59238697115E+03  0.00000000000E+00 0. -1.
         25    2    1    2    0    0 -0.36157315572E+02  0.63733168020E+02 -0.31491917719E+03  0.34665252939E+03  0.12499847916E+03 0.  0.
          2    1    1    2  501    0  0.77449697898E+02 -0.47883236896E+02 -0.25349650328E+03  0.26935429689E+03  0.00000000000E+00 0. -1.
          1    1    1    2  502    0 -0.41292382326E+02 -0.15849931124E+02  0.27830958467E+04  0.27834472823E+04  0.00000000000E+00 0. -1.
         22    1    3    3    0    0  0.42719505678E+02  0.28795558908E+02 -0.69498080421E+02  0.86510829151E+02  0.00000000000E+00 0. -1.
         22    1    3    3    0    0 -0.78876821250E+02  0.34937609112E+02 -0.24542109677E+03  0.26014170023E+03  0.00000000000E+00 0. -1.
</event>
<event>
 7    1  0.7802682E-006  0.5066097E+02  0.7818608E-02  0.1469527E+00
          2   -1    0    0  502    0  0.00000000000E+00  0.00000000000E+00  0.23636506360E+04  0.23636506360E+04  0.00000000000E+00 0. -1.
          1   -1    0    0  501    0 -0.00000000000E+00 -0.00000000000E+00 -0.29065800919E+03  0.29065800919E+03  0.00000000000E+00 0. -1.
         25    2    1    2    0    0 -0.15982485952E+02 -0.83972072464E+02  0.18065155487E+03  0.23572587715E+03  0.12499982429E+03 0.  0.
          2    1    1    2  501    0  0.25080898920E+02  0.43614688329E+02 -0.26051523451E+03  0.26532900320E+03  0.00000000000E+00 0. -1.
          1    1    1    2  502    0 -0.90984129673E+01  0.40357384135E+02  0.21528563064E+04  0.21532537648E+04  0.00000000000E+00 0. -1.
         22    1    3    3    0    0  0.37850438576E+02 -0.14173005333E+02  0.70493717906E+01  0.41027105958E+02  0.00000000000E+00 0.  1.
         22    1    3    3    0    0 -0.53832924529E+02 -0.69799067131E+02  0.17360218308E+03  0.19469877119E+03  0.00000000000E+00 0.  1.
</event>
<event>
 7    1  0.7802682E-006  0.1693032E+03  0.7818608E-02  0.1278686E+00
          2   -1    0    0  502    0  0.00000000000E+00  0.00000000000E+00  0.48162921315E+03  0.48162921315E+03  0.00000000000E+00 0. -1.
          1   -1    0    0  501    0 -0.00000000000E+00 -0.00000000000E+00 -0.90702721660E+03  0.90702721660E+03  0.00000000000E+00 0. -1.
         25    2    1    2    0    0 -0.14267787661E+03  0.54624570734E+02  0.84073571343E+02  0.21455475174E+03  0.12499822355E+03 0.  0.
          2    1    1    2  501    0  0.12821812504E+03 -0.11283376600E+03 -0.83031540647E+03  0.84769984108E+03  0.00000000000E+00 0. -1.
          1    1    1    2  502    0  0.14459751575E+02  0.58209195269E+02  0.32084383168E+03  0.32640183694E+03  0.00000000000E+00 0. -1.
         22    1    3    3    0    0 -0.61243335732E+01  0.50968906908E+02  0.54339363278E+02  0.74753617535E+02  0.00000000000E+00 0. -1.
         22    1    3    3    0    0 -0.13655354304E+03  0.36556638266E+01  0.29734208066E+02  0.13980113420E+03  0.00000000000E+00 0. -1.
</event>
<event>
 7    1  0.7802682E-006  0.4659899E+02  0.7818608E-02  0.1476439E+00
          2   -1    0    0  502    0  0.00000000000E+00  0.00000000000E+00  0.49412787109E+03  0.49412787109E+03  0.00000000000E+00 0. -1.
          1   -1    0    0  501    0 -0.00000000000E+00 -0.00000000000E+00 -0.15347459040E+03  0.15347459040E+03  0.00000000000E+00 0. -1.
         25    2    1    2    0    0 -0.23106901619E+00 -0.49850962535E+01  0.24190930516E+02  0.12741361447E+03  0.12499649377E+03 0.  0.
          2    1    1    2  501    0 -0.10622961511E+02 -0.41473831194E+02 -0.95927862139E+02  0.10504799246E+03  0.00000000000E+00 0. -1.
          1    1    1    2  502    0  0.10854030527E+02  0.46458927448E+02  0.41239021231E+03  0.41514085457E+03  0.00000000000E+00 0. -1.
         22    1    3    3    0    0 -0.10607309520E+01  0.49788630946E+01  0.75231208518E+02  0.75403242391E+02  0.00000000000E+00 0.  1.
         22    1    3    3    0    0  0.82966193580E+00 -0.99639593481E+01 -0.51040278002E+02  0.52010372075E+02  0.00000000000E+00 0.  1.
</event>
<event>
 7    1  0.7802682E-006  0.3074809E+02  0.7818608E-02  0.1592657E+00
          2   -1    0    0  502    0  0.00000000000E+00  0.00000000000E+00  0.68501686475E+03  0.68501686475E+03  0.00000000000E+00 0. -1.
          1   -1    0    0  501    0 -0.00000000000E+00 -0.00000000000E+00 -0.75173561469E+03  0.75173561469E+03  0.00000000000E+00 0. -1.
         25    2    1    2    0    0 -0.87429433870E+01 -0.37213967936E+02 -0.51065709207E+03  0.52712120085E+03  0.12499910492E+03 0.  0.
          2    1    1    2  501    0  0.27898684590E+02  0.13161890363E+02 -0.23147348793E+03  0.23351990831E+03  0.00000000000E+00 0. -1.
          1    1    1    2  502    0 -0.19155741203E+02  0.24052077573E+02  0.67541183005E+03  0.67611137029E+03  0.00000000000E+00 0. -1.
         22    1    3    3    0    0 -0.10628032795E+02  0.22275046365E+02 -0.40579828313E+03  0.40654812675E+03  0.00000000000E+00 0.  1.
         22    1    3    3    0    0  0.18850894076E+01 -0.59489014301E+02 -0.10485880894E+03  0.12057307409E+03  0.00000000000E+00 0.  1.
</event>
<event>
 7    1  0.7802682E-006  0.5893657E+02  0.7818608E-02  0.1454780E+00
          2   -1    0    0  502    0  0.00000000000E+00  0.00000000000E+00  0.16303777277E+04  0.16303777277E+04  0.00000000000E+00 0. -1.
          1   -1    0    0  501    0 -0.00000000000E+00 -0.00000000000E+00 -0.13965088778E+03  0.13965088778E+03  0.00000000000E+00 0. -1.
         25    2    1    2    0    0 -0.49789686719E+02  0.82817063192E+02  0.32233581948E+03  0.35897519609E+03  0.12500052811E+03 0.  0.
          2    1    1    2  501    0  0.24600262180E+02 -0.30992891024E+02 -0.11744257740E+03  0.12392937981E+03  0.00000000000E+00 0. -1.
          1    1    1    2  502    0  0.25189424539E+02 -0.51824172167E+02  0.12858335978E+04  0.12871240396E+04  0.00000000000E+00 0. -1.
         22    1    3    3    0    0  0.19656302238E+02  0.62912718178E+02  0.68507464470E+02  0.95066571487E+02  0.00000000000E+00 0.  1.
         22    1    3    3    0    0 -0.69445988958E+02  0.19904345014E+02  0.25382835501E+03  0.26390862460E+03  0.00000000000E+00 0.  1.
</event>
<event>
 7    1  0.7802682E-006  0.1511577E+03  0.7818608E-02  0.1235191E+00
          2   -1    0    0  502    0  0.00000000000E+00  0.00000000000E+00  0.67732020719E+03  0.67732020719E+03  0.00000000000E+00 0. -1.
          1   -1    0    0  501    0 -0.00000000000E+00 -0.00000000000E+00 -0.89756806541E+03  0.89756806541E+03  0.00000000000E+00 0. -1.
         25    2    1    2    0    0 -0.84230178391E+02  0.10706012584E+02  0.28941021157E+03  0.32648513660E+03  0.12499972883E+03 0.  0.
          2    1    1    2  501    0  0.49374855704E+02  0.14286631148E+03 -0.85531206382E+03  0.86856628178E+03  0.00000000000E+00 0. -1.
          1    1    1    2  502    0  0.34855322688E+02 -0.15357232407E+03  0.34565399403E+03  0.37983685422E+03  0.00000000000E+00 0. -1.
         22    1    3    3    0    0 -0.11227488269E+03  0.30040923295E+02  0.23722543220E+03  0.26416663687E+03  0.00000000000E+00 0.  1.
         22    1    3    3    0    0  0.28044704294E+02 -0.19334910711E+02  0.52184779366E+02  0.62318499730E+02  0.00000000000E+00 0.  1.
</event>
<event>
 7    1  0.7802682E-006  0.2157939E+03  0.7818608E-02  0.1270539E+00
          2   -1    0    0  502    0  0.00000000000E+00  0.00000000000E+00  0.83887901925E+02  0.83887901925E+02  0.00000000000E+00 0. -1.
          1   -1    0    0  501    0 -0.00000000000E+00 -0.00000000000E+00 -0.32568945666E+04  0.32568945666E+04  0.00000000000E+00 0. -1.
         25    2    1    2    0    0  0.10177998203E+03  0.14514522035E+03 -0.60687063547E+03  0.64447167063E+03  0.12500186524E+03 0.  0.
          2    1    1    2  501    0  0.28603061079E+02  0.42083237176E+02 -0.24301958325E+04  0.24307284749E+04  0.00000000000E+00 0. -1.
          1    1    1    2  502    0 -0.13038304311E+03 -0.18722845753E+03 -0.13594019664E+03  0.26558232302E+03  0.00000000000E+00 0. -1.
         22    1    3    3    0    0 -0.10625323845E+02 -0.10246587040E+02 -0.12452211066E+03  0.12539396355E+03  0.00000000000E+00 0.  1.
         22    1    3    3    0    0  0.11240530588E+03  0.15539180739E+03 -0.48234852481E+03  0.51907770707E+03  0.00000000000E+00 0.  1.
</event>
<event>
 7    1  0.7802682E-006  0.6472060E+02  0.7818608E-02  0.1419075E+00
          2   -1    0    0  502    0  0.00000000000E+00  0.00000000000E+00  0.12317124385E+04  0.12317124385E+04  0.00000000000E+00 0. -1.
          1   -1    0    0  501    0 -0.00000000000E+00 -0.00000000000E+00 -0.10624168436E+03  0.10624168436E+03  0.00000000000E+00 0. -1.
         25    2    1    2    0    0  0.11788093986E+02 -0.20706243068E+02  0.28730495932E+03  0.31422420921E+03  0.12500002537E+03 0.  0.
          2    1    1    2  501    0 -0.56851552344E+02  0.34437548259E+02 -0.80195990893E+02  0.10416064847E+03  0.00000000000E+00 0. -1.
          1    1    1    2  502    0  0.45063458358E+02 -0.13731305191E+02  0.91836178569E+03  0.91956926516E+03  0.00000000000E+00 0. -1.
         22    1    3    3    0    0 -0.47444094352E+02 -0.41220987445E+02  0.16955558632E+03  0.18082922537E+03  0.00000000000E+00 0. -1.
         22    1    3    3    0    0  0.59232188338E+02  0.20514744377E+02  0.11774937300E+03  0.13339498384E+03  0.00000000000E+00 0. -1.
</event>
<event>
 7    1  0.7802682E-006  0.5760162E+02  0.7818608E-02  0.1433856E+00
          2   -1    0    0  502    0  0.00000000000E+00  0.00000000000E+00  0.72327603303E+03  0.72327603303E+03  0.00000000000E+00 0. -1.
          1   -1    0    0  501    0 -0.00000000000E+00 -0.00000000000E+00 -0.63213301387E+02  0.63213301387E+02  0.00000000000E+00 0. -1.
         25    2    1    2    0    0  0.41493356693E+02  0.10506711476E+02  0.60903809271E+02  0.14548476937E+03  0.12499781797E+03 0.  0.
          2    1    1    2  501    0 -0.64337534599E+02  0.30903681235E+02  0.44026257421E+02  0.83860999366E+02  0.00000000000E+00 0. -1.
          1    1    1    2  502    0  0.22844177906E+02 -0.41410392712E+02  0.55513266495E+03  0.55714356569E+03  0.00000000000E+00 0. -1.
         22    1    3    3    0    0  0.85285961079E+02  0.25369557967E+01  0.52514048381E+02  0.10018910409E+03  0.00000000000E+00 0. -1.
         22    1    3    3    0    0 -0.43792604386E+02  0.79697556797E+01  0.83897608903E+01  0.45295665271E+02  0.00000000000E+00 0. -1.
</event>
<event>
 7    1  0.7802682E-006  0.1208335E+03  0.7818608E-02  0.1253851E+00
          2   -1    0    0  502    0  0.00000000000E+00  0.00000000000E+00  0.98803997256E+03  0.98803997256E+03  0.00000000000E+00 0. -1.
          1   -1    0    0  501    0 -0.00000000000E+00 -0.00000000000E+00 -0.25635580001E+03  0.25635580001E+03  0.00000000000E+00 0. -1.
         25    2    1    2    0    0  0.18526809680E+03 -0.54896283460E+02  0.33824941414E+03  0.40911750648E+03  0.12500639309E+03 0.  0.
          2    1    1    2  501    0 -0.82642103659E+02  0.85193666995E+02 -0.19984048125E+03  0.23243041139E+03  0.00000000000E+00 0. -1.
          1    1    1    2  502    0 -0.10262599314E+03 -0.30297383535E+02  0.59327523966E+03  0.60284785470E+03  0.00000000000E+00 0. -1.
         22    1    3    3    0    0  0.43474006056E+02 -0.74351585020E+02  0.11000132726E+03  0.13970840847E+03  0.00000000000E+00 0.  1.
         22    1    3    3    0    0  0.14179409074E+03  0.19455301561E+02  0.22824808688E+03  0.26940909801E+03  0.00000000000E+00 0.  1.
</event>
<event>
 7    1  0.7802682E-006  0.7759589E+02  0.7818608E-02  0.1344975E+00
          2   -1    0    0  502    0  0.00000000000E+00  0.00000000000E+00  0.18289863728E+04  0.18289863728E+04  0.00000000000E+00 0. -1.
          1   -1    0    0  501    0 -0.00000000000E+00 -0.00000000000E+00 -0.96076544498E+02  0.96076544498E+02  0.00000000000E+00 0. -1.
         25    2    1    2    0    0 -0.89602389819E+02  0.11622399674E+02  0.34474900592E+03  0.37767958273E+03  0.12500528667E+03 0.  0.
          2    1    1    2  501    0  0.31373299174E+02 -0.64589260765E+02 -0.62132590549E+02  0.94955333266E+02  0.00000000000E+00 0. -1.
          1    1    1    2  502    0  0.58229090645E+02  0.52966861091E+02  0.14502934130E+04  0.14524280013E+04  0.00000000000E+00 0. -1.
         22    1    3    3    0    0 -0.64840794240E+02  0.54069280427E+02  0.29845550963E+03  0.31016690170E+03  0.00000000000E+00 0.  1.
         22    1    3    3    0    0 -0.24761595580E+02 -0.42446880752E+02  0.46293496296E+02  0.67512681035E+02  0.00000000000E+00 0.  1.
</event>
<event>
 7    1  0.7802682E-006  0.7105390E+02  0.7818608E-02  0.1370309E+00
          2   -1    0    0  502    0  0.00000000000E+00  0.00000000000E+00  0.30306632892E+03  0.30306632892E+03  0.00000000000E+00 0. -1.
          1   -1    0    0  501    0 -0.00000000000E+00 -0.00000000000E+00 -0.91975003929E+03  0.91975003929E+03  0.00000000000E+00 0. -1.
         25    2    1    2    0    0  0.76406391810E+02  0.24655441228E+02 -0.37093172411E+02  0.15312182470E+03  0.12499824906E+03 0.  0.
          2    1    1    2  501    0 -0.28202992591E+02 -0.65731685126E+02 -0.81896575723E+03  0.82208331374E+03  0.00000000000E+00 0. -1.
          1    1    1    2  502    0 -0.48203399219E+02  0.41076243898E+02  0.23937521927E+03  0.24761122977E+03  0.00000000000E+00 0. -1.
         22    1    3    3    0    0  0.39141035499E+02  0.62407605254E+02  0.18837114347E+02  0.76036614406E+02  0.00000000000E+00 0.  1.
         22    1    3    3    0    0  0.37265356312E+02 -0.37752164026E+02 -0.55930286759E+02  0.77085210297E+02  0.00000000000E+00 0.  1.
</event>
<event>
 7    1  0.7802682E-006  0.1519487E+03  0.7818608E-02  0.1265291E+00
          2   -1    0    0  502    0  0.00000000000E+00  0.00000000000E+00  0.18867405691E+03  0.18867405691E+03  0.00000000000E+00 0. -1.
          1   -1    0    0  501    0 -0.00000000000E+00 -0.00000000000E+00 -0.29586862459E+04  0.29586862459E+04  0.00000000000E+00 0. -1.
         25    2    1    2    0    0 -0.18089205742E+03 -0.95487480258E+02 -0.17017364448E+04  0.17185372691E+04  0.12499448977E+03 0.  0.
          2    1    1    2  501    0  0.10812032589E+03  0.73439807946E+02 -0.12369319454E+04  0.12438183339E+04  0.00000000000E+00 0. -1.
          1    1    1    2  502    0  0.72771731537E+02  0.22047672312E+02  0.16865620115E+03  0.18500469981E+03  0.00000000000E+00 0. -1.
         22    1    3    3    0    0  0.13206549427E+02 -0.13029175075E+02 -0.34598415643E+03  0.34648118109E+03  0.00000000000E+00 0.  1.
         22    1    3    3    0    0 -0.19409860685E+03 -0.82458305182E+02 -0.13557522884E+04  0.13720560880E+04  0.00000000000E+00 0.  1.
</event>
<event>
 7    1  0.7802682E-006  0.4380092E+02  0.7818608E-02  0.1584801E+00
          2   -1    0    0  502    0  0.00000000000E+00  0.00000000000E+00  0.71690014876E+03  0.71690014876E+03  0.00000000000E+00 0. -1.
          1   -1    0    0  501    0 -0.00000000000E+00 -0.00000000000E+00 -0.19412222184E+03  0.19412222184E+03  0.00000000000E+00 0. -1.
         25    2    1    2    0    0 -0.47007171181E+02 -0.18103822087E+02 -0.11748910391E+03  0.17879112395E+03  0.12500061579E+03 0.  0.
          2    1    1    2  501    0  0.29158190584E+02  0.31434117763E+02 -0.35763919683E+02  0.55833339402E+02  0.00000000000E+00 0. -1.
          1    1    1    2  502    0  0.17848980597E+02 -0.13330295676E+02  0.67603095052E+03  0.67639790726E+03  0.00000000000E+00 0. -1.
         22    1    3    3    0    0  0.42522185750E+02 -0.49039133120E+01 -0.25877247362E+02  0.50018162479E+02  0.00000000000E+00 0. -1.
         22    1    3    3    0    0 -0.89529356931E+02 -0.13199908775E+02 -0.91611856552E+02  0.12877296147E+03  0.00000000000E+00 0. -1.
</event>
<event>
 7    1  0.7802682E-006  0.8280000E+02  0.7818608E-02  0.1371485E+00
          2   -1    0    0  502    0  0.00000000000E+00  0.00000000000E+00  0.12377016835E+04  0.12377016835E+04  0.00000000000E+00 0. -1.
          1   -1    0    0  501    0 -0.00000000000E+00 -0.00000000000E+00 -0.78947812871E+03  0.78947812871E+03  0.00000000000E+00 0. -1.
         25    2    1    2    0    0  0.10358583799E+03 -0.88259447345E+02 -0.25200815854E+03  0.31249573471E+03  0.12500286543E+03 0.  0.
          2    1    1    2  501    0 -0.43550883459E+02  0.31622789392E+02 -0.50438243390E+03  0.50724581801E+03  0.00000000000E+00 0. -1.
          1    1    1    2  502    0 -0.60034954534E+02  0.56636657953E+02  0.12046141473E+04  0.12074382595E+04  0.00000000000E+00 0. -1.
         22    1    3    3    0    0  0.68196623518E+01  0.29372618588E+02 -0.62230311057E+02  0.69151067465E+02  0.00000000000E+00 0. -1.
         22    1    3    3    0    0  0.96766175641E+02 -0.11763206593E+03 -0.18977784748E+03  0.24334466725E+03  0.00000000000E+00 0. -1.
</event>
<event>
 7    1  0.7802682E-006  0.4950730E+02  0.7818608E-02  0.1464518E+00
          2   -1    0    0  502    0  0.00000000000E+00  0.00000000000E+00  0.65810229990E+03  0.65810229990E+03  0.00000000000E+00 0. -1.
          1   -1    0    0  501    0 -0.00000000000E+00 -0.00000000000E+00 -0.24758923093E+03  0.24758923093E+03  0.00000000000E+00 0. -1.
         25    2    1    2    0    0 -0.20044030932E+02  0.14515900309E+02  0.97072873124E+02  0.16018553658E+03  0.12499515549E+03 0.  0.
          2    1    1    2  501    0  0.45747801204E+02  0.21056771507E+02 -0.21217086289E+03  0.21806587078E+03  0.00000000000E+00 0. -1.
          1    1    1    2  502    0 -0.25703770272E+02 -0.35572671816E+02  0.52561105873E+03  0.52744012347E+03  0.00000000000E+00 0. -1.
         22    1    3    3    0    0  0.47113207697E+02 -0.20793456144E+02  0.37054356545E+02  0.63443262029E+02  0.00000000000E+00 0.  1.
         22    1    3    3    0    0 -0.67157238629E+02  0.35309356453E+02  0.60018516579E+02  0.96742274554E+02  0.00000000000E+00 0.  1.
</event>
<event>
 7    1  0.7802682E-006  0.1060023E+03  0.7818608E-02  0.1296854E+00
          2   -1    0    0  502    0  0.00000000000E+00  0.00000000000E+00  0.23796260929E+03  0.23796260929E+03  0.00000000000E+00 0. -1.
          1   -1    0    0  501    0 -0.00000000000E+00 -0.00000000000E+00 -0.93838524999E+03  0.93838524999E+03  0.00000000000E+00 0. -1.
         25    2    1    2    0    0 -0.68383368572E+02 -0.25517872264E+01 -0.55181370678E+02  0.15281556877E+03  0.12499927069E+03 0.  0.
          2    1    1    2  501    0  0.78581032733E+02 -0.77560178270E+02 -0.82190350737E+03  0.82928640130E+03  0.00000000000E+00 0. -1.
          1    1    1    2  502    0 -0.10197664161E+02  0.80111965496E+02  0.17666223735E+03  0.19424588921E+03  0.00000000000E+00 0. -1.
         22    1    3    3    0    0 -0.80747795675E+02  0.44600090597E+02 -0.46496126544E+02  0.10330181204E+03  0.00000000000E+00 0.  1.
         22    1    3    3    0    0  0.12364427103E+02 -0.47151877823E+02 -0.86852441342E+01  0.49513756730E+02  0.00000000000E+00 0.  1.
</event>
<event>
 7    1  0.7802682E-006  0.4978478E+02  0.7818608E-02  0.1486419E+00
          2   -1    0    0  502    0  0.00000000000E+00  0.00000000000E+00  0.68302061036E+03  0.68302061036E+03  0.00000000000E+00 0. -1.
          1   -1    0    0  501    0 -0.00000000000E+00 -0.00000000000E+00 -0.97379110361E+02  0.97379110361E+02  0.00000000000E+00 0. -1.
         25    2    1    2    0    0 -0.24892712103E+02  0.82531322393E+02  0.28246529963E+03  0.32069136175E+03  0.12500095086E+03 0.  0.
          2    1    1    2  501    0  0.14080088830E+02 -0.46780047386E+02 -0.69617448140E+02  0.85048285229E+02  0.00000000000E+00 0. -1.
          1    1    1    2  502    0  0.10812623273E+02 -0.35751275008E+02  0.37279364851E+03  0.37466007374E+03  0.00000000000E+00 0. -1.
         22    1    3    3    0    0 -0.24868662163E+02  0.58014631852E+02  0.28859743186E+03  0.29541940617E+03  0.00000000000E+00 0.  1.
         22    1    3    3    0    0 -0.24049940225E-01  0.24516690541E+02 -0.61321322245E+01  0.25271955585E+02  0.00000000000E+00 0.  1.
</event>
<event>
 7    1  0.7802682E-006  0.9569211E+02  0.7818608E-02  0.1355016E+00
          2   -1    0    0  502    0  0.00000000000E+00  0.00000000000E+00  0.50527737302E+04  0.50527737302E+04  0.00000000000E+00 0. -1.
          1   -1    0    0  501    0 -0.00000000000E+00 -0.00000000000E+00 -0.17341270206E+02  0.17341270206E+02  0.00000000000E+00 0. -1.
         25    2    1    2    0    0  0.12288841363E+03 -0.71599101417E+02  0.16624921546E+04  0.16732403621E+04  0.12500060673E+03 0.  0.
          2    1    1    2  501    0 -0.71882945093E+02  0.55631901293E+02  0.16412438554E+03  0.18761364600E+03  0.00000000000E+00 0. -1.
          1    1    1    2  502    0 -0.51005468534E+02  0.15967200124E+02  0.32088159198E+04  0.32092609923E+04  0.00000000000E+00 0. -1.
         22    1    3    3    0    0  0.14898655238E+03 -0.62161011561E+02  0.13930412362E+04  0.14023640290E+04  0.00000000000E+00 0. -1.
         22    1    3    3    0    0 -0.26098138756E+02 -0.94380898559E+01  0.26945091839E+03  0.27087633305E+03  0.00000000000E+00 0. -1.
</event>
<event>
 7    1  0.7802682E-006  0.1277167E+03  0.7818608E-02  0.1285079E+00
          2   -1    0    0  502    0  0.00000000000E+00  0.00000000000E+00  0.10297148730E+04  0.10297148730E+04  0.00000000000E+00 0. -1.
          1   -1    0    0  501    0 -0.00000000000E+00 -0.00000000000E+00 -0.16196776266E+03  0.16196776266E+03  0.00000000000E+00 0. -1.
         25    2    1    2    0    0 -0.60370046385E+02 -0.26168535192E+02  0.38872981023E+02  0.14650826382E+03  0.12499691188E+03 0.  0.
          2    1    1    2  501    0 -0.37534966109E+02 -0.64734098786E+02 -0.89769323425E+02  0.11686705547E+03  0.00000000000E+00 0. -1.
          1    1    1    2  502    0  0.97905012494E+02  0.90902633978E+02  0.91864345276E+03  0.92830731638E+03  0.00000000000E+00 0. -1.
         22    1    3    3    0    0 -0.30290910343E+02  0.50438508082E+02  0.19202707279E+02  0.61889630099E+02  0.00000000000E+00 0. -1.
         22    1    3    3    0    0 -0.30079136042E+02 -0.76607043274E+02  0.19670273744E+02  0.84618633724E+02  0.00000000000E+00 0. -1.
</event>
<event>
 7    1  0.7802682E-006  0.1745914E+03  0.7818608E-02  0.1242105E+00
          2   -1    0    0  502    0  0.00000000000E+00  0.00000000000E+00  0.24121489712E+04  0.24121489712E+04  0.00000000000E+00 0. -1.
          1   -1    0    0  501    0 -0.00000000000E+00 -0.00000000000E+00 -0.15365245092E+04  0.15365245092E+04  0.00000000000E+00 0. -1.
         25    2    1    2    0    0  0.11133987527E+03 -0.95024177805E+02 -0.71432093371E+02  0.20531568546E+03  0.12500329812E+03 0.  0.
          2    1    1    2  501    0 -0.47324027048E+02 -0.68563067653E+02 -0.13936153771E+04  0.13961032473E+04  0.00000000000E+00 0. -1.
          1    1    1    2  502    0 -0.64015848222E+02  0.16358724546E+03  0.23406719325E+04  0.23472545477E+04  0.00000000000E+00 0. -1.
         22    1    3    3    0    0  0.13380260220E+02  0.22090738621E+02  0.14999362596E+02  0.29866586258E+02  0.00000000000E+00 0. -1.
         22    1    3    3    0    0  0.97959615051E+02 -0.11711491643E+03 -0.86431455967E+02  0.17544909920E+03  0.00000000000E+00 0. -1.
</event>
<event>
 7    1  0.7802682E-006  0.9323820E+02  0.7818608E-02  0.1347410E+00
          2   -1    0    0  502    0  0.00000000000E+00  0.00000000000E+00  0.25721798469E+04  0.25721798469E+04  0.00000000000E+00 0. -1.
          1   -1    0    0  501    0 -0.00000000000E+00 -0.00000000000E+00 -0.22982890397E+03  0.22982890397E+03  0.00000000000E+00 0. -1.
         25    2    1    2    0    0 -0.89574494767E+02 -0.96427276671E+02  0.18543478764E+04  0.18632105971E+04  0.12500349099E+03 0.  0.
          2    1    1    2  501    0  0.28310326572E+02  0.51219914294E+02 -0.21952156932E+03  0.22718863001E+03  0.00000000000E+00 0. -1.
          1    1    1    2  502    0  0.61264168195E+02  0.45207362377E+02  0.70752463589E+03  0.71160952376E+03  0.00000000000E+00 0. -1.
         22    1    3    3    0    0 -0.84303860954E+02 -0.73748673965E+02  0.72315067965E+03  0.73177381298E+03  0.00000000000E+00 0. -1.
         22    1    3    3    0    0 -0.52706338128E+01 -0.22678602706E+02  0.11311971967E+04  0.11314367841E+04  0.00000000000E+00 0. -1.
</event>
<event>
 7    1  0.7802682E-006  0.7286650E+02  0.7818608E-02  0.1491043E+00
          2   -1    0    0  502    0  0.00000000000E+00  0.00000000000E+00  0.14466207154E+04  0.14466207154E+04  0.00000000000E+00 0. -1.
          1   -1    0    0  501    0 -0.00000000000E+00 -0.00000000000E+00 -0.38356178738E+03  0.38356178738E+03  0.00000000000E+00 0. -1.
         25    2    1    2    0    0 -0.24546172886E+02 -0.41639426589E+02  0.52554685095E+03  0.54236677880E+03  0.12500349495E+03 0.  0.
          2    1    1    2  501    0  0.37990962425E+02  0.62370274685E+02 -0.37142820215E+03  0.37853965941E+03  0.00000000000E+00 0. -1.
          1    1    1    2  502    0 -0.13444789539E+02 -0.20730848096E+02  0.90894027925E+03  0.90927606461E+03  0.00000000000E+00 0. -1.
         22    1    3    3    0    0 -0.34662845957E+02 -0.77000774300E+02  0.23920350453E+03  0.25367094574E+03  0.00000000000E+00 0.  1.
         22    1    3    3    0    0  0.10116673071E+02  0.35361347711E+02  0.28634334643E+03  0.28869583306E+03  0.00000000000E+00 0.  1.
</event>
<event>
 7    1  0.7802682E-006  0.5820120E+02  0.7818608E-02  0.1504640E+00
          2   -1    0    0  502    0  0.00000000000E+00  0.00000000000E+00  0.22926676194E+04  0.22926676194E+04  0.00000000000E+00 0. -1.
          1   -1    0    0  501    0 -0.00000000000E+00 -0.00000000000E+00 -0.42398424789E+02  0.42398424789E+02  0.00000000000E+00 0. -1.
         25    2    1    2    0    0  0.61421475712E+02  0.57176783213E+02  0.16301714437E+04  0.16371091529E+04  0.12500264161E+03 0.  0.
          2    1    1    2  501    0 -0.35801614074E+02 -0.45469934850E+02 -0.16936485357E+02  0.60300207975E+02  0.00000000000E+00 0. -1.
          1    1    1    2  502    0 -0.25619861638E+02 -0.11706848362E+02  0.63703423630E+03  0.63765668335E+03  0.00000000000E+00 0. -1.
         22    1    3    3    0    0  0.86003986449E+02 -0.24319905772E+01  0.95045172679E+03  0.95433803509E+03  0.00000000000E+00 0.  1.
         22    1    3    3    0    0 -0.24582510737E+02  0.59608773790E+02  0.67971971693E+03  0.68277111782E+03  0.00000000000E+00 0.  1.
</event>
<event>
 7    1  0.7802682E-006  0.2749380E+02  0.7818608E-02  0.1656625E+00
          2   -1    0    0  502    0  0.00000000000E+00  0.00000000000E+00  0.15099515645E+03  0.15099515645E+03  0.00000000000E+00 0. -1.
          1   -1    0    0  501    0 -0.00000000000E+00 -0.00000000000E+00 -0.18023855650E+03  0.18023855650E+03  0.00000000000E+00 0. -1.
         25    2    1    2    0    0 -0.14388257147E+02  0.47944539977E+02 -0.23949912364E+02  0.13673129580E+03  0.12496458735E+03 0.  0.
          2    1    1    2  501    0  0.79900680046E+01 -0.25545478339E+02 -0.96616330668E+02  0.10025531408E+03  0.00000000000E+00 0. -1.
          1    1    1    2  502    0  0.63981891425E+01 -0.22399061638E+02  0.91322842982E+02  0.94247103069E+02  0.00000000000E+00 0. -1.
         22    1    3    3    0    0 -0.54191467560E+02 -0.75244605106E+01 -0.38533124477E+02  0.66918863889E+02  0.00000000000E+00 0.  1.
         22    1    3    3    0    0  0.39803210413E+02  0.55469000487E+02  0.14583212114E+02  0.69812431914E+02  0.00000000000E+00 0.  1.
</event>
<event>
 7    1  0.7802682E-006  0.1686871E+03  0.7818608E-02  0.1386387E+00
          2   -1    0    0  502    0  0.00000000000E+00  0.00000000000E+00  0.10215825439E+04  0.10215825439E+04  0.00000000000E+00 0. -1.
          1   -1    0    0  501    0 -0.00000000000E+00 -0.00000000000E+00 -0.15671779184E+04  0.15671779184E+04  0.00000000000E+00 0. -1.
         25    2    1    2    0    0  0.76005575815E+02 -0.16543670896E+03  0.18300982806E+03  0.28681463194E+03  0.12499553474E+03 0.  0.
          2    1    1    2  501    0  0.83670548462E+01  0.21842574353E+02 -0.15063686990E+04  0.15065502855E+04  0.00000000000E+00 0. -1.
          1    1    1    2  502    0 -0.84372630661E+02  0.14359413461E+03  0.77776349645E+03  0.79539554482E+03  0.00000000000E+00 0. -1.
         22    1    3    3    0    0 -0.34742958418E+02 -0.37549037798E+02  0.34508652977E+02  0.61707783378E+02  0.00000000000E+00 0. -1.
         22    1    3    3    0    0  0.11074853423E+03 -0.12788767116E+03  0.14850117508E+03  0.22510684856E+03  0.00000000000E+00 0. -1.
</event>
<event>
 7    1  0.7802682E-006  0.4825159E+02  0.7818608E-02  0.1470629E+00
          2   -1    0    0  502    0  0.00000000000E+00  0.00000000000E+00  0.30577210411E+04  0.30577210411E+04  0.00000000000E+00 0. -1.
          1   -1    0    0  501    0 -0.00000000000E+00 -0.00000000000E+00 -0.18854280001E+03  0.18854280001E+03  0.00000000000E+00 0. -1.
         25    2    1    2    0    0 -0.15874873164E+02  0.85407659141E+02  0.33224621013E+03  0.36545752448E+03  0.12500071287E+03 0.  0.
          2    1    1    2  501    0 -0.49194282312E+01 -0.47661843329E+02 -0.16842398648E+03  0.17510708525E+03  0.00000000000E+00 0. -1.
          1    1    1    2  502    0  0.20794301396E+02 -0.37745815812E+02  0.27053560174E+04  0.27056992313E+04  0.00000000000E+00 0. -1.
         22    1    3    3    0    0  0.44468969415E+02  0.61320748701E+02  0.10749045684E+03  0.13149875199E+03  0.00000000000E+00 0.  1.
         22    1    3    3    0    0 -0.60343842580E+02  0.24086910440E+02  0.22475575328E+03  0.23395877249E+03  0.00000000000E+00 0.  1.
</event>
<event>
 7    1  0.7802682E-006  0.3779107E+02  0.7818608E-02  0.1528992E+00
          2   -1    0    0  502    0  0.00000000000E+00  0.00000000000E+00  0.21206530744E+04  0.21206530744E+04  0.00000000000E+00 0. -1.
          1   -1    0    0  501    0 -0.00000000000E+00 -0.00000000000E+00 -0.13640566238E+03  0.13640566238E+03  0.00000000000E+00 0. -1.
         25    2    1    2    0    0  0.31250475663E+02 -0.79273766943E+00  0.11207983547E+04  0.11281803234E+04  0.12499867766E+03 0.  0.
          2    1    1    2  501    0 -0.10657761579E+02  0.35260217946E+02 -0.12974523713E+03  0.13487289353E+03  0.00000000000E+00 0. -1.
          1    1    1    2  502    0 -0.20592714084E+02 -0.34467480277E+02  0.99319429441E+03  0.99400551986E+03  0.00000000000E+00 0. -1.
         22    1    3    3    0    0  0.26254386137E+02  0.59962674655E+02  0.47063872551E+03  0.47516904896E+03  0.00000000000E+00 0. -1.
         22    1    3    3    0    0  0.49960895263E+01 -0.60755412324E+02  0.65015962923E+03  0.65301127442E+03  0.00000000000E+00 0. -1.
</event>
<event>
 7    1  0.7802682E-006  0.4454684E+02  0.7818608E-02  0.1583270E+00
          2   -1    0    0  502    0  0.00000000000E+00  0.00000000000E+00  0.25644259469E+04  0.25644259469E+04  0.00000000000E+00 0. -1.
          1   -1    0    0  501    0 -0.00000000000E+00 -0.00000000000E+00 -0.12108209716E+02  0.12108209716E+02  0.00000000000E+00 0. -1.
         25    2    1    2    0    0  0.29176243936E+01 -0.24713710306E+02  0.38415872377E+03  0.40474927892E+03  0.12499909489E+03 0.  0.
          2    1    1    2  501    0 -0.98954794552E+01 -0.19773395273E+02  0.76250058138E+02  0.79391303304E+02  0.00000000000E+00 0. -1.
          1    1    1    2  502    0  0.69778550616E+01  0.44487105579E+02  0.20919089553E+04  0.20923935744E+04  0.00000000000E+00 0. -1.
         22    1    3    3    0    0  0.21310294565E+02 -0.72283833533E+02  0.25440328237E+03  0.26533019301E+03  0.00000000000E+00 0.  1.
         22    1    3    3    0    0 -0.18392670172E+02  0.47570123227E+02  0.12975544141E+03  0.13941908590E+03  0.00000000000E+00 0.  1.
</event>
<event>
 7    1  0.7802682E-006  0.1055472E+03  0.7818608E-02  0.1354604E+00
          2   -1    0    0  502    0  0.00000000000E+00  0.00000000000E+00  0.10212623719E+04  0.10212623719E+04  0.00000000000E+00 0. -1.
          1   -1    0    0  501    0 -0.00000000000E+00 -0.00000000000E+00 -0.39328950822E+03  0.39328950822E+03  0.00000000000E+00 0. -1.
         25    2    1    2    0    0  0.91615917404E+02  0.54580855259E+02 -0.87917041002E+02  0.18635177137E+03  0.12500012204E+03 0.  0.
          2    1    1    2  501    0 -0.58401568469E+02 -0.90094544909E+02 -0.24426200142E+03  0.26681771973E+03  0.00000000000E+00 0. -1.
          1    1    1    2  502    0 -0.33214348936E+02  0.35513689650E+02  0.96015190614E+03  0.96138238906E+03  0.00000000000E+00 0. -1.
         22    1    3    3    0    0  0.65894022043E+01  0.41931749686E+02 -0.90916784460E+02  0.10033719923E+03  0.00000000000E+00 0.  1.
         22    1    3    3    0    0  0.85026515200E+02  0.12649105573E+02  0.29997434582E+01  0.86014572136E+02  0.00000000000E+00 0.  1.
</event>
<event>
 7    1  0.7802682E-006  0.7056757E+02  0.7818608E-02  0.1374335E+00
          2   -1    0    0  502    0  0.00000000000E+00  0.00000000000E+00  0.23077643509E+04  0.23077643509E+04  0.00000000000E+00 0. -1.
          1   -1    0    0  501    0 -0.00000000000E+00 -0.00000000000E+00 -0.17734425047E+04  0.17734425047E+04  0.00000000000E+00 0. -1.
         25    2    1    2    0    0 -0.13704592784E+02 -0.42302614411E+02  0.48986261225E+03  0.50751039083E+03  0.12499636344E+03 0.  0.
          2    1    1    2  501    0  0.69022647962E+02  0.15010004552E+02 -0.17633855120E+04  0.17647996742E+04  0.00000000000E+00 0. -1.
          1    1    1    2  502    0 -0.55318055178E+02  0.27292609859E+02  0.18078447459E+04  0.18088967906E+04  0.00000000000E+00 0. -1.
         22    1    3    3    0    0 -0.14997253042E+02  0.11380797037E+02  0.47257304383E+01  0.19410632864E+02  0.00000000000E+00 0.  1.
         22    1    3    3    0    0  0.12926602581E+01 -0.53683411447E+02  0.48513688181E+03  0.48809975797E+03  0.00000000000E+00 0.  1.
</event>
<event>
 7    1  0.7802682E-006  0.1165251E+03  0.7818608E-02  0.1316459E+00
          2   -1    0    0  502    0  0.00000000000E+00  0.00000000000E+00  0.29922346653E+02  0.29922346653E+02  0.00000000000E+00 0. -1.
          1   -1    0    0  501    0 -0.00000000000E+00 -0.00000000000E+00 -0.17476646840E+04  0.17476646840E+04  0.00000000000E+00 0. -1.
         25    2    1    2    0    0  0.24045773879E+02  0.59867034288E+01 -0.90091559394E+03  0.90988367887E+03  0.12500144717E+03 0.  0.
          2    1    1    2  501    0 -0.22393061838E+02 -0.12250004332E+03 -0.66370271491E+03  0.67528438721E+03  0.00000000000E+00 0. -1.
          1    1    1    2  502    0 -0.16527120404E+01  0.11651333989E+03 -0.15312402852E+03  0.19241896460E+03  0.00000000000E+00 0. -1.
         22    1    3    3    0    0 -0.30382218750E+02  0.40195319119E+02 -0.60350605374E+03  0.60560572966E+03  0.00000000000E+00 0.  1.
         22    1    3    3    0    0  0.54427992629E+02 -0.34208615691E+02 -0.29740954021E+03  0.30427794921E+03  0.00000000000E+00 0.  1.
</event>
<event>
 7    1  0.7802682E-006  0.5104340E+02  0.7818608E-02  0.1538580E+00
          2   -1    0    0  502    0  0.00000000000E+00  0.00000000000E+00  0.10355950210E+03  0.10355950210E+03  0.00000000000E+00 0. -1.
          1   -1    0    0  501    0 -0.00000000000E+00 -0.00000000000E+00 -0.34420309991E+03  0.34420309991E+03  0.00000000000E+00 0. -1.
         25    2    1    2    0    0 -0.21231511193E+02  0.22183751827E+02 -0.15196882939E+02  0.12961064744E+03  0.12500031506E+03 0.  0.
          2    1    1    2  501    0  0.20571760045E+02 -0.47783905562E+02 -0.26553442882E+03  0.27058276337E+03  0.00000000000E+00 0. -1.
          1    1    1    2  502    0  0.65975114847E+00  0.25600153735E+02  0.40087713951E+02  0.47569191213E+02  0.00000000000E+00 0. -1.
         22    1    3    3    0    0 -0.16421280584E+02 -0.43978477962E+01 -0.68110747063E+02  0.70200237797E+02  0.00000000000E+00 0. -1.
         22    1    3    3    0    0 -0.48102306089E+01  0.26581599623E+02  0.52913864124E+02  0.59410409640E+02  0.00000000000E+00 0. -1.
</event>
<event>
 7    1  0.7802682E-006  0.9773959E+02  0.7818608E-02  0.1305120E+00
          2   -1    0    0  502    0  0.00000000000E+00  0.00000000000E+00  0.40630458535E+02  0.40630458535E+02  0.00000000000E+00 0. -1.
          1   -1    0    0  501    0 -0.00000000000E+00 -0.00000000000E+00 -0.14848457079E+04  0.14848457079E+04  0.00000000000E+00 0. -1.
         25    2    1    2    0    0  0.13937613464E+03 -0.20123261870E+02 -0.40187291545E+03  0.44379872165E+03  0.12499925038E+03 0.  0.
          2    1    1    2  501    0 -0.85947325478E+02 -0.40981086299E+02 -0.96458680610E+03  0.96927503769E+03  0.00000000000E+00 0. -1.
          1    1    1    2  502    0 -0.53428809158E+02  0.61104348169E+02 -0.77755527816E+02  0.11240240709E+03  0.00000000000E+00 0. -1.
         22    1    3    3    0    0  0.29378682616E+02 -0.28718216609E+02 -0.26417441405E+03  0.26734989059E+03  0.00000000000E+00 0.  1.
         22    1    3    3    0    0  0.10999745202E+03  0.85949547392E+01 -0.13769850140E+03  0.17644883107E+03  0.00000000000E+00 0.  1.
</event>
<event>
 7    1  0.7802682E-006  0.5336297E+02  0.7818608E-02  0.1444440E+00
          2   -1    0    0  502    0  0.00000000000E+00  0.00000000000E+00  0.79919999643E+02  0.79919999643E+02  0.00000000000E+00 0. -1.
          1   -1    0    0  501    0 -0.00000000000E+00 -0.00000000000E+00 -0.62686368600E+03  0.62686368600E+03  0.00000000000E+00 0. -1.
         25    2    1    2    0    0 -0.15826356361E+02  0.54322994459E+02 -0.23455501389E+03  0.27173924617E+03  0.12499880833E+03 0.  0.
          2    1    1    2  501    0 -0.33878232305E+02 -0.32812376333E+02 -0.35991310468E+03  0.36299012327E+03  0.00000000000E+00 0. -1.
          1    1    1    2  502    0  0.49704588666E+02 -0.21510618127E+02  0.47524432218E+02  0.72054316209E+02  0.00000000000E+00 0. -1.
         22    1    3    3    0    0 -0.51158994882E+02  0.16377173067E+02 -0.20529056685E+03  0.21220195897E+03  0.00000000000E+00 0. -1.
         22    1    3    3    0    0  0.35332638521E+02  0.37945821393E+02 -0.29264447044E+02  0.59537287198E+02  0.00000000000E+00 0. -1.
</event>
<event>
 7    1  0.7802682E-006  0.2003056E+03  0.7818608E-02  0.1222095E+00
          2   -1    0    0  502    0  0.00000000000E+00  0.00000000000E+00  0.66241479759E+03  0.66241479759E+03  0.00000000000E+00 0. -1.
          1   -1    0    0  501    0 -0.00000000000E+00 -0.00000000000E+00 -0.14218612757E+03  0.14218612757E+03  0.00000000000E+00 0. -1.
         25    2    1    2    0    0  0.34161482067E+02  0.14885876580E+03 -0.77019787531E+00  0.19736595659E+03  0.12500715421E+03 0.  0.
          2    1    1    2  501    0  0.83847492058E+02  0.30479092906E+02  0.95769285735E+02  0.13088595463E+03  0.00000000000E+00 0. -1.
          1    1    1    2  502    0 -0.11800897412E+03 -0.17933785870E+03  0.42522958216E+03  0.47634901394E+03  0.00000000000E+00 0. -1.
         22    1    3    3    0    0  0.58292662273E+02  0.14408292944E+03  0.29663696013E+02  0.15823356121E+03  0.00000000000E+00 0. -1.
         22    1    3    3    0    0 -0.24131180207E+02  0.47758363560E+01 -0.30433893888E+02  0.39132395381E+02  0.00000000000E+00 0. -1.
</event>
<event>
 7    1  0.7802682E-006  0.1002898E+03  0.7818608E-02  0.1375408E+00
          2   -1    0    0  502    0  0.00000000000E+00  0.00000000000E+00  0.34882588708E+04  0.34882588708E+04  0.00000000000E+00 0. -1.
          1   -1    0    0  501    0 -0.00000000000E+00 -0.00000000000E+00 -0.16422494386E+03  0.16422494386E+03  0.00000000000E+00 0. -1.
         25    2    1    2    0    0  0.63832421027E+02  0.13752707166E+02  0.31398224420E+03  0.34419933280E+03  0.12499846438E+03 0.  0.
          2    1    1    2  501    0 -0.10210875372E+03  0.58899698941E+01 -0.13141364226E+03  0.16652457687E+03  0.00000000000E+00 0. -1.
          1    1    1    2  502    0  0.38276332689E+02 -0.19642677060E+02  0.31414653250E+04  0.31417599050E+04  0.00000000000E+00 0. -1.
         22    1    3    3    0    0  0.12280476437E+02 -0.53638499480E+02  0.14551764361E+03  0.15557404452E+03  0.00000000000E+00 0. -1.
         22    1    3    3    0    0  0.51551944591E+02  0.67391206646E+02  0.16846460059E+03  0.18862528828E+03  0.00000000000E+00 0. -1.
</event>
<event>
 7    1  0.2022462E-005  0.4933331E+02  0.7818608E-02  0.1485742E+00
          2   -1    0    0  502    0  0.00000000000E+00  0.00000000000E+00  0.23754739037E+04  0.23754739037E+04  0.00000000000E+00 0. -1.
          1   -1    0    0  501    0 -0.00000000000E+00 -0.00000000000E+00 -0.15451238199E+04  0.15451238199E+04  0.00000000000E+00 0. -1.
         25    2    1    2    0    0  0.15787165286E+02 -0.25666031038E+02 -0.23100903441E+03  0.26438225420E+03  0.12499929049E+03 0.  0.
          2    1    1    2  501    0 -0.49482493619E+02  0.83774290452E+01 -0.12967907486E+04  0.12977615128E+04  0.00000000000E+00 0. -1.
          1    1    1    2  502    0  0.33695328332E+02  0.17288601993E+02  0.23581498668E+04  0.23584539565E+04  0.00000000000E+00 0. -1.
         22    1    3    3    0    0 -0.30839010068E+02 -0.61677118961E+02 -0.11065527495E+03  0.13038290310E+03  0.00000000000E+00 0.  1.
         22    1    3    3    0    0  0.46626175354E+02  0.36011087922E+02 -0.12035375945E+03  0.13399935110E+03  0.00000000000E+00 0.  1.
</event>
<event>
 7    1  0.7802682E-006  0.6447826E+02  0.7818608E-02  0.1443041E+00
          2   -1    0    0  502    0  0.00000000000E+00  0.00000000000E+00  0.21715982701E+03  0.21715982701E+03  0.00000000000E+00 0. -1.
          1   -1    0    0  501    0 -0.00000000000E+00 -0.00000000000E+00 -0.23458829812E+04  0.23458829812E+04  0.00000000000E+00 0. -1.
         25    2    1    2    0    0  0.30359917151E+02 -0.30908435564E+02 -0.16921793423E+03  0.21479381852E+03  0.12499847698E+03 0.  0.
          2    1    1    2  501    0 -0.95442941081E+01  0.64409272873E+02 -0.21513786692E+04  0.21523637764E+04  0.00000000000E+00 0. -1.
          1    1    1    2  502    0 -0.20815623043E+02 -0.33500837309E+02  0.19187344921E+03  0.19588521326E+03  0.00000000000E+00 0. -1.
         22    1    3    3    0    0  0.33868455098E+02 -0.73776363599E+02 -0.14296055701E+03  0.16440117073E+03  0.00000000000E+00 0.  1.
         22    1    3    3    0    0 -0.35085379466E+01  0.42867928035E+02 -0.26257377228E+02  0.50392647791E+02  0.00000000000E+00 0.  1.
</event>
<event>
 7    1  0.7802682E-006  0.3588369E+02  0.7818608E-02  0.1579125E+00
          2   -1    0    0  502    0  0.00000000000E+00  0.00000000000E+00  0.38557035214E+03  0.38557035214E+03  0.00000000000E+00 0. -1.
          1   -1    0    0  501    0 -0.00000000000E+00 -0.00000000000E+00 -0.13798978287E+04  0.13798978287E+04  0.00000000000E+00 0. -1.
         25    2    1    2    0    0 -0.26123341372E+02 -0.56031693631E+02 -0.60826921599E+03  0.62404987033E+03  0.12499928756E+03 0.  0.
          2    1    1    2  501    0  0.18840051067E+02  0.20929194705E+02 -0.76262709755E+03  0.76314681984E+03  0.00000000000E+00 0. -1.
          1    1    1    2  502    0  0.72832903045E+01  0.35102498926E+02  0.37656883692E+03  0.37827149072E+03  0.00000000000E+00 0. -1.
         22    1    3    3    0    0 -0.18921815309E+02  0.19837025430E+02 -0.42066366395E+03  0.42155599965E+03  0.00000000000E+00 0.  1.
         22    1    3    3    0    0 -0.72015260626E+01 -0.75868719061E+02 -0.18760555204E+03  0.20249387068E+03  0.00000000000E+00 0.  1.
</event>
<event>
 7    1  0.7802682E-006  0.7689837E+02  0.7818608E-02  0.1343545E+00
          2   -1    0    0  502    0  0.00000000000E+00  0.00000000000E+00  0.11209678852E+04  0.11209678852E+04  0.00000000000E+00 0. -1.
          1   -1    0    0  501    0 -0.00000000000E+00 -0.00000000000E+00 -0.80021612510E+03  0.80021612510E+03  0.00000000000E+00 0. -1.
         25    2    1    2    0    0  0.11491049748E+03 -0.44881580449E+02 -0.13355895363E+02  0.17613553147E+03  0.12500626708E+03 0.  0.
          2    1    1    2  501    0 -0.43693972131E+02  0.62460817128E+02 -0.70211096243E+03  0.70623673116E+03  0.00000000000E+00 0. -1.
          1    1    1    2  502    0 -0.71216525352E+02 -0.17579236679E+02  0.10362186179E+04  0.10388117477E+04  0.00000000000E+00 0. -1.
         22    1    3    3    0    0  0.37557148912E+02 -0.35495049884E+01  0.53775824996E+02  0.65688490423E+02  0.00000000000E+00 0. -1.
         22    1    3    3    0    0  0.77353348572E+02 -0.41332075461E+02 -0.67131720359E+02  0.11044704104E+03  0.00000000000E+00 0. -1.
</event>
<event>
 7    1  0.7802682E-006  0.8588589E+02  0.7818608E-02  0.1383937E+00
          2   -1    0    0  502    0  0.00000000000E+00  0.00000000000E+00  0.49069674932E+02  0.49069674932E+02  0.00000000000E+00 0. -1.
          1   -1    0    0  501    0 -0.00000000000E+00 -0.00000000000E+00 -0.22715950199E+04  0.22715950199E+04  0.00000000000E+00 0. -1.
         25    2    1    2    0    0  0.33990823757E+01 -0.65500961086E+02 -0.15997944364E+04  0.16060100867E+04  0.12499691984E+03 0.  0.
          2    1    1    2  501    0  0.46556731320E+02 -0.53249718021E+01 -0.62616443642E+03  0.62791542901E+03  0.00000000000E+00 0. -1.
          1    1    1    2  502    0 -0.49955813695E+02  0.70825932888E+02  0.34335278554E+01  0.86739179181E+02  0.00000000000E+00 0. -1.
         22    1    3    3    0    0 -0.57647613844E+02 -0.17504410981E+02 -0.87374303196E+03  0.87581763951E+03  0.00000000000E+00 0.  1.
         22    1    3    3    0    0  0.61046696220E+02 -0.47996550105E+02 -0.72605140447E+03  0.73019244715E+03  0.00000000000E+00 0.  1.
</event>
<event>
 7    1  0.7802682E-006  0.1027886E+03  0.7818608E-02  0.1404893E+00
          2   -1    0    0  502    0  0.00000000000E+00  0.00000000000E+00  0.13238666697E+04  0.13238666697E+04  0.00000000000E+00 0. -1.
          1   -1    0    0  501    0 -0.00000000000E+00 -0.00000000000E+00 -0.98605292185E+02  0.98605292185E+02  0.00000000000E+00 0. -1.
         25    2    1    2    0    0 -0.46463545410E+02  0.60144772209E+02  0.30833597507E+03  0.34128184123E+03  0.12500386776E+03 0.  0.
          2    1    1    2  501    0 -0.28285183148E+02  0.17235464051E+02 -0.75763808291E+02  0.82687770883E+02  0.00000000000E+00 0. -1.
          1    1    1    2  502    0  0.74748728558E+02 -0.77380236260E+02  0.99268921074E+03  0.99850234977E+03  0.00000000000E+00 0. -1.
         22    1    3    3    0    0 -0.61501613378E+02  0.85123249386E+02  0.16933117846E+03  0.19925226230E+03  0.00000000000E+00 0. -1.
         22    1    3    3    0    0  0.15038067967E+02 -0.24978477177E+02  0.13900479661E+03  0.14202957893E+03  0.00000000000E+00 0. -1.
</event>
<event>
 7    1  0.7802682E-006  0.3966156E+02  0.7818608E-02  0.1521170E+00
          2   -1    0    0  502    0  0.00000000000E+00  0.00000000000E+00  0.12480447694E+04  0.12480447694E+04  0.00000000000E+00 0. -1.
          1   -1    0    0  501    0 -0.00000000000E+00 -0.00000000000E+00 -0.18269088604E+04  0.18269088604E+04  0.00000000000E+00 0. -1.
         25    2    1    2    0    0  0.35290938698E+02 -0.49816406092E+02 -0.18307147815E+03  0.22995184980E+03  0.12504224265E+03 0.  0.
          2    1    1    2  501    0  0.21937547251E+01  0.36904763939E+02 -0.16198653475E+04  0.16202871715E+04  0.00000000000E+00 0. -1.
          1    1    1    2  502    0 -0.37484693423E+02  0.12911642154E+02  0.12240727346E+04  0.12247146085E+04  0.00000000000E+00 0. -1.
         22    1    3    3    0    0  0.12611246332E+02  0.40461848894E+02 -0.83543243254E+02  0.93678590101E+02  0.00000000000E+00 0.  1.
         22    1    3    3    0    0  0.22679692366E+02 -0.90278254986E+02 -0.99528234893E+02  0.13627325970E+03  0.00000000000E+00 0.  1.
</event>
<event>
 7    1  0.7802682E-006  0.1042583E+03  0.7818608E-02  0.1292150E+00
          2   -1    0    0  502    0  0.00000000000E+00  0.00000000000E+00  0.27493419817E+04  0.27493419817E+04  0.00000000000E+00 0. -1.
          1   -1    0    0  501    0 -0.00000000000E+00 -0.00000000000E+00 -0.11277854005E+04  0.11277854005E+04  0.00000000000E+00 0. -1.
         25    2    1    2    0    0 -0.41189258413E+02  0.35425626816E+02  0.50750168336E+03  0.52548514577E+03  0.12500059910E+03 0.  0.
          2    1    1    2  501    0 -0.10204748431E+02 -0.10410503838E+03 -0.11155220598E+04  0.11204157540E+04  0.00000000000E+00 0. -1.
          1    1    1    2  502    0  0.51394006845E+02  0.68679411564E+02  0.22295769577E+04  0.22312264824E+04  0.00000000000E+00 0. -1.
         22    1    3    3    0    0 -0.15284047141E+02 -0.27139510181E+02  0.30133486977E+02  0.43337998884E+02  0.00000000000E+00 0.  1.
         22    1    3    3    0    0 -0.25905211272E+02  0.62565136997E+02  0.47736819638E+03  0.48214714689E+03  0.00000000000E+00 0.  1.
</event>
<event>
 7    1  0.7802682E-006  0.1007679E+03  0.7818608E-02  0.1312036E+00
          2   -1    0    0  502    0  0.00000000000E+00  0.00000000000E+00  0.21614895606E+03  0.21614895606E+03  0.00000000000E+00 0. -1.
          1   -1    0    0  501    0 -0.00000000000E+00 -0.00000000000E+00 -0.50404462318E+03  0.50404462318E+03  0.00000000000E+00 0. -1.
         25    2    1    2    0    0 -0.99412399676E+02 -0.13294010384E+03 -0.96191010074E+02  0.22898370152E+03  0.12499971489E+03 0.  0.
          2    1    1    2  501    0  0.66829524601E+02  0.66576690840E+02 -0.32520240086E+03  0.33860780063E+03  0.00000000000E+00 0. -1.
          1    1    1    2  502    0  0.32582875075E+02  0.66363413001E+02  0.13349774381E+03  0.15260207710E+03  0.00000000000E+00 0. -1.
         22    1    3    3    0    0 -0.65485992004E+02 -0.15141370785E+03 -0.94932682628E+02  0.19033323489E+03  0.00000000000E+00 0. -1.
         22    1    3    3    0    0 -0.33926407672E+02  0.18473604007E+02 -0.12583274454E+01  0.38650466627E+02  0.00000000000E+00 0. -1.
</event>
<event>
 7    1  0.7802682E-006  0.7784172E+02  0.7818608E-02  0.1431947E+00
          2   -1    0    0  502    0  0.00000000000E+00  0.00000000000E+00  0.12174767046E+04  0.12174767046E+04  0.00000000000E+00 0. -1.
          1   -1    0    0  501    0 -0.00000000000E+00 -0.00000000000E+00 -0.22682219608E+03  0.22682219608E+03  0.00000000000E+00 0. -1.
         25    2    1    2    0    0  0.19520917778E+02 -0.55917242819E+02  0.16360366784E+03  0.21423843825E+03  0.12499657602E+03 0.  0.
          2    1    1    2  501    0  0.79397452878E+01  0.78422264309E+02 -0.19347590878E+03  0.20891629514E+03  0.00000000000E+00 0. -1.
          1    1    1    2  502    0 -0.27460663065E+02 -0.22505021490E+02  0.10205267494E+04  0.10211441673E+04  0.00000000000E+00 0. -1.
         22    1    3    3    0    0  0.43777557930E+02  0.54535680885E+01  0.13552141074E+03  0.14252111686E+03  0.00000000000E+00 0. -1.
         22    1    3    3    0    0 -0.24256640152E+02 -0.61370810908E+02  0.28082257101E+02  0.71717321386E+02  0.00000000000E+00 0. -1.
</event>
<event>
 7    1  0.7802682E-006  0.1271389E+03  0.7818608E-02  0.1302061E+00
          2   -1    0    0  502    0  0.00000000000E+00  0.00000000000E+00  0.20410831797E+03  0.20410831797E+03  0.00000000000E+00 0. -1.
          1   -1    0    0  501    0 -0.00000000000E+00 -0.00000000000E+00 -0.15905821752E+04  0.15905821752E+04  0.00000000000E+00 0. -1.
         25    2    1    2    0    0  0.25468588471E+02  0.15943815804E+03 -0.50674460388E+03  0.54633627127E+03  0.12499620996E+03 0.  0.
          2    1    1    2  501    0 -0.52926810025E+02 -0.36291710720E+02 -0.10413452194E+04  0.10433207567E+04  0.00000000000E+00 0. -1.
          1    1    1    2  502    0  0.27458221554E+02 -0.12314644732E+03  0.16161596596E+03  0.20503346525E+03  0.00000000000E+00 0. -1.
         22    1    3    3    0    0  0.34796169037E+02  0.30953212838E+02 -0.37686121717E+02  0.59909252496E+02  0.00000000000E+00 0. -1.
         22    1    3    3    0    0 -0.93275805653E+01  0.12848494520E+03 -0.46905848216E+03  0.48642701877E+03  0.00000000000E+00 0. -1.
</event>
<event>
 7    1  0.7802682E-006  0.5361611E+02  0.7818608E-02  0.1512997E+00
          2   -1    0    0  502    0  0.00000000000E+00  0.00000000000E+00  0.10705867928E+04  0.10705867928E+04  0.00000000000E+00 0. -1.
          1   -1    0    0  501    0 -0.00000000000E+00 -0.00000000000E+00 -0.19938563844E+03  0.19938563844E+03  0.00000000000E+00 0. -1.
         25    2    1    2    0    0 -0.62194539882E+02 -0.84791879944E+01  0.72803453489E+03  0.74134864496E+03  0.12499388775E+03 0.  0.
          2    1    1    2  501    0  0.43865720071E+02  0.30810542801E+02 -0.18836081821E+03  0.19583995707E+03  0.00000000000E+00 0. -1.
          1    1    1    2  502    0  0.18328819811E+02 -0.22331354807E+02  0.33152743766E+03  0.33278382918E+03  0.00000000000E+00 0. -1.
         22    1    3    3    0    0 -0.14004027919E+02  0.16710061778E+02  0.62016916601E+03  0.62055228098E+03  0.00000000000E+00 0. -1.
         22    1    3    3    0    0 -0.48190511962E+02 -0.25189249773E+02  0.10786536888E+03  0.12079636398E+03  0.00000000000E+00 0. -1.
</event>
<event>
 7    1  0.7802682E-006  0.6933704E+02  0.7818608E-02  0.1498688E+00
          2   -1    0    0  502    0  0.00000000000E+00  0.00000000000E+00  0.12138265943E+04  0.12138265943E+04  0.00000000000E+00 0. -1.
          1   -1    0    0  501    0 -0.00000000000E+00 -0.00000000000E+00 -0.56626808735E+03  0.56626808735E+03  0.00000000000E+00 0. -1.
         25    2    1    2    0    0  0.33316130315E+01 -0.68895027818E+02 -0.31813313546E+02  0.14627004606E+03  0.12500085980E+03 0.  0.
          2    1    1    2  501    0  0.24084338800E+02  0.51487646349E+01 -0.47586685545E+03  0.47650375577E+03  0.00000000000E+00 0. -1.
          1    1    1    2  502    0 -0.27415951831E+02  0.63746263183E+02  0.11552386760E+04  0.11573208798E+04  0.00000000000E+00 0. -1.
         22    1    3    3    0    0  0.62199886872E+02 -0.18728440609E+02 -0.86507090351E+01  0.65531787564E+02  0.00000000000E+00 0.  1.
         22    1    3    3    0    0 -0.58868273840E+02 -0.50166587209E+02 -0.23162604511E+02  0.80738258495E+02  0.00000000000E+00 0.  1.
</event>
