<event>
 7    1  0.7459264E-005  0.1146624E+03  0.7818608E-02  0.1349897E+00
          2   -1    0    0  502    0  0.00000000000E+00  0.00000000000E+00  0.73805662937E+03  0.73805662937E+03  0.00000000000E+00 0. -1.
          1   -1    0    0  501    0 -0.00000000000E+00 -0.00000000000E+00 -0.59021297622E+02  0.59021297622E+02  0.00000000000E+00 0. -1.
         25    2    1    2    0    0 -0.98773126274E+02  0.53998160121E+02  0.23407365286E+03  0.28824956384E+03  0.12500161727E+03 0.  0.
          2    1    1    2  501    0  0.73295352505E+02 -0.93001328086E+02  0.84748635458E+02  0.14561520160E+03  0.00000000000E+00 0. -1.
          1    1    1    2  502    0  0.25477773769E+02  0.39003167965E+02  0.36021304343E+03  0.36321316155E+03  0.00000000000E+00 0. -1.
         22    1    3    3    0    0 -0.41470202908E-01  0.37592360678E+02  0.15833610350E+03  0.16273754629E+03  0.00000000000E+00 0. -1.
         22    1    3    3    0    0 -0.98731656071E+02  0.16405799443E+02  0.75737549355E+02  0.12551201755E+03  0.00000000000E+00 0. -1.
</event>
<event>
 7    1  0.7459264E-005  0.5613172E+02  0.7818608E-02  0.1493129E+00
          2   -1    0    0  502    0  0.00000000000E+00  0.00000000000E+00  0.24293263023E+04  0.24293263023E+04  0.00000000000E+00 0. -1.
          1   -1    0    0  501    0 -0.00000000000E+00 -0.00000000000E+00 -0.91497255542E+03  0.91497255542E+03  0.00000000000E+00 0. -1.
         25    2    1    2    0    0  0.74239949585E+02 -0.23299053629E+02  0.23579105007E+03  0.27798756692E+03  0.12500100821E+03 0.  0.
          2    1    1    2  501    0 -0.29810288567E+02 -0.10525508311E+02 -0.89323578922E+03  0.89379506308E+03  0.00000000000E+00 0. -1.
          1    1    1    2  502    0 -0.44429661018E+02  0.33824561940E+02  0.21717984860E+04  0.21725162277E+04  0.00000000000E+00 0. -1.
         22    1    3    3    0    0  0.55073858431E+02 -0.57524101924E+00  0.17658087276E+02  0.57838298997E+02  0.00000000000E+00 0.  1.
         22    1    3    3    0    0  0.19166091155E+02 -0.22723812610E+02  0.21813296279E+03  0.22014926792E+03  0.00000000000E+00 0.  1.
</event>
<event>
 7    1  0.7459264E-005  0.6354450E+03  0.7818608E-02  0.1098243E+00
          2   -1    0    0  502    0  0.00000000000E+00  0.00000000000E+00  0.31089988860E+04  0.31089988860E+04  0.00000000000E+00 0. -1.
          1   -1    0    0  501    0 -0.00000000000E+00 -0.00000000000E+00 -0.35911644580E+03  0.35911644580E+03  0.00000000000E+00 0. -1.
         25    2    1    2    0    0  0.27063149875E+03 -0.61083753888E+03  0.96370789520E+03  0.11792901095E+04  0.12501339201E+03 0.  0.
          2    1    1    2  501    0 -0.15134244172E+03  0.60752146019E+03  0.14414835573E+03  0.64246837098E+03  0.00000000000E+00 0. -1.
          1    1    1    2  502    0 -0.11928905703E+03  0.33160786918E+01  0.16420261893E+04  0.16463568513E+04  0.00000000000E+00 0. -1.
         22    1    3    3    0    0  0.94839604934E+02 -0.19767669963E+03  0.22030736060E+03  0.31081499542E+03  0.00000000000E+00 0. -1.
         22    1    3    3    0    0  0.17579189381E+03 -0.41316083924E+03  0.74340053459E+03  0.86847511412E+03  0.00000000000E+00 0. -1.
</event>
<event>
 7    1  0.7459264E-005  0.4003833E+03  0.7818608E-02  0.1287695E+00
          2   -1    0    0  502    0  0.00000000000E+00  0.00000000000E+00  0.15192088538E+04  0.15192088538E+04  0.00000000000E+00 0. -1.
          1   -1    0    0  501    0 -0.00000000000E+00 -0.00000000000E+00 -0.48084586223E+03  0.48084586223E+03  0.00000000000E+00 0. -1.
         25    2    1    2    0    0 -0.38292265693E+03  0.66884844275E+02  0.22593637307E+03  0.46666426051E+03  0.12499977514E+03 0.  0.
          2    1    1    2  501    0  0.39484766021E+03 -0.86888672750E+02 -0.24695549372E+03  0.47375239535E+03  0.00000000000E+00 0. -1.
          1    1    1    2  502    0 -0.11925003282E+02  0.20003828475E+02  0.10593821122E+04  0.10596380602E+04  0.00000000000E+00 0. -1.
         22    1    3    3    0    0 -0.22030517258E+03  0.87520100235E+02  0.89479236243E+02  0.25337851276E+03  0.00000000000E+00 0. -1.
         22    1    3    3    0    0 -0.16261748435E+03 -0.20635255959E+02  0.13645713683E+03  0.21328574775E+03  0.00000000000E+00 0. -1.
</event>
<event>
 7    1  0.7459264E-005  0.3614908E+03  0.7818608E-02  0.1093308E+00
          2   -1    0    0  502    0  0.00000000000E+00  0.00000000000E+00  0.20722082251E+03  0.20722082251E+03  0.00000000000E+00 0. -1.
          1   -1    0    0  501    0 -0.00000000000E+00 -0.00000000000E+00 -0.15369463884E+04  0.15369463884E+04  0.00000000000E+00 0. -1.
         25    2    1    2    0    0 -0.45339711691E+03 -0.28068991619E+03 -0.82787341695E+03  0.99265089383E+03  0.12500251136E+03 0.  0.
          2    1    1    2  501    0  0.19969231372E+03  0.10094119787E+03 -0.32265143165E+03  0.39264499479E+03  0.00000000000E+00 0. -1.
          1    1    1    2  502    0  0.25370480319E+03  0.17974871833E+03 -0.17920071734E+03  0.35887132234E+03  0.00000000000E+00 0. -1.
         22    1    3    3    0    0 -0.81818297757E+02 -0.66966221116E+02 -0.87949713706E+02  0.13752767270E+03  0.00000000000E+00 0.  1.
         22    1    3    3    0    0 -0.37157881916E+03 -0.21372369508E+03 -0.73992370325E+03  0.85512322113E+03  0.00000000000E+00 0.  1.
</event>
<event>
 7    1  0.7459264E-005  0.1850939E+03  0.7818608E-02  0.1242243E+00
          2   -1    0    0  502    0  0.00000000000E+00  0.00000000000E+00  0.40068963527E+04  0.40068963527E+04  0.00000000000E+00 0. -1.
          1   -1    0    0  501    0 -0.00000000000E+00 -0.00000000000E+00 -0.53756368140E+03  0.53756368140E+03  0.00000000000E+00 0. -1.
         25    2    1    2    0    0 -0.26988101184E+02 -0.25113971483E+03  0.14652820990E+04  0.14921379704E+04  0.12499831592E+03 0.  0.
          2    1    1    2  501    0  0.52243501268E+02  0.17684144055E+03 -0.50728562210E+03  0.53976011423E+03  0.00000000000E+00 0. -1.
          1    1    1    2  502    0 -0.25255400083E+02  0.74298274287E+02  0.25113361943E+04  0.25125619494E+04  0.00000000000E+00 0. -1.
         22    1    3    3    0    0 -0.57431062032E+02 -0.23065914113E+03  0.11221339908E+04  0.11470338528E+04  0.00000000000E+00 0. -1.
         22    1    3    3    0    0  0.30442960848E+02 -0.20480573699E+02  0.34314810826E+03  0.34510411758E+03  0.00000000000E+00 0. -1.
</event>
<event>
 7    1  0.7459264E-005  0.6589316E+03  0.7818608E-02  0.1217037E+00
          2   -1    0    0  502    0  0.00000000000E+00  0.00000000000E+00  0.34848970421E+04  0.34848970421E+04  0.00000000000E+00 0. -1.
          1   -1    0    0  501    0 -0.00000000000E+00 -0.00000000000E+00 -0.30593173076E+03  0.30593173076E+03  0.00000000000E+00 0. -1.
         25    2    1    2    0    0 -0.65459215737E+03  0.63118493682E+02  0.24521730968E+03  0.71289715159E+03  0.12496392700E+03 0.  0.
          2    1    1    2  501    0  0.66258732209E+03 -0.35658229970E+02  0.14578364554E+04  0.16017429880E+04  0.00000000000E+00 0. -1.
          1    1    1    2  502    0 -0.79951647271E+01 -0.27460263712E+02  0.14759115462E+04  0.14761886333E+04  0.00000000000E+00 0. -1.
         22    1    3    3    0    0 -0.43753771317E+03  0.69705860990E+02  0.21881423521E+03  0.49414352877E+03  0.00000000000E+00 0.  1.
         22    1    3    3    0    0 -0.21705444420E+03 -0.65873673077E+01  0.26403074477E+02  0.21875362282E+03  0.00000000000E+00 0.  1.
</event>
<event>
 7    1  0.7459264E-005  0.5381313E+03  0.7818608E-02  0.1123443E+00
          2   -1    0    0  502    0  0.00000000000E+00  0.00000000000E+00  0.84771609839E+03  0.84771609839E+03  0.00000000000E+00 0. -1.
          1   -1    0    0  501    0 -0.00000000000E+00 -0.00000000000E+00 -0.16289060537E+04  0.16289060537E+04  0.00000000000E+00 0. -1.
         25    2    1    2    0    0  0.53869605991E+03 -0.49520657949E+02 -0.72468134261E+03  0.91292543479E+03  0.12499624244E+03 0.  0.
          2    1    1    2  501    0 -0.51894973832E+03  0.14987086287E+03 -0.71567755971E+03  0.89664066153E+03  0.00000000000E+00 0. -1.
          1    1    1    2  502    0 -0.19746321585E+02 -0.10035020492E+03  0.65916894701E+03  0.66705605578E+03  0.00000000000E+00 0. -1.
         22    1    3    3    0    0  0.48962083579E+03 -0.66670992672E+02 -0.69593379881E+03  0.85352061278E+03  0.00000000000E+00 0.  1.
         22    1    3    3    0    0  0.49075224122E+02  0.17150334723E+02 -0.28747543800E+02  0.59404822012E+02  0.00000000000E+00 0.  1.
</event>
<event>
 7    1  0.7459264E-005  0.2751089E+03  0.7818608E-02  0.1116652E+00
          2   -1    0    0  502    0  0.00000000000E+00  0.00000000000E+00  0.12981440850E+04  0.12981440850E+04  0.00000000000E+00 0. -1.
          1   -1    0    0  501    0 -0.00000000000E+00 -0.00000000000E+00 -0.14457262458E+04  0.14457262458E+04  0.00000000000E+00 0. -1.
         25    2    1    2    0    0  0.13816433091E+03 -0.40415987214E+02  0.30786982442E+03  0.36212055450E+03  0.12499853135E+03 0.  0.
          2    1    1    2  501    0  0.14854204302E+03  0.23156031499E+03 -0.13736997568E+04  0.14009767806E+04  0.00000000000E+00 0. -1.
          1    1    1    2  502    0 -0.28670637393E+03 -0.19114432778E+03  0.91824777158E+03  0.98077299561E+03  0.00000000000E+00 0. -1.
         22    1    3    3    0    0  0.13024927864E+03 -0.63082276308E+02  0.17495108176E+03  0.22705093961E+03  0.00000000000E+00 0.  1.
         22    1    3    3    0    0  0.79150522734E+01  0.22666289093E+02  0.13291874266E+03  0.13506961488E+03  0.00000000000E+00 0.  1.
</event>
<event>
 7    1  0.7459264E-005  0.8829903E+02  0.7818608E-02  0.1335986E+00
          2   -1    0    0  502    0  0.00000000000E+00  0.00000000000E+00  0.19564531300E+04  0.19564531300E+04  0.00000000000E+00 0. -1.
          1   -1    0    0  501    0 -0.00000000000E+00 -0.00000000000E+00 -0.74468663211E+03  0.74468663211E+03  0.00000000000E+00 0. -1.
         25    2    1    2    0    0 -0.14396771294E+02  0.13400407983E+03  0.21122092092E+03  0.28000659509E+03  0.12500022171E+03 0.  0.
          2    1    1    2  501    0 -0.32073955089E+02 -0.60196400584E+02 -0.70754108337E+03  0.71082116590E+03  0.00000000000E+00 0. -1.
          1    1    1    2  502    0  0.46470726383E+02 -0.73807679242E+02  0.17080866603E+04  0.17103120011E+04  0.00000000000E+00 0. -1.
         22    1    3    3    0    0  0.43465330440E+02  0.56850693127E+02  0.14883937959E+03  0.16514962058E+03  0.00000000000E+00 0.  1.
         22    1    3    3    0    0 -0.57862101734E+02  0.77153386699E+02  0.62381541325E+02  0.11485697451E+03  0.00000000000E+00 0.  1.
</event>
<event>
 7    1  0.7459264E-005  0.1017678E+03  0.7818608E-02  0.1337826E+00
          2   -1    0    0  502    0  0.00000000000E+00  0.00000000000E+00  0.74588403524E+03  0.74588403524E+03  0.00000000000E+00 0. -1.
          1   -1    0    0  501    0 -0.00000000000E+00 -0.00000000000E+00 -0.28451635733E+03  0.28451635733E+03  0.00000000000E+00 0. -1.
         25    2    1    2    0    0  0.13073973242E+03  0.51872952173E+02  0.57009160722E+02  0.19661879088E+03  0.12500089488E+03 0.  0.
          2    1    1    2  501    0 -0.74118936154E+02 -0.65512285395E+02 -0.20184762210E+03  0.22478420492E+03  0.00000000000E+00 0. -1.
          1    1    1    2  502    0 -0.56620796265E+02  0.13639333222E+02  0.60620613928E+03  0.60899739678E+03  0.00000000000E+00 0. -1.
         22    1    3    3    0    0 -0.14357337563E+02  0.38661034773E+02  0.22135857259E+02  0.46806035168E+02  0.00000000000E+00 0.  1.
         22    1    3    3    0    0  0.14509706998E+03  0.13211917401E+02  0.34873303462E+02  0.14981275571E+03  0.00000000000E+00 0.  1.
</event>
<event>
 7    1  0.7459264E-005  0.8427799E+03  0.7818608E-02  0.1076978E+00
          2   -1    0    0  502    0  0.00000000000E+00  0.00000000000E+00  0.15216877282E+04  0.15216877282E+04  0.00000000000E+00 0. -1.
          1   -1    0    0  501    0 -0.00000000000E+00 -0.00000000000E+00 -0.15120012213E+04  0.15120012213E+04  0.00000000000E+00 0. -1.
         25    2    1    2    0    0 -0.47435826189E+03  0.74315946096E+03 -0.85408325210E+03  0.12338494746E+04  0.12499831742E+03 0.  0.
          2    1    1    2  501    0  0.46329255820E+03 -0.62434023766E+03 -0.13917812211E+03  0.78981724248E+03  0.00000000000E+00 0. -1.
          1    1    1    2  502    0  0.11065703682E+02 -0.11881922330E+03  0.10029478811E+04  0.10100222324E+04  0.00000000000E+00 0. -1.
         22    1    3    3    0    0 -0.31945891440E+03  0.43710996854E+03 -0.59148594792E+03  0.80185706280E+03  0.00000000000E+00 0.  1.
         22    1    3    3    0    0 -0.15489934749E+03  0.30604949242E+03 -0.26259730418E+03  0.43199241177E+03  0.00000000000E+00 0.  1.
</event>
<event>
 7    1  0.7459264E-005  0.1447774E+03  0.7818608E-02  0.1365657E+00
          2   -1    0    0  502    0  0.00000000000E+00  0.00000000000E+00  0.13085440764E+03  0.13085440764E+03  0.00000000000E+00 0. -1.
          1   -1    0    0  501    0 -0.00000000000E+00 -0.00000000000E+00 -0.79752093891E+03  0.79752093891E+03  0.00000000000E+00 0. -1.
         25    2    1    2    0    0  0.13674719210E+03  0.71912830779E+02 -0.66765557907E+03  0.69660616677E+03  0.12499971814E+03 0.  0.
          2    1    1    2  501    0 -0.10975181288E+03 -0.54167522516E+02 -0.78884226851E+02  0.14561010326E+03  0.00000000000E+00 0. -1.
          1    1    1    2  502    0 -0.26995379222E+02 -0.17745308263E+02  0.79873274652E+02  0.86159076529E+02  0.00000000000E+00 0. -1.
         22    1    3    3    0    0  0.80291450752E+02 -0.11664352194E+02 -0.16424708112E+03  0.18319355293E+03  0.00000000000E+00 0.  1.
         22    1    3    3    0    0  0.56455741348E+02  0.83577182973E+02 -0.50340849795E+03  0.51341261384E+03  0.00000000000E+00 0.  1.
</event>
<event>
 7    1  0.7459264E-005  0.2708819E+03  0.7818608E-02  0.1148660E+00
          2   -1    0    0  502    0  0.00000000000E+00  0.00000000000E+00  0.87877421308E+03  0.87877421308E+03  0.00000000000E+00 0. -1.
          1   -1    0    0  501    0 -0.00000000000E+00 -0.00000000000E+00 -0.97642290254E+03  0.97642290254E+03  0.00000000000E+00 0. -1.
         25    2    1    2    0    0  0.74940419103E+02  0.39731885137E+03  0.83550054453E+01  0.42328914657E+03  0.12500223765E+03 0.  0.
          2    1    1    2  501    0 -0.70032539484E+02 -0.24783092439E+03 -0.73842216282E+03  0.78204348614E+03  0.00000000000E+00 0. -1.
          1    1    1    2  502    0 -0.49078796187E+01 -0.14948792698E+03  0.63241846792E+03  0.64986448292E+03  0.00000000000E+00 0. -1.
         22    1    3    3    0    0  0.70222314685E+02  0.35664471590E+03  0.47571395547E+02  0.36659195917E+03  0.00000000000E+00 0. -1.
         22    1    3    3    0    0  0.47181044180E+01  0.40674135473E+02 -0.39216390102E+02  0.56697187394E+02  0.00000000000E+00 0. -1.
</event>
<event>
 7    1  0.7459264E-005  0.1387485E+03  0.7818608E-02  0.1289745E+00
          2   -1    0    0  502    0  0.00000000000E+00  0.00000000000E+00  0.31745429785E+03  0.31745429785E+03  0.00000000000E+00 0. -1.
          1   -1    0    0  501    0 -0.00000000000E+00 -0.00000000000E+00 -0.25194804407E+04  0.25194804407E+04  0.00000000000E+00 0. -1.
         25    2    1    2    0    0  0.16724356096E+03  0.46109668669E+02 -0.15209208228E+04  0.15358772913E+04  0.12498957719E+03 0.  0.
          2    1    1    2  501    0 -0.55446117411E+02  0.35658311017E+02 -0.97443921698E+03  0.97666656268E+03  0.00000000000E+00 0. -1.
          1    1    1    2  502    0 -0.11179744355E+03 -0.81767979686E+02  0.29333389695E+03  0.32439088456E+03  0.00000000000E+00 0. -1.
         22    1    3    3    0    0 -0.65092583233E+01  0.22580810791E+01 -0.31702419701E+01  0.75841814475E+01  0.00000000000E+00 0.  1.
         22    1    3    3    0    0  0.17375281928E+03  0.43851587590E+02 -0.15177505808E+04  0.15282931098E+04  0.00000000000E+00 0.  1.
</event>
<event>
 7    1  0.7459264E-005  0.2105978E+03  0.7818608E-02  0.1284919E+00
          2   -1    0    0  502    0  0.00000000000E+00  0.00000000000E+00  0.10325336463E+04  0.10325336463E+04  0.00000000000E+00 0. -1.
          1   -1    0    0  501    0 -0.00000000000E+00 -0.00000000000E+00 -0.85172225130E+03  0.85172225130E+03  0.00000000000E+00 0. -1.
         25    2    1    2    0    0 -0.21669875673E+03  0.16058604616E+02  0.54437707186E+03  0.59932245288E+03  0.12499910482E+03 0.  0.
          2    1    1    2  501    0  0.11536837105E+02 -0.43959800860E+02 -0.80030797039E+03  0.80159741153E+03  0.00000000000E+00 0. -1.
          1    1    1    2  502    0  0.20516191962E+03  0.27901196244E+02  0.43674229349E+03  0.48333603314E+03  0.00000000000E+00 0. -1.
         22    1    3    3    0    0 -0.96601986205E+02 -0.92667573526E+01  0.10436538685E+03  0.14251298363E+03  0.00000000000E+00 0. -1.
         22    1    3    3    0    0 -0.12009677052E+03  0.25325361969E+02  0.44001168501E+03  0.45680946925E+03  0.00000000000E+00 0. -1.
</event>
<event>
 7    1  0.7459264E-005  0.8021758E+02  0.7818608E-02  0.1399160E+00
          2   -1    0    0  502    0  0.00000000000E+00  0.00000000000E+00  0.29731276848E+03  0.29731276848E+03  0.00000000000E+00 0. -1.
          1   -1    0    0  501    0 -0.00000000000E+00 -0.00000000000E+00 -0.86701592742E+03  0.86701592742E+03  0.00000000000E+00 0. -1.
         25    2    1    2    0    0 -0.34199140821E+02  0.11888287657E+03 -0.46954550755E+03  0.50139975728E+03  0.12500405342E+03 0.  0.
          2    1    1    2  501    0  0.75310761550E+01 -0.43764008606E+02 -0.37455993136E+03  0.37718317531E+03  0.00000000000E+00 0. -1.
          1    1    1    2  502    0  0.26668064666E+02 -0.75118867961E+02  0.27440227997E+03  0.28574576331E+03  0.00000000000E+00 0. -1.
         22    1    3    3    0    0  0.71163796273E+01  0.86944998714E+02 -0.42152213227E+03  0.43045439208E+03  0.00000000000E+00 0. -1.
         22    1    3    3    0    0 -0.41315520448E+02  0.31937877852E+02 -0.48023375275E+02  0.70945365207E+02  0.00000000000E+00 0. -1.
</event>
<event>
 7    1  0.7459264E-005  0.4150568E+03  0.7818608E-02  0.1064478E+00
          2   -1    0    0  502    0  0.00000000000E+00  0.00000000000E+00  0.85715047469E+03  0.85715047469E+03  0.00000000000E+00 0. -1.
          1   -1    0    0  501    0 -0.00000000000E+00 -0.00000000000E+00 -0.17897108568E+04  0.17897108568E+04  0.00000000000E+00 0. -1.
         25    2    1    2    0    0  0.67807622882E+03  0.99990247283E+02  0.23514798636E+03  0.73532745089E+03  0.12500585147E+03 0.  0.
          2    1    1    2  501    0 -0.39084870986E+03 -0.85410374730E+02 -0.14526191694E+04  0.15067050466E+04  0.00000000000E+00 0. -1.
          1    1    1    2  502    0 -0.28722751896E+03 -0.14579872554E+02  0.28491080094E+03  0.40482883399E+03  0.00000000000E+00 0. -1.
         22    1    3    3    0    0  0.95523843120E+02  0.47006081171E+02  0.45544039916E+01  0.10656040009E+03  0.00000000000E+00 0. -1.
         22    1    3    3    0    0  0.58255238570E+03  0.52984166112E+02  0.23059358237E+03  0.62876705080E+03  0.00000000000E+00 0. -1.
</event>
<event>
 7    1  0.7459264E-005  0.3269717E+03  0.7818608E-02  0.1218396E+00
          2   -1    0    0  502    0  0.00000000000E+00  0.00000000000E+00  0.15046896321E+04  0.15046896321E+04  0.00000000000E+00 0. -1.
          1   -1    0    0  501    0 -0.00000000000E+00 -0.00000000000E+00 -0.56094634369E+03  0.56094634369E+03  0.00000000000E+00 0. -1.
         25    2    1    2    0    0 -0.23319435976E+03  0.29655646555E+03  0.54623237029E+03  0.67551507485E+03  0.12500186920E+03 0.  0.
          2    1    1    2  501    0  0.18778639173E+03 -0.26240428906E+03 -0.44279661489E+03  0.54789468148E+03  0.00000000000E+00 0. -1.
          1    1    1    2  502    0  0.45407968031E+02 -0.34152176487E+02  0.84030753305E+03  0.84222621951E+03  0.00000000000E+00 0. -1.
         22    1    3    3    0    0 -0.36996691454E+02  0.12378226282E+03  0.12509149106E+03  0.17982959963E+03  0.00000000000E+00 0.  1.
         22    1    3    3    0    0 -0.19619766831E+03  0.17277420273E+03  0.42114087923E+03  0.49568547522E+03  0.00000000000E+00 0.  1.
</event>
<event>
 7    1  0.7459264E-005  0.7946619E+02  0.7818608E-02  0.1401236E+00
          2   -1    0    0  502    0  0.00000000000E+00  0.00000000000E+00  0.21725328279E+03  0.21725328279E+03  0.00000000000E+00 0. -1.
          1   -1    0    0  501    0 -0.00000000000E+00 -0.00000000000E+00 -0.25770572154E+03  0.25770572154E+03  0.00000000000E+00 0. -1.
         25    2    1    2    0    0  0.73794902926E+02 -0.42910189742E+01  0.22735842433E+02  0.14698065437E+03  0.12498917427E+03 0.  0.
          2    1    1    2  501    0 -0.65657217725E+02  0.47630390142E+02 -0.18307455052E+03  0.20023939510E+03  0.00000000000E+00 0. -1.
          1    1    1    2  502    0 -0.81376852015E+01 -0.43339371168E+02  0.11988626933E+03  0.12773895486E+03  0.00000000000E+00 0. -1.
         22    1    3    3    0    0 -0.13453525188E+02 -0.79189911288E+01  0.52462352845E+02  0.54735785612E+02  0.00000000000E+00 0. -1.
         22    1    3    3    0    0  0.87248428114E+02  0.36279721546E+01 -0.29726510412E+02  0.92244868755E+02  0.00000000000E+00 0. -1.
</event>
<event>
 7    1  0.7459264E-005  0.1598591E+03  0.7818608E-02  0.1322572E+00
          2   -1    0    0  502    0  0.00000000000E+00  0.00000000000E+00  0.35905970623E+03  0.35905970623E+03  0.00000000000E+00 0. -1.
          1   -1    0    0  501    0 -0.00000000000E+00 -0.00000000000E+00 -0.18821081685E+04  0.18821081685E+04  0.00000000000E+00 0. -1.
         25    2    1    2    0    0  0.12204688938E+03 -0.84783494141E+01 -0.12167879975E+03  0.21308985400E+03  0.12503691435E+03 0.  0.
          2    1    1    2  501    0  0.42148325328E+02 -0.46059194317E+01 -0.16927941914E+04  0.16933250929E+04  0.00000000000E+00 0. -1.
          1    1    1    2  502    0 -0.16419521471E+03  0.13084268846E+02  0.29142452890E+03  0.33475292780E+03  0.00000000000E+00 0. -1.
         22    1    3    3    0    0  0.13859864708E+03 -0.24043636207E+02 -0.71044035698E+02  0.15759104170E+03  0.00000000000E+00 0. -1.
         22    1    3    3    0    0 -0.16551757701E+02  0.15565286793E+02 -0.50634764051E+02  0.55498812298E+02  0.00000000000E+00 0. -1.
</event>
<event>
 7    1  0.1837026E-004  0.7028928E+03  0.7818608E-02  0.1169611E+00
          2   -1    0    0  502    0  0.00000000000E+00  0.00000000000E+00  0.25629835347E+04  0.25629835347E+04  0.00000000000E+00 0. -1.
          1   -1    0    0  501    0 -0.00000000000E+00 -0.00000000000E+00 -0.16882950748E+04  0.16882950748E+04  0.00000000000E+00 0. -1.
         25    2    1    2    0    0 -0.58457785185E+03 -0.30670644600E+03 -0.86587005904E+03  0.10959721916E+04  0.12499590683E+03 0.  0.
          2    1    1    2  501    0 -0.41808765550E+02 -0.17045047936E+02 -0.65580665029E+03  0.65735901081E+03  0.00000000000E+00 0. -1.
          1    1    1    2  502    0  0.62638661740E+03  0.32375149394E+03  0.23963651692E+04  0.24979474071E+04  0.00000000000E+00 0. -1.
         22    1    3    3    0    0 -0.25068848942E+03 -0.14120250254E+03 -0.47929935316E+03  0.55902659632E+03  0.00000000000E+00 0.  1.
         22    1    3    3    0    0 -0.33388936244E+03 -0.16550394346E+03 -0.38657070587E+03  0.53694559528E+03  0.00000000000E+00 0.  1.
</event>
<event>
 7    1  0.7459264E-005  0.2792063E+03  0.7818608E-02  0.1158457E+00
          2   -1    0    0  502    0  0.00000000000E+00  0.00000000000E+00  0.17368178570E+04  0.17368178570E+04  0.00000000000E+00 0. -1.
          1   -1    0    0  501    0 -0.00000000000E+00 -0.00000000000E+00 -0.31837497356E+04  0.31837497356E+04  0.00000000000E+00 0. -1.
         25    2    1    2    0    0  0.14366190751E+03 -0.31421892381E+03 -0.16264572171E+04  0.16674412907E+04  0.12500041253E+03 0.  0.
          2    1    1    2  501    0 -0.32256807575E+02  0.24858389706E+03 -0.15241126146E+04  0.15445885269E+04  0.00000000000E+00 0. -1.
          1    1    1    2  502    0 -0.11140509993E+03  0.65635026746E+02  0.17036379531E+04  0.17085377749E+04  0.00000000000E+00 0. -1.
         22    1    3    3    0    0 -0.14343719928E+02 -0.17096250285E+02 -0.41171031654E+02  0.46830309872E+02  0.00000000000E+00 0. -1.
         22    1    3    3    0    0  0.15800562743E+03 -0.29712267352E+03 -0.15852861855E+04  0.16206109809E+04  0.00000000000E+00 0. -1.
</event>
<event>
 7    1  0.7459264E-005  0.9494013E+02  0.7818608E-02  0.1385292E+00
          2   -1    0    0  502    0  0.00000000000E+00  0.00000000000E+00  0.11722036160E+03  0.11722036160E+03  0.00000000000E+00 0. -1.
          1   -1    0    0  501    0 -0.00000000000E+00 -0.00000000000E+00 -0.99368694677E+03  0.99368694677E+03  0.00000000000E+00 0. -1.
         25    2    1    2    0    0  0.51415134538E+02  0.10138277301E+03  0.33666082909E+01  0.16899412599E+03  0.12500279134E+03 0.  0.
          2    1    1    2  501    0 -0.10130992372E+02 -0.94059612590E+02 -0.89297577058E+03  0.89797303666E+03  0.00000000000E+00 0. -1.
          1    1    1    2  502    0 -0.41284142166E+02 -0.73231604209E+01  0.13142577119E+02  0.43940145724E+02  0.00000000000E+00 0. -1.
         22    1    3    3    0    0  0.28670567080E+02  0.16402082248E+02  0.57060108889E+02  0.65930916460E+02  0.00000000000E+00 0.  1.
         22    1    3    3    0    0  0.22744567459E+02  0.84980690763E+02 -0.53693500599E+02  0.10306320953E+03  0.00000000000E+00 0.  1.
</event>
<event>
 7    1  0.7459264E-005  0.2703984E+03  0.7818608E-02  0.1208566E+00
          2   -1    0    0  502    0  0.00000000000E+00  0.00000000000E+00  0.15329237113E+04  0.15329237113E+04  0.00000000000E+00 0. -1.
          1   -1    0    0  501    0 -0.00000000000E+00 -0.00000000000E+00 -0.53603973941E+03  0.53603973941E+03  0.00000000000E+00 0. -1.
         25    2    1    2    0    0  0.16810927381E+03  0.25810209710E+03  0.39303024894E+03  0.51475697478E+03  0.12499818416E+03 0.  0.
          2    1    1    2  501    0  0.18281036996E+02 -0.74037413130E+02 -0.45606476543E+03  0.46239680484E+03  0.00000000000E+00 0. -1.
          1    1    1    2  502    0 -0.18639031080E+03 -0.18406468397E+03  0.10599184884E+04  0.10918096711E+04  0.00000000000E+00 0. -1.
         22    1    3    3    0    0  0.57430917014E+02  0.12280476279E+02  0.10455585622E+03  0.11992100482E+03  0.00000000000E+00 0.  1.
         22    1    3    3    0    0  0.11067835679E+03  0.24582162082E+03  0.28847439272E+03  0.39483596997E+03  0.00000000000E+00 0.  1.
</event>
<event>
 7    1  0.7459264E-005  0.2935978E+03  0.7818608E-02  0.1100661E+00
          2   -1    0    0  502    0  0.00000000000E+00  0.00000000000E+00  0.31711201773E+04  0.31711201773E+04  0.00000000000E+00 0. -1.
          1   -1    0    0  501    0 -0.00000000000E+00 -0.00000000000E+00 -0.24062287416E+04  0.24062287416E+04  0.00000000000E+00 0. -1.
         25    2    1    2    0    0  0.36696069623E+03 -0.32326708535E+03 -0.17606873339E+03  0.53459057124E+03  0.12500047572E+03 0.  0.
          2    1    1    2  501    0 -0.90779831557E+02  0.23325168530E+03 -0.20361673176E+04  0.20514932785E+04  0.00000000000E+00 0. -1.
          1    1    1    2  502    0 -0.27618086468E+03  0.90015400045E+02  0.29771274866E+04  0.29912650691E+04  0.00000000000E+00 0. -1.
         22    1    3    3    0    0  0.23710118832E+03 -0.21068297435E+03 -0.49214465596E+02  0.32097718425E+03  0.00000000000E+00 0.  1.
         22    1    3    3    0    0  0.12985950791E+03 -0.11258411100E+03 -0.12685426779E+03  0.21361338699E+03  0.00000000000E+00 0.  1.
</event>
<event>
 7    1  0.7459264E-005  0.8015419E+02  0.7818608E-02  0.1342743E+00
          2   -1    0    0  502    0  0.00000000000E+00  0.00000000000E+00  0.79299294269E+03  0.79299294269E+03  0.00000000000E+00 0. -1.
          1   -1    0    0  501    0 -0.00000000000E+00 -0.00000000000E+00 -0.25151503555E+03  0.25151503555E+03  0.00000000000E+00 0. -1.
         25    2    1    2    0    0  0.36127466082E+02  0.24178697463E+02  0.38835363817E+03  0.41030056663E+03  0.12505280275E+03 0.  0.
          2    1    1    2  501    0  0.17767849630E+02  0.68599180320E+02 -0.22774419025E+03  0.23851406712E+03  0.00000000000E+00 0. -1.
          1    1    1    2  502    0 -0.53895315712E+02 -0.92777877783E+02  0.38086845921E+03  0.39569334450E+03  0.00000000000E+00 0. -1.
         22    1    3    3    0    0 -0.15350609796E+02 -0.40088353058E+02  0.20285773323E+03  0.20734989077E+03  0.00000000000E+00 0. -1.
         22    1    3    3    0    0  0.51478075878E+02  0.64267050521E+02  0.18549590494E+03  0.20295067585E+03  0.00000000000E+00 0. -1.
</event>
<event>
 7    1  0.7459264E-005  0.1210644E+03  0.7818608E-02  0.1262685E+00
          2   -1    0    0  502    0  0.00000000000E+00  0.00000000000E+00  0.20866431673E+04  0.20866431673E+04  0.00000000000E+00 0. -1.
          1   -1    0    0  501    0 -0.00000000000E+00 -0.00000000000E+00 -0.29199371210E+03  0.29199371210E+03  0.00000000000E+00 0. -1.
         25    2    1    2    0    0 -0.13667922492E+03  0.14332826925E+03  0.62354312705E+03  0.66607792320E+03  0.12501825945E+03 0.  0.
          2    1    1    2  501    0  0.44163043586E+02 -0.11132166963E+03 -0.25572170503E+03  0.28237648445E+03  0.00000000000E+00 0. -1.
          1    1    1    2  502    0  0.92516181330E+02 -0.32006599625E+02  0.14268280332E+04  0.14301824718E+04  0.00000000000E+00 0. -1.
         22    1    3    3    0    0 -0.13745756138E+03  0.87089188987E+02  0.54954569362E+03  0.57313137883E+03  0.00000000000E+00 0. -1.
         22    1    3    3    0    0  0.77833646765E+00  0.56239080268E+02  0.73997433427E+02  0.92946544373E+02  0.00000000000E+00 0. -1.
</event>
<event>
 7    1  0.7459264E-005  0.3547693E+03  0.7818608E-02  0.1100032E+00
          2   -1    0    0  502    0  0.00000000000E+00  0.00000000000E+00  0.21301997950E+03  0.21301997950E+03  0.00000000000E+00 0. -1.
          1   -1    0    0  501    0 -0.00000000000E+00 -0.00000000000E+00 -0.37729179008E+04  0.37729179008E+04  0.00000000000E+00 0. -1.
         25    2    1    2    0    0 -0.48037474668E+03 -0.20030395168E+03 -0.15100790930E+04  0.16021379697E+04  0.12500254526E+03 0.  0.
          2    1    1    2  501    0  0.29766889400E+03  0.99157470188E+02 -0.21352415760E+04  0.21581694934E+04  0.00000000000E+00 0. -1.
          1    1    1    2  502    0  0.18270585269E+03  0.10114648149E+03  0.85422747782E+02  0.22563041719E+03  0.00000000000E+00 0. -1.
         22    1    3    3    0    0 -0.23378462154E+03 -0.11690974676E+03 -0.57730758122E+03  0.63372484683E+03  0.00000000000E+00 0.  1.
         22    1    3    3    0    0 -0.24659012514E+03 -0.83394204926E+02 -0.93277151181E+03  0.96841312283E+03  0.00000000000E+00 0.  1.
</event>
<event>
 7    1  0.7459264E-005  0.7297874E+02  0.7818608E-02  0.1362033E+00
          2   -1    0    0  502    0  0.00000000000E+00  0.00000000000E+00  0.52240999979E+03  0.52240999979E+03  0.00000000000E+00 0. -1.
          1   -1    0    0  501    0 -0.00000000000E+00 -0.00000000000E+00 -0.24926247107E+03  0.24926247107E+03  0.00000000000E+00 0. -1.
         25    2    1    2    0    0  0.39861035385E+02 -0.12719498016E+03  0.11838945627E+03  0.21773647851E+03  0.12500258235E+03 0.  0.
          2    1    1    2  501    0 -0.35463122600E+02  0.61282742093E+02 -0.19007415052E+03  0.20283340513E+03  0.00000000000E+00 0. -1.
          1    1    1    2  502    0 -0.43979127855E+01  0.65912238070E+02  0.34483222296E+03  0.35110258722E+03  0.00000000000E+00 0. -1.
         22    1    3    3    0    0  0.36281414517E+02 -0.15043717813E+03  0.84009378839E+02  0.17608310918E+03  0.00000000000E+00 0.  1.
         22    1    3    3    0    0  0.35796208677E+01  0.23242197971E+02  0.34380077435E+02  0.41653369330E+02  0.00000000000E+00 0.  1.
</event>
<event>
 7    1  0.7459264E-005  0.2153502E+03  0.7818608E-02  0.1254537E+00
          2   -1    0    0  502    0  0.00000000000E+00  0.00000000000E+00  0.29232944072E+02  0.29232944072E+02  0.00000000000E+00 0. -1.
          1   -1    0    0  501    0 -0.00000000000E+00 -0.00000000000E+00 -0.27916986670E+04  0.27916986670E+04  0.00000000000E+00 0. -1.
         25    2    1    2    0    0 -0.68346078945E+02 -0.23568902384E+03 -0.98831656657E+03  0.10259704106E+04  0.12500058078E+03 0.  0.
          2    1    1    2  501    0  0.41248846637E+01  0.59491052978E+02 -0.84345547247E+03  0.84556095824E+03  0.00000000000E+00 0. -1.
          1    1    1    2  502    0  0.64221194282E+02  0.17619797086E+03 -0.93069368385E+03  0.94940024220E+03  0.00000000000E+00 0. -1.
         22    1    3    3    0    0 -0.65891554775E+02 -0.21300055534E+03 -0.65566591034E+03  0.69253788311E+03  0.00000000000E+00 0.  1.
         22    1    3    3    0    0 -0.24545241705E+01 -0.22688468496E+02 -0.33265065623E+03  0.33343252748E+03  0.00000000000E+00 0.  1.
</event>
<event>
 7    1  0.7459264E-005  0.3399265E+02  0.7818608E-02  0.1575890E+00
          2   -1    0    0  502    0  0.00000000000E+00  0.00000000000E+00  0.40965320464E+02  0.40965320464E+02  0.00000000000E+00 0. -1.
          1   -1    0    0  501    0 -0.00000000000E+00 -0.00000000000E+00 -0.10765395042E+04  0.10765395042E+04  0.00000000000E+00 0. -1.
         25    2    1    2    0    0  0.56174436611E+01 -0.32126678935E+01 -0.87539929524E+02  0.15273926659E+03  0.12499666951E+03 0.  0.
          2    1    1    2  501    0  0.27218468473E+02 -0.20363084057E+02 -0.90531421698E+03  0.90595216854E+03  0.00000000000E+00 0. -1.
          1    1    1    2  502    0 -0.32835912134E+02  0.23575751951E+02 -0.42720037194E+02  0.58813389492E+02  0.00000000000E+00 0. -1.
         22    1    3    3    0    0  0.25721948626E+02  0.35483357159E+02 -0.98470839073E+02  0.10778308506E+03  0.00000000000E+00 0. -1.
         22    1    3    3    0    0 -0.20104504965E+02 -0.38696025052E+02  0.10930909549E+02  0.44956181536E+02  0.00000000000E+00 0. -1.
</event>
<event>
 7    1  0.7459264E-005  0.6459684E+03  0.7818608E-02  0.1167986E+00
          2   -1    0    0  502    0  0.00000000000E+00  0.00000000000E+00  0.57947654576E+03  0.57947654576E+03  0.00000000000E+00 0. -1.
          1   -1    0    0  501    0 -0.00000000000E+00 -0.00000000000E+00 -0.13636511419E+04  0.13636511419E+04  0.00000000000E+00 0. -1.
         25    2    1    2    0    0  0.27385149464E+03  0.59645859838E+03 -0.53714541952E+02  0.67027477980E+03  0.12500211087E+03 0.  0.
          2    1    1    2  501    0 -0.50040811339E+02 -0.10473255480E+01 -0.62629763415E+03  0.62829444231E+03  0.00000000000E+00 0. -1.
          1    1    1    2  502    0 -0.22381068330E+03 -0.59541127283E+03 -0.10416242006E+03  0.64455846556E+03  0.00000000000E+00 0. -1.
         22    1    3    3    0    0  0.30227362370E+02  0.16976254541E+03 -0.47628960128E+02  0.17888972330E+03  0.00000000000E+00 0.  1.
         22    1    3    3    0    0  0.24362413227E+03  0.42669605297E+03 -0.60855818240E+01  0.49138505650E+03  0.00000000000E+00 0.  1.
</event>
<event>
 7    1  0.7459264E-005  0.4048852E+02  0.7818608E-02  0.1550142E+00
          2   -1    0    0  502    0  0.00000000000E+00  0.00000000000E+00  0.78905138370E+03  0.78905138370E+03  0.00000000000E+00 0. -1.
          1   -1    0    0  501    0 -0.00000000000E+00 -0.00000000000E+00 -0.59974151255E+02  0.59974151255E+02  0.00000000000E+00 0. -1.
         25    2    1    2    0    0 -0.52379274801E+02  0.22252149488E+02  0.49111882955E+03  0.50996256121E+03  0.12500145004E+03 0.  0.
          2    1    1    2  501    0  0.24160615738E+02 -0.32309112222E+02 -0.41573308892E+02  0.57930597250E+02  0.00000000000E+00 0. -1.
          1    1    1    2  502    0  0.28218659063E+02  0.10056962735E+02  0.27953171178E+03  0.28113237649E+03  0.00000000000E+00 0. -1.
         22    1    3    3    0    0 -0.71461565432E+02 -0.32836415769E+02  0.26254640133E+03  0.27407225030E+03  0.00000000000E+00 0. -1.
         22    1    3    3    0    0  0.19082290631E+02  0.55088565257E+02  0.22857242822E+03  0.23589031091E+03  0.00000000000E+00 0. -1.
</event>
<event>
 7    1  0.7459264E-005  0.1860850E+04  0.7818608E-02  0.1088325E+00
          2   -1    0    0  502    0  0.00000000000E+00  0.00000000000E+00  0.22177107955E+04  0.22177107955E+04  0.00000000000E+00 0. -1.
          1   -1    0    0  501    0 -0.00000000000E+00 -0.00000000000E+00 -0.19601713144E+04  0.19601713144E+04  0.00000000000E+00 0. -1.
         25    2    1    2    0    0 -0.10122640131E+04 -0.15590751873E+04  0.10603354348E+02  0.18630975521E+04  0.12500474163E+03 0.  0.
          2    1    1    2  501    0  0.37160553701E+02 -0.27821861041E+02 -0.35451270833E+03  0.35753912104E+03  0.00000000000E+00 0. -1.
          1    1    1    2  502    0  0.97510345943E+03  0.15868970483E+04  0.60144883503E+03  0.19572454368E+04  0.00000000000E+00 0. -1.
         22    1    3    3    0    0 -0.16188654648E+01 -0.97982079057E+01 -0.87302406017E+01  0.13222810008E+02  0.00000000000E+00 0. -1.
         22    1    3    3    0    0 -0.10106451477E+04 -0.15492769794E+04  0.19333594949E+02  0.18498747421E+04  0.00000000000E+00 0. -1.
</event>
<event>
 7    1  0.7459264E-005  0.5211113E+03  0.7818608E-02  0.1200534E+00
          2   -1    0    0  502    0  0.00000000000E+00  0.00000000000E+00  0.12210403512E+04  0.12210403512E+04  0.00000000000E+00 0. -1.
          1   -1    0    0  501    0 -0.00000000000E+00 -0.00000000000E+00 -0.55586549585E+03  0.55586549585E+03  0.00000000000E+00 0. -1.
         25    2    1    2    0    0  0.40328092622E+03  0.30731979913E+03  0.67620444831E+03  0.85437071604E+03  0.12496359516E+03 0.  0.
          2    1    1    2  501    0 -0.44001020361E+03 -0.28467602428E+03 -0.31769741179E+03  0.61284668844E+03  0.00000000000E+00 0. -1.
          1    1    1    2  502    0  0.36729277387E+02 -0.22643774849E+02  0.30666781879E+03  0.30968844253E+03  0.00000000000E+00 0. -1.
         22    1    3    3    0    0  0.20351602600E+03  0.21046488336E+03  0.45439698005E+03  0.54054681152E+03  0.00000000000E+00 0. -1.
         22    1    3    3    0    0  0.19976490022E+03  0.96854915764E+02  0.22180746826E+03  0.31382390452E+03  0.00000000000E+00 0. -1.
</event>
<event>
 7    1  0.7459264E-005  0.4556931E+03  0.7818608E-02  0.1239410E+00
          2   -1    0    0  502    0  0.00000000000E+00  0.00000000000E+00  0.30686700063E+04  0.30686700063E+04  0.00000000000E+00 0. -1.
          1   -1    0    0  501    0 -0.00000000000E+00 -0.00000000000E+00 -0.29270143369E+03  0.29270143369E+03  0.00000000000E+00 0. -1.
         25    2    1    2    0    0 -0.42167234947E+03 -0.10191677785E+03  0.92186999239E+03  0.10264813465E+04  0.12500028795E+03 0.  0.
          2    1    1    2  501    0 -0.32267092668E+02 -0.59067942201E+01 -0.21314220152E+03  0.21565169500E+03  0.00000000000E+00 0. -1.
          1    1    1    2  502    0  0.45393944214E+03  0.10782357207E+03  0.20672407818E+04  0.21192383985E+04  0.00000000000E+00 0. -1.
         22    1    3    3    0    0 -0.16983217897E+03  0.21160568595E+02  0.34578779332E+03  0.38582371193E+03  0.00000000000E+00 0. -1.
         22    1    3    3    0    0 -0.25184017050E+03 -0.12307734645E+03  0.57608219907E+03  0.64065763460E+03  0.00000000000E+00 0. -1.
</event>
<event>
 7    1  0.7459264E-005  0.1121805E+03  0.7818608E-02  0.1326845E+00
          2   -1    0    0  502    0  0.00000000000E+00  0.00000000000E+00  0.48954351032E+03  0.48954351032E+03  0.00000000000E+00 0. -1.
          1   -1    0    0  501    0 -0.00000000000E+00 -0.00000000000E+00 -0.17712757006E+04  0.17712757006E+04  0.00000000000E+00 0. -1.
         25    2    1    2    0    0 -0.88074775648E+02  0.13403725417E+03 -0.28113719403E+03  0.34696873998E+03  0.12500413213E+03 0.  0.
          2    1    1    2  501    0  0.71439636214E+01 -0.57732269496E+02 -0.14498570847E+04  0.14510236446E+04  0.00000000000E+00 0. -1.
          1    1    1    2  502    0  0.80930812027E+02 -0.76304984670E+02  0.44926208847E+03  0.46282682631E+03  0.00000000000E+00 0. -1.
         22    1    3    3    0    0 -0.59420452092E+02  0.14434935395E+03 -0.27452929290E+03  0.31580667943E+03  0.00000000000E+00 0.  1.
         22    1    3    3    0    0 -0.28654323557E+02 -0.10312099788E+02 -0.66079011282E+01  0.31162060552E+02  0.00000000000E+00 0.  1.
</event>
<event>
 7    1  0.7459264E-005  0.1688448E+04  0.7818608E-02  0.1028257E+00
          2   -1    0    0  502    0  0.00000000000E+00  0.00000000000E+00  0.14137488805E+04  0.14137488805E+04  0.00000000000E+00 0. -1.
          1   -1    0    0  501    0 -0.00000000000E+00 -0.00000000000E+00 -0.23460553464E+04  0.23460553464E+04  0.00000000000E+00 0. -1.
         25    2    1    2    0    0 -0.13183267065E+04 -0.11203308488E+04  0.96909967404E+02  0.17372804400E+04  0.12500107780E+03 0.  0.
          2    1    1    2  501    0  0.60441926484E+02  0.10248467091E+03 -0.10725402359E+03  0.16018664059E+03  0.00000000000E+00 0. -1.
          1    1    1    2  502    0  0.12578847800E+04  0.10178461779E+04 -0.92196240978E+03  0.18623371464E+04  0.00000000000E+00 0. -1.
         22    1    3    3    0    0 -0.10304526631E+03 -0.70670267314E+02 -0.22717344633E+02  0.12699878479E+03  0.00000000000E+00 0.  1.
         22    1    3    3    0    0 -0.12152814402E+04 -0.10496605815E+04  0.11962731204E+03  0.16102816552E+04  0.00000000000E+00 0.  1.
</event>
<event>
 7    1  0.7459264E-005  0.3201187E+03  0.7818608E-02  0.1315867E+00
          2   -1    0    0  502    0  0.00000000000E+00  0.00000000000E+00  0.83893792063E+03  0.83893792063E+03  0.00000000000E+00 0. -1.
          1   -1    0    0  501    0 -0.00000000000E+00 -0.00000000000E+00 -0.27200919826E+03  0.27200919826E+03  0.00000000000E+00 0. -1.
         25    2    1    2    0    0 -0.31610081198E+03 -0.35996710750E+02  0.44231758858E+03  0.55900344727E+03  0.12499807349E+03 0.  0.
          2    1    1    2  501    0 -0.17426030457E+01 -0.22414020683E+02 -0.13534448657E+03  0.13719896149E+03  0.00000000000E+00 0. -1.
          1    1    1    2  502    0  0.31784341502E+03  0.58410731433E+02  0.25995562036E+03  0.41474471013E+03  0.00000000000E+00 0. -1.
         22    1    3    3    0    0 -0.20506627326E+03  0.35161202931E+02  0.29871895405E+03  0.36403502596E+03  0.00000000000E+00 0. -1.
         22    1    3    3    0    0 -0.11103453872E+03 -0.71157913681E+02  0.14359863453E+03  0.19496842130E+03  0.00000000000E+00 0. -1.
</event>
<event>
 7    1  0.7459264E-005  0.1091257E+03  0.7818608E-02  0.1462521E+00
          2   -1    0    0  502    0  0.00000000000E+00  0.00000000000E+00  0.64387790233E+03  0.64387790233E+03  0.00000000000E+00 0. -1.
          1   -1    0    0  501    0 -0.00000000000E+00 -0.00000000000E+00 -0.67026771189E+02  0.67026771189E+02  0.00000000000E+00 0. -1.
         25    2    1    2    0    0 -0.62159267845E+01 -0.11153307115E+03  0.12263764291E+03  0.20770952643E+03  0.12499996882E+03 0.  0.
          2    1    1    2  501    0 -0.13504224866E+02  0.10715645457E+03  0.96268574083E+02  0.14468071123E+03  0.00000000000E+00 0. -1.
          1    1    1    2  502    0  0.19720151651E+02  0.43766165818E+01  0.35794491416E+03  0.35851443586E+03  0.00000000000E+00 0. -1.
         22    1    3    3    0    0 -0.13744564318E+02  0.24924884778E+02  0.86546826379E+01  0.29750066572E+02  0.00000000000E+00 0.  1.
         22    1    3    3    0    0  0.75286375335E+01 -0.13645795593E+03  0.11398296027E+03  0.17795945986E+03  0.00000000000E+00 0.  1.
</event>
<event>
 7    1  0.7459264E-005  0.1617715E+03  0.7818608E-02  0.1337919E+00
          2   -1    0    0  502    0  0.00000000000E+00  0.00000000000E+00  0.25349796374E+04  0.25349796374E+04  0.00000000000E+00 0. -1.
          1   -1    0    0  501    0 -0.00000000000E+00 -0.00000000000E+00 -0.85821811601E+03  0.85821811601E+03  0.00000000000E+00 0. -1.
         25    2    1    2    0    0  0.17248924532E+03 -0.86202806449E+02 -0.81957586239E+03  0.85118295531E+03  0.12499746243E+03 0.  0.
          2    1    1    2  501    0 -0.20864497372E+02  0.30080662454E+02 -0.36636707682E+01  0.36791248793E+02  0.00000000000E+00 0. -1.
          1    1    1    2  502    0 -0.15162474795E+03  0.56122143995E+02  0.25000010545E+04  0.25052235493E+04  0.00000000000E+00 0. -1.
         22    1    3    3    0    0 -0.16280397284E+02 -0.24303949550E+02 -0.14695845461E+03  0.14984165202E+03  0.00000000000E+00 0. -1.
         22    1    3    3    0    0  0.18876964260E+03 -0.61898856899E+02 -0.67261740778E+03  0.70134130329E+03  0.00000000000E+00 0. -1.
</event>
<event>
 7    1  0.7459264E-005  0.1995626E+03  0.7818608E-02  0.1194041E+00
          2   -1    0    0  502    0  0.00000000000E+00  0.00000000000E+00  0.21467422049E+04  0.21467422049E+04  0.00000000000E+00 0. -1.
          1   -1    0    0  501    0 -0.00000000000E+00 -0.00000000000E+00 -0.80128841940E+02  0.80128841940E+02  0.00000000000E+00 0. -1.
         25    2    1    2    0    0  0.30246368520E+03 -0.19898622698E+02  0.99685766995E+03  0.10493962874E+04  0.12500847111E+03 0.  0.
          2    1    1    2  501    0 -0.18269952981E+03  0.30515894956E+01  0.11677910039E+03  0.21685430288E+03  0.00000000000E+00 0. -1.
          1    1    1    2  502    0 -0.11976415539E+03  0.16847033202E+02  0.95297659264E+03  0.96062045656E+03  0.00000000000E+00 0. -1.
         22    1    3    3    0    0  0.89437671915E+01 -0.32119783648E+02  0.12525480538E+03  0.12961650259E+03  0.00000000000E+00 0.  1.
         22    1    3    3    0    0  0.29351991801E+03  0.12221160950E+02  0.87160286457E+03  0.91977978482E+03  0.00000000000E+00 0.  1.
</event>
<event>
 7    1  0.7459264E-005  0.1887495E+03  0.7818608E-02  0.1264293E+00
          2   -1    0    0  502    0  0.00000000000E+00  0.00000000000E+00  0.34272688949E+03  0.34272688949E+03  0.00000000000E+00 0. -1.
          1   -1    0    0  501    0 -0.00000000000E+00 -0.00000000000E+00 -0.45019969765E+03  0.45019969765E+03  0.00000000000E+00 0. -1.
         25    2    1    2    0    0 -0.18754253220E+03 -0.16319671693E+02  0.27437007099E+02  0.22762244871E+03  0.12498262572E+03 0.  0.
          2    1    1    2  501    0  0.11666475888E+02 -0.60701016928E+02 -0.30353659805E+03  0.30976634174E+03  0.00000000000E+00 0. -1.
          1    1    1    2  502    0  0.17587605631E+03  0.77020688621E+02  0.16862678280E+03  0.25553779669E+03  0.00000000000E+00 0. -1.
         22    1    3    3    0    0 -0.19982556619E+03  0.62084379502E+01  0.28489936409E+02  0.20194176904E+03  0.00000000000E+00 0. -1.
         22    1    3    3    0    0  0.12283033998E+02 -0.22528109643E+02 -0.10529293101E+01  0.25680679672E+02  0.00000000000E+00 0. -1.
</event>
<event>
 7    1  0.7459264E-005  0.6660385E+03  0.7818608E-02  0.1169926E+00
          2   -1    0    0  502    0  0.00000000000E+00  0.00000000000E+00  0.94832974210E+03  0.94832974210E+03  0.00000000000E+00 0. -1.
          1   -1    0    0  501    0 -0.00000000000E+00 -0.00000000000E+00 -0.15855223448E+04  0.15855223448E+04  0.00000000000E+00 0. -1.
         25    2    1    2    0    0 -0.35269748954E+03 -0.54685930239E+03 -0.65679685508E+03  0.93298325506E+03  0.12500011861E+03 0.  0.
          2    1    1    2  501    0  0.39968016174E+03  0.55369060389E+03 -0.64217228125E+03  0.93739146322E+03  0.00000000000E+00 0. -1.
          1    1    1    2  502    0 -0.46982672201E+02 -0.68313014995E+01  0.66177653364E+03  0.66347736860E+03  0.00000000000E+00 0. -1.
         22    1    3    3    0    0 -0.18660506901E+03 -0.37247948169E+03 -0.47106189666E+03  0.62885747713E+03  0.00000000000E+00 0.  1.
         22    1    3    3    0    0 -0.16609242053E+03 -0.17437982070E+03 -0.18573495842E+03  0.30412577793E+03  0.00000000000E+00 0.  1.
</event>
<event>
 7    1  0.7459264E-005  0.7996514E+02  0.7818608E-02  0.1408085E+00
          2   -1    0    0  502    0  0.00000000000E+00  0.00000000000E+00  0.58168489858E+02  0.58168489858E+02  0.00000000000E+00 0. -1.
          1   -1    0    0  501    0 -0.00000000000E+00 -0.00000000000E+00 -0.36562741397E+03  0.36562741397E+03  0.00000000000E+00 0. -1.
         25    2    1    2    0    0 -0.69456161436E+00  0.11089858754E+01 -0.11629785818E+03  0.17074001941E+03  0.12500100058E+03 0.  0.
          2    1    1    2  501    0  0.23710494434E+02  0.76369080348E+02 -0.64185209666E+02  0.10253860307E+03  0.00000000000E+00 0. -1.
          1    1    1    2  502    0 -0.23015932820E+02 -0.77478066224E+02 -0.12697585627E+03  0.15051728135E+03  0.00000000000E+00 0. -1.
         22    1    3    3    0    0  0.24202973520E+02  0.23879922774E+02  0.13534379503E+02  0.36595273840E+02  0.00000000000E+00 0.  1.
         22    1    3    3    0    0 -0.24897535134E+02 -0.22770936899E+02 -0.12983223768E+03  0.13414474557E+03  0.00000000000E+00 0.  1.
</event>
<event>
 7    1  0.7459264E-005  0.2919099E+03  0.7818608E-02  0.1161534E+00
          2   -1    0    0  502    0  0.00000000000E+00  0.00000000000E+00  0.23209393631E+04  0.23209393631E+04  0.00000000000E+00 0. -1.
          1   -1    0    0  501    0 -0.00000000000E+00 -0.00000000000E+00 -0.14626238211E+03  0.14626238211E+03  0.00000000000E+00 0. -1.
         25    2    1    2    0    0  0.25250839054E+03  0.23684801089E+03  0.58269306477E+03  0.68921249260E+03  0.12500073863E+03 0.  0.
          2    1    1    2  501    0 -0.11869694976E+03  0.12216938710E+02 -0.36783015669E+02  0.12486476571E+03  0.00000000000E+00 0. -1.
          1    1    1    2  502    0 -0.13381144077E+03 -0.24906494960E+03  0.16287669319E+04  0.16531244870E+04  0.00000000000E+00 0. -1.
         22    1    3    3    0    0  0.14706267591E+03  0.11191099210E+03  0.19601999907E+03  0.26939810844E+03  0.00000000000E+00 0. -1.
         22    1    3    3    0    0  0.10544571463E+03  0.12493701879E+03  0.38667306571E+03  0.41981438415E+03  0.00000000000E+00 0. -1.
</event>
<event>
 7    1  0.7459264E-005  0.1403570E+03  0.7818608E-02  0.1254987E+00
          2   -1    0    0  502    0  0.00000000000E+00  0.00000000000E+00  0.10451011544E+04  0.10451011544E+04  0.00000000000E+00 0. -1.
          1   -1    0    0  501    0 -0.00000000000E+00 -0.00000000000E+00 -0.14162815136E+04  0.14162815136E+04  0.00000000000E+00 0. -1.
         25    2    1    2    0    0  0.17824911282E+03  0.14418430541E+03  0.70384002528E+03  0.75071829545E+03  0.12500127120E+03 0.  0.
          2    1    1    2  501    0 -0.11699153897E+03 -0.76769738775E+02 -0.13827111887E+04  0.13897736666E+04  0.00000000000E+00 0. -1.
          1    1    1    2  502    0 -0.61257573852E+02 -0.67414566632E+02  0.30769080422E+03  0.32089070593E+03  0.00000000000E+00 0. -1.
         22    1    3    3    0    0  0.16366830809E+03  0.10406327013E+03  0.66602370075E+03  0.69368872647E+03  0.00000000000E+00 0.  1.
         22    1    3    3    0    0  0.14580804732E+02  0.40121035279E+02  0.37816324523E+02  0.57029568988E+02  0.00000000000E+00 0.  1.
</event>
<event>
 7    1  0.7459264E-005  0.2885872E+03  0.7818608E-02  0.1277627E+00
          2   -1    0    0  502    0  0.00000000000E+00  0.00000000000E+00  0.80034782870E+03  0.80034782870E+03  0.00000000000E+00 0. -1.
          1   -1    0    0  501    0 -0.00000000000E+00 -0.00000000000E+00 -0.14652493040E+04  0.14652493040E+04  0.00000000000E+00 0. -1.
         25    2    1    2    0    0 -0.14492725304E+02  0.29663972964E+03  0.27674333130E+03  0.42475406742E+03  0.12499591228E+03 0.  0.
          2    1    1    2  501    0 -0.19889887344E+02 -0.28762619877E+03 -0.13755723850E+04  0.14054621390E+04  0.00000000000E+00 0. -1.
          1    1    1    2  502    0  0.34382612648E+02 -0.90135308622E+01  0.43392757832E+03  0.43538092633E+03  0.00000000000E+00 0. -1.
         22    1    3    3    0    0 -0.10590079696E+02  0.16481583421E+03  0.69667995791E+02  0.17924853872E+03  0.00000000000E+00 0. -1.
         22    1    3    3    0    0 -0.39026456075E+01  0.13182389542E+03  0.20707533551E+03  0.24550552871E+03  0.00000000000E+00 0. -1.
</event>
<event>
 7    1  0.7459264E-005  0.1540901E+03  0.7818608E-02  0.1355190E+00
          2   -1    0    0  502    0  0.00000000000E+00  0.00000000000E+00  0.11468999194E+04  0.11468999194E+04  0.00000000000E+00 0. -1.
          1   -1    0    0  501    0 -0.00000000000E+00 -0.00000000000E+00 -0.19072788011E+04  0.19072788011E+04  0.00000000000E+00 0. -1.
         25    2    1    2    0    0 -0.55315627088E+02  0.11673536830E+03 -0.12897426075E+03  0.22123878534E+03  0.12500110156E+03 0.  0.
          2    1    1    2  501    0  0.85400948455E+02 -0.13063727256E+03 -0.17284057780E+04  0.17354382595E+04  0.00000000000E+00 0. -1.
          1    1    1    2  502    0 -0.30085321367E+02  0.13901904255E+02  0.10970011571E+04  0.10975016757E+04  0.00000000000E+00 0. -1.
         22    1    3    3    0    0 -0.24144708753E+02 -0.13602140820E+02  0.87622610278E+01  0.29064796816E+02  0.00000000000E+00 0. -1.
         22    1    3    3    0    0 -0.31170918334E+02  0.13033750912E+03 -0.13773652178E+03  0.19217398852E+03  0.00000000000E+00 0. -1.
</event>
<event>
 7    1  0.7459264E-005  0.3624189E+03  0.7818608E-02  0.1187753E+00
          2   -1    0    0  502    0  0.00000000000E+00  0.00000000000E+00  0.17477466442E+04  0.17477466442E+04  0.00000000000E+00 0. -1.
          1   -1    0    0  501    0 -0.00000000000E+00 -0.00000000000E+00 -0.11182703550E+04  0.11182703550E+04  0.00000000000E+00 0. -1.
         25    2    1    2    0    0  0.29362364478E+03 -0.22976474094E+03 -0.37208018185E+03  0.54136415529E+03  0.12499922384E+03 0.  0.
          2    1    1    2  501    0 -0.23533109156E+03  0.27095879612E+03 -0.61202759137E+03  0.70949077826E+03  0.00000000000E+00 0. -1.
          1    1    1    2  502    0 -0.58292553225E+02 -0.41194055174E+02  0.16135840624E+04  0.16151620657E+04  0.00000000000E+00 0. -1.
         22    1    3    3    0    0  0.54549652685E+02 -0.11659601203E+03 -0.12208062159E+03  0.17740905500E+03  0.00000000000E+00 0.  1.
         22    1    3    3    0    0  0.23907399210E+03 -0.11316872892E+03 -0.24999956026E+03  0.36395510029E+03  0.00000000000E+00 0.  1.
</event>
<event>
 7    1  0.1601275E-004  0.3483635E+03  0.7818608E-02  0.1263852E+00
          2   -1    0    0  502    0  0.00000000000E+00  0.00000000000E+00  0.16791745265E+04  0.16791745265E+04  0.00000000000E+00 0. -1.
          1   -1    0    0  501    0 -0.00000000000E+00 -0.00000000000E+00 -0.15715781574E+04  0.15715781574E+04  0.00000000000E+00 0. -1.
         25    2    1    2    0    0 -0.30485655114E+03  0.87454887823E+02 -0.37379202797E+03  0.50589595839E+03  0.12499746543E+03 0.  0.
          2    1    1    2  501    0 -0.33632587382E+02  0.43234283686E+00 -0.11125232303E+04  0.11130315700E+04  0.00000000000E+00 0. -1.
          1    1    1    2  502    0  0.33848913853E+03 -0.87887230660E+02  0.15939116274E+04  0.16318251555E+04  0.00000000000E+00 0. -1.
         22    1    3    3    0    0 -0.74654343525E+02 -0.31226219953E+02 -0.10588885451E+03  0.13326964144E+03  0.00000000000E+00 0. -1.
         22    1    3    3    0    0 -0.23020220762E+03  0.11868110778E+03 -0.26790317346E+03  0.37262631695E+03  0.00000000000E+00 0. -1.
</event>
<event>
 7    1  0.7459264E-005  0.2308302E+03  0.7818608E-02  0.1263354E+00
          2   -1    0    0  502    0  0.00000000000E+00  0.00000000000E+00  0.47398510492E+03  0.47398510492E+03  0.00000000000E+00 0. -1.
          1   -1    0    0  501    0 -0.00000000000E+00 -0.00000000000E+00 -0.18011168717E+04  0.18011168717E+04  0.00000000000E+00 0. -1.
         25    2    1    2    0    0 -0.53098894976E+02  0.19477317763E+03 -0.54405518897E+03  0.59361378008E+03  0.12500075151E+03 0.  0.
          2    1    1    2  501    0  0.36314349970E+02 -0.24294176146E+03 -0.12185374918E+04  0.12430498986E+04  0.00000000000E+00 0. -1.
          1    1    1    2  502    0  0.16784545006E+02  0.48168583832E+02  0.43546091404E+03  0.43843829791E+03  0.00000000000E+00 0. -1.
         22    1    3    3    0    0 -0.68125136702E+02  0.19034854550E+03 -0.39495015478E+03  0.44368821010E+03  0.00000000000E+00 0. -1.
         22    1    3    3    0    0  0.15026241726E+02  0.44246321248E+01 -0.14910503420E+03  0.14992556998E+03  0.00000000000E+00 0. -1.
</event>
<event>
 7    1  0.7459264E-005  0.6068801E+03  0.7818608E-02  0.1226061E+00
          2   -1    0    0  502    0  0.00000000000E+00  0.00000000000E+00  0.65020371617E+03  0.65020371617E+03  0.00000000000E+00 0. -1.
          1   -1    0    0  501    0 -0.00000000000E+00 -0.00000000000E+00 -0.11302170430E+04  0.11302170430E+04  0.00000000000E+00 0. -1.
         25    2    1    2    0    0 -0.10103107249E+03 -0.59810351855E+03  0.89820470181E+02  0.62580178365E+03  0.12500023620E+03 0.  0.
          2    1    1    2  501    0 -0.27916380561E+02  0.43506359312E+01 -0.54582031761E+03  0.54655106939E+03  0.00000000000E+00 0. -1.
          1    1    1    2  502    0  0.12894745305E+03  0.59375288262E+03 -0.24013479396E+02  0.60806790612E+03  0.00000000000E+00 0. -1.
         22    1    3    3    0    0 -0.43939303180E+01  0.29587030584E+01 -0.76113000338E+01  0.92732106431E+01  0.00000000000E+00 0. -1.
         22    1    3    3    0    0 -0.96637142173E+02 -0.60106222161E+03  0.97431770215E+02  0.61652857301E+03  0.00000000000E+00 0. -1.
</event>
<event>
 7    1  0.7459264E-005  0.2928634E+03  0.7818608E-02  0.1213666E+00
          2   -1    0    0  502    0  0.00000000000E+00  0.00000000000E+00  0.44598771240E+03  0.44598771240E+03  0.00000000000E+00 0. -1.
          1   -1    0    0  501    0 -0.00000000000E+00 -0.00000000000E+00 -0.10891139004E+04  0.10891139004E+04  0.00000000000E+00 0. -1.
         25    2    1    2    0    0  0.22472081565E+03  0.17820708860E+03 -0.91290357154E+03  0.96502583088E+03  0.12499884769E+03 0.  0.
          2    1    1    2  501    0 -0.29140560734E+03 -0.17866962789E+03  0.56299030086E+02  0.34642408217E+03  0.00000000000E+00 0. -1.
          1    1    1    2  502    0  0.66684791690E+02  0.46253928875E+00  0.21347835349E+03  0.22365169973E+03  0.00000000000E+00 0. -1.
         22    1    3    3    0    0  0.56679979370E+02  0.45780323267E+02 -0.43979862230E+03  0.44579287369E+03  0.00000000000E+00 0. -1.
         22    1    3    3    0    0  0.16804083628E+03  0.13242676533E+03 -0.47310494924E+03  0.51923295719E+03  0.00000000000E+00 0. -1.
</event>
<event>
 7    1  0.7459264E-005  0.9569981E+02  0.7818608E-02  0.1461233E+00
          2   -1    0    0  502    0  0.00000000000E+00  0.00000000000E+00  0.88824066800E+03  0.88824066800E+03  0.00000000000E+00 0. -1.
          1   -1    0    0  501    0 -0.00000000000E+00 -0.00000000000E+00 -0.32083802833E+02  0.32083802833E+02  0.00000000000E+00 0. -1.
         25    2    1    2    0    0  0.19697647269E+02  0.80907011553E+02  0.36132520949E+03  0.39129212435E+03  0.12497870913E+03 0.  0.
          2    1    1    2  501    0 -0.39538103370E+02 -0.93027530606E+02  0.13601007349E+03  0.16945832278E+03  0.00000000000E+00 0. -1.
          1    1    1    2  502    0  0.19840456101E+02  0.12120519054E+02  0.35882158218E+03  0.35957402370E+03  0.00000000000E+00 0. -1.
         22    1    3    3    0    0  0.41209658401E+02  0.74771314988E+02  0.11132661270E+03  0.14029469051E+03  0.00000000000E+00 0. -1.
         22    1    3    3    0    0 -0.21512011132E+02  0.61356965647E+01  0.24999859679E+03  0.25099743383E+03  0.00000000000E+00 0. -1.
</event>
<event>
 7    1  0.7459264E-005  0.2383287E+03  0.7818608E-02  0.1187548E+00
          2   -1    0    0  502    0  0.00000000000E+00  0.00000000000E+00  0.16119116034E+04  0.16119116034E+04  0.00000000000E+00 0. -1.
          1   -1    0    0  501    0 -0.00000000000E+00 -0.00000000000E+00 -0.80508271598E+02  0.80508271598E+02  0.00000000000E+00 0. -1.
         25    2    1    2    0    0  0.89858743903E+02  0.18798728587E+03  0.35839488924E+03  0.43299274979E+03  0.12498804438E+03 0.  0.
          2    1    1    2  501    0 -0.85120593854E+02  0.67749959720E+02  0.75291747590E+02  0.13230426975E+03  0.00000000000E+00 0. -1.
          1    1    1    2  502    0 -0.47381500494E+01 -0.25573724559E+03  0.10977166950E+04  0.11271228555E+04  0.00000000000E+00 0. -1.
         22    1    3    3    0    0 -0.31556588358E+02  0.50452715225E+02  0.88911833586E+02  0.10698882602E+03  0.00000000000E+00 0. -1.
         22    1    3    3    0    0  0.12141533226E+03  0.13753457065E+03  0.26948305565E+03  0.32600392377E+03  0.00000000000E+00 0. -1.
</event>
<event>
 7    1  0.7459264E-005  0.2522552E+03  0.7818608E-02  0.1148014E+00
          2   -1    0    0  502    0  0.00000000000E+00  0.00000000000E+00  0.25561028408E+03  0.25561028408E+03  0.00000000000E+00 0. -1.
          1   -1    0    0  501    0 -0.00000000000E+00 -0.00000000000E+00 -0.18062315307E+04  0.18062315307E+04  0.00000000000E+00 0. -1.
         25    2    1    2    0    0  0.95100837148E+02  0.37968463642E+02  0.13779427387E+03  0.21236276603E+03  0.12499963611E+03 0.  0.
          2    1    1    2  501    0 -0.25664978612E+03 -0.47829832656E+02 -0.16657098122E+04  0.16860444787E+04  0.00000000000E+00 0. -1.
          1    1    1    2  502    0  0.16154894897E+03  0.98613690147E+01 -0.22705708299E+02  0.16343457009E+03  0.00000000000E+00 0. -1.
         22    1    3    3    0    0  0.88656621096E+02  0.44252170201E+01  0.15147486306E+03  0.17556825781E+03  0.00000000000E+00 0. -1.
         22    1    3    3    0    0  0.64442160521E+01  0.33543246622E+02 -0.13680589196E+02  0.36794508220E+02  0.00000000000E+00 0. -1.
</event>
<event>
 7    1  0.7459264E-005  0.1002479E+03  0.7818608E-02  0.1310617E+00
          2   -1    0    0  502    0  0.00000000000E+00  0.00000000000E+00  0.12166029528E+04  0.12166029528E+04  0.00000000000E+00 0. -1.
          1   -1    0    0  501    0 -0.00000000000E+00 -0.00000000000E+00 -0.16212576179E+04  0.16212576179E+04  0.00000000000E+00 0. -1.
         25    2    1    2    0    0  0.16832044722E+03 -0.15074029140E+02  0.99935834994E+01  0.21044469159E+03  0.12501238819E+03 0.  0.
          2    1    1    2  501    0 -0.94584843156E+02  0.30218411693E+02 -0.15181279350E+04  0.15213717073E+04  0.00000000000E+00 0. -1.
          1    1    1    2  502    0 -0.73735604065E+02 -0.15144382553E+02  0.11034796864E+04  0.11060441718E+04  0.00000000000E+00 0. -1.
         22    1    3    3    0    0  0.13696941554E+03 -0.15173304303E+02  0.60895758774E+02  0.15066234896E+03  0.00000000000E+00 0.  1.
         22    1    3    3    0    0  0.31351031678E+02  0.99275162967E-01 -0.50902175274E+02  0.59782342631E+02  0.00000000000E+00 0.  1.
</event>
<event>
 7    1  0.7459264E-005  0.1968967E+03  0.7818608E-02  0.1193479E+00
          2   -1    0    0  502    0  0.00000000000E+00  0.00000000000E+00  0.17552819266E+04  0.17552819266E+04  0.00000000000E+00 0. -1.
          1   -1    0    0  501    0 -0.00000000000E+00 -0.00000000000E+00 -0.18320712436E+03  0.18320712436E+03  0.00000000000E+00 0. -1.
         25    2    1    2    0    0  0.17646551447E+03  0.24292741088E+03  0.61994114416E+03  0.70007551063E+03  0.12499957443E+03 0.  0.
          2    1    1    2  501    0 -0.62627027822E+02 -0.10625610949E+03 -0.10770876641E+03  0.16374884360E+03  0.00000000000E+00 0. -1.
          1    1    1    2  502    0 -0.11383848665E+03 -0.13667130139E+03  0.10598424245E+04  0.10746646968E+04  0.00000000000E+00 0. -1.
         22    1    3    3    0    0  0.19442511354E+03  0.22193342688E+03  0.53790797612E+03  0.61351492363E+03  0.00000000000E+00 0.  1.
         22    1    3    3    0    0 -0.17959599073E+02  0.20993984001E+02  0.82033168041E+02  0.86560587001E+02  0.00000000000E+00 0.  1.
</event>
<event>
 7    1  0.7459264E-005  0.9176323E+03  0.7818608E-02  0.1177827E+00
          2   -1    0    0  502    0  0.00000000000E+00  0.00000000000E+00  0.27131531514E+04  0.27131531514E+04  0.00000000000E+00 0. -1.
          1   -1    0    0  501    0 -0.00000000000E+00 -0.00000000000E+00 -0.16586811631E+04  0.16586811631E+04  0.00000000000E+00 0. -1.
         25    2    1    2    0    0 -0.41659428652E+03 -0.79985434125E+03  0.62678832275E+03  0.11053534114E+04  0.12499918286E+03 0.  0.
          2    1    1    2  501    0  0.80757994298E+01 -0.30448707944E+02 -0.13032986303E+04  0.13036792789E+04  0.00000000000E+00 0. -1.
          1    1    1    2  502    0  0.40851848709E+03  0.83030304919E+03  0.17309822959E+04  0.19628016243E+04  0.00000000000E+00 0. -1.
         22    1    3    3    0    0 -0.81019362788E+02 -0.71922878312E+02  0.87575515825E+02  0.13930724512E+03  0.00000000000E+00 0.  1.
         22    1    3    3    0    0 -0.33557492373E+03 -0.72793146293E+03  0.53921280692E+03  0.96604616625E+03  0.00000000000E+00 0.  1.
</event>
<event>
 7    1  0.7459264E-005  0.1101004E+03  0.7818608E-02  0.1299292E+00
          2   -1    0    0  502    0  0.00000000000E+00  0.00000000000E+00  0.26268030959E+04  0.26268030959E+04  0.00000000000E+00 0. -1.
          1   -1    0    0  501    0 -0.00000000000E+00 -0.00000000000E+00 -0.23558748735E+03  0.23558748735E+03  0.00000000000E+00 0. -1.
         25    2    1    2    0    0  0.17794444622E+03  0.19628450843E+02  0.42053651064E+03  0.47384096623E+03  0.12499920989E+03 0.  0.
          2    1    1    2  501    0 -0.10764246747E+03  0.92935051087E+01 -0.19425583285E+03  0.22228045041E+03  0.00000000000E+00 0. -1.
          1    1    1    2  502    0 -0.70301978748E+02 -0.28921955951E+02  0.21649349308E+04  0.21662691666E+04  0.00000000000E+00 0. -1.
         22    1    3    3    0    0  0.84555829207E+01 -0.14477314035E+02 -0.23965144023E+01  0.16936138446E+02  0.00000000000E+00 0. -1.
         22    1    3    3    0    0  0.16948886330E+03  0.34105764877E+02  0.42293302505E+03  0.45690482779E+03  0.00000000000E+00 0. -1.
</event>
<event>
 7    1  0.7459264E-005  0.2735818E+03  0.7818608E-02  0.1135249E+00
          2   -1    0    0  502    0  0.00000000000E+00  0.00000000000E+00  0.20174671652E+04  0.20174671652E+04  0.00000000000E+00 0. -1.
          1   -1    0    0  501    0 -0.00000000000E+00 -0.00000000000E+00 -0.12291910814E+04  0.12291910814E+04  0.00000000000E+00 0. -1.
         25    2    1    2    0    0  0.15301897261E+03 -0.29869130207E+03  0.33837061469E+02  0.35972909908E+03  0.12501511142E+03 0.  0.
          2    1    1    2  501    0  0.78654865292E+02  0.15519938464E+03 -0.10488407222E+04  0.10631746316E+04  0.00000000000E+00 0. -1.
          1    1    1    2  502    0 -0.23167383791E+03  0.14349191743E+03  0.18032797445E+04  0.18237545160E+04  0.00000000000E+00 0. -1.
         22    1    3    3    0    0  0.10662595479E+03 -0.27938200456E+03 -0.19684636981E+00  0.29903751848E+03  0.00000000000E+00 0. -1.
         22    1    3    3    0    0  0.46393017826E+02 -0.19309297503E+02  0.34033907838E+02  0.60691580601E+02  0.00000000000E+00 0. -1.
</event>
<event>
 7    1  0.7459264E-005  0.2841963E+03  0.7818608E-02  0.1276404E+00
          2   -1    0    0  502    0  0.00000000000E+00  0.00000000000E+00  0.85627668467E+03  0.85627668467E+03  0.00000000000E+00 0. -1.
          1   -1    0    0  501    0 -0.00000000000E+00 -0.00000000000E+00 -0.64237219566E+03  0.64237219566E+03  0.00000000000E+00 0. -1.
         25    2    1    2    0    0  0.25610732978E+03  0.14556085048E+03  0.35732296100E+03  0.47967053538E+03  0.12500079398E+03 0.  0.
          2    1    1    2  501    0 -0.26152172826E+03 -0.10944640544E+03 -0.54575047205E+03  0.61499244528E+03  0.00000000000E+00 0. -1.
          1    1    1    2  502    0  0.54143984837E+01 -0.36114445042E+02  0.40233200006E+03  0.40398589966E+03  0.00000000000E+00 0. -1.
         22    1    3    3    0    0  0.42375519418E+02  0.17899001757E+01  0.42559887385E+01  0.42626304423E+02  0.00000000000E+00 0. -1.
         22    1    3    3    0    0  0.21373181036E+03  0.14377095031E+03  0.35306697226E+03  0.43704423096E+03  0.00000000000E+00 0. -1.
</event>
<event>
 7    1  0.7459264E-005  0.6593322E+02  0.7818608E-02  0.1468351E+00
          2   -1    0    0  502    0  0.00000000000E+00  0.00000000000E+00  0.21016761197E+04  0.21016761197E+04  0.00000000000E+00 0. -1.
          1   -1    0    0  501    0 -0.00000000000E+00 -0.00000000000E+00 -0.31502099526E+02  0.31502099526E+02  0.00000000000E+00 0. -1.
         25    2    1    2    0    0 -0.69867461928E+02 -0.65210755039E+02  0.58170164671E+03  0.60260769430E+03  0.12500129051E+03 0.  0.
          2    1    1    2  501    0  0.46507689703E+02  0.43257090982E+02  0.27443852565E+02  0.69190361795E+02  0.00000000000E+00 0. -1.
          1    1    1    2  502    0  0.23359772225E+02  0.21953664057E+02  0.14610285209E+04  0.14613801631E+04  0.00000000000E+00 0. -1.
         22    1    3    3    0    0 -0.10044465261E+03 -0.36088739570E+02  0.31516475548E+03  0.33274667310E+03  0.00000000000E+00 0. -1.
         22    1    3    3    0    0  0.30577190681E+02 -0.29122015469E+02  0.26653689123E+03  0.26986102120E+03  0.00000000000E+00 0. -1.
</event>
<event>
 7    1  0.7459264E-005  0.1099000E+03  0.7818608E-02  0.1281690E+00
          2   -1    0    0  502    0  0.00000000000E+00  0.00000000000E+00  0.21736457296E+04  0.21736457296E+04  0.00000000000E+00 0. -1.
          1   -1    0    0  501    0 -0.00000000000E+00 -0.00000000000E+00 -0.34420987584E+03  0.34420987584E+03  0.00000000000E+00 0. -1.
         25    2    1    2    0    0  0.13127395445E+03  0.58910049081E+02 -0.12791785609E+03  0.22954648361E+03  0.12500146093E+03 0.  0.
          2    1    1    2  501    0 -0.80986573580E+02  0.38784219785E+02 -0.15175997296E+03  0.17633527780E+03  0.00000000000E+00 0. -1.
          1    1    1    2  502    0 -0.50287380874E+02 -0.97694268866E+02  0.21091136828E+04  0.21119738440E+04  0.00000000000E+00 0. -1.
         22    1    3    3    0    0  0.83520129059E+02  0.40202105707E+02 -0.10434855931E+01  0.92697951021E+02  0.00000000000E+00 0.  1.
         22    1    3    3    0    0  0.47753825394E+02  0.18707943374E+02 -0.12687437049E+03  0.13684853259E+03  0.00000000000E+00 0.  1.
</event>
<event>
 7    1  0.7459264E-005  0.3884859E+03  0.7818608E-02  0.1125620E+00
          2   -1    0    0  502    0  0.00000000000E+00  0.00000000000E+00  0.13261056302E+04  0.13261056302E+04  0.00000000000E+00 0. -1.
          1   -1    0    0  501    0 -0.00000000000E+00 -0.00000000000E+00 -0.12042573834E+04  0.12042573834E+04  0.00000000000E+00 0. -1.
         25    2    1    2    0    0  0.48297114048E+03  0.13475012219E+03 -0.12514275774E+03  0.53169928847E+03  0.12499882233E+03 0.  0.
          2    1    1    2  501    0 -0.34545471888E+03 -0.12449380304E+03 -0.83276942245E+03  0.91013327638E+03  0.00000000000E+00 0. -1.
          1    1    1    2  502    0 -0.13751642160E+03 -0.10256319150E+02  0.10797604270E+04  0.10885304488E+04  0.00000000000E+00 0. -1.
         22    1    3    3    0    0  0.10965465144E+03  0.85469491179E+02 -0.49808608082E+02  0.14768234134E+03  0.00000000000E+00 0. -1.
         22    1    3    3    0    0  0.37331648903E+03  0.49280631013E+02 -0.75334149655E+02  0.38401694713E+03  0.00000000000E+00 0. -1.
</event>
<event>
 7    1  0.7459264E-005  0.1496704E+03  0.7818608E-02  0.1360703E+00
          2   -1    0    0  502    0  0.00000000000E+00  0.00000000000E+00  0.27274573919E+03  0.27274573919E+03  0.00000000000E+00 0. -1.
          1   -1    0    0  501    0 -0.00000000000E+00 -0.00000000000E+00 -0.79058882162E+03  0.79058882162E+03  0.00000000000E+00 0. -1.
         25    2    1    2    0    0  0.84695266040E+02  0.15686251723E+03 -0.45071114631E+03  0.50054467630E+03  0.12500119265E+03 0.  0.
          2    1    1    2  501    0 -0.24772880568E+02 -0.21147223276E+02 -0.29177108635E+03  0.29358349322E+03  0.00000000000E+00 0. -1.
          1    1    1    2  502    0 -0.59922385472E+02 -0.13571529396E+03  0.22463915023E+03  0.26920639129E+03  0.00000000000E+00 0. -1.
         22    1    3    3    0    0  0.41536027468E+01  0.58195999802E+02 -0.40519419219E+02  0.71034147722E+02  0.00000000000E+00 0. -1.
         22    1    3    3    0    0  0.80541663293E+02  0.98666517433E+02 -0.41019172709E+03  0.42951052858E+03  0.00000000000E+00 0. -1.
</event>
<event>
 7    1  0.7459264E-005  0.1296411E+03  0.7818608E-02  0.1387270E+00
          2   -1    0    0  502    0  0.00000000000E+00  0.00000000000E+00  0.22932780906E+04  0.22932780906E+04  0.00000000000E+00 0. -1.
          1   -1    0    0  501    0 -0.00000000000E+00 -0.00000000000E+00 -0.13917363624E+03  0.13917363624E+03  0.00000000000E+00 0. -1.
         25    2    1    2    0    0 -0.13809939928E+03  0.20088242298E+02 -0.36593863981E+02  0.19088789320E+03  0.12499638126E+03 0.  0.
          2    1    1    2  501    0  0.10968541078E+03 -0.30375665573E+02  0.10255782807E+03  0.15320469476E+03  0.00000000000E+00 0. -1.
          1    1    1    2  502    0  0.28413988501E+02  0.10287423275E+02  0.20881404902E+04  0.20883591388E+04  0.00000000000E+00 0. -1.
         22    1    3    3    0    0 -0.11227372118E+03 -0.29042449159E+02 -0.60092419103E+02  0.13061374795E+03  0.00000000000E+00 0. -1.
         22    1    3    3    0    0 -0.25825678100E+02  0.49130691458E+02  0.23498555122E+02  0.60274145247E+02  0.00000000000E+00 0. -1.
</event>
<event>
 7    1  0.7459264E-005  0.1315681E+03  0.7818608E-02  0.1371552E+00
          2   -1    0    0  502    0  0.00000000000E+00  0.00000000000E+00  0.25498770485E+03  0.25498770485E+03  0.00000000000E+00 0. -1.
          1   -1    0    0  501    0 -0.00000000000E+00 -0.00000000000E+00 -0.45359024066E+03  0.45359024066E+03  0.00000000000E+00 0. -1.
         25    2    1    2    0    0 -0.50496023935E+02 -0.10141394195E+03 -0.79571844339E+02  0.18652462246E+03  0.12500048127E+03 0.  0.
          2    1    1    2  501    0  0.36349860157E+02  0.13216906306E+03 -0.30428287083E+03  0.33373348505E+03  0.00000000000E+00 0. -1.
          1    1    1    2  502    0  0.14146163778E+02 -0.30755121110E+02  0.18525217937E+03  0.18831983800E+03  0.00000000000E+00 0. -1.
         22    1    3    3    0    0 -0.39555606306E+02 -0.84332473839E+01 -0.83543233105E+02  0.92818303418E+02  0.00000000000E+00 0.  1.
         22    1    3    3    0    0 -0.10940417630E+02 -0.92980694566E+02  0.39713887662E+01  0.93706319044E+02  0.00000000000E+00 0.  1.
</event>
<event>
 7    1  0.7459264E-005  0.3705047E+03  0.7818608E-02  0.1236323E+00
          2   -1    0    0  502    0  0.00000000000E+00  0.00000000000E+00  0.21116984262E+03  0.21116984262E+03  0.00000000000E+00 0. -1.
          1   -1    0    0  501    0 -0.00000000000E+00 -0.00000000000E+00 -0.90075260286E+03  0.90075260286E+03  0.00000000000E+00 0. -1.
         25    2    1    2    0    0  0.61731969217E+02  0.38261205031E+03 -0.42219438832E+03  0.58657994072E+03  0.12500043305E+03 0.  0.
          2    1    1    2  501    0 -0.79675656227E+02 -0.34504204831E+03 -0.30640722745E+03  0.46828155454E+03  0.00000000000E+00 0. -1.
          1    1    1    2  502    0  0.17943687011E+02 -0.37570001999E+02  0.39018855528E+02  0.57060950224E+02  0.00000000000E+00 0. -1.
         22    1    3    3    0    0 -0.21945013544E+02  0.56979027971E+02 -0.11944531670E+03  0.13414684838E+03  0.00000000000E+00 0. -1.
         22    1    3    3    0    0  0.83676982760E+02  0.32563302233E+03 -0.30274907162E+03  0.45243309234E+03  0.00000000000E+00 0. -1.
</event>
<event>
 7    1  0.7459264E-005  0.7311196E+02  0.7818608E-02  0.1486193E+00
          2   -1    0    0  502    0  0.00000000000E+00  0.00000000000E+00  0.88438373292E+03  0.88438373292E+03  0.00000000000E+00 0. -1.
          1   -1    0    0  501    0 -0.00000000000E+00 -0.00000000000E+00 -0.14389409858E+03  0.14389409858E+03  0.00000000000E+00 0. -1.
         25    2    1    2    0    0  0.73143789721E+00 -0.97848389671E+02 -0.49570655465E+02  0.16630376804E+03  0.12499940407E+03 0.  0.
          2    1    1    2  501    0  0.35271637471E+01  0.25228514032E+02 -0.29622696882E+02  0.39069463459E+02  0.00000000000E+00 0. -1.
          1    1    1    2  502    0 -0.42586016443E+01  0.72619875639E+02  0.81968298669E+03  0.82290460000E+03  0.00000000000E+00 0. -1.
         22    1    3    3    0    0  0.54111906014E+02 -0.88317686941E+02 -0.41046142720E+02  0.11141318607E+03  0.00000000000E+00 0.  1.
         22    1    3    3    0    0 -0.53380468117E+02 -0.95307027301E+01 -0.85245127450E+01  0.54890581965E+02  0.00000000000E+00 0.  1.
</event>
<event>
 7    1  0.7459264E-005  0.1161665E+03  0.7818608E-02  0.1266491E+00
          2   -1    0    0  502    0  0.00000000000E+00  0.00000000000E+00  0.22546972370E+04  0.22546972370E+04  0.00000000000E+00 0. -1.
          1   -1    0    0  501    0 -0.00000000000E+00 -0.00000000000E+00 -0.24354877313E+02  0.24354877313E+02  0.00000000000E+00 0. -1.
         25    2    1    2    0    0  0.12852555930E+03 -0.57784770410E+02  0.50661574395E+03  0.54050144478E+03  0.12499760279E+03 0.  0.
          2    1    1    2  501    0 -0.40138756245E+02  0.10081542044E+03  0.54284305231E+03  0.55358237706E+03  0.00000000000E+00 0. -1.
          1    1    1    2  502    0 -0.88386803058E+02 -0.43030650034E+02  0.11808835634E+04  0.11849682925E+04  0.00000000000E+00 0. -1.
         22    1    3    3    0    0  0.35121493719E+02 -0.16744218368E+02  0.20860682930E+02  0.44148117312E+02  0.00000000000E+00 0.  1.
         22    1    3    3    0    0  0.93404065583E+02 -0.41040552042E+02  0.48575506102E+03  0.49635332747E+03  0.00000000000E+00 0.  1.
</event>
<event>
 7    1  0.7459264E-005  0.1480736E+03  0.7818608E-02  0.1385872E+00
          2   -1    0    0  502    0  0.00000000000E+00  0.00000000000E+00  0.84845874776E+03  0.84845874776E+03  0.00000000000E+00 0. -1.
          1   -1    0    0  501    0 -0.00000000000E+00 -0.00000000000E+00 -0.18130209847E+04  0.18130209847E+04  0.00000000000E+00 0. -1.
         25    2    1    2    0    0 -0.16823545041E+03  0.36758550935E+02  0.23964183379E+03  0.32048011171E+03  0.12499974262E+03 0.  0.
          2    1    1    2  501    0  0.14623666929E+03 -0.21526145652E+02 -0.17692032480E+04  0.17753671933E+04  0.00000000000E+00 0. -1.
          1    1    1    2  502    0  0.21998781127E+02 -0.15232405284E+02  0.56499917731E+03  0.56563242738E+03  0.00000000000E+00 0. -1.
         22    1    3    3    0    0 -0.16881851725E+03  0.44429091444E+02  0.14899172172E+03  0.22950418095E+03  0.00000000000E+00 0.  1.
         22    1    3    3    0    0  0.58306683589E+00 -0.76705405087E+01  0.90650112074E+02  0.90975930760E+02  0.00000000000E+00 0.  1.
</event>
<event>
 7    1  0.7459264E-005  0.4400740E+03  0.7818608E-02  0.1130136E+00
          2   -1    0    0  502    0  0.00000000000E+00  0.00000000000E+00  0.25126371730E+04  0.25126371730E+04  0.00000000000E+00 0. -1.
          1   -1    0    0  501    0 -0.00000000000E+00 -0.00000000000E+00 -0.32333878201E+03  0.32333878201E+03  0.00000000000E+00 0. -1.
         25    2    1    2    0    0 -0.24795764125E+03  0.38869879717E+03 -0.86961221369E+02  0.48554864013E+03  0.12500192454E+03 0.  0.
          2    1    1    2  501    0 -0.73035744678E+02 -0.89011812406E+02  0.85923644285E+03  0.86691671311E+03  0.00000000000E+00 0. -1.
          1    1    1    2  502    0  0.32099338593E+03 -0.29968698476E+03  0.14170231695E+04  0.14835106018E+04  0.00000000000E+00 0. -1.
         22    1    3    3    0    0 -0.12160088425E+02  0.94939964503E+02 -0.47336397216E+02  0.10678108031E+03  0.00000000000E+00 0.  1.
         22    1    3    3    0    0 -0.23579755282E+03  0.29375883266E+03 -0.39624824153E+02  0.37876755982E+03  0.00000000000E+00 0.  1.
</event>
<event>
 7    1  0.7459264E-005  0.1523059E+03  0.7818608E-02  0.1241630E+00
          2   -1    0    0  502    0  0.00000000000E+00  0.00000000000E+00  0.68431682209E+03  0.68431682209E+03  0.00000000000E+00 0. -1.
          1   -1    0    0  501    0 -0.00000000000E+00 -0.00000000000E+00 -0.18742747370E+04  0.18742747370E+04  0.00000000000E+00 0. -1.
         25    2    1    2    0    0  0.14785293507E+02  0.19757164552E+03  0.46439745780E+03  0.52013823680E+03  0.12500250619E+03 0.  0.
          2    1    1    2  501    0 -0.53596660643E+02 -0.79597438039E+02 -0.18249325698E+04  0.18274537583E+04  0.00000000000E+00 0. -1.
          1    1    1    2  502    0  0.38811367136E+02 -0.11797420748E+03  0.17057719712E+03  0.21099956404E+03  0.00000000000E+00 0. -1.
         22    1    3    3    0    0  0.47353849754E+02  0.19496479341E+03  0.41436490645E+03  0.46038237743E+03  0.00000000000E+00 0. -1.
         22    1    3    3    0    0 -0.32568556247E+02  0.26068521139E+01  0.50032551349E+02  0.59755859365E+02  0.00000000000E+00 0. -1.
</event>
<event>
 7    1  0.7459264E-005  0.3346994E+03  0.7818608E-02  0.1260836E+00
          2   -1    0    0  502    0  0.00000000000E+00  0.00000000000E+00  0.23274155426E+04  0.23274155426E+04  0.00000000000E+00 0. -1.
          1   -1    0    0  501    0 -0.00000000000E+00 -0.00000000000E+00 -0.11374241809E+03  0.11374241809E+03  0.00000000000E+00 0. -1.
         25    2    1    2    0    0 -0.24533273958E+03 -0.20512959411E+03  0.12321137136E+04  0.12790603580E+04  0.12499957139E+03 0.  0.
          2    1    1    2  501    0 -0.16867686693E+02 -0.31869005783E+02 -0.55657342588E+02  0.66316605522E+02  0.00000000000E+00 0. -1.
          1    1    1    2  502    0  0.26220042627E+03  0.23699859989E+03  0.10372167535E+04  0.10957809971E+04  0.00000000000E+00 0. -1.
         22    1    3    3    0    0 -0.21117033040E+03 -0.19184394561E+03  0.88113325304E+03  0.92617105198E+03  0.00000000000E+00 0. -1.
         22    1    3    3    0    0 -0.34162409172E+02 -0.13285648494E+02  0.35098046052E+03  0.35288930605E+03  0.00000000000E+00 0. -1.
</event>
<event>
 7    1  0.7459264E-005  0.9730045E+02  0.7818608E-02  0.1287903E+00
          2   -1    0    0  502    0  0.00000000000E+00  0.00000000000E+00  0.37543283995E+03  0.37543283995E+03  0.00000000000E+00 0. -1.
          1   -1    0    0  501    0 -0.00000000000E+00 -0.00000000000E+00 -0.19558549966E+04  0.19558549966E+04  0.00000000000E+00 0. -1.
         25    2    1    2    0    0 -0.86108898686E+02  0.14680512869E+02  0.15343921162E+03  0.21632977004E+03  0.12499887142E+03 0.  0.
          2    1    1    2  501    0  0.48224438400E+01 -0.97180870517E+02 -0.19054540423E+04  0.19079367088E+04  0.00000000000E+00 0. -1.
          1    1    1    2  502    0  0.81286454846E+02  0.82500357648E+02  0.17159267404E+03  0.20702135768E+03  0.00000000000E+00 0. -1.
         22    1    3    3    0    0 -0.10635867166E+03 -0.23695113999E+02  0.11384996943E+03  0.15759264260E+03  0.00000000000E+00 0. -1.
         22    1    3    3    0    0  0.20249772972E+02  0.38375626868E+02  0.39589242189E+02  0.58737127441E+02  0.00000000000E+00 0. -1.
</event>
<event>
 7    1  0.7459264E-005  0.1996680E+03  0.7818608E-02  0.1209247E+00
          2   -1    0    0  502    0  0.00000000000E+00  0.00000000000E+00  0.17387414338E+04  0.17387414338E+04  0.00000000000E+00 0. -1.
          1   -1    0    0  501    0 -0.00000000000E+00 -0.00000000000E+00 -0.35128747944E+03  0.35128747944E+03  0.00000000000E+00 0. -1.
         25    2    1    2    0    0  0.11215176297E+03 -0.20271659722E+03 -0.26020962133E+03  0.37014303501E+03  0.12499913044E+03 0.  0.
          2    1    1    2  501    0 -0.63064672906E+02  0.11270581066E+03  0.86685835841E+02  0.15554480660E+03  0.00000000000E+00 0. -1.
          1    1    1    2  502    0 -0.49087090069E+02  0.90010786567E+02  0.15609777398E+04  0.15643410716E+04  0.00000000000E+00 0. -1.
         22    1    3    3    0    0  0.15311722626E+02 -0.14624747436E+03 -0.11488038835E+03  0.18660191916E+03  0.00000000000E+00 0.  1.
         22    1    3    3    0    0  0.96840040348E+02 -0.56469122862E+02 -0.14532923298E+03  0.18354111586E+03  0.00000000000E+00 0.  1.
</event>
<event>
 7    1  0.7459264E-005  0.4668960E+03  0.7818608E-02  0.1270753E+00
          2   -1    0    0  502    0  0.00000000000E+00  0.00000000000E+00  0.83916124012E+03  0.83916124012E+03  0.00000000000E+00 0. -1.
          1   -1    0    0  501    0 -0.00000000000E+00 -0.00000000000E+00 -0.12096086980E+04  0.12096086980E+04  0.00000000000E+00 0. -1.
         25    2    1    2    0    0  0.56583100163E+02 -0.45046045739E+03 -0.42864874697E+03  0.63677310744E+03  0.12499588469E+03 0.  0.
          2    1    1    2  501    0 -0.56894655318E+02  0.47392766280E+03 -0.59250967785E+03  0.76086276668E+03  0.00000000000E+00 0. -1.
          1    1    1    2  502    0  0.31155515529E+00 -0.23467205410E+02  0.65071096695E+03  0.65113406400E+03  0.00000000000E+00 0. -1.
         22    1    3    3    0    0  0.53036353980E+01 -0.56096437687E+02 -0.63608941052E+01  0.56704495795E+02  0.00000000000E+00 0. -1.
         22    1    3    3    0    0  0.51279464765E+02 -0.39436401970E+03 -0.42228785286E+03  0.58006861165E+03  0.00000000000E+00 0. -1.
</event>
<event>
 7    1  0.7459264E-005  0.2735128E+03  0.7818608E-02  0.1127308E+00
          2   -1    0    0  502    0  0.00000000000E+00  0.00000000000E+00  0.34198686046E+03  0.34198686046E+03  0.00000000000E+00 0. -1.
          1   -1    0    0  501    0 -0.00000000000E+00 -0.00000000000E+00 -0.12278956292E+04  0.12278956292E+04  0.00000000000E+00 0. -1.
         25    2    1    2    0    0 -0.16978237851E+03  0.26284657689E+03 -0.50702369156E+03  0.60878038487E+03  0.12500461655E+03 0.  0.
          2    1    1    2  501    0 -0.89644544435E+02 -0.16958380132E+03 -0.58580121008E+03  0.61640722558E+03  0.00000000000E+00 0. -1.
          1    1    1    2  502    0  0.25942692294E+03 -0.93262775573E+02  0.20691613295E+03  0.34469487917E+03  0.00000000000E+00 0. -1.
         22    1    3    3    0    0  0.77859555085E+01  0.20871977904E+02 -0.34425023884E+01  0.22541326215E+02  0.00000000000E+00 0. -1.
         22    1    3    3    0    0 -0.17756833401E+03  0.24197459899E+03 -0.50358118917E+03  0.58623905865E+03  0.00000000000E+00 0. -1.
</event>
<event>
 7    1  0.7459264E-005  0.4423474E+03  0.7818608E-02  0.1235509E+00
          2   -1    0    0  502    0  0.00000000000E+00  0.00000000000E+00  0.28435487145E+04  0.28435487145E+04  0.00000000000E+00 0. -1.
          1   -1    0    0  501    0 -0.00000000000E+00 -0.00000000000E+00 -0.68921805082E+03  0.68921805082E+03  0.00000000000E+00 0. -1.
         25    2    1    2    0    0 -0.43318498255E+03  0.22756043442E+02  0.19862606619E+04  0.20369150942E+04  0.12499846958E+03 0.  0.
          2    1    1    2  501    0 -0.31292576014E+02 -0.16040827337E+02 -0.59849236848E+03  0.59952451875E+03  0.00000000000E+00 0. -1.
          1    1    1    2  502    0  0.46447755856E+03 -0.67152161053E+01  0.76656237029E+03  0.89632715237E+03  0.00000000000E+00 0. -1.
         22    1    3    3    0    0 -0.33679264344E+02 -0.29387861944E+01  0.54695192355E+02  0.64300026266E+02  0.00000000000E+00 0. -1.
         22    1    3    3    0    0 -0.39950571820E+03  0.25694829637E+02  0.19315654696E+04  0.19726150680E+04  0.00000000000E+00 0. -1.
</event>
<event>
 7    1  0.7459264E-005  0.1318608E+04  0.7818608E-02  0.1117835E+00
          2   -1    0    0  502    0  0.00000000000E+00  0.00000000000E+00  0.16325313241E+04  0.16325313241E+04  0.00000000000E+00 0. -1.
          1   -1    0    0  501    0 -0.00000000000E+00 -0.00000000000E+00 -0.16876528698E+04  0.16876528698E+04  0.00000000000E+00 0. -1.
         25    2    1    2    0    0  0.37555153047E+03  0.12685258487E+04  0.46009899115E+03  0.14062409418E+04  0.12500289506E+03 0.  0.
          2    1    1    2  501    0  0.38840344793E+02 -0.22261137793E+02 -0.59640550765E+03  0.59808332212E+03  0.00000000000E+00 0. -1.
          1    1    1    2  502    0 -0.41439187526E+03 -0.12462647109E+04  0.81184970820E+02  0.13158599300E+04  0.00000000000E+00 0. -1.
         22    1    3    3    0    0  0.31268474638E+03  0.11335576498E+04  0.37245786939E+03  0.12334705349E+04  0.00000000000E+00 0.  1.
         22    1    3    3    0    0  0.62866784089E+02  0.13496819886E+03  0.87641121759E+02  0.17277040681E+03  0.00000000000E+00 0.  1.
</event>
<event>
 7    1  0.7459264E-005  0.2272149E+03  0.7818608E-02  0.1275911E+00
          2   -1    0    0  502    0  0.00000000000E+00  0.00000000000E+00  0.35589041340E+04  0.35589041340E+04  0.00000000000E+00 0. -1.
          1   -1    0    0  501    0 -0.00000000000E+00 -0.00000000000E+00 -0.10914832536E+03  0.10914832536E+03  0.00000000000E+00 0. -1.
         25    2    1    2    0    0  0.25332259528E+03 -0.70990361884E+02  0.96990560541E+03  0.10126962971E+04  0.12499975180E+03 0.  0.
          2    1    1    2  501    0 -0.38931857174E+02  0.24298437885E+02 -0.76714205447E+02  0.89393360515E+02  0.00000000000E+00 0. -1.
          1    1    1    2  502    0 -0.21439073810E+03  0.46691923999E+02  0.25565644087E+04  0.25659628017E+04  0.00000000000E+00 0. -1.
         22    1    3    3    0    0  0.24076725466E+03 -0.90668107063E+02  0.77935885095E+03  0.82072516418E+03  0.00000000000E+00 0.  1.
         22    1    3    3    0    0  0.12555340621E+02  0.19677745179E+02  0.19054675445E+03  0.19197113290E+03  0.00000000000E+00 0.  1.
</event>
<event>
 7    1  0.7459264E-005  0.2357228E+03  0.7818608E-02  0.1359936E+00
          2   -1    0    0  502    0  0.00000000000E+00  0.00000000000E+00  0.20545677438E+04  0.20545677438E+04  0.00000000000E+00 0. -1.
          1   -1    0    0  501    0 -0.00000000000E+00 -0.00000000000E+00 -0.13640179426E+03  0.13640179426E+03  0.00000000000E+00 0. -1.
         25    2    1    2    0    0 -0.22193111289E+03  0.12391682263E+03  0.54949902027E+02  0.28853703567E+03  0.12500132568E+03 0.  0.
          2    1    1    2  501    0  0.13945938885E+02 -0.15451839348E+02 -0.34391027429E+01  0.21096823891E+02  0.00000000000E+00 0. -1.
          1    1    1    2  502    0  0.20798517400E+03 -0.10846498328E+03  0.18666551503E+04  0.18813356785E+04  0.00000000000E+00 0. -1.
         22    1    3    3    0    0 -0.15131648767E+03  0.17918537600E+02  0.52444782779E+02  0.16114654408E+03  0.00000000000E+00 0.  1.
         22    1    3    3    0    0 -0.70614625223E+02  0.10599828503E+03  0.25051192482E+01  0.12739049159E+03  0.00000000000E+00 0.  1.
</event>
<event>
 7    1  0.7459264E-005  0.1566207E+03  0.7818608E-02  0.1250596E+00
          2   -1    0    0  502    0  0.00000000000E+00  0.00000000000E+00  0.18928082391E+04  0.18928082391E+04  0.00000000000E+00 0. -1.
          1   -1    0    0  501    0 -0.00000000000E+00 -0.00000000000E+00 -0.54390093877E+03  0.54390093877E+03  0.00000000000E+00 0. -1.
         25    2    1    2    0    0 -0.14768134422E+03  0.10108002583E+03 -0.87398727822E+02  0.23513927666E+03  0.12499996300E+03 0.  0.
          2    1    1    2  501    0 -0.80750795716E+01 -0.84889755703E+02 -0.37445933806E+03  0.38404592616E+03  0.00000000000E+00 0. -1.
          1    1    1    2  502    0  0.15575642380E+03 -0.16190270125E+02  0.18107653663E+04  0.18175239751E+04  0.00000000000E+00 0. -1.
         22    1    3    3    0    0 -0.16580235932E+03  0.10454611661E+03 -0.91379873213E+02  0.21626510140E+03  0.00000000000E+00 0. -1.
         22    1    3    3    0    0  0.18121015093E+02 -0.34660907807E+01  0.39811453910E+01  0.18874175265E+02  0.00000000000E+00 0. -1.
</event>
<event>
 7    1  0.7459264E-005  0.5914397E+03  0.7818608E-02  0.1079775E+00
          2   -1    0    0  502    0  0.00000000000E+00  0.00000000000E+00  0.93546786148E+03  0.93546786148E+03  0.00000000000E+00 0. -1.
          1   -1    0    0  501    0 -0.00000000000E+00 -0.00000000000E+00 -0.66814909903E+03  0.66814909903E+03  0.00000000000E+00 0. -1.
         25    2    1    2    0    0  0.59133685592E+03  0.11112726400E+02  0.18485998004E+03  0.63213316140E+03  0.12496540187E+03 0.  0.
          2    1    1    2  501    0 -0.15616401011E+02  0.16299286692E+03 -0.23883806430E+03  0.28957584085E+03  0.00000000000E+00 0. -1.
          1    1    1    2  502    0 -0.57572045491E+03 -0.17410559332E+03  0.32129684671E+03  0.68190795826E+03  0.00000000000E+00 0. -1.
         22    1    3    3    0    0  0.35761061776E+03  0.67810495315E+02  0.11319401602E+03  0.38117778329E+03  0.00000000000E+00 0.  1.
         22    1    3    3    0    0  0.23372623816E+03 -0.56697768915E+02  0.71665964023E+02  0.25095537811E+03  0.00000000000E+00 0.  1.
</event>
<event>
 7    1  0.7459264E-005  0.1860931E+03  0.7818608E-02  0.1201272E+00
          2   -1    0    0  502    0  0.00000000000E+00  0.00000000000E+00  0.73635476961E+03  0.73635476961E+03  0.00000000000E+00 0. -1.
          1   -1    0    0  501    0 -0.00000000000E+00 -0.00000000000E+00 -0.26138396813E+03  0.26138396813E+03  0.00000000000E+00 0. -1.
         25    2    1    2    0    0  0.19290527235E+03 -0.16447618109E+02  0.16570534702E+02  0.23104808504E+03  0.12500266692E+03 0.  0.
          2    1    1    2  501    0 -0.14770922485E+03  0.12746448877E+03 -0.83114226085E+02  0.21206882275E+03  0.00000000000E+00 0. -1.
          1    1    1    2  502    0 -0.45196047500E+02 -0.11101687066E+03  0.54151449286E+03  0.55462182995E+03  0.00000000000E+00 0. -1.
         22    1    3    3    0    0  0.35321793499E+02  0.27112045826E+02  0.47004429556E+02  0.64746494289E+02  0.00000000000E+00 0.  1.
         22    1    3    3    0    0  0.15758347885E+03 -0.43559663935E+02 -0.30433894854E+02  0.16630159075E+03  0.00000000000E+00 0.  1.
</event>
<event>
 7    1  0.7459264E-005  0.9426018E+03  0.7818608E-02  0.1128755E+00
          2   -1    0    0  502    0  0.00000000000E+00  0.00000000000E+00  0.65167898844E+03  0.65167898844E+03  0.00000000000E+00 0. -1.
          1   -1    0    0  501    0 -0.00000000000E+00 -0.00000000000E+00 -0.38049780743E+04  0.38049780743E+04  0.00000000000E+00 0. -1.
         25    2    1    2    0    0  0.14382380145E+03  0.93836387301E+03 -0.33096299777E+04  0.34453571491E+04  0.12499300600E+03 0.  0.
          2    1    1    2  501    0 -0.12674898396E+03 -0.88642189764E+03  0.56183242726E+02  0.89719877525E+03  0.00000000000E+00 0. -1.
          1    1    1    2  502    0 -0.17074817485E+02 -0.51941975368E+02  0.10014764902E+03  0.11410113847E+03  0.00000000000E+00 0. -1.
         22    1    3    3    0    0  0.22652633934E+02  0.56690235479E+02 -0.33233923198E+03  0.33789982204E+03  0.00000000000E+00 0.  1.
         22    1    3    3    0    0  0.12117116752E+03  0.88167363753E+03 -0.29772907457E+04  0.31074573270E+04  0.00000000000E+00 0.  1.
</event>
<event>
 7    1  0.7459264E-005  0.4522421E+02  0.7818608E-02  0.1573109E+00
          2   -1    0    0  502    0  0.00000000000E+00  0.00000000000E+00  0.45014447456E+03  0.45014447456E+03  0.00000000000E+00 0. -1.
          1   -1    0    0  501    0 -0.00000000000E+00 -0.00000000000E+00 -0.30420159997E+03  0.30420159997E+03  0.00000000000E+00 0. -1.
         25    2    1    2    0    0 -0.32722287167E+02  0.58417145375E+02  0.20803131180E+03  0.25176488450E+03  0.12500087771E+03 0.  0.
          2    1    1    2  501    0  0.27263597845E+02 -0.35874805098E+02 -0.27991743873E+03  0.28352085975E+03  0.00000000000E+00 0. -1.
          1    1    1    2  502    0  0.54586893220E+01 -0.22542340277E+02  0.21782900153E+03  0.21906033028E+03  0.00000000000E+00 0. -1.
         22    1    3    3    0    0  0.22311855412E+02  0.12270849431E+02 -0.58670995188E+01  0.26130738498E+02  0.00000000000E+00 0. -1.
         22    1    3    3    0    0 -0.55034142578E+02  0.46146295944E+02  0.21389841132E+03  0.22563414600E+03  0.00000000000E+00 0. -1.
</event>
<event>
 7    1  0.7459264E-005  0.4170327E+03  0.7818608E-02  0.1284711E+00
          2   -1    0    0  502    0  0.00000000000E+00  0.00000000000E+00  0.10167878462E+04  0.10167878462E+04  0.00000000000E+00 0. -1.
          1   -1    0    0  501    0 -0.00000000000E+00 -0.00000000000E+00 -0.33773655628E+03  0.33773655628E+03  0.00000000000E+00 0. -1.
         25    2    1    2    0    0  0.17615464482E+03  0.39057309925E+03  0.32209813015E+03  0.55040597625E+03  0.12498691332E+03 0.  0.
          2    1    1    2  501    0 -0.19794400114E+02 -0.11704951418E+02 -0.15025620031E+03  0.15200575612E+03  0.00000000000E+00 0. -1.
          1    1    1    2  502    0 -0.15636024470E+03 -0.37886814783E+03  0.50720936004E+03  0.65211267008E+03  0.00000000000E+00 0. -1.
         22    1    3    3    0    0  0.56514311018E+02  0.34955391539E+02  0.79454414932E+02  0.10357968333E+03  0.00000000000E+00 0.  1.
         22    1    3    3    0    0  0.11964033380E+03  0.35561770771E+03  0.24264371521E+03  0.44682629291E+03  0.00000000000E+00 0.  1.
</event>
<event>
 7    1  0.7459264E-005  0.3643726E+03  0.7818608E-02  0.1200248E+00
          2   -1    0    0  502    0  0.00000000000E+00  0.00000000000E+00  0.35252086825E+04  0.35252086825E+04  0.00000000000E+00 0. -1.
          1   -1    0    0  501    0 -0.00000000000E+00 -0.00000000000E+00 -0.23639932877E+03  0.23639932877E+03  0.00000000000E+00 0. -1.
         25    2    1    2    0    0 -0.17856036821E+03  0.31571778248E+03  0.18484849462E+03  0.42585440633E+03  0.12498594386E+03 0.  0.
          2    1    1    2  501    0  0.12496261022E+03 -0.34668547177E+03  0.17820890761E+03  0.40934690061E+03  0.00000000000E+00 0. -1.
          1    1    1    2  502    0  0.53597757989E+02  0.30967689290E+02  0.29257519515E+04  0.29264067043E+04  0.00000000000E+00 0. -1.
         22    1    3    3    0    0 -0.17574490816E+02 -0.32240660825E+01 -0.83185546532E+01  0.19709279060E+02  0.00000000000E+00 0. -1.
         22    1    3    3    0    0 -0.16098587740E+03  0.31894184856E+03  0.19316704927E+03  0.40614512727E+03  0.00000000000E+00 0. -1.
</event>
<event>
 7    1  0.7459264E-005  0.1967157E+03  0.7818608E-02  0.1214825E+00
          2   -1    0    0  502    0  0.00000000000E+00  0.00000000000E+00  0.14451222124E+04  0.14451222124E+04  0.00000000000E+00 0. -1.
          1   -1    0    0  501    0 -0.00000000000E+00 -0.00000000000E+00 -0.19746820341E+03  0.19746820341E+03  0.00000000000E+00 0. -1.
         25    2    1    2    0    0  0.10293405576E+03  0.27042999390E+03  0.11459795596E+04  0.11885370009E+04  0.12499299973E+03 0.  0.
          2    1    1    2  501    0 -0.78988205169E+02 -0.17533008629E+03 -0.10944784397E+03  0.22126591754E+03  0.00000000000E+00 0. -1.
          1    1    1    2  502    0 -0.23945850590E+02 -0.95099907609E+02  0.21112229331E+03  0.23278749735E+03  0.00000000000E+00 0. -1.
         22    1    3    3    0    0  0.80564246191E+01  0.18180821003E+03  0.75244008313E+03  0.77413513673E+03  0.00000000000E+00 0.  1.
         22    1    3    3    0    0  0.94877631140E+02  0.88621783868E+02  0.39353947649E+03  0.41440186416E+03  0.00000000000E+00 0.  1.
</event>
<event>
 7    1  0.7459264E-005  0.3064933E+03  0.7818608E-02  0.1145963E+00
          2   -1    0    0  502    0  0.00000000000E+00  0.00000000000E+00  0.73328806517E+03  0.73328806517E+03  0.00000000000E+00 0. -1.
          1   -1    0    0  501    0 -0.00000000000E+00 -0.00000000000E+00 -0.49489720526E+03  0.49489720526E+03  0.00000000000E+00 0. -1.
         25    2    1    2    0    0 -0.35732401089E+03  0.18203768351E+03  0.26111317385E+03  0.49459304742E+03  0.12499610403E+03 0.  0.
          2    1    1    2  501    0  0.22121810740E+03 -0.19243696880E+03 -0.30312588070E+03  0.42172827454E+03  0.00000000000E+00 0. -1.
          1    1    1    2  502    0  0.13610590350E+03  0.10399285294E+02  0.28040356676E+03  0.31186394846E+03  0.00000000000E+00 0. -1.
         22    1    3    3    0    0 -0.91941605119E+02  0.10347562763E+03  0.52630382267E+02  0.14808923459E+03  0.00000000000E+00 0.  1.
         22    1    3    3    0    0 -0.26538240577E+03  0.78562055880E+02  0.20848279158E+03  0.34650381283E+03  0.00000000000E+00 0.  1.
</event>
<event>
 7    1  0.7459264E-005  0.5531175E+03  0.7818608E-02  0.1190374E+00
          2   -1    0    0  502    0  0.00000000000E+00  0.00000000000E+00  0.19137768751E+04  0.19137768751E+04  0.00000000000E+00 0. -1.
          1   -1    0    0  501    0 -0.00000000000E+00 -0.00000000000E+00 -0.51388680681E+03  0.51388680681E+03  0.00000000000E+00 0. -1.
         25    2    1    2    0    0 -0.23253909770E+03 -0.53638424660E+03  0.33378647936E+03  0.68470492980E+03  0.12499974049E+03 0.  0.
          2    1    1    2  501    0  0.22123539682E+03  0.49237989905E+03 -0.12246945606E+03  0.55351769029E+03  0.00000000000E+00 0. -1.
          1    1    1    2  502    0  0.11303700877E+02  0.44004347552E+02  0.11885730450E+04  0.11894410618E+04  0.00000000000E+00 0. -1.
         22    1    3    3    0    0 -0.15397190514E+03 -0.34986447945E+03  0.14777102670E+03  0.40981554129E+03  0.00000000000E+00 0.  1.
         22    1    3    3    0    0 -0.78567192561E+02 -0.18651976716E+03  0.18601545265E+03  0.27488938851E+03  0.00000000000E+00 0.  1.
</event>
<event>
 7    1  0.7459264E-005  0.4539793E+03  0.7818608E-02  0.1110927E+00
          2   -1    0    0  502    0  0.00000000000E+00  0.00000000000E+00  0.72605984977E+03  0.72605984977E+03  0.00000000000E+00 0. -1.
          1   -1    0    0  501    0 -0.00000000000E+00 -0.00000000000E+00 -0.11209808189E+04  0.11209808189E+04  0.00000000000E+00 0. -1.
         25    2    1    2    0    0  0.32712402422E+03 -0.21454009782E+03 -0.34124808920E+03  0.53395898298E+03  0.12499742529E+03 0.  0.
          2    1    1    2  501    0 -0.46820540962E+03  0.22964667461E+03 -0.57296548952E+03  0.77475373696E+03  0.00000000000E+00 0. -1.
          1    1    1    2  502    0  0.14108138540E+03 -0.15106576792E+02  0.51929260960E+03  0.53832794871E+03  0.00000000000E+00 0. -1.
         22    1    3    3    0    0  0.31134947923E+03 -0.18832595570E+03 -0.34702546703E+03  0.50282386436E+03  0.00000000000E+00 0. -1.
         22    1    3    3    0    0  0.15774544992E+02 -0.26214142121E+02  0.57773778299E+01  0.31135118620E+02  0.00000000000E+00 0. -1.
</event>
<event>
 7    1  0.7459264E-005  0.5803958E+03  0.7818608E-02  0.1233432E+00
          2   -1    0    0  502    0  0.00000000000E+00  0.00000000000E+00  0.23698726645E+04  0.23698726645E+04  0.00000000000E+00 0. -1.
          1   -1    0    0  501    0 -0.00000000000E+00 -0.00000000000E+00 -0.29543368645E+03  0.29543368645E+03  0.00000000000E+00 0. -1.
         25    2    1    2    0    0  0.54606179579E+03  0.18194612460E+03  0.14065478625E+04  0.15248901232E+04  0.12500048424E+03 0.  0.
          2    1    1    2  501    0  0.19508254442E+02 -0.19207270604E+02 -0.13901864140E+03  0.14168865124E+03  0.00000000000E+00 0. -1.
          1    1    1    2  502    0 -0.56557005024E+03 -0.16273885399E+03  0.80690975689E+03  0.99872757652E+03  0.00000000000E+00 0. -1.
         22    1    3    3    0    0  0.81874770639E+02  0.22742707292E+02  0.11298636251E+03  0.14137406734E+03  0.00000000000E+00 0. -1.
         22    1    3    3    0    0  0.46418702516E+03  0.15920341731E+03  0.12935615000E+04  0.13835160558E+04  0.00000000000E+00 0. -1.
</event>
<event>
 7    1  0.7459264E-005  0.1115294E+03  0.7818608E-02  0.1355116E+00
          2   -1    0    0  502    0  0.00000000000E+00  0.00000000000E+00  0.78306914031E+03  0.78306914031E+03  0.00000000000E+00 0. -1.
          1   -1    0    0  501    0 -0.00000000000E+00 -0.00000000000E+00 -0.23176547777E+03  0.23176547777E+03  0.00000000000E+00 0. -1.
         25    2    1    2    0    0 -0.23299970042E+02 -0.14055321738E+03 -0.11253822996E+02  0.18986950459E+03  0.12500273886E+03 0.  0.
          2    1    1    2  501    0  0.38710781893E+02  0.97404470955E+02 -0.10936503984E+03  0.15148223505E+03  0.00000000000E+00 0. -1.
          1    1    1    2  502    0 -0.15410811851E+02  0.43148746421E+02  0.67192252538E+03  0.67348287844E+03  0.00000000000E+00 0. -1.
         22    1    3    3    0    0 -0.23225808293E+02 -0.12313535711E+03  0.43320001021E+02  0.13258347118E+03  0.00000000000E+00 0.  1.
         22    1    3    3    0    0 -0.74161749139E-01 -0.17417860263E+02 -0.54573824017E+02  0.57286033411E+02  0.00000000000E+00 0.  1.
</event>
<event>
 7    1  0.7459264E-005  0.2927393E+03  0.7818608E-02  0.1220886E+00
          2   -1    0    0  502    0  0.00000000000E+00  0.00000000000E+00  0.19400721530E+04  0.19400721530E+04  0.00000000000E+00 0. -1.
          1   -1    0    0  501    0 -0.00000000000E+00 -0.00000000000E+00 -0.60183482991E+02  0.60183482991E+02  0.00000000000E+00 0. -1.
         25    2    1    2    0    0  0.32560929793E+03  0.23280748130E+02  0.10227649192E+04  0.10808496356E+04  0.12499778741E+03 0.  0.
          2    1    1    2  501    0 -0.59457219804E+02 -0.16939943161E+02  0.10883630243E+03  0.12516973831E+03  0.00000000000E+00 0. -1.
          1    1    1    2  502    0 -0.26615207812E+03 -0.63408049686E+01  0.74828744842E+03  0.79423626205E+03  0.00000000000E+00 0. -1.
         22    1    3    3    0    0  0.21374468292E+03 -0.40658055162E+02  0.57025065808E+03  0.61034881827E+03  0.00000000000E+00 0. -1.
         22    1    3    3    0    0  0.11186461500E+03  0.63938803292E+02  0.45251426109E+03  0.47050081737E+03  0.00000000000E+00 0. -1.
</event>
<event>
 7    1  0.7459264E-005  0.3500244E+03  0.7818608E-02  0.1084922E+00
          2   -1    0    0  502    0  0.00000000000E+00  0.00000000000E+00  0.11375024866E+04  0.11375024866E+04  0.00000000000E+00 0. -1.
          1   -1    0    0  501    0 -0.00000000000E+00 -0.00000000000E+00 -0.14794627611E+04  0.14794627611E+04  0.00000000000E+00 0. -1.
         25    2    1    2    0    0 -0.35664630238E+03 -0.58791760390E+02  0.36567568554E+02  0.38420674637E+03  0.12499832316E+03 0.  0.
          2    1    1    2  501    0  0.12810863476E+03 -0.22419972087E+03 -0.12563205959E+04  0.12825828538E+04  0.00000000000E+00 0. -1.
          1    1    1    2  502    0  0.22853766763E+03  0.28299148126E+03  0.87779275289E+03  0.95017564746E+03  0.00000000000E+00 0. -1.
         22    1    3    3    0    0 -0.19818860534E+03  0.32652179258E+01 -0.31914246437E+02  0.20076828449E+03  0.00000000000E+00 0. -1.
         22    1    3    3    0    0 -0.15845769705E+03 -0.62056978316E+02  0.68481814991E+02  0.18343846188E+03  0.00000000000E+00 0. -1.
</event>
<event>
 7    1  0.7459264E-005  0.3485960E+03  0.7818608E-02  0.1173090E+00
          2   -1    0    0  502    0  0.00000000000E+00  0.00000000000E+00  0.13420007110E+04  0.13420007110E+04  0.00000000000E+00 0. -1.
          1   -1    0    0  501    0 -0.00000000000E+00 -0.00000000000E+00 -0.17685567507E+04  0.17685567507E+04  0.00000000000E+00 0. -1.
         25    2    1    2    0    0 -0.90487586681E+02 -0.36964323372E+03 -0.14036490210E+04  0.14596847668E+04  0.12499968262E+03 0.  0.
          2    1    1    2  501    0  0.84822511812E+02  0.21459780970E+02 -0.30760976064E+03  0.31981110918E+03  0.00000000000E+00 0. -1.
          1    1    1    2  502    0  0.56650748687E+01  0.34818345275E+03  0.12847027420E+04  0.13310615858E+04  0.00000000000E+00 0. -1.
         22    1    3    3    0    0  0.53348429386E+01 -0.83411840894E+02 -0.16722601505E+03  0.18695062413E+03  0.00000000000E+00 0. -1.
         22    1    3    3    0    0 -0.95822429619E+02 -0.28623139282E+03 -0.12364230060E+04  0.12727341427E+04  0.00000000000E+00 0. -1.
</event>
<event>
 7    1  0.7459264E-005  0.2754247E+03  0.7818608E-02  0.1246891E+00
          2   -1    0    0  502    0  0.00000000000E+00  0.00000000000E+00  0.73696024632E+03  0.73696024632E+03  0.00000000000E+00 0. -1.
          1   -1    0    0  501    0 -0.00000000000E+00 -0.00000000000E+00 -0.28365333270E+03  0.28365333270E+03  0.00000000000E+00 0. -1.
         25    2    1    2    0    0  0.26682237889E+03 -0.13257069887E+03  0.44431153872E+03  0.54936729073E+03  0.12499001803E+03 0.  0.
          2    1    1    2  501    0 -0.45104601452E+02  0.22315014705E+02 -0.16245115599E+03  0.17006693693E+03  0.00000000000E+00 0. -1.
          1    1    1    2  502    0 -0.22171777744E+03  0.11025568417E+03  0.17144653089E+03  0.30117935135E+03  0.00000000000E+00 0. -1.
         22    1    3    3    0    0  0.97316192686E+02 -0.10718677967E+03  0.14786212313E+03  0.20693635387E+03  0.00000000000E+00 0.  1.
         22    1    3    3    0    0  0.16950618620E+03 -0.25383919198E+02  0.29644941559E+03  0.34243093686E+03  0.00000000000E+00 0.  1.
</event>
<event>
 7    1  0.7459264E-005  0.3026642E+03  0.7818608E-02  0.1273545E+00
          2   -1    0    0  502    0  0.00000000000E+00  0.00000000000E+00  0.69766026186E+03  0.69766026186E+03  0.00000000000E+00 0. -1.
          1   -1    0    0  501    0 -0.00000000000E+00 -0.00000000000E+00 -0.28648775115E+04  0.28648775115E+04  0.00000000000E+00 0. -1.
         25    2    1    2    0    0 -0.24538211247E+03  0.13456274399E+03  0.16887542113E+03  0.34994814694E+03  0.12500113795E+03 0.  0.
          2    1    1    2  501    0  0.25187183658E+03 -0.16920314567E+03 -0.27653202823E+04  0.27819175743E+04  0.00000000000E+00 0. -1.
          1    1    1    2  502    0 -0.64897241059E+01  0.34640401688E+02  0.42922761154E+03  0.43067205210E+03  0.00000000000E+00 0. -1.
         22    1    3    3    0    0 -0.23020283652E+03  0.14675801856E+03  0.12167922594E+03  0.29889311799E+03  0.00000000000E+00 0. -1.
         22    1    3    3    0    0 -0.15179275953E+02 -0.12195274577E+02  0.47196195190E+02  0.51055028948E+02  0.00000000000E+00 0. -1.
</event>
<event>
 7    1  0.7459264E-005  0.2670240E+03  0.7818608E-02  0.1116290E+00
          2   -1    0    0  502    0  0.00000000000E+00  0.00000000000E+00  0.88371214192E+03  0.88371214192E+03  0.00000000000E+00 0. -1.
          1   -1    0    0  501    0 -0.00000000000E+00 -0.00000000000E+00 -0.98303923569E+03  0.98303923569E+03  0.00000000000E+00 0. -1.
         25    2    1    2    0    0 -0.30227043954E+03 -0.35864346831E+03  0.15804889068E+03  0.51048637628E+03  0.12499733014E+03 0.  0.
          2    1    1    2  501    0  0.20059052994E+03  0.15747529475E+03 -0.76202448251E+03  0.80356477094E+03  0.00000000000E+00 0. -1.
          1    1    1    2  502    0  0.10167990960E+03  0.20116817357E+03  0.50464849806E+03  0.55270023038E+03  0.00000000000E+00 0. -1.
         22    1    3    3    0    0 -0.73328484968E+02 -0.15059048213E+03  0.10712504929E+02  0.16783717638E+03  0.00000000000E+00 0.  1.
         22    1    3    3    0    0 -0.22894195457E+03 -0.20805298619E+03  0.14733638575E+03  0.34264919990E+03  0.00000000000E+00 0.  1.
</event>
<event>
 7    1  0.7459264E-005  0.8224412E+03  0.7818608E-02  0.1111738E+00
          2   -1    0    0  502    0  0.00000000000E+00  0.00000000000E+00  0.14788299334E+04  0.14788299334E+04  0.00000000000E+00 0. -1.
          1   -1    0    0  501    0 -0.00000000000E+00 -0.00000000000E+00 -0.10145724572E+04  0.10145724572E+04  0.00000000000E+00 0. -1.
         25    2    1    2    0    0  0.74130299627E+03 -0.27349162524E+03 -0.64312084174E+02  0.80255272840E+03  0.12500814507E+03 0.  0.
          2    1    1    2  501    0 -0.81393352838E+03  0.24640379760E+03 -0.26713122530E+03  0.89138191121E+03  0.00000000000E+00 0. -1.
          1    1    1    2  502    0  0.72630532112E+02  0.27087827641E+02  0.79570078569E+03  0.79946775103E+03  0.00000000000E+00 0. -1.
         22    1    3    3    0    0  0.85553604326E+02 -0.77071215221E+01 -0.39515313096E+02  0.94553048097E+02  0.00000000000E+00 0.  1.
         22    1    3    3    0    0  0.65574939194E+03 -0.26578450372E+03 -0.24796771078E+02  0.70799968030E+03  0.00000000000E+00 0.  1.
</event>
<event>
 7    1  0.7459264E-005  0.5494249E+03  0.7818608E-02  0.1148164E+00
          2   -1    0    0  502    0  0.00000000000E+00  0.00000000000E+00  0.10496926673E+04  0.10496926673E+04  0.00000000000E+00 0. -1.
          1   -1    0    0  501    0 -0.00000000000E+00 -0.00000000000E+00 -0.21311967603E+04  0.21311967603E+04  0.00000000000E+00 0. -1.
         25    2    1    2    0    0 -0.27061683357E+03 -0.49262543847E+03  0.24172273948E+03  0.62447430132E+03  0.12499990798E+03 0.  0.
          2    1    1    2  501    0 -0.50482286761E+02  0.54348241772E+02 -0.18192319675E+04  0.18207435691E+04  0.00000000000E+00 0. -1.
          1    1    1    2  502    0  0.32109912033E+03  0.43827719670E+03  0.49600513505E+03  0.73567155730E+03  0.00000000000E+00 0. -1.
         22    1    3    3    0    0 -0.14469490987E+03 -0.37266887690E+03  0.14354987135E+03  0.42476496362E+03  0.00000000000E+00 0.  1.
         22    1    3    3    0    0 -0.12592192369E+03 -0.11995656157E+03  0.98172868124E+02  0.19970933770E+03  0.00000000000E+00 0.  1.
</event>
<event>
 7    1  0.7459264E-005  0.1667523E+03  0.7818608E-02  0.1239816E+00
          2   -1    0    0  502    0  0.00000000000E+00  0.00000000000E+00  0.33318678595E+04  0.33318678595E+04  0.00000000000E+00 0. -1.
          1   -1    0    0  501    0 -0.00000000000E+00 -0.00000000000E+00 -0.24752477734E+03  0.24752477734E+03  0.00000000000E+00 0. -1.
         25    2    1    2    0    0 -0.24992235359E+03  0.31780966178E+02  0.19514955746E+04  0.19716537042E+04  0.12494854456E+03 0.  0.
          2    1    1    2  501    0  0.16091885333E+03 -0.38728905088E+02 -0.20693538147E+03  0.26498501382E+03  0.00000000000E+00 0. -1.
          1    1    1    2  502    0  0.89003500256E+02  0.69479389109E+01  0.13397828890E+04  0.13427539188E+04  0.00000000000E+00 0. -1.
         22    1    3    3    0    0 -0.18433471461E+03  0.64325273259E+02  0.16444507757E+04  0.16559998132E+04  0.00000000000E+00 0. -1.
         22    1    3    3    0    0 -0.65587638981E+02 -0.32544307081E+02  0.30704479892E+03  0.31565389092E+03  0.00000000000E+00 0. -1.
</event>
<event>
 7    1  0.7459264E-005  0.5857994E+03  0.7818608E-02  0.1152141E+00
          2   -1    0    0  502    0  0.00000000000E+00  0.00000000000E+00  0.50903700827E+03  0.50903700827E+03  0.00000000000E+00 0. -1.
          1   -1    0    0  501    0 -0.00000000000E+00 -0.00000000000E+00 -0.92920797165E+03  0.92920797165E+03  0.00000000000E+00 0. -1.
         25    2    1    2    0    0 -0.58694786258E+03 -0.50699307826E+02 -0.28215994587E+03  0.66506938165E+03  0.12499933663E+03 0.  0.
          2    1    1    2  501    0  0.13265343993E+02 -0.65030755601E+02 -0.17460463095E+03  0.18679332342E+03  0.00000000000E+00 0. -1.
          1    1    1    2  502    0  0.57368251859E+03  0.11573006343E+03  0.36593613440E+02  0.58638227485E+03  0.00000000000E+00 0. -1.
         22    1    3    3    0    0 -0.42773077985E+03 -0.26557831087E+02 -0.14167178458E+03  0.45136441261E+03  0.00000000000E+00 0.  1.
         22    1    3    3    0    0 -0.15921708273E+03 -0.24141476739E+02 -0.14048816128E+03  0.21370496904E+03  0.00000000000E+00 0.  1.
</event>
<event>
 7    1  0.7459264E-005  0.5818673E+03  0.7818608E-02  0.1130345E+00
          2   -1    0    0  502    0  0.00000000000E+00  0.00000000000E+00  0.78661766132E+03  0.78661766132E+03  0.00000000000E+00 0. -1.
          1   -1    0    0  501    0 -0.00000000000E+00 -0.00000000000E+00 -0.26145832736E+04  0.26145832736E+04  0.00000000000E+00 0. -1.
         25    2    1    2    0    0  0.33162420190E+03  0.48265597907E+03 -0.23413886365E+03  0.64294824897E+03  0.12502015021E+03 0.  0.
          2    1    1    2  501    0 -0.39717813852E+03 -0.42567090118E+03 -0.21335645263E+04  0.22115704324E+04  0.00000000000E+00 0. -1.
          1    1    1    2  502    0  0.65553936618E+02 -0.56985077890E+02  0.53973777764E+03  0.54668225353E+03  0.00000000000E+00 0. -1.
         22    1    3    3    0    0  0.34072908332E+03  0.48104867129E+03 -0.22938124170E+03  0.63255030347E+03  0.00000000000E+00 0. -1.
         22    1    3    3    0    0 -0.91048814214E+01  0.16073077791E+01 -0.47576219521E+01  0.10397945501E+02  0.00000000000E+00 0. -1.
</event>
<event>
 7    1  0.7459264E-005  0.5703550E+03  0.7818608E-02  0.1177702E+00
          2   -1    0    0  502    0  0.00000000000E+00  0.00000000000E+00  0.16642513386E+04  0.16642513386E+04  0.00000000000E+00 0. -1.
          1   -1    0    0  501    0 -0.00000000000E+00 -0.00000000000E+00 -0.13575278273E+04  0.13575278273E+04  0.00000000000E+00 0. -1.
         25    2    1    2    0    0 -0.45759380066E+03  0.36041978299E+03 -0.36643336475E+03  0.69942358849E+03  0.12500175583E+03 0.  0.
          2    1    1    2  501    0  0.41282819930E+03 -0.38433563382E+03 -0.72763278204E+03  0.92064676563E+03  0.00000000000E+00 0. -1.
          1    1    1    2  502    0  0.44765601359E+02  0.23915850836E+02  0.14007896581E+04  0.14017088118E+04  0.00000000000E+00 0. -1.
         22    1    3    3    0    0 -0.29886254181E+03  0.17493273107E+03 -0.26030897609E+03  0.43322170113E+03  0.00000000000E+00 0.  1.
         22    1    3    3    0    0 -0.15873125885E+03  0.18548705192E+03 -0.10612438866E+03  0.26620188736E+03  0.00000000000E+00 0.  1.
</event>
<event>
 7    1  0.7459264E-005  0.1107682E+03  0.7818608E-02  0.1434255E+00
          2   -1    0    0  502    0  0.00000000000E+00  0.00000000000E+00  0.29388481156E+03  0.29388481156E+03  0.00000000000E+00 0. -1.
          1   -1    0    0  501    0 -0.00000000000E+00 -0.00000000000E+00 -0.87288857390E+02  0.87288857390E+02  0.00000000000E+00 0. -1.
         25    2    1    2    0    0  0.37010698051E+02 -0.11723325214E+03  0.71815135228E+02  0.18946697908E+03  0.12500758111E+03 0.  0.
          2    1    1    2  501    0 -0.41271181879E+02  0.93086475983E+02  0.73148104698E+02  0.12537562636E+03  0.00000000000E+00 0. -1.
          1    1    1    2  502    0  0.42604838283E+01  0.24146776159E+02  0.61632714241E+02  0.66331063508E+02  0.00000000000E+00 0. -1.
         22    1    3    3    0    0 -0.31388856666E+02  0.76484765812E+01  0.19716248132E+02  0.37848249064E+02  0.00000000000E+00 0. -1.
         22    1    3    3    0    0  0.68399554717E+02 -0.12488172872E+03  0.52098887096E+02  0.15161873001E+03  0.00000000000E+00 0. -1.
</event>
<event>
 7    1  0.7459264E-005  0.3846329E+03  0.7818608E-02  0.1230017E+00
          2   -1    0    0  502    0  0.00000000000E+00  0.00000000000E+00  0.41018230963E+03  0.41018230963E+03  0.00000000000E+00 0. -1.
          1   -1    0    0  501    0 -0.00000000000E+00 -0.00000000000E+00 -0.12006383398E+04  0.12006383398E+04  0.00000000000E+00 0. -1.
         25    2    1    2    0    0  0.10294937093E+03 -0.35567889317E+03 -0.61187052732E+03  0.72602696125E+03  0.12499423280E+03 0.  0.
          2    1    1    2  501    0 -0.13795451403E+03  0.38028687940E+03 -0.45284192714E+03  0.60721937515E+03  0.00000000000E+00 0. -1.
          1    1    1    2  502    0  0.35005143098E+02 -0.24607986230E+02  0.27425642426E+03  0.27757431307E+03  0.00000000000E+00 0. -1.
         22    1    3    3    0    0  0.10928169762E+03 -0.36277659070E+03 -0.60646391483E+03  0.71508588588E+03  0.00000000000E+00 0. -1.
         22    1    3    3    0    0 -0.63323266897E+01  0.70976975327E+01 -0.54066124948E+01  0.10941075369E+02  0.00000000000E+00 0. -1.
</event>
<event>
 7    1  0.7459264E-005  0.7035146E+02  0.7818608E-02  0.1386734E+00
          2   -1    0    0  502    0  0.00000000000E+00  0.00000000000E+00  0.14944060048E+03  0.14944060048E+03  0.00000000000E+00 0. -1.
          1   -1    0    0  501    0 -0.00000000000E+00 -0.00000000000E+00 -0.65075490325E+03  0.65075490325E+03  0.00000000000E+00 0. -1.
         25    2    1    2    0    0 -0.96890413111E+02  0.26581481422E+02 -0.14929750845E+03  0.21909662091E+03  0.12497702171E+03 0.  0.
          2    1    1    2  501    0  0.46616332774E+02 -0.51085163579E+02 -0.45697034669E+03  0.46217385708E+03  0.00000000000E+00 0. -1.
          1    1    1    2  502    0  0.50274080337E+02  0.24503682157E+02  0.10495355237E+03  0.11892502574E+03  0.00000000000E+00 0. -1.
         22    1    3    3    0    0 -0.65363989047E+02  0.60154755652E+02 -0.14849193401E+03  0.17303439010E+03  0.00000000000E+00 0. -1.
         22    1    3    3    0    0 -0.31526424064E+02 -0.33573274230E+02 -0.80557444665E+00  0.46062230808E+02  0.00000000000E+00 0. -1.
</event>
<event>
 7    1  0.7459264E-005  0.1174941E+03  0.7818608E-02  0.1364383E+00
          2   -1    0    0  502    0  0.00000000000E+00  0.00000000000E+00  0.29993628256E+03  0.29993628256E+03  0.00000000000E+00 0. -1.
          1   -1    0    0  501    0 -0.00000000000E+00 -0.00000000000E+00 -0.13027413933E+04  0.13027413933E+04  0.00000000000E+00 0. -1.
         25    2    1    2    0    0  0.14593041478E+03 -0.57014079538E+02 -0.43882245779E+03  0.48242736519E+03  0.12499888802E+03 0.  0.
          2    1    1    2  501    0 -0.37111646692E+02  0.15536489734E+02 -0.82941737226E+03  0.83039257839E+03  0.00000000000E+00 0. -1.
          1    1    1    2  502    0 -0.10881876809E+03  0.41477589805E+02  0.26543471931E+03  0.28985773227E+03  0.00000000000E+00 0. -1.
         22    1    3    3    0    0  0.10325021738E+03  0.15417304464E+02 -0.15867328473E+03  0.18993554684E+03  0.00000000000E+00 0. -1.
         22    1    3    3    0    0  0.42680197394E+02 -0.72431384002E+02 -0.28014917306E+03  0.29249181836E+03  0.00000000000E+00 0. -1.
</event>
<event>
 7    1  0.7459264E-005  0.1448844E+03  0.7818608E-02  0.1214209E+00
          2   -1    0    0  502    0  0.00000000000E+00  0.00000000000E+00  0.17712076398E+04  0.17712076398E+04  0.00000000000E+00 0. -1.
          1   -1    0    0  501    0 -0.00000000000E+00 -0.00000000000E+00 -0.14324130532E+03  0.14324130532E+03  0.00000000000E+00 0. -1.
         25    2    1    2    0    0 -0.14130363868E+03  0.39133106849E+02  0.45015033650E+03  0.48965249248E+03  0.12500447826E+03 0.  0.
          2    1    1    2  501    0  0.16471806808E+02 -0.13300767276E+03 -0.80819952743E+02  0.15650631359E+03  0.00000000000E+00 0. -1.
          1    1    1    2  502    0  0.12483183187E+03  0.93874565907E+02  0.12586359507E+04  0.12682901390E+04  0.00000000000E+00 0. -1.
         22    1    3    3    0    0 -0.50582551674E+02 -0.42721020446E+02  0.11204690230E+03  0.13014679573E+03  0.00000000000E+00 0.  1.
         22    1    3    3    0    0 -0.90721087006E+02  0.81854127295E+02  0.33810343420E+03  0.35950569676E+03  0.00000000000E+00 0.  1.
</event>
<event>
 7    1  0.7459264E-005  0.7748232E+02  0.7818608E-02  0.1489474E+00
          2   -1    0    0  502    0  0.00000000000E+00  0.00000000000E+00  0.10902589167E+03  0.10902589167E+03  0.00000000000E+00 0. -1.
          1   -1    0    0  501    0 -0.00000000000E+00 -0.00000000000E+00 -0.15327779945E+03  0.15327779945E+03  0.00000000000E+00 0. -1.
         25    2    1    2    0    0  0.27028109829E+02 -0.91647957944E+02 -0.47042255459E+02  0.16421824840E+03  0.12499916957E+03 0.  0.
          2    1    1    2  501    0 -0.88343978971E+01  0.21767723060E+02 -0.85316853284E+01  0.24993399288E+02  0.00000000000E+00 0. -1.
          1    1    1    2  502    0 -0.18193711932E+02  0.69880234884E+02  0.11322033003E+02  0.73092043429E+02  0.00000000000E+00 0. -1.
         22    1    3    3    0    0 -0.42063835171E+02 -0.74317176586E+02 -0.17879017314E+02  0.87247167434E+02  0.00000000000E+00 0. -1.
         22    1    3    3    0    0  0.69091945000E+02 -0.17330781357E+02 -0.29163238145E+02  0.76971080969E+02  0.00000000000E+00 0. -1.
</event>
<event>
 7    1  0.7459264E-005  0.6890684E+03  0.7818608E-02  0.1110135E+00
          2   -1    0    0  502    0  0.00000000000E+00  0.00000000000E+00  0.24917257034E+04  0.24917257034E+04  0.00000000000E+00 0. -1.
          1   -1    0    0  501    0 -0.00000000000E+00 -0.00000000000E+00 -0.11996448028E+04  0.11996448028E+04  0.00000000000E+00 0. -1.
         25    2    1    2    0    0 -0.60865809962E+03  0.39405301624E+03  0.28427682795E+03  0.78878468006E+03  0.12500197899E+03 0.  0.
          2    1    1    2  501    0 -0.34656499560E+01 -0.94362586031E+02 -0.88540975716E+03  0.89043065223E+03  0.00000000000E+00 0. -1.
          1    1    1    2  502    0  0.61212374958E+03 -0.29969043021E+03  0.18932138298E+04  0.20121551739E+04  0.00000000000E+00 0. -1.
         22    1    3    3    0    0 -0.47771845685E+03  0.30739796529E+03  0.16484778286E+03  0.59150927684E+03  0.00000000000E+00 0.  1.
         22    1    3    3    0    0 -0.13093964277E+03  0.86655050948E+02  0.11942904509E+03  0.19727540321E+03  0.00000000000E+00 0.  1.
</event>
<event>
 7    1  0.7459264E-005  0.6668798E+02  0.7818608E-02  0.1432179E+00
          2   -1    0    0  502    0  0.00000000000E+00  0.00000000000E+00  0.58880115711E+02  0.58880115711E+02  0.00000000000E+00 0. -1.
          1   -1    0    0  501    0 -0.00000000000E+00 -0.00000000000E+00 -0.64451785221E+03  0.64451785221E+03  0.00000000000E+00 0. -1.
         25    2    1    2    0    0 -0.10899581763E+02  0.92104061542E+02 -0.38475194623E+03  0.41504387940E+03  0.12500161066E+03 0.  0.
          2    1    1    2  501    0 -0.14244452993E+02 -0.59252088996E+02 -0.22988974947E+03  0.23782979503E+03  0.00000000000E+00 0. -1.
          1    1    1    2  502    0  0.25144034756E+02 -0.32851972546E+02  0.29003959197E+02  0.50524293494E+02  0.00000000000E+00 0. -1.
         22    1    3    3    0    0 -0.17623109861E+02  0.30320424390E+02 -0.11879079470E+02  0.37027215199E+02  0.00000000000E+00 0. -1.
         22    1    3    3    0    0  0.67235280984E+01  0.61783637152E+02 -0.37287286676E+03  0.37801666420E+03  0.00000000000E+00 0. -1.
</event>
<event>
 7    1  0.7459264E-005  0.5750962E+02  0.7818608E-02  0.1469960E+00
          2   -1    0    0  502    0  0.00000000000E+00  0.00000000000E+00  0.10492815830E+04  0.10492815830E+04  0.00000000000E+00 0. -1.
          1   -1    0    0  501    0 -0.00000000000E+00 -0.00000000000E+00 -0.37582080776E+03  0.37582080776E+03  0.00000000000E+00 0. -1.
         25    2    1    2    0    0 -0.28353167581E+02  0.68342157178E+02  0.15450558728E+03  0.21206382044E+03  0.12499813950E+03 0.  0.
          2    1    1    2  501    0 -0.61870646178E+01 -0.57077739852E+02 -0.34428252491E+03  0.34903668162E+03  0.00000000000E+00 0. -1.
          1    1    1    2  502    0  0.34540232199E+02 -0.11264417326E+02  0.86323771285E+03  0.86400188867E+03  0.00000000000E+00 0. -1.
         22    1    3    3    0    0  0.33992699251E+02  0.42388548152E+02  0.12882297101E+03  0.13981291241E+03  0.00000000000E+00 0. -1.
         22    1    3    3    0    0 -0.62345866833E+02  0.25953609026E+02  0.25682616273E+02  0.72250908031E+02  0.00000000000E+00 0. -1.
</event>
<event>
 7    1  0.7459264E-005  0.1315764E+03  0.7818608E-02  0.1246150E+00
          2   -1    0    0  502    0  0.00000000000E+00  0.00000000000E+00  0.79981568953E+03  0.79981568953E+03  0.00000000000E+00 0. -1.
          1   -1    0    0  501    0 -0.00000000000E+00 -0.00000000000E+00 -0.40684253649E+03  0.40684253649E+03  0.00000000000E+00 0. -1.
         25    2    1    2    0    0  0.11342825621E+03 -0.16359456700E+03  0.16742789877E+03  0.28859404397E+03  0.12500107708E+03 0.  0.
          2    1    1    2  501    0 -0.13271526714E+02  0.12850176376E+03 -0.32900054304E+03  0.35345465626E+03  0.00000000000E+00 0. -1.
          1    1    1    2  502    0 -0.10015672949E+03  0.35092803236E+02  0.55454579730E+03  0.56460952578E+03  0.00000000000E+00 0. -1.
         22    1    3    3    0    0 -0.19946423012E+02 -0.62866997738E+02  0.64808279816E+02  0.92467466323E+02  0.00000000000E+00 0. -1.
         22    1    3    3    0    0  0.13337467922E+03 -0.10072756926E+03  0.10261961896E+03  0.19612657765E+03  0.00000000000E+00 0. -1.
</event>
<event>
 7    1  0.7459264E-005  0.3720200E+03  0.7818608E-02  0.1206357E+00
          2   -1    0    0  502    0  0.00000000000E+00  0.00000000000E+00  0.99251355497E+03  0.99251355497E+03  0.00000000000E+00 0. -1.
          1   -1    0    0  501    0 -0.00000000000E+00 -0.00000000000E+00 -0.34084276809E+03  0.34084276809E+03  0.00000000000E+00 0. -1.
         25    2    1    2    0    0 -0.19619828100E+03  0.34425436318E+03  0.47405558596E+03  0.63036378191E+03  0.12499986774E+03 0.  0.
          2    1    1    2  501    0  0.51058967538E+02 -0.24787455892E+02 -0.18791559470E+03  0.19630004297E+03  0.00000000000E+00 0. -1.
          1    1    1    2  502    0  0.14513931346E+03 -0.31946690728E+03  0.36553079563E+03  0.50669249818E+03  0.00000000000E+00 0. -1.
         22    1    3    3    0    0 -0.60885339164E+02  0.21668591765E+02  0.58493516188E+02  0.87166758746E+02  0.00000000000E+00 0. -1.
         22    1    3    3    0    0 -0.13531294183E+03  0.32258577141E+03  0.41556206977E+03  0.54319702317E+03  0.00000000000E+00 0. -1.
</event>
<event>
 7    1  0.7459264E-005  0.6738521E+03  0.7818608E-02  0.1133334E+00
          2   -1    0    0  502    0  0.00000000000E+00  0.00000000000E+00  0.37525133290E+04  0.37525133290E+04  0.00000000000E+00 0. -1.
          1   -1    0    0  501    0 -0.00000000000E+00 -0.00000000000E+00 -0.21982548856E+03  0.21982548856E+03  0.00000000000E+00 0. -1.
         25    2    1    2    0    0 -0.58322027366E+03  0.41021382150E+03  0.15518229036E+04  0.17123666865E+04  0.12499631192E+03 0.  0.
          2    1    1    2  501    0  0.55949402430E+03 -0.34190910360E+03  0.63701790586E+03  0.91418116953E+03  0.00000000000E+00 0. -1.
          1    1    1    2  502    0  0.23726249366E+02 -0.68304717900E+02  0.13438470310E+04  0.13457909615E+04  0.00000000000E+00 0. -1.
         22    1    3    3    0    0 -0.30329674845E+03  0.17957115304E+03  0.63246472254E+03  0.72404857702E+03  0.00000000000E+00 0. -1.
         22    1    3    3    0    0 -0.27992352521E+03  0.23064266846E+03  0.91935818105E+03  0.98831810949E+03  0.00000000000E+00 0. -1.
</event>
<event>
 7    1  0.7459264E-005  0.8788987E+03  0.7818608E-02  0.1203957E+00
          2   -1    0    0  502    0  0.00000000000E+00  0.00000000000E+00  0.14407000151E+04  0.14407000151E+04  0.00000000000E+00 0. -1.
          1   -1    0    0  501    0 -0.00000000000E+00 -0.00000000000E+00 -0.14941012740E+04  0.14941012740E+04  0.00000000000E+00 0. -1.
         25    2    1    2    0    0  0.87287538376E+03  0.10902426454E+03 -0.53869035403E+03  0.10390418384E+04  0.12499167445E+03 0.  0.
          2    1    1    2  501    0 -0.42438498052E+01  0.24285166829E+02 -0.54274243831E+03  0.54330206509E+03  0.00000000000E+00 0. -1.
          1    1    1    2  502    0 -0.86863153395E+03 -0.13330943137E+03  0.10280315334E+04  0.13524573857E+04  0.00000000000E+00 0. -1.
         22    1    3    3    0    0  0.47522357568E+03  0.10501595705E+03 -0.24640597861E+03  0.54551049890E+03  0.00000000000E+00 0. -1.
         22    1    3    3    0    0  0.39765180808E+03  0.40083074929E+01 -0.29228437541E+03  0.49353133954E+03  0.00000000000E+00 0. -1.
</event>
<event>
 7    1  0.8971117E-005  0.1802385E+03  0.7818608E-02  0.1228917E+00
          2   -1    0    0  502    0  0.00000000000E+00  0.00000000000E+00  0.17043393692E+04  0.17043393692E+04  0.00000000000E+00 0. -1.
          1   -1    0    0  501    0 -0.00000000000E+00 -0.00000000000E+00 -0.17061900378E+04  0.17061900378E+04  0.00000000000E+00 0. -1.
         25    2    1    2    0    0 -0.21197461910E+03  0.63928339749E+02 -0.58004376018E+03  0.63332123956E+03  0.12499982798E+03 0.  0.
          2    1    1    2  501    0  0.75369575073E+02  0.53377312769E+02 -0.10927226650E+04  0.10966186817E+04  0.00000000000E+00 0. -1.
          1    1    1    2  502    0  0.13660504403E+03 -0.11730565252E+03  0.16709157565E+04  0.16805894857E+04  0.00000000000E+00 0. -1.
         22    1    3    3    0    0 -0.19578705437E+03  0.18698431606E+02 -0.52291409436E+03  0.55867821873E+03  0.00000000000E+00 0.  1.
         22    1    3    3    0    0 -0.16187564729E+02  0.45229908143E+02 -0.57129665814E+02  0.74643020829E+02  0.00000000000E+00 0.  1.
</event>
<event>
 7    1  0.7643435E-005  0.2697823E+03  0.7818608E-02  0.1242810E+00
          2   -1    0    0  502    0  0.00000000000E+00  0.00000000000E+00  0.15924599722E+04  0.15924599722E+04  0.00000000000E+00 0. -1.
          1   -1    0    0  501    0 -0.00000000000E+00 -0.00000000000E+00 -0.13845879378E+04  0.13845879378E+04  0.00000000000E+00 0. -1.
         25    2    1    2    0    0  0.17661038516E+03 -0.22223692339E+03 -0.10466974164E+04  0.10916872828E+04  0.12500065416E+03 0.  0.
          2    1    1    2  501    0 -0.17348870209E+03  0.16879632906E+03 -0.26841388819E+03  0.36143677985E+03  0.00000000000E+00 0. -1.
          1    1    1    2  502    0 -0.31216830679E+01  0.53440594329E+02  0.15229833389E+04  0.15239238474E+04  0.00000000000E+00 0. -1.
         22    1    3    3    0    0  0.64793528404E+02 -0.23965110647E+02 -0.13074769878E+03  0.14787659919E+03  0.00000000000E+00 0.  1.
         22    1    3    3    0    0  0.11181685676E+03 -0.19827181275E+03 -0.91594971763E+03  0.94381068356E+03  0.00000000000E+00 0.  1.
</event>
<event>
 7    1  0.7459264E-005  0.6940955E+02  0.7818608E-02  0.1466800E+00
          2   -1    0    0  502    0  0.00000000000E+00  0.00000000000E+00  0.40082589022E+03  0.40082589022E+03  0.00000000000E+00 0. -1.
          1   -1    0    0  501    0 -0.00000000000E+00 -0.00000000000E+00 -0.16185677278E+04  0.16185677278E+04  0.00000000000E+00 0. -1.
         25    2    1    2    0    0  0.22002670490E+02  0.35208736791E+02  0.21743205017E+02  0.13349778154E+03  0.12500047223E+03 0.  0.
          2    1    1    2  501    0  0.72621333122E+01  0.29923960613E+02 -0.15585926564E+04  0.15588968056E+04  0.00000000000E+00 0. -1.
          1    1    1    2  502    0 -0.29264803802E+02 -0.65132697403E+02  0.31910761379E+03  0.32699903087E+03  0.00000000000E+00 0. -1.
         22    1    3    3    0    0  0.75763051349E+01 -0.46329962662E+02 -0.30962508472E+01  0.47047344336E+02  0.00000000000E+00 0.  1.
         22    1    3    3    0    0  0.14426365355E+02  0.81538699453E+02  0.24839455864E+02  0.86450437208E+02  0.00000000000E+00 0.  1.
</event>
<event>
 7    1  0.7459264E-005  0.5055299E+03  0.7818608E-02  0.1089114E+00
          2   -1    0    0  502    0  0.00000000000E+00  0.00000000000E+00  0.83282543489E+03  0.83282543489E+03  0.00000000000E+00 0. -1.
          1   -1    0    0  501    0 -0.00000000000E+00 -0.00000000000E+00 -0.20543345049E+04  0.20543345049E+04  0.00000000000E+00 0. -1.
         25    2    1    2    0    0  0.21162330347E+03  0.29658703048E+03 -0.44397710941E+03  0.58778482154E+03  0.12500813387E+03 0.  0.
          2    1    1    2  501    0  0.69198148700E+02  0.15429290900E+03 -0.14401990647E+04  0.14500924217E+04  0.00000000000E+00 0. -1.
          1    1    1    2  502    0 -0.28082145217E+03 -0.45087993948E+03  0.66266710409E+03  0.84928269656E+03  0.00000000000E+00 0. -1.
         22    1    3    3    0    0  0.19714340074E+03  0.22635263067E+03 -0.41077405566E+03  0.50875962760E+03  0.00000000000E+00 0. -1.
         22    1    3    3    0    0  0.14479902727E+02  0.70234399804E+02 -0.33203053744E+02  0.79025193937E+02  0.00000000000E+00 0. -1.
</event>
<event>
 7    1  0.7459264E-005  0.2661655E+03  0.7818608E-02  0.1241199E+00
          2   -1    0    0  502    0  0.00000000000E+00  0.00000000000E+00  0.10955360401E+04  0.10955360401E+04  0.00000000000E+00 0. -1.
          1   -1    0    0  501    0 -0.00000000000E+00 -0.00000000000E+00 -0.11522111582E+04  0.11522111582E+04  0.00000000000E+00 0. -1.
         25    2    1    2    0    0 -0.86174277904E+01  0.30174620208E+03 -0.46763333096E+03  0.57046520929E+03  0.12499836900E+03 0.  0.
          2    1    1    2  501    0  0.22173306506E+02 -0.24828733451E+03 -0.60785223544E+03  0.65697990543E+03  0.00000000000E+00 0. -1.
          1    1    1    2  502    0 -0.13555878716E+02 -0.53458867573E+02  0.10188104483E+04  0.10203020837E+04  0.00000000000E+00 0. -1.
         22    1    3    3    0    0 -0.48283001255E+02  0.45624338412E+02 -0.11541876639E+03  0.13317026733E+03  0.00000000000E+00 0. -1.
         22    1    3    3    0    0  0.39665573464E+02  0.25612186367E+03 -0.35221456457E+03  0.43729494196E+03  0.00000000000E+00 0. -1.
</event>
<event>
 7    1  0.8298807E-005  0.1738997E+03  0.7818608E-02  0.1298663E+00
          2   -1    0    0  502    0  0.00000000000E+00  0.00000000000E+00  0.29189315457E+04  0.29189315457E+04  0.00000000000E+00 0. -1.
          1   -1    0    0  501    0 -0.00000000000E+00 -0.00000000000E+00 -0.88903466828E+03  0.88903466828E+03  0.00000000000E+00 0. -1.
         25    2    1    2    0    0 -0.17792502162E+03 -0.83660362951E+02 -0.28807101511E+03  0.37049092474E+03  0.12498898322E+03 0.  0.
          2    1    1    2  501    0  0.16376654840E+03  0.37367122806E+02 -0.54694273013E+03  0.57215569060E+03  0.00000000000E+00 0. -1.
          1    1    1    2  502    0  0.14158473214E+02  0.46293240145E+02  0.28649106227E+04  0.28653195987E+04  0.00000000000E+00 0. -1.
         22    1    3    3    0    0 -0.11121811596E+02 -0.13403250452E+02 -0.12704510543E+03  0.12823338344E+03  0.00000000000E+00 0.  1.
         22    1    3    3    0    0 -0.16680321002E+03 -0.70257112500E+02 -0.16102590968E+03  0.24225754130E+03  0.00000000000E+00 0.  1.
</event>
<event>
 7    1  0.7459264E-005  0.2298066E+03  0.7818608E-02  0.1221400E+00
          2   -1    0    0  502    0  0.00000000000E+00  0.00000000000E+00  0.85544159587E+03  0.85544159587E+03  0.00000000000E+00 0. -1.
          1   -1    0    0  501    0 -0.00000000000E+00 -0.00000000000E+00 -0.23274993550E+03  0.23274993550E+03  0.00000000000E+00 0. -1.
         25    2    1    2    0    0  0.24825967668E+03 -0.16623747586E+03  0.41908968059E+02  0.32656601816E+03  0.12498494775E+03 0.  0.
          2    1    1    2  501    0 -0.61704021780E+02  0.48252149443E+02 -0.50275223723E+02  0.93076604741E+02  0.00000000000E+00 0. -1.
          1    1    1    2  502    0 -0.18655565490E+03  0.11798532642E+03  0.63105791604E+03  0.66854890847E+03  0.00000000000E+00 0. -1.
         22    1    3    3    0    0  0.43500616803E+02  0.89454032711E+01  0.35768525997E+02  0.57023778846E+02  0.00000000000E+00 0.  1.
         22    1    3    3    0    0  0.20475905987E+03 -0.17518287914E+03  0.61404420618E+01  0.26954223931E+03  0.00000000000E+00 0.  1.
</event>
<event>
 7    1  0.7459264E-005  0.4445770E+03  0.7818608E-02  0.1230076E+00
          2   -1    0    0  502    0  0.00000000000E+00  0.00000000000E+00  0.16664694131E+03  0.16664694131E+03  0.00000000000E+00 0. -1.
          1   -1    0    0  501    0 -0.00000000000E+00 -0.00000000000E+00 -0.18614380498E+04  0.18614380498E+04  0.00000000000E+00 0. -1.
         25    2    1    2    0    0 -0.20454990670E+02 -0.45309512168E+03 -0.74837233697E+03  0.88396788458E+03  0.12499788115E+03 0.  0.
          2    1    1    2  501    0  0.53126507222E+02  0.43573580259E+03 -0.99237159811E+03  0.10851218845E+04  0.00000000000E+00 0. -1.
          1    1    1    2  502    0 -0.32671516552E+02  0.17359319095E+02  0.45952826589E+02  0.58995222050E+02  0.00000000000E+00 0. -1.
         22    1    3    3    0    0 -0.53129268819E+02 -0.20835681528E+03 -0.43288579976E+03  0.48334811194E+03  0.00000000000E+00 0.  1.
         22    1    3    3    0    0  0.32674278149E+02 -0.24473830640E+03 -0.31548653721E+03  0.40061977265E+03  0.00000000000E+00 0.  1.
</event>
<event>
 7    1  0.7459264E-005  0.1661520E+03  0.7818608E-02  0.1284408E+00
          2   -1    0    0  502    0  0.00000000000E+00  0.00000000000E+00  0.16238800667E+04  0.16238800667E+04  0.00000000000E+00 0. -1.
          1   -1    0    0  501    0 -0.00000000000E+00 -0.00000000000E+00 -0.15364990115E+03  0.15364990115E+03  0.00000000000E+00 0. -1.
         25    2    1    2    0    0  0.36871979016E+02 -0.14948671959E+03 -0.33234017130E+02  0.20107607806E+03  0.12498506751E+03 0.  0.
          2    1    1    2  501    0 -0.56731187071E+02  0.20385835884E+03  0.27676577272E+03  0.34839051509E+03  0.00000000000E+00 0. -1.
          1    1    1    2  502    0  0.19859208055E+02 -0.54371639247E+02  0.12266984100E+04  0.12280633747E+04  0.00000000000E+00 0. -1.
         22    1    3    3    0    0  0.24925394615E+02 -0.11557099869E+03  0.35552297122E+02  0.12345807736E+03  0.00000000000E+00 0.  1.
         22    1    3    3    0    0  0.11946584401E+02 -0.33915720899E+02 -0.68786314252E+02  0.77618000692E+02  0.00000000000E+00 0.  1.
</event>
<event>
 7    1  0.7459264E-005  0.1551068E+03  0.7818608E-02  0.1255070E+00
          2   -1    0    0  502    0  0.00000000000E+00  0.00000000000E+00  0.57908265748E+03  0.57908265748E+03  0.00000000000E+00 0. -1.
          1   -1    0    0  501    0 -0.00000000000E+00 -0.00000000000E+00 -0.18543737254E+03  0.18543737254E+03  0.00000000000E+00 0. -1.
         25    2    1    2    0    0 -0.20293643141E+03 -0.78998306151E+02  0.12339815564E+03  0.27977941565E+03  0.12500195614E+03 0.  0.
          2    1    1    2  501    0  0.12089789903E+03  0.71734677481E+02 -0.53701944746E+02  0.15048609508E+03  0.00000000000E+00 0. -1.
          1    1    1    2  502    0  0.82038532381E+02  0.72636286702E+01  0.32394907404E+03  0.33425451930E+03  0.00000000000E+00 0. -1.
         22    1    3    3    0    0 -0.94519135617E+02 -0.10316393407E+03  0.72742001042E+02  0.15769610967E+03  0.00000000000E+00 0.  1.
         22    1    3    3    0    0 -0.10841729579E+03  0.24165627918E+02  0.50656154596E+02  0.12208330597E+03  0.00000000000E+00 0.  1.
</event>
<event>
 7    1  0.7459264E-005  0.8216686E+03  0.7818608E-02  0.1120239E+00
          2   -1    0    0  502    0  0.00000000000E+00  0.00000000000E+00  0.18483732290E+04  0.18483732290E+04  0.00000000000E+00 0. -1.
          1   -1    0    0  501    0 -0.00000000000E+00 -0.00000000000E+00 -0.12021939065E+04  0.12021939065E+04  0.00000000000E+00 0. -1.
         25    2    1    2    0    0  0.61134158883E+03 -0.50531944026E+03 -0.22648532463E+03  0.83426995641E+03  0.12499793176E+03 0.  0.
          2    1    1    2  501    0 -0.62328461933E+03  0.57400044295E+03 -0.40331456266E+03  0.93841507962E+03  0.00000000000E+00 0. -1.
          1    1    1    2  502    0  0.11943030499E+02 -0.68681002682E+02  0.12759792098E+04  0.12778820994E+04  0.00000000000E+00 0. -1.
         22    1    3    3    0    0  0.47706516330E+03 -0.35581985382E+03 -0.21571216029E+03  0.63303291739E+03  0.00000000000E+00 0. -1.
         22    1    3    3    0    0  0.13427642553E+03 -0.14949958645E+03 -0.10773164340E+02  0.20123703901E+03  0.00000000000E+00 0. -1.
</event>
<event>
 7    1  0.7459264E-005  0.2812104E+03  0.7818608E-02  0.1231729E+00
          2   -1    0    0  502    0  0.00000000000E+00  0.00000000000E+00  0.10412510942E+04  0.10412510942E+04  0.00000000000E+00 0. -1.
          1   -1    0    0  501    0 -0.00000000000E+00 -0.00000000000E+00 -0.95245844330E+03  0.95245844330E+03  0.00000000000E+00 0. -1.
         25    2    1    2    0    0 -0.27804926871E+03  0.11677906918E+02 -0.16078827359E+03  0.34485594862E+03  0.12499994815E+03 0.  0.
          2    1    1    2  501    0  0.27495797768E+03 -0.69096820507E+02 -0.66998063710E+03  0.72749592039E+03  0.00000000000E+00 0. -1.
          1    1    1    2  502    0  0.30912910201E+01  0.57418913588E+02  0.91956156157E+03  0.92135766846E+03  0.00000000000E+00 0. -1.
         22    1    3    3    0    0 -0.29027414459E+03  0.11423315872E+02 -0.16191803823E+03  0.33257634051E+03  0.00000000000E+00 0. -1.
         22    1    3    3    0    0  0.12224875888E+02  0.25459104608E+00  0.11297646454E+01  0.12279608105E+02  0.00000000000E+00 0. -1.
</event>
<event>
 7    1  0.7459264E-005  0.8335747E+02  0.7818608E-02  0.1400531E+00
          2   -1    0    0  502    0  0.00000000000E+00  0.00000000000E+00  0.20966461698E+04  0.20966461698E+04  0.00000000000E+00 0. -1.
          1   -1    0    0  501    0 -0.00000000000E+00 -0.00000000000E+00 -0.29795005326E+02  0.29795005326E+02  0.00000000000E+00 0. -1.
         25    2    1    2    0    0  0.90043107631E+02 -0.49727786911E+02  0.22268715493E+03  0.27530951929E+03  0.12500059367E+03 0.  0.
          2    1    1    2  501    0 -0.51639605344E+02  0.32058410518E+02  0.28567858589E+03  0.29207301306E+03  0.00000000000E+00 0. -1.
          1    1    1    2  502    0 -0.38403502287E+02  0.17669376393E+02  0.15584854236E+04  0.15590586427E+04  0.00000000000E+00 0. -1.
         22    1    3    3    0    0  0.59696711535E+02 -0.91101186218E+02  0.13221687330E+03  0.17130214559E+03  0.00000000000E+00 0.  1.
         22    1    3    3    0    0  0.30346396096E+02  0.41373399306E+02  0.90470281622E+02  0.10400737370E+03  0.00000000000E+00 0.  1.
</event>
<event>
 7    1  0.7459264E-005  0.1880179E+03  0.7818608E-02  0.1258009E+00
          2   -1    0    0  502    0  0.00000000000E+00  0.00000000000E+00  0.19785252657E+04  0.19785252657E+04  0.00000000000E+00 0. -1.
          1   -1    0    0  501    0 -0.00000000000E+00 -0.00000000000E+00 -0.34598218519E+03  0.34598218519E+03  0.00000000000E+00 0. -1.
         25    2    1    2    0    0  0.11956993193E+03  0.11294326173E+03  0.95675058937E+03  0.97880006415E+03  0.12499890537E+03 0.  0.
          2    1    1    2  501    0 -0.48438348688E+00  0.65995661838E+02 -0.32012585181E+03  0.32685810836E+03  0.00000000000E+00 0. -1.
          1    1    1    2  502    0 -0.11908554844E+03 -0.17893892357E+03  0.99591834297E+03  0.10188492784E+04  0.00000000000E+00 0. -1.
         22    1    3    3    0    0  0.14330788195E+03  0.10061278126E+03  0.88653792899E+03  0.90366452864E+03  0.00000000000E+00 0.  1.
         22    1    3    3    0    0 -0.23737950024E+02  0.12330480471E+02  0.70212660377E+02  0.75135535515E+02  0.00000000000E+00 0.  1.
</event>
<event>
 7    1  0.7459264E-005  0.1446972E+04  0.7818608E-02  0.1052663E+00
          2   -1    0    0  502    0  0.00000000000E+00  0.00000000000E+00  0.41213833298E+04  0.41213833298E+04  0.00000000000E+00 0. -1.
          1   -1    0    0  501    0 -0.00000000000E+00 -0.00000000000E+00 -0.18904616092E+04  0.18904616092E+04  0.00000000000E+00 0. -1.
         25    2    1    2    0    0 -0.43040835723E+03  0.13273109036E+04  0.10468750759E+03  0.14048451313E+04  0.12499912000E+03 0.  0.
          2    1    1    2  501    0  0.40415390357E+03 -0.14210761746E+04 -0.79934094411E+03  0.16798046960E+04  0.00000000000E+00 0. -1.
          1    1    1    2  502    0  0.26254453663E+02  0.93765270994E+02  0.29255751571E+04  0.29271951117E+04  0.00000000000E+00 0. -1.
         22    1    3    3    0    0 -0.31864570846E+03  0.93271401223E+03  0.12877766583E+03  0.99401921679E+03  0.00000000000E+00 0.  1.
         22    1    3    3    0    0 -0.11176264877E+03  0.39459689136E+03 -0.24090158235E+02  0.41082591453E+03  0.00000000000E+00 0.  1.
</event>
<event>
 7    1  0.7459264E-005  0.1425085E+03  0.7818608E-02  0.1345510E+00
          2   -1    0    0  502    0  0.00000000000E+00  0.00000000000E+00  0.68992084695E+03  0.68992084695E+03  0.00000000000E+00 0. -1.
          1   -1    0    0  501    0 -0.00000000000E+00 -0.00000000000E+00 -0.10160315408E+04  0.10160315408E+04  0.00000000000E+00 0. -1.
         25    2    1    2    0    0 -0.89101690654E+02  0.60499311468E+02 -0.10504826417E+03  0.19560063462E+03  0.12500076997E+03 0.  0.
          2    1    1    2  501    0 -0.21340449471E+02  0.32546272806E+02 -0.85717224210E+03  0.85805531715E+03  0.00000000000E+00 0. -1.
          1    1    1    2  502    0  0.11044214012E+03 -0.93045584274E+02  0.63610981237E+03  0.65229643604E+03  0.00000000000E+00 0. -1.
         22    1    3    3    0    0 -0.11120744563E+03  0.71177749519E+02 -0.10838704589E+03  0.17082482170E+03  0.00000000000E+00 0. -1.
         22    1    3    3    0    0  0.22105754981E+02 -0.10678438051E+02  0.33387817260E+01  0.24775812921E+02  0.00000000000E+00 0. -1.
</event>
<event>
 7    1  0.7459264E-005  0.1756311E+03  0.7818608E-02  0.1229335E+00
          2   -1    0    0  502    0  0.00000000000E+00  0.00000000000E+00  0.13995734906E+04  0.13995734906E+04  0.00000000000E+00 0. -1.
          1   -1    0    0  501    0 -0.00000000000E+00 -0.00000000000E+00 -0.11232803222E+04  0.11232803222E+04  0.00000000000E+00 0. -1.
         25    2    1    2    0    0 -0.16071875979E+03  0.20563771939E+03  0.41919886912E+03  0.50938172430E+03  0.12499863118E+03 0.  0.
          2    1    1    2  501    0  0.81674723344E+02 -0.15408342639E+03 -0.10687227888E+04  0.10828577293E+04  0.00000000000E+00 0. -1.
          1    1    1    2  502    0  0.79044036447E+02 -0.51554293000E+02  0.92581708811E+03  0.93061435915E+03  0.00000000000E+00 0. -1.
         22    1    3    3    0    0 -0.41194195606E+02  0.58087974589E+02  0.23220356899E+03  0.24287789524E+03  0.00000000000E+00 0.  1.
         22    1    3    3    0    0 -0.11952456418E+03  0.14754974481E+03  0.18699530013E+03  0.26650382906E+03  0.00000000000E+00 0.  1.
</event>
<event>
 7    1  0.7459264E-005  0.5209156E+03  0.7818608E-02  0.1142425E+00
          2   -1    0    0  502    0  0.00000000000E+00  0.00000000000E+00  0.11355296524E+04  0.11355296524E+04  0.00000000000E+00 0. -1.
          1   -1    0    0  501    0 -0.00000000000E+00 -0.00000000000E+00 -0.84366105061E+03  0.84366105061E+03  0.00000000000E+00 0. -1.
         25    2    1    2    0    0 -0.22253379664E+03 -0.44131691460E+03  0.43584210243E+03  0.67071991670E+03  0.12499983459E+03 0.  0.
          2    1    1    2  501    0  0.30537505409E+03  0.42874954007E+03 -0.62675320789E+03  0.81847399187E+03  0.00000000000E+00 0. -1.
          1    1    1    2  502    0 -0.82841257449E+02  0.12567374534E+02  0.48277970722E+03  0.48999679442E+03  0.00000000000E+00 0. -1.
         22    1    3    3    0    0 -0.12731210053E+03 -0.17665802480E+03  0.12325001932E+03  0.25021390036E+03  0.00000000000E+00 0. -1.
         22    1    3    3    0    0 -0.95221696106E+02 -0.26465888980E+03  0.31259208310E+03  0.42050601634E+03  0.00000000000E+00 0. -1.
</event>
<event>
 7    1  0.7459264E-005  0.1091655E+03  0.7818608E-02  0.1268607E+00
          2   -1    0    0  502    0  0.00000000000E+00  0.00000000000E+00  0.12142715160E+03  0.12142715160E+03  0.00000000000E+00 0. -1.
          1   -1    0    0  501    0 -0.00000000000E+00 -0.00000000000E+00 -0.67570828682E+03  0.67570828682E+03  0.00000000000E+00 0. -1.
         25    2    1    2    0    0 -0.12823515237E+03  0.37006886872E+02 -0.36065449087E+03  0.40436789896E+03  0.12501188723E+03 0.  0.
          2    1    1    2  501    0  0.34820426355E+02 -0.96386509362E+02 -0.24880636688E+03  0.26908628631E+03  0.00000000000E+00 0. -1.
          1    1    1    2  502    0  0.93414726018E+02  0.59379622490E+02  0.55179722527E+02  0.12368125316E+03  0.00000000000E+00 0. -1.
         22    1    3    3    0    0  0.18003598766E+02  0.12655685710E+02 -0.11043039606E+02  0.24622036330E+02  0.00000000000E+00 0. -1.
         22    1    3    3    0    0 -0.14623875114E+03  0.24351201162E+02 -0.34961145126E+03  0.37974586263E+03  0.00000000000E+00 0. -1.
</event>
<event>
 7    1  0.7459264E-005  0.3185425E+03  0.7818608E-02  0.1193338E+00
          2   -1    0    0  502    0  0.00000000000E+00  0.00000000000E+00  0.49627209681E+03  0.49627209681E+03  0.00000000000E+00 0. -1.
          1   -1    0    0  501    0 -0.00000000000E+00 -0.00000000000E+00 -0.72239202629E+03  0.72239202629E+03  0.00000000000E+00 0. -1.
         25    2    1    2    0    0 -0.21127999339E+03 -0.28882688719E+03 -0.77338374647E+02  0.38686726400E+03  0.12499939756E+03 0.  0.
          2    1    1    2  501    0  0.75309313899E+02  0.12598128347E+02 -0.41671722857E+03  0.42365487626E+03  0.00000000000E+00 0. -1.
          1    1    1    2  502    0  0.13597067949E+03  0.27622875884E+03  0.26793567374E+03  0.40814198284E+03  0.00000000000E+00 0. -1.
         22    1    3    3    0    0 -0.74505865269E+02 -0.20573294546E+03 -0.38258566840E+02  0.22212808635E+03  0.00000000000E+00 0. -1.
         22    1    3    3    0    0 -0.13677412812E+03 -0.83093941729E+02 -0.39079807807E+02  0.16473917765E+03  0.00000000000E+00 0. -1.
</event>
<event>
 7    1  0.7459264E-005  0.3628064E+03  0.7818608E-02  0.1185525E+00
          2   -1    0    0  502    0  0.00000000000E+00  0.00000000000E+00  0.52688242429E+03  0.52688242429E+03  0.00000000000E+00 0. -1.
          1   -1    0    0  501    0 -0.00000000000E+00 -0.00000000000E+00 -0.21917494977E+04  0.21917494977E+04  0.00000000000E+00 0. -1.
         25    2    1    2    0    0  0.57312419221E+02 -0.37908226542E+03 -0.21013726187E+03  0.45471727284E+03  0.12498820761E+03 0.  0.
          2    1    1    2  501    0  0.61140814668E+02  0.40049982712E+02 -0.17787297762E+04  0.17802308325E+04  0.00000000000E+00 0. -1.
          1    1    1    2  502    0 -0.11845323389E+03  0.33903228271E+03  0.32399996468E+03  0.48368381661E+03  0.00000000000E+00 0. -1.
         22    1    3    3    0    0  0.35777450185E+02 -0.75266201348E+02 -0.10153550930E+03  0.13135633466E+03  0.00000000000E+00 0. -1.
         22    1    3    3    0    0  0.21534969036E+02 -0.30381606407E+03 -0.10860175258E+03  0.32336093818E+03  0.00000000000E+00 0. -1.
</event>
<event>
 7    1  0.7459264E-005  0.2619175E+03  0.7818608E-02  0.1336549E+00
          2   -1    0    0  502    0  0.00000000000E+00  0.00000000000E+00  0.47132740376E+03  0.47132740376E+03  0.00000000000E+00 0. -1.
          1   -1    0    0  501    0 -0.00000000000E+00 -0.00000000000E+00 -0.79981568846E+03  0.79981568846E+03  0.00000000000E+00 0. -1.
         25    2    1    2    0    0 -0.26766953862E+03  0.87720245782E+02 -0.19961898592E+03  0.36716979230E+03  0.12499637360E+03 0.  0.
          2    1    1    2  501    0  0.20990469394E+02 -0.91100015313E+01 -0.47287431443E+03  0.47342761768E+03  0.00000000000E+00 0. -1.
          1    1    1    2  502    0  0.24667906923E+03 -0.78610244251E+02  0.34400501566E+03  0.43054568224E+03  0.00000000000E+00 0. -1.
         22    1    3    3    0    0 -0.13214401985E+02  0.47342793241E+02 -0.45338468388E+02  0.66869553666E+02  0.00000000000E+00 0.  1.
         22    1    3    3    0    0 -0.25445513663E+03  0.40377452541E+02 -0.15428051754E+03  0.30030023863E+03  0.00000000000E+00 0.  1.
</event>
<event>
 7    1  0.7459264E-005  0.6379681E+02  0.7818608E-02  0.1488546E+00
          2   -1    0    0  502    0  0.00000000000E+00  0.00000000000E+00  0.11715269026E+02  0.11715269026E+02  0.00000000000E+00 0. -1.
          1   -1    0    0  501    0 -0.00000000000E+00 -0.00000000000E+00 -0.17441752925E+04  0.17441752925E+04  0.00000000000E+00 0. -1.
         25    2    1    2    0    0 -0.67908339526E+02 -0.32934901852E+02 -0.54257914909E+03  0.56188518946E+03  0.12500633096E+03 0.  0.
          2    1    1    2  501    0  0.62909946749E+02  0.46562006731E+01 -0.99753517163E+03  0.99952776862E+03  0.00000000000E+00 0. -1.
          1    1    1    2  502    0  0.49983927764E+01  0.28278701179E+02 -0.19234570279E+03  0.19447760347E+03  0.00000000000E+00 0. -1.
         22    1    3    3    0    0 -0.22022199725E+02  0.25553312296E+02 -0.33977180895E+02  0.47878991965E+02  0.00000000000E+00 0. -1.
         22    1    3    3    0    0 -0.45886139801E+02 -0.58488214148E+02 -0.50860196819E+03  0.51400619750E+03  0.00000000000E+00 0. -1.
</event>
<event>
 7    1  0.7459264E-005  0.5332788E+03  0.7818608E-02  0.1119381E+00
          2   -1    0    0  502    0  0.00000000000E+00  0.00000000000E+00  0.29233357741E+04  0.29233357741E+04  0.00000000000E+00 0. -1.
          1   -1    0    0  501    0 -0.00000000000E+00 -0.00000000000E+00 -0.75865890468E+03  0.75865890468E+03  0.00000000000E+00 0. -1.
         25    2    1    2    0    0 -0.26259425600E+03  0.56631400050E+03  0.85022518350E+03  0.10621558764E+04  0.12499981027E+03 0.  0.
          2    1    1    2  501    0  0.18617682833E+03 -0.48919359433E+03 -0.54591679111E+03  0.75630504888E+03  0.00000000000E+00 0. -1.
          1    1    1    2  502    0  0.76417427678E+02 -0.77120406166E+02  0.18603684770E+04  0.18635337536E+04  0.00000000000E+00 0. -1.
         22    1    3    3    0    0 -0.64103354193E+02  0.26006834791E+03  0.41814104760E+03  0.49657499060E+03  0.00000000000E+00 0. -1.
         22    1    3    3    0    0 -0.19849090181E+03  0.30624565259E+03  0.43208413590E+03  0.56558088576E+03  0.00000000000E+00 0. -1.
</event>
<event>
 7    1  0.7459264E-005  0.4405060E+03  0.7818608E-02  0.1174258E+00
          2   -1    0    0  502    0  0.00000000000E+00  0.00000000000E+00  0.27585398799E+04  0.27585398799E+04  0.00000000000E+00 0. -1.
          1   -1    0    0  501    0 -0.00000000000E+00 -0.00000000000E+00 -0.85191208346E+03  0.85191208346E+03  0.00000000000E+00 0. -1.
         25    2    1    2    0    0  0.36500120731E+03 -0.30747224421E+03  0.71974775576E+03  0.87259774136E+03  0.12499969599E+03 0.  0.
          2    1    1    2  501    0 -0.81723119418E+01  0.67835889515E+02 -0.75037935492E+03  0.75348368985E+03  0.00000000000E+00 0. -1.
          1    1    1    2  502    0 -0.35682889537E+03  0.23963635470E+03  0.19372593956E+04  0.19843705321E+04  0.00000000000E+00 0. -1.
         22    1    3    3    0    0  0.25175494854E+03 -0.23606221369E+03  0.60387634136E+03  0.69553760394E+03  0.00000000000E+00 0.  1.
         22    1    3    3    0    0  0.11324625877E+03 -0.71410030521E+02  0.11587141440E+03  0.17706013741E+03  0.00000000000E+00 0.  1.
</event>
<event>
 7    1  0.7459264E-005  0.6100257E+02  0.7818608E-02  0.1456679E+00
          2   -1    0    0  502    0  0.00000000000E+00  0.00000000000E+00  0.10426883790E+04  0.10426883790E+04  0.00000000000E+00 0. -1.
          1   -1    0    0  501    0 -0.00000000000E+00 -0.00000000000E+00 -0.30846266510E+02  0.30846266510E+02  0.00000000000E+00 0. -1.
         25    2    1    2    0    0 -0.46887729608E+02 -0.44985095230E+02  0.30846973547E+03  0.33911688578E+03  0.12499826616E+03 0.  0.
          2    1    1    2  501    0 -0.13893262749E+02  0.35049245028E+02  0.10947963652E+02  0.39259778845E+02  0.00000000000E+00 0. -1.
          1    1    1    2  502    0  0.60780992357E+02  0.99358502026E+01  0.69242441333E+03  0.69515798084E+03  0.00000000000E+00 0. -1.
         22    1    3    3    0    0 -0.48540053568E+02  0.26928593643E+01  0.31182851641E+02  0.57756025906E+02  0.00000000000E+00 0. -1.
         22    1    3    3    0    0  0.16523239599E+01 -0.47677954595E+02  0.27728688383E+03  0.28136085988E+03  0.00000000000E+00 0. -1.
</event>
<event>
 7    1  0.1028526E-004  0.2329547E+03  0.7818608E-02  0.1234014E+00
          2   -1    0    0  502    0  0.00000000000E+00  0.00000000000E+00  0.19159621878E+04  0.19159621878E+04  0.00000000000E+00 0. -1.
          1   -1    0    0  501    0 -0.00000000000E+00 -0.00000000000E+00 -0.10938317610E+04  0.10938317610E+04  0.00000000000E+00 0. -1.
         25    2    1    2    0    0  0.29799452672E+03 -0.15074850674E+02 -0.20804511811E+03  0.38462324956E+03  0.12499713538E+03 0.  0.
          2    1    1    2  501    0 -0.67574089195E+02 -0.55606683968E+01 -0.78871655600E+03  0.79162553285E+03  0.00000000000E+00 0. -1.
          1    1    1    2  502    0 -0.23042043752E+03  0.20635519071E+02  0.18188921009E+04  0.18335451664E+04  0.00000000000E+00 0. -1.
         22    1    3    3    0    0  0.30859993216E+03 -0.62884476709E+01 -0.20494117864E+03  0.37050553222E+03  0.00000000000E+00 0. -1.
         22    1    3    3    0    0 -0.10605405447E+02 -0.87864030032E+01 -0.31039394678E+01  0.14117717331E+02  0.00000000000E+00 0. -1.
</event>
<event>
 7    1  0.7459264E-005  0.3228050E+03  0.7818608E-02  0.1224843E+00
          2   -1    0    0  502    0  0.00000000000E+00  0.00000000000E+00  0.11146298639E+04  0.11146298639E+04  0.00000000000E+00 0. -1.
          1   -1    0    0  501    0 -0.00000000000E+00 -0.00000000000E+00 -0.66440825156E+03  0.66440825156E+03  0.00000000000E+00 0. -1.
         25    2    1    2    0    0 -0.37773691205E+02  0.32369827606E+03 -0.55444040537E+03  0.65516268694E+03  0.12500623013E+03 0.  0.
          2    1    1    2  501    0 -0.11391863712E+02 -0.30186814902E+03  0.33121323483E+03  0.44828156428E+03  0.00000000000E+00 0. -1.
          1    1    1    2  502    0  0.49165554916E+02 -0.21830127042E+02  0.67344878291E+03  0.67559386427E+03  0.00000000000E+00 0. -1.
         22    1    3    3    0    0 -0.77885725628E+02  0.14828394348E+03 -0.29879546360E+03  0.34253911195E+03  0.00000000000E+00 0. -1.
         22    1    3    3    0    0  0.40112034423E+02  0.17541433258E+03 -0.25564494177E+03  0.31262357498E+03  0.00000000000E+00 0. -1.
</event>
<event>
 7    1  0.7459264E-005  0.1980847E+03  0.7818608E-02  0.1243151E+00
          2   -1    0    0  502    0  0.00000000000E+00  0.00000000000E+00  0.34006319722E+04  0.34006319722E+04  0.00000000000E+00 0. -1.
          1   -1    0    0  501    0 -0.00000000000E+00 -0.00000000000E+00 -0.66597439665E+02  0.66597439665E+02  0.00000000000E+00 0. -1.
         25    2    1    2    0    0  0.11283147419E+03  0.23589303225E+03  0.13585726932E+04  0.13891441020E+04  0.12500043659E+03 0.  0.
          2    1    1    2  501    0 -0.72251458678E+02 -0.17562459333E+03  0.12759307357E+03  0.22878868741E+03  0.00000000000E+00 0. -1.
          1    1    1    2  502    0 -0.40580015512E+02 -0.60268438919E+02  0.18478687658E+04  0.18492966225E+04  0.00000000000E+00 0. -1.
         22    1    3    3    0    0  0.95357954230E+02  0.20758240521E+03  0.13129785378E+04  0.13327026056E+04  0.00000000000E+00 0. -1.
         22    1    3    3    0    0  0.17473519959E+02  0.28310627033E+02  0.45594155442E+02  0.56441496377E+02  0.00000000000E+00 0. -1.
</event>
<event>
 7    1  0.7459264E-005  0.5583460E+02  0.7818608E-02  0.1526092E+00
          2   -1    0    0  502    0  0.00000000000E+00  0.00000000000E+00  0.14254717959E+03  0.14254717959E+03  0.00000000000E+00 0. -1.
          1   -1    0    0  501    0 -0.00000000000E+00 -0.00000000000E+00 -0.10177007506E+04  0.10177007506E+04  0.00000000000E+00 0. -1.
         25    2    1    2    0    0  0.77028836561E+02 -0.11309594864E+02 -0.63779787576E+03  0.65457910979E+03  0.12500532808E+03 0.  0.
          2    1    1    2  501    0 -0.24452635004E+02 -0.69278416099E+01 -0.36528067656E+03  0.36616375984E+03  0.00000000000E+00 0. -1.
          1    1    1    2  502    0 -0.52576201557E+02  0.18237436474E+02  0.12792498135E+03  0.13950506053E+03  0.00000000000E+00 0. -1.
         22    1    3    3    0    0 -0.10806459114E+02  0.36844166521E+02 -0.29365525029E+03  0.29615482131E+03  0.00000000000E+00 0.  1.
         22    1    3    3    0    0  0.87835295675E+02 -0.48153761386E+02 -0.34414262547E+03  0.35842428847E+03  0.00000000000E+00 0.  1.
</event>
<event>
 7    1  0.7459264E-005  0.3783171E+03  0.7818608E-02  0.1101468E+00
          2   -1    0    0  502    0  0.00000000000E+00  0.00000000000E+00  0.17981467139E+04  0.17981467139E+04  0.00000000000E+00 0. -1.
          1   -1    0    0  501    0 -0.00000000000E+00 -0.00000000000E+00 -0.66115184034E+03  0.66115184034E+03  0.00000000000E+00 0. -1.
         25    2    1    2    0    0  0.44852914378E+03 -0.19786061652E+03  0.10365303657E+04  0.11534069816E+04  0.12500099883E+03 0.  0.
          2    1    1    2  501    0 -0.14365174805E+03  0.12773075724E+03 -0.55080369330E+03  0.58338296137E+03  0.00000000000E+00 0. -1.
          1    1    1    2  502    0 -0.30487739573E+03  0.70129859275E+02  0.65126820109E+03  0.72250861125E+03  0.00000000000E+00 0. -1.
         22    1    3    3    0    0  0.19053700949E+03 -0.19656237236E+02  0.36174122466E+03  0.40932558345E+03  0.00000000000E+00 0.  1.
         22    1    3    3    0    0  0.25799213429E+03 -0.17820437928E+03  0.67478914108E+03  0.74408139815E+03  0.00000000000E+00 0.  1.
</event>
<event>
 7    1  0.7459264E-005  0.6092058E+03  0.7818608E-02  0.1147780E+00
          2   -1    0    0  502    0  0.00000000000E+00  0.00000000000E+00  0.12705587211E+04  0.12705587211E+04  0.00000000000E+00 0. -1.
          1   -1    0    0  501    0 -0.00000000000E+00 -0.00000000000E+00 -0.60478258979E+03  0.60478258979E+03  0.00000000000E+00 0. -1.
         25    2    1    2    0    0  0.56216176717E+03  0.31061450977E+03  0.36123294756E+03  0.74741136902E+03  0.12500914363E+03 0.  0.
          2    1    1    2  501    0 -0.66754044561E+02  0.77702973769E+01 -0.28608938293E+03  0.29387687049E+03  0.00000000000E+00 0. -1.
          1    1    1    2  502    0 -0.49540772261E+03 -0.31838480715E+03  0.59063256667E+03  0.83405307136E+03  0.00000000000E+00 0. -1.
         22    1    3    3    0    0  0.64909637032E+02  0.23957737552E+02  0.87405969887E+02  0.11147662419E+03  0.00000000000E+00 0.  1.
         22    1    3    3    0    0  0.49725213014E+03  0.28665677222E+03  0.27382697767E+03  0.63593474483E+03  0.00000000000E+00 0.  1.
</event>
<event>
 7    1  0.7459264E-005  0.7128532E+03  0.7818608E-02  0.1078044E+00
          2   -1    0    0  502    0  0.00000000000E+00  0.00000000000E+00  0.21545679764E+04  0.21545679764E+04  0.00000000000E+00 0. -1.
          1   -1    0    0  501    0 -0.00000000000E+00 -0.00000000000E+00 -0.47128021922E+03  0.47128021922E+03  0.00000000000E+00 0. -1.
         25    2    1    2    0    0  0.61807311846E+03 -0.25787935033E+03  0.92994352615E+03  0.11527947252E+04  0.12499831020E+03 0.  0.
          2    1    1    2  501    0  0.44905913185E+02 -0.13161184187E+03 -0.20291507673E+03  0.24599338675E+03  0.00000000000E+00 0. -1.
          1    1    1    2  502    0 -0.66297903165E+03  0.38949119220E+03  0.95625930771E+03  0.12270600836E+04  0.00000000000E+00 0. -1.
         22    1    3    3    0    0  0.56438370086E+03 -0.24015151046E+03  0.77817955203E+03  0.99084061532E+03  0.00000000000E+00 0. -1.
         22    1    3    3    0    0  0.53689417601E+02 -0.17727839868E+02  0.15176397413E+03  0.16195410989E+03  0.00000000000E+00 0. -1.
</event>
<event>
 7    1  0.7459264E-005  0.2041944E+03  0.7818608E-02  0.1200563E+00
          2   -1    0    0  502    0  0.00000000000E+00  0.00000000000E+00  0.71509853758E+03  0.71509853758E+03  0.00000000000E+00 0. -1.
          1   -1    0    0  501    0 -0.00000000000E+00 -0.00000000000E+00 -0.13533655653E+03  0.13533655653E+03  0.00000000000E+00 0. -1.
         25    2    1    2    0    0  0.36881359148E+02  0.24517568504E+03  0.34214329827E+03  0.44063401579E+03  0.12499979255E+03 0.  0.
          2    1    1    2  501    0  0.56279619658E+02 -0.18653235434E+03  0.65619244775E+02  0.20559085605E+03  0.00000000000E+00 0. -1.
          1    1    1    2  502    0 -0.93160978806E+02 -0.58643330695E+02  0.17199943801E+03  0.20421022228E+03  0.00000000000E+00 0. -1.
         22    1    3    3    0    0  0.22712956403E+02  0.22062750041E+03  0.34704988489E+03  0.41186890503E+03  0.00000000000E+00 0.  1.
         22    1    3    3    0    0  0.14168402745E+02  0.24548184624E+02 -0.49065866279E+01  0.28765110759E+02  0.00000000000E+00 0.  1.
</event>
<event>
 7    1  0.7459264E-005  0.5173782E+03  0.7818608E-02  0.1047925E+00
          2   -1    0    0  502    0  0.00000000000E+00  0.00000000000E+00  0.30402349645E+04  0.30402349645E+04  0.00000000000E+00 0. -1.
          1   -1    0    0  501    0 -0.00000000000E+00 -0.00000000000E+00 -0.48333230499E+03  0.48333230499E+03  0.00000000000E+00 0. -1.
         25    2    1    2    0    0  0.73113111162E+03  0.68820462263E+02  0.69947199757E+03  0.10218496624E+04  0.12500679461E+03 0.  0.
          2    1    1    2  501    0 -0.27598831443E+03  0.93370808751E+02 -0.22237621038E+03  0.36652262764E+03  0.00000000000E+00 0. -1.
          1    1    1    2  502    0 -0.45514279720E+03 -0.16219127101E+03  0.20798068723E+04  0.21351949795E+04  0.00000000000E+00 0. -1.
         22    1    3    3    0    0  0.46298166053E+03 -0.46642348814E+01  0.38564192250E+03  0.60257237363E+03  0.00000000000E+00 0.  1.
         22    1    3    3    0    0  0.26814945109E+03  0.73484697144E+02  0.31383007507E+03  0.41927728874E+03  0.00000000000E+00 0.  1.
</event>
<event>
 7    1  0.1023946E-004  0.4764017E+03  0.7818608E-02  0.1233426E+00
          2   -1    0    0  502    0  0.00000000000E+00  0.00000000000E+00  0.23571051402E+04  0.23571051402E+04  0.00000000000E+00 0. -1.
          1   -1    0    0  501    0 -0.00000000000E+00 -0.00000000000E+00 -0.11736986210E+04  0.11736986210E+04  0.00000000000E+00 0. -1.
         25    2    1    2    0    0  0.34381995962E+01  0.47012454642E+03 -0.32733105155E+03  0.58634772636E+03  0.12501651306E+03 0.  0.
          2    1    1    2  501    0  0.28464736071E+02 -0.47985983096E+03 -0.63612896738E+03  0.79733039683E+03  0.00000000000E+00 0. -1.
          1    1    1    2  502    0 -0.31902935667E+02  0.97352845362E+01  0.21468665381E+04  0.21471256380E+04  0.00000000000E+00 0. -1.
         22    1    3    3    0    0  0.63490806379E+02  0.27597772315E+03 -0.19532692715E+03  0.34401656158E+03  0.00000000000E+00 0. -1.
         22    1    3    3    0    0 -0.60052606783E+02  0.19414682327E+03 -0.13200412440E+03  0.24233116478E+03  0.00000000000E+00 0. -1.
</event>
<event>
 7    1  0.7459264E-005  0.1931302E+03  0.7818608E-02  0.1209723E+00
          2   -1    0    0  502    0  0.00000000000E+00  0.00000000000E+00  0.82075382251E+03  0.82075382251E+03  0.00000000000E+00 0. -1.
          1   -1    0    0  501    0 -0.00000000000E+00 -0.00000000000E+00 -0.43595021161E+03  0.43595021161E+03  0.00000000000E+00 0. -1.
         25    2    1    2    0    0  0.64240377148E+02 -0.16387385758E+03  0.42509043853E+03  0.47676902125E+03  0.12500140572E+03 0.  0.
          2    1    1    2  501    0  0.10508257918E+03  0.89015390144E+01 -0.36632484995E+03  0.38120267777E+03  0.00000000000E+00 0. -1.
          1    1    1    2  502    0 -0.16932295633E+03  0.15497231857E+03  0.32603802232E+03  0.39873233511E+03  0.00000000000E+00 0. -1.
         22    1    3    3    0    0  0.56421359568E+02 -0.93290376547E+02  0.37324504674E+03  0.38884229333E+03  0.00000000000E+00 0.  1.
         22    1    3    3    0    0  0.78190175804E+01 -0.70583481035E+02  0.51845391799E+02  0.87926727915E+02  0.00000000000E+00 0.  1.
</event>
<event>
 7    1  0.7459264E-005  0.6121410E+03  0.7818608E-02  0.1133445E+00
          2   -1    0    0  502    0  0.00000000000E+00  0.00000000000E+00  0.19947559652E+04  0.19947559652E+04  0.00000000000E+00 0. -1.
          1   -1    0    0  501    0 -0.00000000000E+00 -0.00000000000E+00 -0.87434100707E+03  0.87434100707E+03  0.00000000000E+00 0. -1.
         25    2    1    2    0    0  0.53841760660E+03  0.39787912858E+03  0.41624148727E+03  0.79817524468E+03  0.12500170172E+03 0.  0.
          2    1    1    2  501    0 -0.74125239711E+02 -0.28708864795E+02 -0.61731407345E+03  0.62241096982E+03  0.00000000000E+00 0. -1.
          1    1    1    2  502    0 -0.46429236689E+03 -0.36917026378E+03  0.13214875443E+04  0.14485107578E+04  0.00000000000E+00 0. -1.
         22    1    3    3    0    0  0.10739920888E+03  0.41998809802E+02  0.31289780815E+02  0.11948866254E+03  0.00000000000E+00 0.  1.
         22    1    3    3    0    0  0.43101839772E+03  0.35588031878E+03  0.38495170646E+03  0.67868658214E+03  0.00000000000E+00 0.  1.
</event>
<event>
 7    1  0.7587732E-005  0.3330124E+03  0.7818608E-02  0.1311185E+00
          2   -1    0    0  502    0  0.00000000000E+00  0.00000000000E+00  0.17734160875E+04  0.17734160875E+04  0.00000000000E+00 0. -1.
          1   -1    0    0  501    0 -0.00000000000E+00 -0.00000000000E+00 -0.13885872667E+04  0.13885872667E+04  0.00000000000E+00 0. -1.
         25    2    1    2    0    0 -0.31863427711E+03  0.91598529699E+02 -0.67808437997E+03  0.76507608992E+03  0.12499961525E+03 0.  0.
          2    1    1    2  501    0 -0.69550778634E+01 -0.21444332278E+02 -0.65077894963E+03  0.65116931268E+03  0.00000000000E+00 0. -1.
          1    1    1    2  502    0  0.32558935497E+03 -0.70154197421E+02  0.17136921503E+04  0.17457579516E+04  0.00000000000E+00 0. -1.
         22    1    3    3    0    0 -0.32303039316E+03  0.68100482618E+02 -0.63953101877E+03  0.71971260556E+03  0.00000000000E+00 0. -1.
         22    1    3    3    0    0  0.43961160519E+01  0.23498047081E+02 -0.38553361204E+02  0.45363484358E+02  0.00000000000E+00 0. -1.
</event>
<event>
 7    1  0.7459264E-005  0.5961116E+03  0.7818608E-02  0.1141304E+00
          2   -1    0    0  502    0  0.00000000000E+00  0.00000000000E+00  0.27888512611E+04  0.27888512611E+04  0.00000000000E+00 0. -1.
          1   -1    0    0  501    0 -0.00000000000E+00 -0.00000000000E+00 -0.89350100576E+03  0.89350100576E+03  0.00000000000E+00 0. -1.
         25    2    1    2    0    0  0.13588393293E+03  0.60720853943E+03 -0.59356702069E+02  0.63742963940E+03  0.12500669389E+03 0.  0.
          2    1    1    2  501    0 -0.67118481974E+02 -0.57929907525E+03 -0.38837726451E+03  0.70066340621E+03  0.00000000000E+00 0. -1.
          1    1    1    2  502    0 -0.68765450957E+02 -0.27909464180E+02  0.23430842220E+04  0.23442592213E+04  0.00000000000E+00 0. -1.
         22    1    3    3    0    0 -0.16267288695E+01  0.22674707015E+03 -0.52838764247E+02  0.23282786577E+03  0.00000000000E+00 0. -1.
         22    1    3    3    0    0  0.13751066180E+03  0.38046146928E+03 -0.65179378221E+01  0.40460177363E+03  0.00000000000E+00 0. -1.
</event>
<event>
 7    1  0.7459264E-005  0.2654251E+03  0.7818608E-02  0.1281597E+00
          2   -1    0    0  502    0  0.00000000000E+00  0.00000000000E+00  0.10601942516E+04  0.10601942516E+04  0.00000000000E+00 0. -1.
          1   -1    0    0  501    0 -0.00000000000E+00 -0.00000000000E+00 -0.14402103563E+04  0.14402103563E+04  0.00000000000E+00 0. -1.
         25    2    1    2    0    0 -0.22394497947E+03  0.14106726568E+03  0.97744432880E+03  0.10203306651E+04  0.12500369168E+03 0.  0.
          2    1    1    2  501    0 -0.28784503186E+02 -0.23584241436E+02 -0.11000736710E+04  0.11007028871E+04  0.00000000000E+00 0. -1.
          1    1    1    2  502    0  0.25272948266E+03 -0.11748302425E+03 -0.25738676253E+03  0.37937105572E+03  0.00000000000E+00 0. -1.
         22    1    3    3    0    0 -0.28294338850E+01  0.53645849514E+02  0.21882449289E+03  0.22532208403E+03  0.00000000000E+00 0.  1.
         22    1    3    3    0    0 -0.22111554559E+03  0.87421416169E+02  0.75861983592E+03  0.79500858106E+03  0.00000000000E+00 0.  1.
</event>
<event>
 7    1  0.1161430E-004  0.3856148E+03  0.7818608E-02  0.1151346E+00
          2   -1    0    0  502    0  0.00000000000E+00  0.00000000000E+00  0.14758753519E+04  0.14758753519E+04  0.00000000000E+00 0. -1.
          1   -1    0    0  501    0 -0.00000000000E+00 -0.00000000000E+00 -0.14848607141E+04  0.14848607141E+04  0.00000000000E+00 0. -1.
         25    2    1    2    0    0 -0.16251405044E+03  0.31522236335E+03 -0.37513188308E+03  0.53115310892E+03  0.12499496175E+03 0.  0.
          2    1    1    2  501    0 -0.97990092435E+02 -0.27500080156E+02 -0.10021487967E+04  0.10073035905E+04  0.00000000000E+00 0. -1.
          1    1    1    2  502    0  0.26050414287E+03 -0.28772228320E+03  0.13682953175E+04  0.14222793666E+04  0.00000000000E+00 0. -1.
         22    1    3    3    0    0 -0.15121186659E+03  0.28257750093E+03 -0.37905541581E+03  0.49638501275E+03  0.00000000000E+00 0. -1.
         22    1    3    3    0    0 -0.11302183849E+02  0.32644862425E+02  0.39235327238E+01  0.34768096174E+02  0.00000000000E+00 0. -1.
</event>
<event>
 7    1  0.7459264E-005  0.5037340E+03  0.7818608E-02  0.1170586E+00
          2   -1    0    0  502    0  0.00000000000E+00  0.00000000000E+00  0.38625872241E+04  0.38625872241E+04  0.00000000000E+00 0. -1.
          1   -1    0    0  501    0 -0.00000000000E+00 -0.00000000000E+00 -0.34062283311E+03  0.34062283311E+03  0.00000000000E+00 0. -1.
         25    2    1    2    0    0  0.47712825120E+03 -0.17747499771E+03 -0.14246522344E+01  0.52419006684E+03  0.12499781450E+03 0.  0.
          2    1    1    2  501    0 -0.43616971031E+03  0.22442103443E+03  0.69896658109E+03  0.85391047445E+03  0.00000000000E+00 0. -1.
          1    1    1    2  502    0 -0.40958540893E+02 -0.46946036715E+02  0.28244224621E+04  0.28251095159E+04  0.00000000000E+00 0. -1.
         22    1    3    3    0    0  0.13178269450E+03 -0.99926951439E+02  0.32759329392E+02  0.16859788805E+03  0.00000000000E+00 0. -1.
         22    1    3    3    0    0  0.34534555670E+03 -0.77548046272E+02 -0.34183981627E+02  0.35559217878E+03  0.00000000000E+00 0. -1.
</event>
<event>
 7    1  0.7459264E-005  0.3055683E+03  0.7818608E-02  0.1254804E+00
          2   -1    0    0  502    0  0.00000000000E+00  0.00000000000E+00  0.71350782537E+03  0.71350782537E+03  0.00000000000E+00 0. -1.
          1   -1    0    0  501    0 -0.00000000000E+00 -0.00000000000E+00 -0.39567891549E+03  0.39567891549E+03  0.00000000000E+00 0. -1.
         25    2    1    2    0    0 -0.18804463976E+02 -0.31814991728E+03  0.91064615464E+02  0.35424686570E+03  0.12500039975E+03 0.  0.
          2    1    1    2  501    0 -0.35917961641E+02  0.21606525079E+02 -0.21556421862E+03  0.21960162623E+03  0.00000000000E+00 0. -1.
          1    1    1    2  502    0  0.54722425616E+02  0.29654339220E+03  0.44232851304E+03  0.53533824893E+03  0.00000000000E+00 0. -1.
         22    1    3    3    0    0 -0.59273091388E+02 -0.13331831170E+03  0.75815307026E+02  0.16442333283E+03  0.00000000000E+00 0. -1.
         22    1    3    3    0    0  0.40468627412E+02 -0.18483160557E+03  0.15249308438E+02  0.18982353287E+03  0.00000000000E+00 0. -1.
</event>
<event>
 7    1  0.7459264E-005  0.9761391E+02  0.7818608E-02  0.1311562E+00
          2   -1    0    0  502    0  0.00000000000E+00  0.00000000000E+00  0.29723976072E+03  0.29723976072E+03  0.00000000000E+00 0. -1.
          1   -1    0    0  501    0 -0.00000000000E+00 -0.00000000000E+00 -0.88527618646E+03  0.88527618646E+03  0.00000000000E+00 0. -1.
         25    2    1    2    0    0 -0.13257431605E+03  0.98797038541E+01 -0.77589648663E+02  0.19828978932E+03  0.12500051658E+03 0.  0.
          2    1    1    2  501    0  0.57386100830E+02  0.50809893008E+02 -0.73540797960E+03  0.73939144318E+03  0.00000000000E+00 0. -1.
          1    1    1    2  502    0  0.75188215224E+02 -0.60689596862E+02  0.22496120251E+03  0.24483471468E+03  0.00000000000E+00 0. -1.
         22    1    3    3    0    0  0.17753434505E+01 -0.36418965509E+02 -0.33470105898E+02  0.49494857126E+02  0.00000000000E+00 0.  1.
         22    1    3    3    0    0 -0.13434965950E+03  0.46298669363E+02 -0.44119542765E+02  0.14879493220E+03  0.00000000000E+00 0.  1.
</event>
<event>
 7    1  0.7459264E-005  0.3327162E+03  0.7818608E-02  0.1151723E+00
          2   -1    0    0  502    0  0.00000000000E+00  0.00000000000E+00  0.96858346581E+03  0.96858346581E+03  0.00000000000E+00 0. -1.
          1   -1    0    0  501    0 -0.00000000000E+00 -0.00000000000E+00 -0.11144983577E+04  0.11144983577E+04  0.00000000000E+00 0. -1.
         25    2    1    2    0    0  0.11317817637E+03  0.29890131193E+03 -0.58334970794E+03  0.67681103631E+03  0.12500001295E+03 0.  0.
          2    1    1    2  501    0 -0.14273125780E+02 -0.36221404346E+03 -0.41199335659E+03  0.54876339280E+03  0.00000000000E+00 0. -1.
          1    1    1    2  502    0 -0.98905050588E+02  0.63312731531E+02  0.84942817264E+03  0.85750739441E+03  0.00000000000E+00 0. -1.
         22    1    3    3    0    0  0.13363025331E+03  0.24713975798E+03 -0.52922041448E+03  0.59917389101E+03  0.00000000000E+00 0.  1.
         22    1    3    3    0    0 -0.20452076945E+02  0.51761553947E+02 -0.54129293464E+02  0.77637145294E+02  0.00000000000E+00 0.  1.
</event>
<event>
 7    1  0.7459264E-005  0.1196302E+04  0.7818608E-02  0.9768531E-01
          2   -1    0    0  502    0  0.00000000000E+00  0.00000000000E+00  0.17769439932E+04  0.17769439932E+04  0.00000000000E+00 0. -1.
          1   -1    0    0  501    0 -0.00000000000E+00 -0.00000000000E+00 -0.21253679522E+04  0.21253679522E+04  0.00000000000E+00 0. -1.
         25    2    1    2    0    0  0.14051406605E+04  0.33643289494E+03 -0.41912010624E+03  0.15096006196E+04  0.12499999457E+03 0.  0.
          2    1    1    2  501    0 -0.10648218798E+04 -0.17626544391E+03 -0.86569856140E+03  0.13836000657E+04  0.00000000000E+00 0. -1.
          1    1    1    2  502    0 -0.34031878067E+03 -0.16016745103E+03  0.93639470865E+03  0.10091112601E+04  0.00000000000E+00 0. -1.
         22    1    3    3    0    0  0.93376483724E+03  0.16517947549E+03 -0.29236989679E+03  0.99231103337E+03  0.00000000000E+00 0. -1.
         22    1    3    3    0    0  0.47137582327E+03  0.17125341945E+03 -0.12675020945E+03  0.51728958624E+03  0.00000000000E+00 0. -1.
</event>
<event>
 7    1  0.7459264E-005  0.3917857E+03  0.7818608E-02  0.1154127E+00
          2   -1    0    0  502    0  0.00000000000E+00  0.00000000000E+00  0.29723249547E+04  0.29723249547E+04  0.00000000000E+00 0. -1.
          1   -1    0    0  501    0 -0.00000000000E+00 -0.00000000000E+00 -0.58418639592E+03  0.58418639592E+03  0.00000000000E+00 0. -1.
         25    2    1    2    0    0  0.33056289400E+03 -0.66985907037E+01  0.11928461250E+04  0.12441157877E+04  0.12500206970E+03 0.  0.
          2    1    1    2  501    0 -0.38619098851E+03  0.86092104249E+02 -0.48690854670E+03  0.62740358850E+03  0.00000000000E+00 0. -1.
          1    1    1    2  502    0  0.55628094510E+02 -0.79393513546E+02  0.16822009805E+04  0.16849919744E+04  0.00000000000E+00 0. -1.
         22    1    3    3    0    0  0.31827060991E+03  0.19874973060E+02  0.10162234996E+04  0.10650828122E+04  0.00000000000E+00 0.  1.
         22    1    3    3    0    0  0.12292284087E+02 -0.26573563763E+02  0.17662262538E+03  0.17903297555E+03  0.00000000000E+00 0.  1.
</event>
<event>
 7    1  0.7459264E-005  0.1798801E+03  0.7818608E-02  0.1210720E+00
          2   -1    0    0  502    0  0.00000000000E+00  0.00000000000E+00  0.16304251448E+04  0.16304251448E+04  0.00000000000E+00 0. -1.
          1   -1    0    0  501    0 -0.00000000000E+00 -0.00000000000E+00 -0.72371974541E+02  0.72371974541E+02  0.00000000000E+00 0. -1.
         25    2    1    2    0    0  0.15528245030E+03  0.12599227157E+03  0.39659391827E+03  0.46140966167E+03  0.12500179202E+03 0.  0.
          2    1    1    2  501    0 -0.18001939118E+03 -0.16729407269E+02  0.18554168854E+03  0.25906094352E+03  0.00000000000E+00 0. -1.
          1    1    1    2  502    0  0.24736940881E+02 -0.10926286430E+03  0.97591756350E+03  0.98232651420E+03  0.00000000000E+00 0. -1.
         22    1    3    3    0    0  0.15710894359E+03  0.79526314491E+02  0.36480498979E+03  0.40508065299E+03  0.00000000000E+00 0.  1.
         22    1    3    3    0    0 -0.18264932882E+01  0.46465957080E+02  0.31788928485E+02  0.56329008684E+02  0.00000000000E+00 0.  1.
</event>
<event>
 7    1  0.7459264E-005  0.6752750E+02  0.7818608E-02  0.1415449E+00
          2   -1    0    0  502    0  0.00000000000E+00  0.00000000000E+00  0.12398985635E+04  0.12398985635E+04  0.00000000000E+00 0. -1.
          1   -1    0    0  501    0 -0.00000000000E+00 -0.00000000000E+00 -0.95470137428E+03  0.95470137428E+03  0.00000000000E+00 0. -1.
         25    2    1    2    0    0  0.11116306730E+03 -0.36878996546E+01 -0.12829742611E+03  0.21084489498E+03  0.12499804822E+03 0.  0.
          2    1    1    2  501    0 -0.45308817835E+02 -0.10154062496E+02 -0.78349784078E+03  0.78487251223E+03  0.00000000000E+00 0. -1.
          1    1    1    2  502    0 -0.65854249468E+02  0.13841962151E+02  0.11969924561E+04  0.11988825305E+04  0.00000000000E+00 0. -1.
         22    1    3    3    0    0  0.38937097355E+02 -0.52188532042E+01 -0.13277416949E+03  0.13846412554E+03  0.00000000000E+00 0. -1.
         22    1    3    3    0    0  0.72225969948E+02  0.15309535496E+01  0.44767433765E+01  0.72380769442E+02  0.00000000000E+00 0. -1.
</event>
<event>
 7    1  0.7459264E-005  0.4833917E+03  0.7818608E-02  0.1220945E+00
          2   -1    0    0  502    0  0.00000000000E+00  0.00000000000E+00  0.15936565231E+04  0.15936565231E+04  0.00000000000E+00 0. -1.
          1   -1    0    0  501    0 -0.00000000000E+00 -0.00000000000E+00 -0.94220351182E+03  0.94220351182E+03  0.00000000000E+00 0. -1.
         25    2    1    2    0    0 -0.38326952695E+03  0.27677935644E+03 -0.32462277392E+03  0.58694757149E+03  0.12500065557E+03 0.  0.
          2    1    1    2  501    0  0.38130427464E+03 -0.31414439606E+03 -0.36064160877E+03  0.61167149795E+03  0.00000000000E+00 0. -1.
          1    1    1    2  502    0  0.19652523090E+01  0.37365039621E+02  0.13367173940E+04  0.13372409655E+04  0.00000000000E+00 0. -1.
         22    1    3    3    0    0 -0.12667277160E+03  0.24226610526E+02 -0.86602600776E+02  0.15534777173E+03  0.00000000000E+00 0.  1.
         22    1    3    3    0    0 -0.25659675535E+03  0.25255274592E+03 -0.23802017314E+03  0.43159979975E+03  0.00000000000E+00 0.  1.
</event>
<event>
 7    1  0.7459264E-005  0.1300257E+03  0.7818608E-02  0.1383662E+00
          2   -1    0    0  502    0  0.00000000000E+00  0.00000000000E+00  0.93580731262E+02  0.93580731262E+02  0.00000000000E+00 0. -1.
          1   -1    0    0  501    0 -0.00000000000E+00 -0.00000000000E+00 -0.24193280098E+04  0.24193280098E+04  0.00000000000E+00 0. -1.
         25    2    1    2    0    0 -0.79948217672E+02 -0.92953584129E+02 -0.21176318860E+03  0.27477234660E+03  0.12499643235E+03 0.  0.
          2    1    1    2  501    0  0.59557053599E+02  0.11633200647E+03 -0.21700919062E+04  0.21740237026E+04  0.00000000000E+00 0. -1.
          1    1    1    2  502    0  0.20391164073E+02 -0.23378422341E+02  0.56107816264E+02  0.64112691796E+02  0.00000000000E+00 0. -1.
         22    1    3    3    0    0 -0.51908150798E+02 -0.38468683821E+02 -0.20280057464E+03  0.21284353133E+03  0.00000000000E+00 0. -1.
         22    1    3    3    0    0 -0.28040066875E+02 -0.54484900308E+02 -0.89626139523E+01  0.61928815270E+02  0.00000000000E+00 0. -1.
</event>
<event>
 7    1  0.7459264E-005  0.9833394E+02  0.7818608E-02  0.1311156E+00
          2   -1    0    0  502    0  0.00000000000E+00  0.00000000000E+00  0.19005859200E+04  0.19005859200E+04  0.00000000000E+00 0. -1.
          1   -1    0    0  501    0 -0.00000000000E+00 -0.00000000000E+00 -0.64167135731E+03  0.64167135731E+03  0.00000000000E+00 0. -1.
         25    2    1    2    0    0  0.31354792404E+02  0.33960577880E+02  0.12944818649E+03  0.18579272641E+03  0.12500264135E+03 0.  0.
          2    1    1    2  501    0 -0.10005888068E+03 -0.62019508019E+00 -0.60857511447E+03  0.61674616675E+03  0.00000000000E+00 0. -1.
          1    1    1    2  502    0  0.68704088274E+02 -0.33340382799E+02  0.17380414907E+04  0.17397183842E+04  0.00000000000E+00 0. -1.
         22    1    3    3    0    0  0.31991122822E+02 -0.10993027223E+02 -0.13136313163E+02  0.36288308178E+02  0.00000000000E+00 0.  1.
         22    1    3    3    0    0 -0.63633041744E+00  0.44953605102E+02  0.14258449966E+03  0.14950441823E+03  0.00000000000E+00 0.  1.
</event>
<event>
 7    1  0.7459264E-005  0.3266726E+03  0.7818608E-02  0.1163362E+00
          2   -1    0    0  502    0  0.00000000000E+00  0.00000000000E+00  0.66469401204E+03  0.66469401204E+03  0.00000000000E+00 0. -1.
          1   -1    0    0  501    0 -0.00000000000E+00 -0.00000000000E+00 -0.99167337565E+03  0.99167337565E+03  0.00000000000E+00 0. -1.
         25    2    1    2    0    0  0.24022927349E+03  0.23558616514E+03 -0.51667093147E+03  0.62911412810E+03  0.12499915884E+03 0.  0.
          2    1    1    2  501    0 -0.14973968213E+03 -0.28763457434E+03 -0.35024817281E+03  0.47731478431E+03  0.00000000000E+00 0. -1.
          1    1    1    2  502    0 -0.90489591353E+02  0.52048409199E+02  0.53993974067E+03  0.54993847528E+03  0.00000000000E+00 0. -1.
         22    1    3    3    0    0  0.22238257982E+03  0.24934535349E+03 -0.49878181196E+03  0.60034191345E+03  0.00000000000E+00 0.  1.
         22    1    3    3    0    0  0.17846693670E+02 -0.13759188347E+02 -0.17889119510E+02  0.28772214648E+02  0.00000000000E+00 0.  1.
</event>
<event>
 7    1  0.7459264E-005  0.9208968E+02  0.7818608E-02  0.1384057E+00
          2   -1    0    0  502    0  0.00000000000E+00  0.00000000000E+00  0.88830339253E+03  0.88830339253E+03  0.00000000000E+00 0. -1.
          1   -1    0    0  501    0 -0.00000000000E+00 -0.00000000000E+00 -0.68892651614E+03  0.68892651614E+03  0.00000000000E+00 0. -1.
         25    2    1    2    0    0 -0.92342072990E+02  0.64806720850E+02 -0.46015371210E+03  0.48999270786E+03  0.12499778194E+03 0.  0.
          2    1    1    2  501    0  0.28013691877E+01 -0.43571129004E+02 -0.20916886882E+03  0.21367710835E+03  0.00000000000E+00 0. -1.
          1    1    1    2  502    0  0.89540703803E+02 -0.21235591846E+02  0.86869945731E+03  0.87356009245E+03  0.00000000000E+00 0. -1.
         22    1    3    3    0    0 -0.41955840261E+02  0.21615075903E+02 -0.32699565148E+02  0.57417467718E+02  0.00000000000E+00 0. -1.
         22    1    3    3    0    0 -0.50386232729E+02  0.43191644947E+02 -0.42745414695E+03  0.43257524014E+03  0.00000000000E+00 0. -1.
</event>
<event>
 7    1  0.7459264E-005  0.2423121E+03  0.7818608E-02  0.1219420E+00
          2   -1    0    0  502    0  0.00000000000E+00  0.00000000000E+00  0.28328152415E+03  0.28328152415E+03  0.00000000000E+00 0. -1.
          1   -1    0    0  501    0 -0.00000000000E+00 -0.00000000000E+00 -0.22203543260E+04  0.22203543260E+04  0.00000000000E+00 0. -1.
         25    2    1    2    0    0  0.14151211121E+02  0.20948166100E+03 -0.28816129030E+03  0.37781542571E+03  0.12499897443E+03 0.  0.
          2    1    1    2  501    0 -0.85778073876E+02 -0.23443045825E+03 -0.18728358481E+04  0.18893992780E+04  0.00000000000E+00 0. -1.
          1    1    1    2  502    0  0.71626862755E+02  0.24948797257E+02  0.22392433659E+03  0.23642114641E+03  0.00000000000E+00 0. -1.
         22    1    3    3    0    0  0.18617971422E+02  0.22142574733E+03 -0.28955164251E+03  0.36498786846E+03  0.00000000000E+00 0.  1.
         22    1    3    3    0    0 -0.44667603015E+01 -0.11944086333E+02  0.13903522082E+01  0.12827557257E+02  0.00000000000E+00 0.  1.
</event>
<event>
 7    1  0.7459264E-005  0.5055983E+02  0.7818608E-02  0.1562012E+00
          2   -1    0    0  502    0  0.00000000000E+00  0.00000000000E+00  0.12873555722E+04  0.12873555722E+04  0.00000000000E+00 0. -1.
          1   -1    0    0  501    0 -0.00000000000E+00 -0.00000000000E+00 -0.62809149671E+03  0.62809149671E+03  0.00000000000E+00 0. -1.
         25    2    1    2    0    0  0.19370797101E+02 -0.43343045976E+02  0.65692763108E+02  0.14898075156E+03  0.12500351113E+03 0.  0.
          2    1    1    2  501    0 -0.38808469496E+02  0.32531032832E+02 -0.58524921949E+03  0.58743596614E+03  0.00000000000E+00 0. -1.
          1    1    1    2  502    0  0.19437672395E+02  0.10812013145E+02  0.11788205319E+04  0.11790303513E+04  0.00000000000E+00 0. -1.
         22    1    3    3    0    0  0.50831704219E+02 -0.73851990993E+02  0.48238879101E+02  0.10180848778E+03  0.00000000000E+00 0.  1.
         22    1    3    3    0    0 -0.31460907118E+02  0.30508945017E+02  0.17453884007E+02  0.47172263775E+02  0.00000000000E+00 0.  1.
</event>
<event>
 7    1  0.7459264E-005  0.7728966E+03  0.7818608E-02  0.1020000E+00
          2   -1    0    0  502    0  0.00000000000E+00  0.00000000000E+00  0.26508079137E+04  0.26508079137E+04  0.00000000000E+00 0. -1.
          1   -1    0    0  501    0 -0.00000000000E+00 -0.00000000000E+00 -0.36286160076E+04  0.36286160076E+04  0.00000000000E+00 0. -1.
         25    2    1    2    0    0 -0.51602665375E+03  0.79038109076E+03  0.66869672780E+03  0.11635142907E+04  0.12499765985E+03 0.  0.
          2    1    1    2  501    0 -0.13833539978E+02 -0.29389617340E+03 -0.32983855135E+04  0.33114820433E+04  0.00000000000E+00 0. -1.
          1    1    1    2  502    0  0.52986019372E+03 -0.49648491736E+03  0.16518806918E+04  0.18044275873E+04  0.00000000000E+00 0. -1.
         22    1    3    3    0    0 -0.43307411740E+03  0.56424841767E+03  0.49770843978E+03  0.86812623450E+03  0.00000000000E+00 0.  1.
         22    1    3    3    0    0 -0.82952536350E+02  0.22613267309E+03  0.17098828802E+03  0.29538805624E+03  0.00000000000E+00 0.  1.
</event>
<event>
 7    1  0.7459264E-005  0.2045550E+03  0.7818608E-02  0.1316022E+00
          2   -1    0    0  502    0  0.00000000000E+00  0.00000000000E+00  0.72006807548E+03  0.72006807548E+03  0.00000000000E+00 0. -1.
          1   -1    0    0  501    0 -0.00000000000E+00 -0.00000000000E+00 -0.32809935852E+03  0.32809935852E+03  0.00000000000E+00 0. -1.
         25    2    1    2    0    0  0.16041335319E+03 -0.16336018587E+03  0.11143630746E+03  0.28365949008E+03  0.12500264589E+03 0.  0.
          2    1    1    2  501    0 -0.15215409857E+03  0.12921083709E+03 -0.20007151742E+03  0.28262151761E+03  0.00000000000E+00 0. -1.
          1    1    1    2  502    0 -0.82592546243E+01  0.34149348780E+02  0.48060392691E+03  0.48188642632E+03  0.00000000000E+00 0. -1.
         22    1    3    3    0    0  0.46587909512E+02 -0.72744178329E+02 -0.18785465829E+02  0.88402729142E+02  0.00000000000E+00 0. -1.
         22    1    3    3    0    0  0.11382544368E+03 -0.90616007540E+02  0.13022177329E+03  0.19525676093E+03  0.00000000000E+00 0. -1.
</event>
<event>
 7    1  0.7459264E-005  0.3509226E+03  0.7818608E-02  0.1100534E+00
          2   -1    0    0  502    0  0.00000000000E+00  0.00000000000E+00  0.57841633792E+03  0.57841633792E+03  0.00000000000E+00 0. -1.
          1   -1    0    0  501    0 -0.00000000000E+00 -0.00000000000E+00 -0.10821819501E+04  0.10821819501E+04  0.00000000000E+00 0. -1.
         25    2    1    2    0    0 -0.23383898168E+03 -0.39103781480E+03  0.20403915656E+03  0.51463844601E+03  0.12501804169E+03 0.  0.
          2    1    1    2  501    0  0.62128030803E+01  0.20966224654E+03 -0.81059256611E+03  0.83729156498E+03  0.00000000000E+00 0. -1.
          1    1    1    2  502    0  0.22762617860E+03  0.18137556826E+03  0.10278779738E+03  0.30866827701E+03  0.00000000000E+00 0. -1.
         22    1    3    3    0    0  0.91146130263E+01  0.29488008366E+01  0.45927558341E+01  0.10623794197E+02  0.00000000000E+00 0. -1.
         22    1    3    3    0    0 -0.24295359470E+03 -0.39398661564E+03  0.19944640073E+03  0.50401465181E+03  0.00000000000E+00 0. -1.
</event>
<event>
 7    1  0.7459264E-005  0.7856533E+02  0.7818608E-02  0.1428874E+00
          2   -1    0    0  502    0  0.00000000000E+00  0.00000000000E+00  0.85237463013E+03  0.85237463013E+03  0.00000000000E+00 0. -1.
          1   -1    0    0  501    0 -0.00000000000E+00 -0.00000000000E+00 -0.97969187355E+03  0.97969187355E+03  0.00000000000E+00 0. -1.
         25    2    1    2    0    0  0.45900473977E+02  0.60390372105E+02 -0.61586383013E+03  0.63298278941E+03  0.12500041547E+03 0.  0.
          2    1    1    2  501    0 -0.31778656655E+02  0.16927849606E+02 -0.35251931205E+03  0.35435335540E+03  0.00000000000E+00 0. -1.
          1    1    1    2  502    0 -0.14121817322E+02 -0.77318221711E+02  0.84106589876E+03  0.84473035887E+03  0.00000000000E+00 0. -1.
         22    1    3    3    0    0 -0.27434501893E+02  0.10850214922E+02 -0.37865339797E+03  0.37980096741E+03  0.00000000000E+00 0. -1.
         22    1    3    3    0    0  0.73334975869E+02  0.49540157183E+02 -0.23721043217E+03  0.25318182199E+03  0.00000000000E+00 0. -1.
</event>
<event>
 7    1  0.7459264E-005  0.2263163E+03  0.7818608E-02  0.1183749E+00
          2   -1    0    0  502    0  0.00000000000E+00  0.00000000000E+00  0.85193760344E+03  0.85193760344E+03  0.00000000000E+00 0. -1.
          1   -1    0    0  501    0 -0.00000000000E+00 -0.00000000000E+00 -0.42062344096E+03  0.42062344096E+03  0.00000000000E+00 0. -1.
         25    2    1    2    0    0  0.82597661804E+02 -0.32352767553E+03  0.28048813768E+03  0.45364006548E+03  0.12499273203E+03 0.  0.
          2    1    1    2  501    0 -0.68069682352E+02  0.20490085993E+03 -0.29035771827E+03  0.36183621795E+03  0.00000000000E+00 0. -1.
          1    1    1    2  502    0 -0.14527979451E+02  0.11862681560E+03  0.44118374307E+03  0.45708476098E+03  0.00000000000E+00 0. -1.
         22    1    3    3    0    0 -0.18507214411E+00 -0.11137646519E+03  0.30503466250E+02  0.11547819147E+03  0.00000000000E+00 0.  1.
         22    1    3    3    0    0  0.82782733948E+02 -0.21215121034E+03  0.24998467143E+03  0.33816187402E+03  0.00000000000E+00 0.  1.
</event>
<event>
 7    1  0.7459264E-005  0.2844211E+03  0.7818608E-02  0.1159142E+00
          2   -1    0    0  502    0  0.00000000000E+00  0.00000000000E+00  0.66222259267E+03  0.66222259267E+03  0.00000000000E+00 0. -1.
          1   -1    0    0  501    0 -0.00000000000E+00 -0.00000000000E+00 -0.77287676631E+03  0.77287676631E+03  0.00000000000E+00 0. -1.
         25    2    1    2    0    0 -0.31640189914E+03  0.15748531033E+03 -0.63119414344E+02  0.38015869432E+03  0.12499915061E+03 0.  0.
          2    1    1    2  501    0  0.44219773288E+02 -0.11790034635E+03 -0.50538046065E+03  0.52083134509E+03  0.00000000000E+00 0. -1.
          1    1    1    2  502    0  0.27218212585E+03 -0.39584963983E+02  0.45784570136E+03  0.53410931957E+03  0.00000000000E+00 0. -1.
         22    1    3    3    0    0 -0.15778976152E+03  0.14391414841E+02 -0.39446191767E+01  0.15849379068E+03  0.00000000000E+00 0.  1.
         22    1    3    3    0    0 -0.15861213762E+03  0.14309389549E+03 -0.59174795168E+02  0.22166490365E+03  0.00000000000E+00 0.  1.
</event>
<event>
 7    1  0.7459264E-005  0.2062534E+03  0.7818608E-02  0.1299438E+00
          2   -1    0    0  502    0  0.00000000000E+00  0.00000000000E+00  0.84990417559E+03  0.84990417559E+03  0.00000000000E+00 0. -1.
          1   -1    0    0  501    0 -0.00000000000E+00 -0.00000000000E+00 -0.21038959088E+04  0.21038959088E+04  0.00000000000E+00 0. -1.
         25    2    1    2    0    0  0.17208866327E+03 -0.66380627472E+02 -0.62521577240E+03  0.66373216653E+03  0.12499892442E+03 0.  0.
          2    1    1    2  501    0 -0.20961879194E+03  0.51090808808E+02 -0.14509460377E+04  0.14668996942E+04  0.00000000000E+00 0. -1.
          1    1    1    2  502    0  0.37530128666E+02  0.15289818664E+02  0.82217007686E+03  0.82316822363E+03  0.00000000000E+00 0. -1.
         22    1    3    3    0    0  0.15862688223E+03 -0.92079609869E+02 -0.59133833428E+03  0.61913017040E+03  0.00000000000E+00 0.  1.
         22    1    3    3    0    0  0.13461781043E+02  0.25698982397E+02 -0.33877438124E+02  0.44601996131E+02  0.00000000000E+00 0.  1.
</event>
<event>
 7    1  0.7459264E-005  0.4434685E+03  0.7818608E-02  0.1077664E+00
          2   -1    0    0  502    0  0.00000000000E+00  0.00000000000E+00  0.12912782648E+04  0.12912782648E+04  0.00000000000E+00 0. -1.
          1   -1    0    0  501    0 -0.00000000000E+00 -0.00000000000E+00 -0.14659669112E+04  0.14659669112E+04  0.00000000000E+00 0. -1.
         25    2    1    2    0    0  0.25635793868E+03  0.50716146018E+03 -0.25924647294E+03  0.63699779587E+03  0.12500127514E+03 0.  0.
          2    1    1    2  501    0 -0.21186543387E+03 -0.74815209801E+02 -0.96154523461E+03  0.98744798136E+03  0.00000000000E+00 0. -1.
          1    1    1    2  502    0 -0.44492504809E+02 -0.43234625038E+03  0.10461030612E+04  0.11327993988E+04  0.00000000000E+00 0. -1.
         22    1    3    3    0    0  0.62715344174E+02  0.19312258076E+03 -0.37317710138E+02  0.20645134314E+03  0.00000000000E+00 0. -1.
         22    1    3    3    0    0  0.19364259451E+03  0.31403887942E+03 -0.22192876280E+03  0.43054645273E+03  0.00000000000E+00 0. -1.
</event>
<event>
 7    1  0.7459264E-005  0.3893235E+02  0.7818608E-02  0.1540484E+00
          2   -1    0    0  502    0  0.00000000000E+00  0.00000000000E+00  0.20932011186E+04  0.20932011186E+04  0.00000000000E+00 0. -1.
          1   -1    0    0  501    0 -0.00000000000E+00 -0.00000000000E+00 -0.76578425004E+02  0.76578425004E+02  0.00000000000E+00 0. -1.
         25    2    1    2    0    0  0.57124676114E+02 -0.28661412326E+02  0.26737231184E+03  0.30199099616E+03  0.12500361374E+03 0.  0.
          2    1    1    2  501    0 -0.23995341657E+02  0.30117506045E+02 -0.52845704802E+02  0.65387377280E+02  0.00000000000E+00 0. -1.
          1    1    1    2  502    0 -0.33129334458E+02 -0.14560937193E+01  0.18020960866E+04  0.18024011702E+04  0.00000000000E+00 0. -1.
         22    1    3    3    0    0 -0.27554891902E+01 -0.43009244793E+02  0.20814353768E+02  0.47860476190E+02  0.00000000000E+00 0.  1.
         22    1    3    3    0    0  0.59880165304E+02  0.14347832467E+02  0.24655795807E+03  0.25413051997E+03  0.00000000000E+00 0.  1.
</event>
<event>
 7    1  0.7459264E-005  0.8718421E+02  0.7818608E-02  0.1383799E+00
          2   -1    0    0  502    0  0.00000000000E+00  0.00000000000E+00  0.17382179897E+04  0.17382179897E+04  0.00000000000E+00 0. -1.
          1   -1    0    0  501    0 -0.00000000000E+00 -0.00000000000E+00 -0.27402612113E+03  0.27402612113E+03  0.00000000000E+00 0. -1.
         25    2    1    2    0    0  0.82911080507E+02  0.63190339006E+02  0.76840687508E+02  0.17999225107E+03  0.12500181188E+03 0.  0.
          2    1    1    2  501    0 -0.38955587511E+02 -0.77462010328E+02 -0.21365525649E+03  0.23057855379E+03  0.00000000000E+00 0. -1.
          1    1    1    2  502    0 -0.43955492996E+02  0.14271671321E+02  0.16010064375E+04  0.16016733060E+04  0.00000000000E+00 0. -1.
         22    1    3    3    0    0  0.18027536099E+02 -0.37903310209E+02  0.27202530135E+02  0.50016303626E+02  0.00000000000E+00 0.  1.
         22    1    3    3    0    0  0.64883544408E+02  0.10109364922E+03  0.49638157373E+02  0.12997594744E+03  0.00000000000E+00 0.  1.
</event>
<event>
 7    1  0.7459264E-005  0.4211437E+03  0.7818608E-02  0.1120762E+00
          2   -1    0    0  502    0  0.00000000000E+00  0.00000000000E+00  0.66892755824E+03  0.66892755824E+03  0.00000000000E+00 0. -1.
          1   -1    0    0  501    0 -0.00000000000E+00 -0.00000000000E+00 -0.11253486597E+04  0.11253486597E+04  0.00000000000E+00 0. -1.
         25    2    1    2    0    0 -0.25922043210E+03  0.29702607238E+03  0.34517425032E+01  0.41359099900E+03  0.12500351929E+03 0.  0.
          2    1    1    2  501    0  0.16871139026E+03 -0.39735745040E+03 -0.85787686438E+03  0.96036929929E+03  0.00000000000E+00 0. -1.
          1    1    1    2  502    0  0.90509041843E+02  0.10033137802E+03  0.39800402039E+03  0.42031591966E+03  0.00000000000E+00 0. -1.
         22    1    3    3    0    0 -0.25849905265E+02  0.43193328971E+02 -0.42312425725E+02  0.65758821770E+02  0.00000000000E+00 0.  1.
         22    1    3    3    0    0 -0.23337052684E+03  0.25383274341E+03  0.45764168228E+02  0.34783217723E+03  0.00000000000E+00 0.  1.
</event>
<event>
 7    1  0.7459264E-005  0.1754890E+03  0.7818608E-02  0.1248224E+00
          2   -1    0    0  502    0  0.00000000000E+00  0.00000000000E+00  0.33617760605E+03  0.33617760605E+03  0.00000000000E+00 0. -1.
          1   -1    0    0  501    0 -0.00000000000E+00 -0.00000000000E+00 -0.11424359717E+04  0.11424359717E+04  0.00000000000E+00 0. -1.
         25    2    1    2    0    0  0.76948186907E+02 -0.10669933723E+03 -0.57449411970E+03  0.60247341905E+03  0.12499982023E+03 0.  0.
          2    1    1    2  501    0  0.76190476955E+02  0.16381442765E+02 -0.52633608812E+03  0.53207425996E+03  0.00000000000E+00 0. -1.
          1    1    1    2  502    0 -0.15313866386E+03  0.90317894468E+02  0.29457184221E+03  0.34406589871E+03  0.00000000000E+00 0. -1.
         22    1    3    3    0    0  0.88207289391E+02 -0.98197366005E+02 -0.57331692234E+03  0.58831585227E+03  0.00000000000E+00 0. -1.
         22    1    3    3    0    0 -0.11259102484E+02 -0.85019712283E+01 -0.11771973602E+01  0.14157566780E+02  0.00000000000E+00 0. -1.
</event>
<event>
 7    1  0.7459264E-005  0.4388486E+03  0.7818608E-02  0.1157279E+00
          2   -1    0    0  502    0  0.00000000000E+00  0.00000000000E+00  0.15571592641E+04  0.15571592641E+04  0.00000000000E+00 0. -1.
          1   -1    0    0  501    0 -0.00000000000E+00 -0.00000000000E+00 -0.36475287613E+03  0.36475287613E+03  0.00000000000E+00 0. -1.
         25    2    1    2    0    0 -0.18640516851E+03  0.39648756163E+03  0.38168479981E+03  0.59435556396E+03  0.12500390643E+03 0.  0.
          2    1    1    2  501    0  0.10904551862E+03 -0.42766145981E+03 -0.66545657848E+02  0.44633347838E+03  0.00000000000E+00 0. -1.
          1    1    1    2  502    0  0.77359649895E+02  0.31173898183E+02  0.87726724597E+03  0.88122309787E+03  0.00000000000E+00 0. -1.
         22    1    3    3    0    0 -0.18064003342E+03  0.33559645011E+03  0.27017392341E+03  0.46717207525E+03  0.00000000000E+00 0.  1.
         22    1    3    3    0    0 -0.57651350960E+01  0.60891111521E+02  0.11151087640E+03  0.12718348871E+03  0.00000000000E+00 0.  1.
</event>
<event>
 7    1  0.7459264E-005  0.2243342E+03  0.7818608E-02  0.1255590E+00
          2   -1    0    0  502    0  0.00000000000E+00  0.00000000000E+00  0.10970725037E+04  0.10970725037E+04  0.00000000000E+00 0. -1.
          1   -1    0    0  501    0 -0.00000000000E+00 -0.00000000000E+00 -0.18130097265E+04  0.18130097265E+04  0.00000000000E+00 0. -1.
         25    2    1    2    0    0  0.45079436582E+02 -0.26262065449E+03 -0.17797087608E+02  0.29485908989E+03  0.12499353102E+03 0.  0.
          2    1    1    2  501    0 -0.68946813551E+02  0.21124248975E+03 -0.16483830378E+04  0.16632930265E+04  0.00000000000E+00 0. -1.
          1    1    1    2  502    0  0.23867376969E+02  0.51378164740E+02  0.95024290267E+03  0.95193011380E+03  0.00000000000E+00 0. -1.
         22    1    3    3    0    0  0.68469978531E+02 -0.11224086263E+03 -0.47510188330E+02  0.13979759368E+03  0.00000000000E+00 0. -1.
         22    1    3    3    0    0 -0.23390541948E+02 -0.15037979186E+03  0.29713100722E+02  0.15506149621E+03  0.00000000000E+00 0. -1.
</event>
<event>
 7    1  0.7459264E-005  0.5083790E+02  0.7818608E-02  0.1465542E+00
          2   -1    0    0  502    0  0.00000000000E+00  0.00000000000E+00  0.84626512492E+03  0.84626512492E+03  0.00000000000E+00 0. -1.
          1   -1    0    0  501    0 -0.00000000000E+00 -0.00000000000E+00 -0.30641038179E+03  0.30641038179E+03  0.00000000000E+00 0. -1.
         25    2    1    2    0    0 -0.14706392141E+02  0.12223531576E+02  0.21188853901E+02  0.12822781003E+03  0.12501084370E+03 0.  0.
          2    1    1    2  501    0  0.51447206870E+02  0.89878865505E+01 -0.24960300712E+03  0.25500834960E+03  0.00000000000E+00 0. -1.
          1    1    1    2  502    0 -0.36740814730E+02 -0.21211418126E+02  0.76826889636E+03  0.76943934708E+03  0.00000000000E+00 0. -1.
         22    1    3    3    0    0 -0.62515184312E+02  0.17346559022E+01 -0.18494047707E+02  0.65216463421E+02  0.00000000000E+00 0. -1.
         22    1    3    3    0    0  0.47808792171E+02  0.10488875674E+02  0.39682901608E+02  0.63011346611E+02  0.00000000000E+00 0. -1.
</event>
<event>
 7    1  0.7459264E-005  0.7450073E+02  0.7818608E-02  0.1348982E+00
          2   -1    0    0  502    0  0.00000000000E+00  0.00000000000E+00  0.22875826153E+04  0.22875826153E+04  0.00000000000E+00 0. -1.
          1   -1    0    0  501    0 -0.00000000000E+00 -0.00000000000E+00 -0.58101943803E+03  0.58101943803E+03  0.00000000000E+00 0. -1.
         25    2    1    2    0    0 -0.34376622067E+02 -0.10703075257E+03  0.73947063837E+02  0.18365880774E+03  0.12500022108E+03 0.  0.
          2    1    1    2  501    0 -0.28024631085E+02  0.66608613335E+02 -0.52303843257E+03  0.52800690267E+03  0.00000000000E+00 0. -1.
          1    1    1    2  502    0  0.62401253152E+02  0.40422139237E+02  0.21556545460E+04  0.21569363429E+04  0.00000000000E+00 0. -1.
         22    1    3    3    0    0  0.34740511261E+02 -0.82720041969E+02  0.62879338377E+02  0.10955966256E+03  0.00000000000E+00 0. -1.
         22    1    3    3    0    0 -0.69117133327E+02 -0.24310710603E+02  0.11067725460E+02  0.74099145179E+02  0.00000000000E+00 0. -1.
</event>
<event>
 7    1  0.7459264E-005  0.1644348E+03  0.7818608E-02  0.1252030E+00
          2   -1    0    0  502    0  0.00000000000E+00  0.00000000000E+00  0.12888365733E+04  0.12888365733E+04  0.00000000000E+00 0. -1.
          1   -1    0    0  501    0 -0.00000000000E+00 -0.00000000000E+00 -0.20427175535E+03  0.20427175535E+03  0.00000000000E+00 0. -1.
         25    2    1    2    0    0 -0.77918540025E+02 -0.21289168918E+03  0.45654641470E+03  0.52483653658E+03  0.12499836460E+03 0.  0.
          2    1    1    2  501    0  0.47574318635E+02  0.64401961033E+02 -0.15299981814E+03  0.17268431524E+03  0.00000000000E+00 0. -1.
          1    1    1    2  502    0  0.30344221390E+02  0.14848972815E+03  0.78101822135E+03  0.79558747679E+03  0.00000000000E+00 0. -1.
         22    1    3    3    0    0 -0.63323518062E+02 -0.17447620801E+03  0.23474746665E+03  0.29926274108E+03  0.00000000000E+00 0. -1.
         22    1    3    3    0    0 -0.14595021963E+02 -0.38415481171E+02  0.22179894805E+03  0.22557379550E+03  0.00000000000E+00 0. -1.
</event>
<event>
 7    1  0.7459264E-005  0.9803507E+03  0.7818608E-02  0.1097337E+00
          2   -1    0    0  502    0  0.00000000000E+00  0.00000000000E+00  0.28668956417E+04  0.28668956417E+04  0.00000000000E+00 0. -1.
          1   -1    0    0  501    0 -0.00000000000E+00 -0.00000000000E+00 -0.73047151429E+03  0.73047151429E+03  0.00000000000E+00 0. -1.
         25    2    1    2    0    0 -0.32348655571E+03 -0.96237447678E+03  0.14742692445E+04  0.17944088462E+04  0.12500046730E+03 0.  0.
          2    1    1    2  501    0  0.72454714487E+00  0.78265855547E+02 -0.38623032692E+03  0.39408112686E+03  0.00000000000E+00 0. -1.
          1    1    1    2  502    0  0.32276200857E+03  0.88410862124E+03  0.10483852097E+04  0.14088771828E+04  0.00000000000E+00 0. -1.
         22    1    3    3    0    0 -0.10937758040E+03 -0.37206871309E+03  0.66864867902E+03  0.77297453924E+03  0.00000000000E+00 0.  1.
         22    1    3    3    0    0 -0.21410897531E+03 -0.59030576370E+03  0.80562056551E+03  0.10214343070E+04  0.00000000000E+00 0.  1.
</event>
<event>
 7    1  0.7459264E-005  0.2266504E+03  0.7818608E-02  0.1191449E+00
          2   -1    0    0  502    0  0.00000000000E+00  0.00000000000E+00  0.77021855391E+03  0.77021855391E+03  0.00000000000E+00 0. -1.
          1   -1    0    0  501    0 -0.00000000000E+00 -0.00000000000E+00 -0.58644032465E+03  0.58644032465E+03  0.00000000000E+00 0. -1.
         25    2    1    2    0    0  0.17362769357E+03  0.90981718206E+02 -0.32383427177E+03  0.39864487618E+03  0.12499941085E+03 0.  0.
          2    1    1    2  501    0 -0.45872562414E+02  0.99502634628E+02 -0.19238538710E+03  0.22139829144E+03  0.00000000000E+00 0. -1.
          1    1    1    2  502    0 -0.12775513115E+03 -0.19048435283E+03  0.69999788813E+03  0.73661571094E+03  0.00000000000E+00 0. -1.
         22    1    3    3    0    0  0.14973355042E+03  0.83098734844E+02 -0.33083489961E+03  0.37252820921E+03  0.00000000000E+00 0.  1.
         22    1    3    3    0    0  0.23894143148E+02  0.78829833623E+01  0.70006278465E+01  0.26116666972E+02  0.00000000000E+00 0.  1.
</event>
<event>
 7    1  0.7459264E-005  0.1061186E+04  0.7818608E-02  0.1178461E+00
          2   -1    0    0  502    0  0.00000000000E+00  0.00000000000E+00  0.20058570900E+04  0.20058570900E+04  0.00000000000E+00 0. -1.
          1   -1    0    0  501    0 -0.00000000000E+00 -0.00000000000E+00 -0.95270060575E+03  0.95270060575E+03  0.00000000000E+00 0. -1.
         25    2    1    2    0    0 -0.10370198766E+04  0.19148802509E+03  0.44166986686E+03  0.11501195381E+04  0.12499916978E+03 0.  0.
          2    1    1    2  501    0  0.10427187351E+04 -0.21792681648E+03 -0.12401172556E+03  0.10724427099E+04  0.00000000000E+00 0. -1.
          1    1    1    2  502    0 -0.56988584743E+01  0.26438791391E+02  0.73549834294E+03  0.73599544777E+03  0.00000000000E+00 0. -1.
         22    1    3    3    0    0 -0.31964509954E+02  0.14895912124E+02 -0.60327660743E+01  0.35777260391E+02  0.00000000000E+00 0.  1.
         22    1    3    3    0    0 -0.10050553667E+04  0.17659211297E+03  0.44770263294E+03  0.11143422777E+04  0.00000000000E+00 0.  1.
</event>
<event>
 7    1  0.7459264E-005  0.4293673E+03  0.7818608E-02  0.1126895E+00
          2   -1    0    0  502    0  0.00000000000E+00  0.00000000000E+00  0.47547881948E+03  0.47547881948E+03  0.00000000000E+00 0. -1.
          1   -1    0    0  501    0 -0.00000000000E+00 -0.00000000000E+00 -0.40914863899E+04  0.40914863899E+04  0.00000000000E+00 0. -1.
         25    2    1    2    0    0 -0.35803835126E+03  0.28180744447E+03  0.16316217417E+03  0.49985413135E+03  0.12500144325E+03 0.  0.
          2    1    1    2  501    0 -0.34958974603E+01 -0.12276677289E+03 -0.36492593693E+04  0.36513254917E+04  0.00000000000E+00 0. -1.
          1    1    1    2  502    0  0.36153424872E+03 -0.15904067158E+03 -0.12991037530E+03  0.41578558636E+03  0.00000000000E+00 0. -1.
         22    1    3    3    0    0 -0.18777604240E+03  0.86528325242E+02  0.31177053181E+02  0.20909089367E+03  0.00000000000E+00 0. -1.
         22    1    3    3    0    0 -0.17026230885E+03  0.19527911923E+03  0.13198512099E+03  0.29076323768E+03  0.00000000000E+00 0. -1.
</event>
<event>
 7    1  0.7459264E-005  0.9525454E+03  0.7818608E-02  0.1077804E+00
          2   -1    0    0  502    0  0.00000000000E+00  0.00000000000E+00  0.11078490876E+04  0.11078490876E+04  0.00000000000E+00 0. -1.
          1   -1    0    0  501    0 -0.00000000000E+00 -0.00000000000E+00 -0.24517325099E+04  0.24517325099E+04  0.00000000000E+00 0. -1.
         25    2    1    2    0    0  0.18358829845E+03  0.96211024346E+03 -0.66080660602E+03  0.11881290894E+04  0.12499831474E+03 0.  0.
          2    1    1    2  501    0 -0.10254418441E+03 -0.19635417538E+02 -0.12594282965E+04  0.12637485879E+04  0.00000000000E+00 0. -1.
          1    1    1    2  502    0 -0.81044114032E+02 -0.94247482592E+03  0.57635148019E+03  0.11077039201E+04  0.00000000000E+00 0. -1.
         22    1    3    3    0    0  0.19218229327E+03  0.73099991004E+03 -0.49341359350E+03  0.90263607095E+03  0.00000000000E+00 0.  1.
         22    1    3    3    0    0 -0.85939948234E+01  0.23111033342E+03 -0.16739301252E+03  0.28549301848E+03  0.00000000000E+00 0.  1.
</event>
<event>
 7    1  0.7459264E-005  0.3640057E+03  0.7818608E-02  0.1189166E+00
          2   -1    0    0  502    0  0.00000000000E+00  0.00000000000E+00  0.39815748600E+03  0.39815748600E+03  0.00000000000E+00 0. -1.
          1   -1    0    0  501    0 -0.00000000000E+00 -0.00000000000E+00 -0.94771056430E+03  0.94771056430E+03  0.00000000000E+00 0. -1.
         25    2    1    2    0    0  0.18458331979E+03 -0.29940738373E+03 -0.69053435051E+03  0.78497072737E+03  0.12500228087E+03 0.  0.
          2    1    1    2  501    0 -0.22401319345E+03  0.35720263314E+03  0.21184436226E+02  0.42216633250E+03  0.00000000000E+00 0. -1.
          1    1    1    2  502    0  0.39429873659E+02 -0.57795249413E+02  0.11979683598E+03  0.13873099042E+03  0.00000000000E+00 0. -1.
         22    1    3    3    0    0  0.43697266799E+02 -0.18972433567E+03 -0.35407897167E+03  0.40407510793E+03  0.00000000000E+00 0.  1.
         22    1    3    3    0    0  0.14088605299E+03 -0.10968304805E+03 -0.33645537884E+03  0.38089561944E+03  0.00000000000E+00 0.  1.
</event>
<event>
 7    1  0.7459264E-005  0.2083837E+03  0.7818608E-02  0.1149153E+00
          2   -1    0    0  502    0  0.00000000000E+00  0.00000000000E+00  0.18054376699E+04  0.18054376699E+04  0.00000000000E+00 0. -1.
          1   -1    0    0  501    0 -0.00000000000E+00 -0.00000000000E+00 -0.21061084954E+03  0.21061084954E+03  0.00000000000E+00 0. -1.
         25    2    1    2    0    0 -0.33385084068E+03 -0.93213506076E+01  0.35873215061E+03  0.50582208631E+03  0.12499582280E+03 0.  0.
          2    1    1    2  501    0  0.16608366059E+03 -0.98882675218E+02 -0.57229291816E+02  0.20158560865E+03  0.00000000000E+00 0. -1.
          1    1    1    2  502    0  0.16776718009E+03  0.10820402583E+03  0.12933239616E+04  0.13086408245E+04  0.00000000000E+00 0. -1.
         22    1    3    3    0    0 -0.39965650560E+01 -0.19156319212E+02  0.50906492197E+02  0.54538133868E+02  0.00000000000E+00 0. -1.
         22    1    3    3    0    0 -0.32985427562E+03  0.98349686044E+01  0.30782565841E+03  0.45128395244E+03  0.00000000000E+00 0. -1.
</event>
<event>
 7    1  0.7459264E-005  0.1623096E+03  0.7818608E-02  0.1345573E+00
          2   -1    0    0  502    0  0.00000000000E+00  0.00000000000E+00  0.76473067812E+03  0.76473067812E+03  0.00000000000E+00 0. -1.
          1   -1    0    0  501    0 -0.00000000000E+00 -0.00000000000E+00 -0.33115010690E+03  0.33115010690E+03  0.00000000000E+00 0. -1.
         25    2    1    2    0    0 -0.60975960361E+02 -0.15559832773E+03 -0.96929840878E+02  0.23011243248E+03  0.12500972040E+03 0.  0.
          2    1    1    2  501    0  0.33874794208E+02 -0.43456628667E+01 -0.15633675713E+03  0.16002364856E+03  0.00000000000E+00 0. -1.
          1    1    1    2  502    0  0.27101166154E+02  0.15994399059E+03  0.68684716923E+03  0.70574470399E+03  0.00000000000E+00 0. -1.
         22    1    3    3    0    0 -0.71374958650E+02 -0.17290818873E+03 -0.78820928660E+02  0.20298858403E+03  0.00000000000E+00 0.  1.
         22    1    3    3    0    0  0.10398998289E+02  0.17309860997E+02 -0.18108912217E+02  0.27123848452E+02  0.00000000000E+00 0.  1.
</event>
<event>
 7    1  0.7459264E-005  0.2704924E+03  0.7818608E-02  0.1182887E+00
          2   -1    0    0  502    0  0.00000000000E+00  0.00000000000E+00  0.19440704991E+04  0.19440704991E+04  0.00000000000E+00 0. -1.
          1   -1    0    0  501    0 -0.00000000000E+00 -0.00000000000E+00 -0.12301809724E+03  0.12301809724E+03  0.00000000000E+00 0. -1.
         25    2    1    2    0    0  0.16847960245E+03  0.24679032789E+03  0.22529378025E+03  0.39453682215E+03  0.12494468470E+03 0.  0.
          2    1    1    2  501    0 -0.68752827964E+02 -0.23103887102E+03  0.36349416371E+03  0.43615813454E+03  0.00000000000E+00 0. -1.
          1    1    1    2  502    0 -0.99726774483E+02 -0.15751456871E+02  0.12322644579E+04  0.12363936396E+04  0.00000000000E+00 0. -1.
         22    1    3    3    0    0  0.11431479923E+03  0.61174151427E+02  0.76349821295E+02  0.15046409983E+03  0.00000000000E+00 0.  1.
         22    1    3    3    0    0  0.54164803215E+02  0.18561617646E+03  0.14894395895E+03  0.24407272232E+03  0.00000000000E+00 0.  1.
</event>
<event>
 7    1  0.7459264E-005  0.5082826E+03  0.7818608E-02  0.1244474E+00
          2   -1    0    0  502    0  0.00000000000E+00  0.00000000000E+00  0.16898192154E+04  0.16898192154E+04  0.00000000000E+00 0. -1.
          1   -1    0    0  501    0 -0.00000000000E+00 -0.00000000000E+00 -0.69887661568E+03  0.69887661568E+03  0.00000000000E+00 0. -1.
         25    2    1    2    0    0 -0.24880702762E+03  0.42899761088E+03  0.57288494567E+03  0.76796229229E+03  0.12500013707E+03 0.  0.
          2    1    1    2  501    0  0.27674600928E+03 -0.42880776998E+03 -0.49279976022E+03  0.70944771542E+03  0.00000000000E+00 0. -1.
          1    1    1    2  502    0 -0.27938981657E+02 -0.18984090017E+00  0.91085741429E+03  0.91128582339E+03  0.00000000000E+00 0. -1.
         22    1    3    3    0    0 -0.10200799442E+03  0.70384093446E+02  0.13700844415E+03  0.18474540672E+03  0.00000000000E+00 0. -1.
         22    1    3    3    0    0 -0.14679903320E+03  0.35861351743E+03  0.43587650151E+03  0.58321688556E+03  0.00000000000E+00 0. -1.
</event>
<event>
 7    1  0.7459264E-005  0.1835334E+03  0.7818608E-02  0.1194720E+00
          2   -1    0    0  502    0  0.00000000000E+00  0.00000000000E+00  0.17296920338E+04  0.17296920338E+04  0.00000000000E+00 0. -1.
          1   -1    0    0  501    0 -0.00000000000E+00 -0.00000000000E+00 -0.60754274939E+03  0.60754274939E+03  0.00000000000E+00 0. -1.
         25    2    1    2    0    0 -0.60592054321E+02 -0.16230581699E+03 -0.37351101743E+03  0.43028967997E+03  0.12499661303E+03 0.  0.
          2    1    1    2  501    0  0.18860443676E+03  0.13679256449E+03 -0.13619627422E+03  0.26987638722E+03  0.00000000000E+00 0. -1.
          1    1    1    2  502    0 -0.12801238244E+03  0.25513252501E+02  0.16318565761E+04  0.16370687160E+04  0.00000000000E+00 0. -1.
         22    1    3    3    0    0 -0.11198166448E+02 -0.11482158921E+03 -0.11515731450E+03  0.16300491822E+03  0.00000000000E+00 0.  1.
         22    1    3    3    0    0 -0.49393887872E+02 -0.47484227787E+02 -0.25835370293E+03  0.26728476175E+03  0.00000000000E+00 0.  1.
</event>
<event>
 7    1  0.7459264E-005  0.3362484E+03  0.7818608E-02  0.1200535E+00
          2   -1    0    0  502    0  0.00000000000E+00  0.00000000000E+00  0.54807722793E+03  0.54807722793E+03  0.00000000000E+00 0. -1.
          1   -1    0    0  501    0 -0.00000000000E+00 -0.00000000000E+00 -0.21575577138E+04  0.21575577138E+04  0.00000000000E+00 0. -1.
         25    2    1    2    0    0  0.30921142240E+01  0.31896246982E+03 -0.19008591212E+02  0.34311841819E+03  0.12498921568E+03 0.  0.
          2    1    1    2  501    0 -0.63480120468E+02  0.21020215902E+02 -0.18985674167E+04  0.18997446699E+04  0.00000000000E+00 0. -1.
          1    1    1    2  502    0  0.60388006244E+02 -0.33998268573E+03  0.30809552197E+03  0.46277185367E+03  0.00000000000E+00 0. -1.
         22    1    3    3    0    0  0.48552347088E+02  0.25229565550E+03 -0.39303881740E+02  0.25991387672E+03  0.00000000000E+00 0.  1.
         22    1    3    3    0    0 -0.45460232864E+02  0.66666814326E+02  0.20295290528E+02  0.83204541475E+02  0.00000000000E+00 0.  1.
</event>
<event>
 7    1  0.7459264E-005  0.3273416E+03  0.7818608E-02  0.1271627E+00
          2   -1    0    0  502    0  0.00000000000E+00  0.00000000000E+00  0.87638810048E+03  0.87638810048E+03  0.00000000000E+00 0. -1.
          1   -1    0    0  501    0 -0.00000000000E+00 -0.00000000000E+00 -0.15202907589E+04  0.15202907589E+04  0.00000000000E+00 0. -1.
         25    2    1    2    0    0 -0.15187682237E+03  0.26612188242E+03 -0.28495863749E+03  0.43670864703E+03  0.12500236730E+03 0.  0.
          2    1    1    2  501    0  0.18192034922E+03 -0.28023584605E+03 -0.11350261445E+04  0.11831785544E+04  0.00000000000E+00 0. -1.
          1    1    1    2  502    0 -0.30043526854E+02  0.14113963626E+02  0.77608212353E+03  0.77679165800E+03  0.00000000000E+00 0. -1.
         22    1    3    3    0    0 -0.13533596033E+02 -0.11451355777E+02 -0.38743908321E+01  0.18146698737E+02  0.00000000000E+00 0. -1.
         22    1    3    3    0    0 -0.13834322633E+03  0.27757323820E+03 -0.28108424666E+03  0.41856194829E+03  0.00000000000E+00 0. -1.
</event>
<event>
 7    1  0.7459264E-005  0.4748712E+03  0.7818608E-02  0.1256764E+00
          2   -1    0    0  502    0  0.00000000000E+00  0.00000000000E+00  0.24362668787E+04  0.24362668787E+04  0.00000000000E+00 0. -1.
          1   -1    0    0  501    0 -0.00000000000E+00 -0.00000000000E+00 -0.40248919574E+03  0.40248919574E+03  0.00000000000E+00 0. -1.
         25    2    1    2    0    0  0.32386729974E+03 -0.35059543837E+03  0.16039090960E+04  0.16780807594E+04  0.12499383007E+03 0.  0.
          2    1    1    2  501    0  0.13805799655E+02  0.22565462148E+02 -0.29508968055E+03  0.29627304932E+03  0.00000000000E+00 0. -1.
          1    1    1    2  502    0 -0.33767309940E+03  0.32802997622E+03  0.72495826750E+03  0.86440226571E+03  0.00000000000E+00 0. -1.
         22    1    3    3    0    0  0.21143224100E+03 -0.14379655564E+03  0.75392513374E+03  0.79610561437E+03  0.00000000000E+00 0. -1.
         22    1    3    3    0    0  0.11243505875E+03 -0.20679888273E+03  0.84998396230E+03  0.88197514506E+03  0.00000000000E+00 0. -1.
</event>
<event>
 7    1  0.7459264E-005  0.2629930E+03  0.7818608E-02  0.1300662E+00
          2   -1    0    0  502    0  0.00000000000E+00  0.00000000000E+00  0.90564673969E+03  0.90564673969E+03  0.00000000000E+00 0. -1.
          1   -1    0    0  501    0 -0.00000000000E+00 -0.00000000000E+00 -0.46147771083E+03  0.46147771083E+03  0.00000000000E+00 0. -1.
         25    2    1    2    0    0 -0.16147913520E+03  0.24341421440E+03  0.50588402920E+03  0.59738566759E+03  0.12499997586E+03 0.  0.
          2    1    1    2  501    0  0.14176386739E+03 -0.21894243090E+03 -0.37394845011E+03  0.45592787311E+03  0.00000000000E+00 0. -1.
          1    1    1    2  502    0  0.19715267812E+02 -0.24471783499E+02  0.31223344976E+03  0.31381090982E+03  0.00000000000E+00 0. -1.
         22    1    3    3    0    0 -0.33127770027E+02  0.15082816091E+03  0.19692660154E+03  0.25025321110E+03  0.00000000000E+00 0.  1.
         22    1    3    3    0    0 -0.12835136517E+03  0.92586053485E+02  0.30895742766E+03  0.34713245649E+03  0.00000000000E+00 0.  1.
</event>
<event>
 7    1  0.7459264E-005  0.1087180E+03  0.7818608E-02  0.1444686E+00
          2   -1    0    0  502    0  0.00000000000E+00  0.00000000000E+00  0.17221630876E+04  0.17221630876E+04  0.00000000000E+00 0. -1.
          1   -1    0    0  501    0 -0.00000000000E+00 -0.00000000000E+00 -0.19369954599E+03  0.19369954599E+03  0.00000000000E+00 0. -1.
         25    2    1    2    0    0  0.51462782017E+02  0.91369961184E+02  0.13931740453E+04  0.14026978262E+04  0.12502153110E+03 0.  0.
          2    1    1    2  501    0  0.23090393838E+02  0.88738611462E+00 -0.17731428555E+03  0.17881361694E+03  0.00000000000E+00 0. -1.
          1    1    1    2  502    0 -0.74553175856E+02 -0.92257347298E+02  0.31260378189E+03  0.33435119054E+03  0.00000000000E+00 0. -1.
         22    1    3    3    0    0  0.20295982542E+02  0.10972921669E+03  0.12520056827E+04  0.12569688371E+04  0.00000000000E+00 0. -1.
         22    1    3    3    0    0  0.31166799475E+02 -0.18359255510E+02  0.14116836266E+03  0.14572898911E+03  0.00000000000E+00 0. -1.
</event>
<event>
 7    1  0.7459264E-005  0.3269180E+03  0.7818608E-02  0.1324177E+00
          2   -1    0    0  502    0  0.00000000000E+00  0.00000000000E+00  0.10669068992E+04  0.10669068992E+04  0.00000000000E+00 0. -1.
          1   -1    0    0  501    0 -0.00000000000E+00 -0.00000000000E+00 -0.59629146352E+03  0.59629146352E+03  0.00000000000E+00 0. -1.
         25    2    1    2    0    0  0.17450646356E+03  0.28037282437E+03 -0.25621035332E+03  0.43626884965E+03  0.12500135023E+03 0.  0.
          2    1    1    2  501    0 -0.15441163907E+03 -0.28410791247E+03 -0.14534348050E+03  0.35452078575E+03  0.00000000000E+00 0. -1.
          1    1    1    2  502    0 -0.20094824485E+02  0.37350880980E+01  0.87216926954E+03  0.87240872737E+03  0.00000000000E+00 0. -1.
         22    1    3    3    0    0  0.19090687092E+03  0.27435286795E+03 -0.23398878017E+03  0.40800205730E+03  0.00000000000E+00 0.  1.
         22    1    3    3    0    0 -0.16400407357E+02  0.60199564232E+01 -0.22221573148E+02  0.28266792354E+02  0.00000000000E+00 0.  1.
</event>
<event>
 7    1  0.7459264E-005  0.2358859E+03  0.7818608E-02  0.1268690E+00
          2   -1    0    0  502    0  0.00000000000E+00  0.00000000000E+00  0.25160049709E+04  0.25160049709E+04  0.00000000000E+00 0. -1.
          1   -1    0    0  501    0 -0.00000000000E+00 -0.00000000000E+00 -0.20555252385E+04  0.20555252385E+04  0.00000000000E+00 0. -1.
         25    2    1    2    0    0  0.38878071352E+02  0.24510351421E+03  0.25457107323E+03  0.37685275975E+03  0.12499733636E+03 0.  0.
          2    1    1    2  501    0 -0.46282100077E+02 -0.10186422127E+02 -0.19878246514E+04  0.19883894590E+04  0.00000000000E+00 0. -1.
          1    1    1    2  502    0  0.74040287253E+01 -0.23491709208E+03  0.21937333105E+04  0.22062879906E+04  0.00000000000E+00 0. -1.
         22    1    3    3    0    0  0.22150692558E+02  0.45378773587E+02  0.13342348968E+03  0.14265943316E+03  0.00000000000E+00 0.  1.
         22    1    3    3    0    0  0.16727378794E+02  0.19972474062E+03  0.12114758355E+03  0.23419332659E+03  0.00000000000E+00 0.  1.
</event>
<event>
 7    1  0.7459264E-005  0.7083070E+02  0.7818608E-02  0.1445738E+00
          2   -1    0    0  502    0  0.00000000000E+00  0.00000000000E+00  0.60395385317E+03  0.60395385317E+03  0.00000000000E+00 0. -1.
          1   -1    0    0  501    0 -0.00000000000E+00 -0.00000000000E+00 -0.49080144253E+02  0.49080144253E+02  0.00000000000E+00 0. -1.
         25    2    1    2    0    0 -0.62690398111E+02 -0.49533206788E+01  0.22353202084E+03  0.26371425437E+03  0.12499608880E+03 0.  0.
          2    1    1    2  501    0  0.93608567286E+00 -0.35179368229E+02 -0.12753091403E+02  0.37431344428E+02  0.00000000000E+00 0. -1.
          1    1    1    2  502    0  0.61754312438E+02  0.40132688908E+02  0.34409477947E+03  0.35188839862E+03  0.00000000000E+00 0. -1.
         22    1    3    3    0    0  0.24142548935E+02  0.35540026066E+02  0.54290057612E+02  0.69234142426E+02  0.00000000000E+00 0. -1.
         22    1    3    3    0    0 -0.86832947046E+02 -0.40493346745E+02  0.16924196323E+03  0.19448011194E+03  0.00000000000E+00 0. -1.
</event>
<event>
 7    1  0.7459264E-005  0.1148897E+03  0.7818608E-02  0.1360798E+00
          2   -1    0    0  502    0  0.00000000000E+00  0.00000000000E+00  0.28245014038E+04  0.28245014038E+04  0.00000000000E+00 0. -1.
          1   -1    0    0  501    0 -0.00000000000E+00 -0.00000000000E+00 -0.20701556473E+03  0.20701556473E+03  0.00000000000E+00 0. -1.
         25    2    1    2    0    0  0.12268816901E+03 -0.63789209768E+02 -0.50792863255E+02  0.19319965201E+03  0.12499896192E+03 0.  0.
          2    1    1    2  501    0 -0.80468809996E+02  0.67674188106E+02 -0.52283460215E+02  0.11742480713E+03  0.00000000000E+00 0. -1.
          1    1    1    2  502    0 -0.42219359016E+02 -0.38849783381E+01  0.27205621625E+04  0.27208925093E+04  0.00000000000E+00 0. -1.
         22    1    3    3    0    0  0.12545457803E+03 -0.90642410028E+02 -0.26787336562E+02  0.15707469257E+03  0.00000000000E+00 0.  1.
         22    1    3    3    0    0 -0.27664090218E+01  0.26853200260E+02 -0.24005526693E+02  0.36124959445E+02  0.00000000000E+00 0.  1.
</event>
<event>
 7    1  0.7459264E-005  0.4443378E+03  0.7818608E-02  0.1169251E+00
          2   -1    0    0  502    0  0.00000000000E+00  0.00000000000E+00  0.37672128147E+04  0.37672128147E+04  0.00000000000E+00 0. -1.
          1   -1    0    0  501    0 -0.00000000000E+00 -0.00000000000E+00 -0.41498827795E+03  0.41498827795E+03  0.00000000000E+00 0. -1.
         25    2    1    2    0    0 -0.30535172486E+03 -0.29050899953E+03  0.15624212890E+04  0.16230897753E+04  0.12499991844E+03 0.  0.
          2    1    1    2  501    0  0.12760533077E+02 -0.70572855935E+02 -0.35620659671E+03  0.36335450836E+03  0.00000000000E+00 0. -1.
          1    1    1    2  502    0  0.29259119178E+03  0.36108185546E+03  0.21460098444E+04  0.21957568090E+04  0.00000000000E+00 0. -1.
         22    1    3    3    0    0 -0.12932530040E+03 -0.19766968162E+03  0.73270085631E+03  0.76983691857E+03  0.00000000000E+00 0.  1.
         22    1    3    3    0    0 -0.17602642445E+03 -0.92839317911E+02  0.82972043274E+03  0.85325285676E+03  0.00000000000E+00 0.  1.
</event>
<event>
 7    1  0.7459264E-005  0.7035249E+03  0.7818608E-02  0.1183244E+00
          2   -1    0    0  502    0  0.00000000000E+00  0.00000000000E+00  0.10947828192E+04  0.10947828192E+04  0.00000000000E+00 0. -1.
          1   -1    0    0  501    0 -0.00000000000E+00 -0.00000000000E+00 -0.49948539297E+03  0.49948539297E+03  0.00000000000E+00 0. -1.
         25    2    1    2    0    0  0.45966294467E+03 -0.55735380871E+03  0.22972098146E+03  0.76832934508E+03  0.12499984964E+03 0.  0.
          2    1    1    2  501    0 -0.62957944548E+01  0.38147761959E+02 -0.11388070656E+02  0.40306040783E+02  0.00000000000E+00 0. -1.
          1    1    1    2  502    0 -0.45336715021E+03  0.51920604675E+03  0.37696451544E+03  0.78563282631E+03  0.00000000000E+00 0. -1.
         22    1    3    3    0    0  0.11600775170E+03 -0.15918926791E+03  0.12124593977E+03  0.23129980412E+03  0.00000000000E+00 0.  1.
         22    1    3    3    0    0  0.34365519297E+03 -0.39816454080E+03  0.10847504169E+03  0.53702954097E+03  0.00000000000E+00 0.  1.
</event>
<event>
 7    1  0.7459264E-005  0.8222841E+03  0.7818608E-02  0.1099312E+00
          2   -1    0    0  502    0  0.00000000000E+00  0.00000000000E+00  0.27600435774E+04  0.27600435774E+04  0.00000000000E+00 0. -1.
          1   -1    0    0  501    0 -0.00000000000E+00 -0.00000000000E+00 -0.13668835100E+04  0.13668835100E+04  0.00000000000E+00 0. -1.
         25    2    1    2    0    0 -0.75221684270E+03 -0.44732959153E+03 -0.33646130891E+03  0.94592084929E+03  0.12500439519E+03 0.  0.
          2    1    1    2  501    0  0.68200800308E+03  0.38952031946E+03 -0.51199226316E+03  0.93754843772E+03  0.00000000000E+00 0. -1.
          1    1    1    2  502    0  0.70208839628E+02  0.57809272073E+02  0.22416136395E+04  0.22434578003E+04  0.00000000000E+00 0. -1.
         22    1    3    3    0    0 -0.25524806065E+03 -0.22212864654E+03 -0.13491337743E+03  0.36427232600E+03  0.00000000000E+00 0.  1.
         22    1    3    3    0    0 -0.49696878205E+03 -0.22520094499E+03 -0.20154793148E+03  0.58164852329E+03  0.00000000000E+00 0.  1.
</event>
<event>
 7    1  0.7459264E-005  0.4255793E+03  0.7818608E-02  0.1169867E+00
          2   -1    0    0  502    0  0.00000000000E+00  0.00000000000E+00  0.97927478438E+03  0.97927478438E+03  0.00000000000E+00 0. -1.
          1   -1    0    0  501    0 -0.00000000000E+00 -0.00000000000E+00 -0.42539515506E+03  0.42539515506E+03  0.00000000000E+00 0. -1.
         25    2    1    2    0    0 -0.43059592953E+02 -0.44044667210E+03  0.20345539247E+03  0.50285790564E+03  0.12499830809E+03 0.  0.
          2    1    1    2  501    0  0.71033406739E+02  0.21964450571E+02 -0.19793800675E+03  0.21144180400E+03  0.00000000000E+00 0. -1.
          1    1    1    2  502    0 -0.27973813786E+02  0.41848222153E+03  0.54836224360E+03  0.69037022981E+03  0.00000000000E+00 0. -1.
         22    1    3    3    0    0 -0.19330335288E+02 -0.14985520381E+03  0.13669353593E+03  0.20375320056E+03  0.00000000000E+00 0. -1.
         22    1    3    3    0    0 -0.23729257665E+02 -0.29059146829E+03  0.66761856538E+02  0.29910470508E+03  0.00000000000E+00 0. -1.
</event>
<event>
 7    1  0.7459264E-005  0.1115992E+03  0.7818608E-02  0.1320922E+00
          2   -1    0    0  502    0  0.00000000000E+00  0.00000000000E+00  0.33419212675E+04  0.33419212675E+04  0.00000000000E+00 0. -1.
          1   -1    0    0  501    0 -0.00000000000E+00 -0.00000000000E+00 -0.14472317176E+03  0.14472317176E+03  0.00000000000E+00 0. -1.
         25    2    1    2    0    0 -0.16567142190E+03 -0.35070877736E+02  0.14806669268E+04  0.14955523630E+04  0.12500134259E+03 0.  0.
          2    1    1    2  501    0  0.11049142003E+03  0.76135919004E+01 -0.11433912678E+03  0.15918466193E+03  0.00000000000E+00 0. -1.
          1    1    1    2  502    0  0.55180001877E+02  0.27457285836E+02  0.18308702957E+04  0.18319074144E+04  0.00000000000E+00 0. -1.
         22    1    3    3    0    0 -0.11529644690E+03 -0.81885410673E+02  0.95830923090E+03  0.96868729381E+03  0.00000000000E+00 0.  1.
         22    1    3    3    0    0 -0.50374975004E+02  0.46814532937E+02  0.52235769593E+03  0.52686506915E+03  0.00000000000E+00 0.  1.
</event>
<event>
 7    1  0.7459264E-005  0.6193647E+03  0.7818608E-02  0.1071626E+00
          2   -1    0    0  502    0  0.00000000000E+00  0.00000000000E+00  0.55571283313E+03  0.55571283313E+03  0.00000000000E+00 0. -1.
          1   -1    0    0  501    0 -0.00000000000E+00 -0.00000000000E+00 -0.15353119115E+04  0.15353119115E+04  0.00000000000E+00 0. -1.
         25    2    1    2    0    0 -0.47758843036E+03 -0.31269509267E+03 -0.77338016348E+03  0.96933491604E+03  0.12499748956E+03 0.  0.
          2    1    1    2  501    0  0.65213397232E+03  0.31879850408E+03 -0.42546163392E+03  0.84138505216E+03  0.00000000000E+00 0. -1.
          1    1    1    2  502    0 -0.17454554196E+03 -0.61034114055E+01  0.21924271902E+03  0.28030477644E+03  0.00000000000E+00 0. -1.
         22    1    3    3    0    0 -0.34990610824E+03 -0.25938703604E+03 -0.50128364874E+03  0.66407922384E+03  0.00000000000E+00 0.  1.
         22    1    3    3    0    0 -0.12768232212E+03 -0.53308056634E+02 -0.27209651474E+03  0.30525569220E+03  0.00000000000E+00 0.  1.
</event>
<event>
 7    1  0.7459264E-005  0.1339752E+03  0.7818608E-02  0.1314896E+00
          2   -1    0    0  502    0  0.00000000000E+00  0.00000000000E+00  0.18804232164E+04  0.18804232164E+04  0.00000000000E+00 0. -1.
          1   -1    0    0  501    0 -0.00000000000E+00 -0.00000000000E+00 -0.36480118347E+02  0.36480118347E+02  0.00000000000E+00 0. -1.
         25    2    1    2    0    0  0.16723828781E+02 -0.14163072150E+03  0.10988322051E+04  0.11150771188E+04  0.12500327196E+03 0.  0.
          2    1    1    2  501    0  0.47453496561E+02  0.26165378746E+02  0.10204857342E+02  0.55141640293E+02  0.00000000000E+00 0. -1.
          1    1    1    2  502    0 -0.64177325342E+02  0.11546534276E+03  0.73490603559E+03  0.74668457572E+03  0.00000000000E+00 0. -1.
         22    1    3    3    0    0  0.62667113136E+02 -0.66301176961E+02  0.37745016151E+03  0.38831898944E+03  0.00000000000E+00 0. -1.
         22    1    3    3    0    0 -0.45943284355E+02 -0.75329544543E+02  0.72138204363E+03  0.72675812932E+03  0.00000000000E+00 0. -1.
</event>
<event>
 7    1  0.7459264E-005  0.2397621E+03  0.7818608E-02  0.1175406E+00
          2   -1    0    0  502    0  0.00000000000E+00  0.00000000000E+00  0.19730326777E+04  0.19730326777E+04  0.00000000000E+00 0. -1.
          1   -1    0    0  501    0 -0.00000000000E+00 -0.00000000000E+00 -0.86031266122E+02  0.86031266122E+02  0.00000000000E+00 0. -1.
         25    2    1    2    0    0  0.15738906298E+03 -0.10467918733E+03  0.12909169834E+04  0.13106558654E+04  0.12499236096E+03 0.  0.
          2    1    1    2  501    0 -0.11939021511E+03  0.22261934071E+03  0.16954472913E+03  0.30423479337E+03  0.00000000000E+00 0. -1.
          1    1    1    2  502    0 -0.37998847870E+02 -0.11794015337E+03  0.42653969912E+03  0.44417328504E+03  0.00000000000E+00 0. -1.
         22    1    3    3    0    0  0.57140347746E+02 -0.21943259414E+00  0.69732974946E+03  0.69966695433E+03  0.00000000000E+00 0.  1.
         22    1    3    3    0    0  0.10024871523E+03 -0.10445975474E+03  0.59358723389E+03  0.61098891111E+03  0.00000000000E+00 0.  1.
</event>
<event>
 7    1  0.7459264E-005  0.4978779E+03  0.7818608E-02  0.1217517E+00
          2   -1    0    0  502    0  0.00000000000E+00  0.00000000000E+00  0.36981686599E+03  0.36981686599E+03  0.00000000000E+00 0. -1.
          1   -1    0    0  501    0 -0.00000000000E+00 -0.00000000000E+00 -0.25226910987E+04  0.25226910987E+04  0.00000000000E+00 0. -1.
         25    2    1    2    0    0 -0.11427498772E+03  0.45673715533E+03 -0.64784588569E+03  0.81055202478E+03  0.12499076524E+03 0.  0.
          2    1    1    2  501    0 -0.21604888808E+02  0.30847633919E+02 -0.15710524084E+04  0.15715037441E+04  0.00000000000E+00 0. -1.
          1    1    1    2  502    0  0.13587987653E+03 -0.48758478925E+03  0.66024061367E+02  0.51045219583E+03  0.00000000000E+00 0. -1.
         22    1    3    3    0    0 -0.98529434588E+02  0.30253088940E+03 -0.33859902635E+03  0.46463134759E+03  0.00000000000E+00 0. -1.
         22    1    3    3    0    0 -0.15745553135E+02  0.15420626593E+03 -0.30924685934E+03  0.34592067719E+03  0.00000000000E+00 0. -1.
</event>
<event>
 7    1  0.7459264E-005  0.3555740E+03  0.7818608E-02  0.1157322E+00
          2   -1    0    0  502    0  0.00000000000E+00  0.00000000000E+00  0.83498410862E+03  0.83498410862E+03  0.00000000000E+00 0. -1.
          1   -1    0    0  501    0 -0.00000000000E+00 -0.00000000000E+00 -0.55771503742E+03  0.55771503742E+03  0.00000000000E+00 0. -1.
         25    2    1    2    0    0 -0.19843290467E+03  0.26533578606E+03  0.39829285268E+03  0.53295484592E+03  0.12499989707E+03 0.  0.
          2    1    1    2  501    0 -0.10287511667E+03 -0.15294314240E+01 -0.37277482975E+03  0.38671268725E+03  0.00000000000E+00 0. -1.
          1    1    1    2  502    0  0.30130802134E+03 -0.26380635463E+03  0.25175104827E+03  0.47303161287E+03  0.00000000000E+00 0. -1.
         22    1    3    3    0    0 -0.16380273557E+03  0.17563239330E+03  0.35228268272E+03  0.42635802127E+03  0.00000000000E+00 0. -1.
         22    1    3    3    0    0 -0.34630169105E+02  0.89703392761E+02  0.46010169961E+02  0.10659682465E+03  0.00000000000E+00 0. -1.
</event>
<event>
 7    1  0.7459264E-005  0.9116220E+03  0.7818608E-02  0.1050804E+00
          2   -1    0    0  502    0  0.00000000000E+00  0.00000000000E+00  0.16706888910E+04  0.16706888910E+04  0.00000000000E+00 0. -1.
          1   -1    0    0  501    0 -0.00000000000E+00 -0.00000000000E+00 -0.11864777894E+04  0.11864777894E+04  0.00000000000E+00 0. -1.
         25    2    1    2    0    0 -0.98209683686E+03  0.96671216169E+02 -0.92267886671E+02  0.99899874618E+03  0.12500244378E+03 0.  0.
          2    1    1    2  501    0  0.86484857982E+03  0.10266817241E+02 -0.33904778910E+03  0.92898970761E+03  0.00000000000E+00 0. -1.
          1    1    1    2  502    0  0.11724825704E+03 -0.10693803341E+03  0.91552677736E+03  0.92917822662E+03  0.00000000000E+00 0. -1.
         22    1    3    3    0    0 -0.79479158802E+03  0.77799998972E+02 -0.24652654580E+02  0.79897075140E+03  0.00000000000E+00 0. -1.
         22    1    3    3    0    0 -0.18730524884E+03  0.18871217197E+02 -0.67615232091E+02  0.20002799478E+03  0.00000000000E+00 0. -1.
</event>
<event>
 7    1  0.7459264E-005  0.1120745E+03  0.7818608E-02  0.1281719E+00
          2   -1    0    0  502    0  0.00000000000E+00  0.00000000000E+00  0.11455745279E+03  0.11455745279E+03  0.00000000000E+00 0. -1.
          1   -1    0    0  501    0 -0.00000000000E+00 -0.00000000000E+00 -0.83501163164E+03  0.83501163164E+03  0.00000000000E+00 0. -1.
         25    2    1    2    0    0 -0.74884476798E+02 -0.14707616200E+03 -0.99630171049E+02  0.22976215193E+03  0.12500157272E+03 0.  0.
          2    1    1    2  501    0  0.73564614452E+02  0.48344474093E+02 -0.61459828132E+03  0.62087034724E+03  0.00000000000E+00 0. -1.
          1    1    1    2  502    0  0.13198623461E+01  0.98731687909E+02 -0.62257264790E+01  0.98936585266E+02  0.00000000000E+00 0. -1.
         22    1    3    3    0    0 -0.85978753972E+02 -0.85060730600E+02 -0.11281964463E+03  0.16539633079E+03  0.00000000000E+00 0. -1.
         22    1    3    3    0    0  0.11094277173E+02 -0.62015431402E+02  0.13189473579E+02  0.64365821142E+02  0.00000000000E+00 0. -1.
</event>
<event>
 7    1  0.7459264E-005  0.4850515E+03  0.7818608E-02  0.1247953E+00
          2   -1    0    0  502    0  0.00000000000E+00  0.00000000000E+00  0.76967275837E+03  0.76967275837E+03  0.00000000000E+00 0. -1.
          1   -1    0    0  501    0 -0.00000000000E+00 -0.00000000000E+00 -0.88307439952E+03  0.88307439952E+03  0.00000000000E+00 0. -1.
         25    2    1    2    0    0 -0.15656433532E+03  0.48127920152E+03  0.83475108901E+02  0.52795413300E+03  0.12500164732E+03 0.  0.
          2    1    1    2  501    0  0.14049255382E+03 -0.45801996764E+03 -0.57340551972E+03  0.74720434854E+03  0.00000000000E+00 0. -1.
          1    1    1    2  502    0  0.16071781501E+02 -0.23259233880E+02  0.37652876967E+03  0.37758867635E+03  0.00000000000E+00 0. -1.
         22    1    3    3    0    0 -0.14691721093E+03  0.29013864838E+03  0.18123446780E+02  0.32572006612E+03  0.00000000000E+00 0.  1.
         22    1    3    3    0    0 -0.96471243921E+01  0.19114055314E+03  0.65351662122E+02  0.20223406687E+03  0.00000000000E+00 0.  1.
</event>
<event>
 7    1  0.7459264E-005  0.3920738E+03  0.7818608E-02  0.1054276E+00
          2   -1    0    0  502    0  0.00000000000E+00  0.00000000000E+00  0.97510300071E+03  0.97510300071E+03  0.00000000000E+00 0. -1.
          1   -1    0    0  501    0 -0.00000000000E+00 -0.00000000000E+00 -0.18146401032E+04  0.18146401032E+04  0.00000000000E+00 0. -1.
         25    2    1    2    0    0  0.55752257121E+02 -0.33568454187E+03 -0.14554451185E+04  0.14999126200E+04  0.12499979540E+03 0.  0.
          2    1    1    2  501    0  0.26024941743E+03  0.56777246289E+03  0.85735341135E+02  0.63043308734E+03  0.00000000000E+00 0. -1.
          1    1    1    2  502    0 -0.31600167456E+03 -0.23208792103E+03  0.53017267488E+03  0.65939739657E+03  0.00000000000E+00 0. -1.
         22    1    3    3    0    0  0.11629233832E+02 -0.31228687999E+02 -0.37634870461E+03  0.37782114485E+03  0.00000000000E+00 0. -1.
         22    1    3    3    0    0  0.44123023289E+02 -0.30445585387E+03 -0.10790964139E+04  0.11220914752E+04  0.00000000000E+00 0. -1.
</event>
<event>
 7    1  0.7459264E-005  0.7013998E+03  0.7818608E-02  0.1146307E+00
          2   -1    0    0  502    0  0.00000000000E+00  0.00000000000E+00  0.14890325906E+04  0.14890325906E+04  0.00000000000E+00 0. -1.
          1   -1    0    0  501    0 -0.00000000000E+00 -0.00000000000E+00 -0.13416459093E+04  0.13416459093E+04  0.00000000000E+00 0. -1.
         25    2    1    2    0    0 -0.66880728743E+03  0.26410813174E+03  0.95930677298E+03  0.12053840159E+04  0.12499939288E+03 0.  0.
          2    1    1    2  501    0  0.62861350799E+03 -0.30784952922E+03 -0.11149758000E+04  0.13164715377E+04  0.00000000000E+00 0. -1.
          1    1    1    2  502    0  0.40193779442E+02  0.43741397477E+02  0.30305570837E+03  0.30882294625E+03  0.00000000000E+00 0. -1.
         22    1    3    3    0    0 -0.67176327464E+03  0.26941532083E+03  0.95129347997E+03  0.11953283220E+04  0.00000000000E+00 0.  1.
         22    1    3    3    0    0  0.29559872097E+01 -0.53071890911E+01  0.80132930144E+01  0.10055693977E+02  0.00000000000E+00 0.  1.
</event>
<event>
 7    1  0.7459264E-005  0.6157139E+03  0.7818608E-02  0.1216259E+00
          2   -1    0    0  502    0  0.00000000000E+00  0.00000000000E+00  0.39475498648E+03  0.39475498648E+03  0.00000000000E+00 0. -1.
          1   -1    0    0  501    0 -0.00000000000E+00 -0.00000000000E+00 -0.20011487901E+04  0.20011487901E+04  0.00000000000E+00 0. -1.
         25    2    1    2    0    0  0.35961446450E+03  0.48248080598E+03 -0.56477125965E+03  0.83468602284E+03  0.12499555906E+03 0.  0.
          2    1    1    2  501    0 -0.35462143334E+03 -0.51293454896E+03 -0.12253605920E+04  0.13749061033E+04  0.00000000000E+00 0. -1.
          1    1    1    2  502    0 -0.49930311593E+01  0.30453742980E+02  0.18373804798E+03  0.18631165046E+03  0.00000000000E+00 0. -1.
         22    1    3    3    0    0  0.23943293634E+03  0.40453328031E+03 -0.40949011673E+03  0.62342398220E+03  0.00000000000E+00 0.  1.
         22    1    3    3    0    0  0.12018152817E+03  0.77947525667E+02 -0.15528114292E+03  0.21126204064E+03  0.00000000000E+00 0.  1.
</event>
<event>
 7    1  0.7459264E-005  0.5674696E+03  0.7818608E-02  0.1105458E+00
          2   -1    0    0  502    0  0.00000000000E+00  0.00000000000E+00  0.13596363262E+04  0.13596363262E+04  0.00000000000E+00 0. -1.
          1   -1    0    0  501    0 -0.00000000000E+00 -0.00000000000E+00 -0.10884238604E+04  0.10884238604E+04  0.00000000000E+00 0. -1.
         25    2    1    2    0    0  0.54361588102E+03 -0.30602375476E+03 -0.52305842162E+03  0.82364041640E+03  0.12499863409E+03 0.  0.
          2    1    1    2  501    0 -0.42443809653E+03  0.28124205021E+03 -0.25407303529E+03  0.56903242074E+03  0.00000000000E+00 0. -1.
          1    1    1    2  502    0 -0.11917778449E+03  0.24781704553E+02  0.10483439227E+04  0.10553873495E+04  0.00000000000E+00 0. -1.
         22    1    3    3    0    0  0.35553050438E+03 -0.26235660888E+03 -0.38774154414E+03  0.58785749533E+03  0.00000000000E+00 0. -1.
         22    1    3    3    0    0  0.18808537665E+03 -0.43667145880E+02 -0.13531687748E+03  0.23578292107E+03  0.00000000000E+00 0. -1.
</event>
<event>
 7    1  0.7459264E-005  0.5271142E+03  0.7818608E-02  0.1137488E+00
          2   -1    0    0  502    0  0.00000000000E+00  0.00000000000E+00  0.24293993128E+04  0.24293993128E+04  0.00000000000E+00 0. -1.
          1   -1    0    0  501    0 -0.00000000000E+00 -0.00000000000E+00 -0.75566618889E+03  0.75566618889E+03  0.00000000000E+00 0. -1.
         25    2    1    2    0    0  0.51481230118E+03 -0.24766366203E+03  0.39092839263E+03  0.70343142668E+03  0.12498707507E+03 0.  0.
          2    1    1    2  501    0 -0.49269851219E+03  0.16260640579E+03 -0.48584570945E+03  0.71080146350E+03  0.00000000000E+00 0. -1.
          1    1    1    2  502    0 -0.22113788988E+02  0.85057256239E+02  0.17686504407E+04  0.17708326115E+04  0.00000000000E+00 0. -1.
         22    1    3    3    0    0  0.20140889858E+03 -0.45646800682E+02  0.94607991911E+02  0.22715599700E+03  0.00000000000E+00 0. -1.
         22    1    3    3    0    0  0.31340340260E+03 -0.20201686135E+03  0.29632040072E+03  0.47627542968E+03  0.00000000000E+00 0. -1.
</event>
<event>
 7    1  0.7459264E-005  0.2128202E+03  0.7818608E-02  0.1178252E+00
          2   -1    0    0  502    0  0.00000000000E+00  0.00000000000E+00  0.91063778201E+03  0.91063778201E+03  0.00000000000E+00 0. -1.
          1   -1    0    0  501    0 -0.00000000000E+00 -0.00000000000E+00 -0.48021182955E+03  0.48021182955E+03  0.00000000000E+00 0. -1.
         25    2    1    2    0    0  0.25518666968E+03  0.12806382134E+03  0.16360965355E+03  0.35201288464E+03  0.12499749396E+03 0.  0.
          2    1    1    2  501    0 -0.12531008250E+03 -0.16555143032E+03 -0.35023388283E+03  0.40715312297E+03  0.00000000000E+00 0. -1.
          1    1    1    2  502    0 -0.12987658718E+03  0.37487608974E+02  0.61705018174E+03  0.63168360395E+03  0.00000000000E+00 0. -1.
         22    1    3    3    0    0  0.18979525955E+03  0.89485280428E+02  0.17748925353E+03  0.27483138664E+03  0.00000000000E+00 0. -1.
         22    1    3    3    0    0  0.65391410134E+02  0.38578540914E+02 -0.13879599980E+02  0.77181498003E+02  0.00000000000E+00 0. -1.
</event>
<event>
 7    1  0.7459264E-005  0.2840916E+03  0.7818608E-02  0.1203091E+00
          2   -1    0    0  502    0  0.00000000000E+00  0.00000000000E+00  0.21973552254E+04  0.21973552254E+04  0.00000000000E+00 0. -1.
          1   -1    0    0  501    0 -0.00000000000E+00 -0.00000000000E+00 -0.23070321228E+04  0.23070321228E+04  0.00000000000E+00 0. -1.
         25    2    1    2    0    0 -0.79695189307E+02  0.32637613002E+03  0.52630236733E+03  0.63678278488E+03  0.12500172726E+03 0.  0.
          2    1    1    2  501    0 -0.24275830283E+02 -0.73059221636E+02 -0.22395248412E+04  0.22408477146E+04  0.00000000000E+00 0. -1.
          1    1    1    2  502    0  0.10397101959E+03 -0.25331690839E+03  0.16035455764E+04  0.16267568487E+04  0.00000000000E+00 0. -1.
         22    1    3    3    0    0  0.27194507908E+02  0.52046386690E+02  0.51501207344E+02  0.78107246692E+02  0.00000000000E+00 0.  1.
         22    1    3    3    0    0 -0.10688969722E+03  0.27432974333E+03  0.47480115999E+03  0.55867553819E+03  0.00000000000E+00 0.  1.
</event>
<event>
 7    1  0.7459264E-005  0.1310186E+03  0.7818608E-02  0.1277960E+00
          2   -1    0    0  502    0  0.00000000000E+00  0.00000000000E+00  0.46658866975E+04  0.46658866975E+04  0.00000000000E+00 0. -1.
          1   -1    0    0  501    0 -0.00000000000E+00 -0.00000000000E+00 -0.15378150140E+03  0.15378150140E+03  0.00000000000E+00 0. -1.
         25    2    1    2    0    0  0.10051591371E+03 -0.12513495913E+03  0.22192004456E+03  0.30105820025E+03  0.12500130741E+03 0.  0.
          2    1    1    2  501    0 -0.22502874848E+02  0.12729027084E+03 -0.77177008223E+02  0.15055059955E+03  0.00000000000E+00 0. -1.
          1    1    1    2  502    0 -0.78013038857E+02 -0.21553117052E+01  0.43673621597E+04  0.43680593991E+04  0.00000000000E+00 0. -1.
         22    1    3    3    0    0  0.24159068327E+02  0.10473579073E+02  0.99861198570E+02  0.10327446645E+03  0.00000000000E+00 0. -1.
         22    1    3    3    0    0  0.76356845379E+02 -0.13560853821E+03  0.12205884599E+03  0.19778373380E+03  0.00000000000E+00 0. -1.
</event>
<event>
 7    1  0.7459264E-005  0.5702205E+03  0.7818608E-02  0.1095379E+00
          2   -1    0    0  502    0  0.00000000000E+00  0.00000000000E+00  0.13249597337E+04  0.13249597337E+04  0.00000000000E+00 0. -1.
          1   -1    0    0  501    0 -0.00000000000E+00 -0.00000000000E+00 -0.23560239821E+04  0.23560239821E+04  0.00000000000E+00 0. -1.
         25    2    1    2    0    0  0.47445999604E+03 -0.92038289547E+02  0.19288496485E+03  0.53517554175E+03  0.12499966494E+03 0.  0.
          2    1    1    2  501    0  0.13541641130E+03 -0.26831268131E+02 -0.20819090114E+04  0.20864809257E+04  0.00000000000E+00 0. -1.
          1    1    1    2  502    0 -0.60987640734E+03  0.11886955768E+03  0.85795979817E+03  0.10593272484E+04  0.00000000000E+00 0. -1.
         22    1    3    3    0    0  0.37801072722E+03 -0.10184525691E+03  0.19675468246E+03  0.43815176745E+03  0.00000000000E+00 0. -1.
         22    1    3    3    0    0  0.96449268825E+02  0.98069673583E+01 -0.38697176124E+01  0.97023774304E+02  0.00000000000E+00 0. -1.
</event>
<event>
 7    1  0.7459264E-005  0.4000618E+03  0.7818608E-02  0.1163230E+00
          2   -1    0    0  502    0  0.00000000000E+00  0.00000000000E+00  0.80865903831E+03  0.80865903831E+03  0.00000000000E+00 0. -1.
          1   -1    0    0  501    0 -0.00000000000E+00 -0.00000000000E+00 -0.70809478588E+03  0.70809478588E+03  0.00000000000E+00 0. -1.
         25    2    1    2    0    0  0.53011503715E+02  0.39363948003E+03  0.45084478793E+03  0.61371763859E+03  0.12500422933E+03 0.  0.
          2    1    1    2  501    0 -0.83754089412E+02  0.16535704376E+02 -0.46758191739E+03  0.47531150468E+03  0.00000000000E+00 0. -1.
          1    1    1    2  502    0  0.30742585697E+02 -0.41017518441E+03  0.11730138189E+03  0.42772468092E+03  0.00000000000E+00 0. -1.
         22    1    3    3    0    0  0.91075463216E+02  0.24801236027E+03  0.31316085669E+03  0.40972502121E+03  0.00000000000E+00 0. -1.
         22    1    3    3    0    0 -0.38063959501E+02  0.14562711976E+03  0.13768393124E+03  0.20399261738E+03  0.00000000000E+00 0. -1.
</event>
<event>
 7    1  0.7459264E-005  0.4077265E+03  0.7818608E-02  0.1131012E+00
          2   -1    0    0  502    0  0.00000000000E+00  0.00000000000E+00  0.17235682864E+04  0.17235682864E+04  0.00000000000E+00 0. -1.
          1   -1    0    0  501    0 -0.00000000000E+00 -0.00000000000E+00 -0.10593645909E+04  0.10593645909E+04  0.00000000000E+00 0. -1.
         25    2    1    2    0    0  0.43123189219E+03  0.63355398422E+02 -0.86494235907E+03  0.97658858624E+03  0.12500052368E+03 0.  0.
          2    1    1    2  501    0 -0.30840110373E+03 -0.68728555602E+02  0.47395262502E+02  0.31950143355E+03  0.00000000000E+00 0. -1.
          1    1    1    2  502    0 -0.12283078847E+03  0.53731571803E+01  0.14817507920E+04  0.14868428575E+04  0.00000000000E+00 0. -1.
         22    1    3    3    0    0  0.30779041387E+03  0.19575984291E+02 -0.48549454674E+03  0.57517224633E+03  0.00000000000E+00 0. -1.
         22    1    3    3    0    0  0.12344147832E+03  0.43779414131E+02 -0.37944781233E+03  0.40141633992E+03  0.00000000000E+00 0. -1.
</event>
<event>
 7    1  0.7459264E-005  0.1928069E+03  0.7818608E-02  0.1302475E+00
          2   -1    0    0  502    0  0.00000000000E+00  0.00000000000E+00  0.77122132396E+03  0.77122132396E+03  0.00000000000E+00 0. -1.
          1   -1    0    0  501    0 -0.00000000000E+00 -0.00000000000E+00 -0.32784409867E+03  0.32784409867E+03  0.00000000000E+00 0. -1.
         25    2    1    2    0    0 -0.85267699232E+02 -0.14666172486E+03  0.84816216577E+02  0.22714743575E+03  0.12498769901E+03 0.  0.
          2    1    1    2  501    0  0.12689454779E+03  0.15332302285E+03 -0.21721213950E+03  0.29460361359E+03  0.00000000000E+00 0. -1.
          1    1    1    2  502    0 -0.41626848563E+02 -0.66612979973E+01  0.57577314821E+03  0.57731437329E+03  0.00000000000E+00 0. -1.
         22    1    3    3    0    0 -0.62255023547E+02 -0.20058445879E+02 -0.11507078264E+02  0.66411159138E+02  0.00000000000E+00 0.  1.
         22    1    3    3    0    0 -0.23012675685E+02 -0.12660327898E+03  0.96323294840E+02  0.16073627661E+03  0.00000000000E+00 0.  1.
</event>
<event>
 7    1  0.7459264E-005  0.3867824E+03  0.7818608E-02  0.1231902E+00
          2   -1    0    0  502    0  0.00000000000E+00  0.00000000000E+00  0.11152954509E+04  0.11152954509E+04  0.00000000000E+00 0. -1.
          1   -1    0    0  501    0 -0.00000000000E+00 -0.00000000000E+00 -0.10059513398E+04  0.10059513398E+04  0.00000000000E+00 0. -1.
         25    2    1    2    0    0  0.30514540092E+03  0.27461040943E+03  0.25051212700E+03  0.49689608074E+03  0.12499918645E+03 0.  0.
          2    1    1    2  501    0 -0.30565212239E+03 -0.23288127441E+03 -0.84029078604E+03  0.92398350256E+03  0.00000000000E+00 0. -1.
          1    1    1    2  502    0  0.50672147373E+00 -0.41729135017E+02  0.69912277012E+03  0.70036720739E+03  0.00000000000E+00 0. -1.
         22    1    3    3    0    0  0.22408613955E+03  0.23854984143E+03  0.24342964542E+03  0.40789535061E+03  0.00000000000E+00 0. -1.
         22    1    3    3    0    0  0.81059261369E+02  0.36060568002E+02  0.70824815835E+01  0.89000730130E+02  0.00000000000E+00 0. -1.
</event>
<event>
 7    1  0.7459264E-005  0.6063368E+03  0.7818608E-02  0.1104734E+00
          2   -1    0    0  502    0  0.00000000000E+00  0.00000000000E+00  0.22491357018E+04  0.22491357018E+04  0.00000000000E+00 0. -1.
          1   -1    0    0  501    0 -0.00000000000E+00 -0.00000000000E+00 -0.29552872986E+03  0.29552872986E+03  0.00000000000E+00 0. -1.
         25    2    1    2    0    0 -0.10492760461E+02  0.64095878352E+03  0.77125499651E+03  0.10106422025E+04  0.12500052697E+03 0.  0.
          2    1    1    2  501    0 -0.88858617634E+02 -0.58306200171E+03  0.33377462139E+03  0.67768919842E+03  0.00000000000E+00 0. -1.
          1    1    1    2  502    0  0.99351378095E+02 -0.57896781803E+02  0.84857735401E+03  0.85633303066E+03  0.00000000000E+00 0. -1.
         22    1    3    3    0    0  0.56954780933E+02  0.25911952602E+03  0.32021666290E+03  0.41584310387E+03  0.00000000000E+00 0.  1.
         22    1    3    3    0    0 -0.67447541393E+02  0.38183925750E+03  0.45103833360E+03  0.59479909868E+03  0.00000000000E+00 0.  1.
</event>
<event>
 7    1  0.7459264E-005  0.8999746E+02  0.7818608E-02  0.1448616E+00
          2   -1    0    0  502    0  0.00000000000E+00  0.00000000000E+00  0.35643072797E+03  0.35643072797E+03  0.00000000000E+00 0. -1.
          1   -1    0    0  501    0 -0.00000000000E+00 -0.00000000000E+00 -0.95185790993E+02  0.95185790993E+02  0.00000000000E+00 0. -1.
         25    2    1    2    0    0 -0.24952644993E+02 -0.10615874216E+03  0.15847523213E+03  0.22941601927E+03  0.12499999068E+03 0.  0.
          2    1    1    2  501    0  0.14989786000E+02  0.22593203891E+02 -0.44773568087E+02  0.52343279852E+02  0.00000000000E+00 0. -1.
          1    1    1    2  502    0  0.99628589926E+01  0.83565538265E+02  0.14754327293E+03  0.16985721984E+03  0.00000000000E+00 0. -1.
         22    1    3    3    0    0 -0.17473174037E+02 -0.22569760678E+02  0.14078443547E+03  0.14364874931E+03  0.00000000000E+00 0.  1.
         22    1    3    3    0    0 -0.74794709553E+01 -0.83588981478E+02  0.17690796667E+02  0.85767269964E+02  0.00000000000E+00 0.  1.
</event>
<event>
 7    1  0.7459264E-005  0.4100320E+03  0.7818608E-02  0.1103546E+00
          2   -1    0    0  502    0  0.00000000000E+00  0.00000000000E+00  0.87460319872E+03  0.87460319872E+03  0.00000000000E+00 0. -1.
          1   -1    0    0  501    0 -0.00000000000E+00 -0.00000000000E+00 -0.22027478713E+04  0.22027478713E+04  0.00000000000E+00 0. -1.
         25    2    1    2    0    0  0.50565630961E+03  0.17047576294E+03  0.96046417021E+02  0.55641756623E+03  0.12500121836E+03 0.  0.
          2    1    1    2  501    0 -0.17258932080E+03  0.50016954213E+01 -0.19035791353E+04  0.19113936316E+04  0.00000000000E+00 0. -1.
          1    1    1    2  502    0 -0.33306698881E+03 -0.17547745836E+03  0.47938804569E+03  0.60953987218E+03  0.00000000000E+00 0. -1.
         22    1    3    3    0    0  0.16586823547E+03  0.76881662493E+02  0.90354730062E+02  0.20392900434E+03  0.00000000000E+00 0. -1.
         22    1    3    3    0    0  0.33978807414E+03  0.93594100445E+02  0.56916869598E+01  0.35248856189E+03  0.00000000000E+00 0. -1.
</event>
<event>
 7    1  0.7459264E-005  0.3513034E+03  0.7818608E-02  0.1287019E+00
          2   -1    0    0  502    0  0.00000000000E+00  0.00000000000E+00  0.70143283575E+03  0.70143283575E+03  0.00000000000E+00 0. -1.
          1   -1    0    0  501    0 -0.00000000000E+00 -0.00000000000E+00 -0.25916866254E+03  0.25916866254E+03  0.00000000000E+00 0. -1.
         25    2    1    2    0    0  0.35463873345E+03 -0.99772674156E+02  0.29659563834E+03  0.48920154993E+03  0.12500386396E+03 0.  0.
          2    1    1    2  501    0 -0.33289822323E+03  0.84253397175E+02  0.21146412507E+02  0.34404510275E+03  0.00000000000E+00 0. -1.
          1    1    1    2  502    0 -0.21740510217E+02  0.15519276981E+02  0.12452212236E+03  0.12735484561E+03  0.00000000000E+00 0. -1.
         22    1    3    3    0    0  0.33423747126E+03 -0.54190553933E+02  0.24992556877E+03  0.42084925242E+03  0.00000000000E+00 0. -1.
         22    1    3    3    0    0  0.20401262187E+02 -0.45582120222E+02  0.46670069565E+02  0.68352297518E+02  0.00000000000E+00 0. -1.
</event>
<event>
 7    1  0.7459264E-005  0.2351529E+03  0.7818608E-02  0.1168360E+00
          2   -1    0    0  502    0  0.00000000000E+00  0.00000000000E+00  0.23403489441E+04  0.23403489441E+04  0.00000000000E+00 0. -1.
          1   -1    0    0  501    0 -0.00000000000E+00 -0.00000000000E+00 -0.11237974565E+03  0.11237974565E+03  0.00000000000E+00 0. -1.
         25    2    1    2    0    0 -0.27373081459E+03  0.22267966622E+03  0.68805669963E+03  0.78330174577E+03  0.12499924163E+03 0.  0.
          2    1    1    2  501    0  0.10208450621E+03 -0.91224186576E+02  0.25005834968E+02  0.13917036469E+03  0.00000000000E+00 0. -1.
          1    1    1    2  502    0  0.17164630838E+03 -0.13145547965E+03  0.15149066639E+04  0.15302565793E+04  0.00000000000E+00 0. -1.
         22    1    3    3    0    0 -0.15277296167E+03  0.81125983433E+02  0.22204058167E+03  0.28146584680E+03  0.00000000000E+00 0. -1.
         22    1    3    3    0    0 -0.12095785292E+03  0.14155368279E+03  0.46601611796E+03  0.50183589897E+03  0.00000000000E+00 0. -1.
</event>
<event>
 7    1  0.7459264E-005  0.5155396E+03  0.7818608E-02  0.1273282E+00
          2   -1    0    0  502    0  0.00000000000E+00  0.00000000000E+00  0.23898936616E+04  0.23898936616E+04  0.00000000000E+00 0. -1.
          1   -1    0    0  501    0 -0.00000000000E+00 -0.00000000000E+00 -0.60466826622E+03  0.60466826622E+03  0.00000000000E+00 0. -1.
         25    2    1    2    0    0 -0.51602917325E+03  0.45636380969E+02  0.34062181358E+03  0.63246914900E+03  0.12500087056E+03 0.  0.
          2    1    1    2  501    0  0.52181056426E+01  0.20076055248E+02 -0.42364678781E+03  0.42415430853E+03  0.00000000000E+00 0. -1.
          1    1    1    2  502    0  0.51081106760E+03 -0.65712436217E+02  0.18682503696E+04  0.19379384703E+04  0.00000000000E+00 0. -1.
         22    1    3    3    0    0 -0.18079646106E+03  0.45537947680E+02  0.61738570610E+02  0.19639937910E+03  0.00000000000E+00 0.  1.
         22    1    3    3    0    0 -0.33523271218E+03  0.98433288947E-01  0.27888324297E+03  0.43606976990E+03  0.00000000000E+00 0.  1.
</event>
<event>
 7    1  0.7459264E-005  0.2492873E+03  0.7818608E-02  0.1181651E+00
          2   -1    0    0  502    0  0.00000000000E+00  0.00000000000E+00  0.16056915296E+04  0.16056915296E+04  0.00000000000E+00 0. -1.
          1   -1    0    0  501    0 -0.00000000000E+00 -0.00000000000E+00 -0.90078068774E+03  0.90078068774E+03  0.00000000000E+00 0. -1.
         25    2    1    2    0    0  0.16955559082E+03 -0.29638680368E+03  0.42685303206E+03  0.56073483049E+03  0.12500321348E+03 0.  0.
          2    1    1    2  501    0 -0.38482534123E+02  0.10419824125E+03 -0.81787677401E+03  0.82538512004E+03  0.00000000000E+00 0. -1.
          1    1    1    2  502    0 -0.13107305670E+03  0.19218856242E+03  0.10959345839E+04  0.11203522669E+04  0.00000000000E+00 0. -1.
         22    1    3    3    0    0  0.49433259949E+02 -0.19567443610E+03  0.28568441998E+03  0.34978238942E+03  0.00000000000E+00 0. -1.
         22    1    3    3    0    0  0.12012233087E+03 -0.10071236757E+03  0.14116861208E+03  0.21095244107E+03  0.00000000000E+00 0. -1.
</event>
<event>
 7    1  0.7459264E-005  0.7715660E+02  0.7818608E-02  0.1359072E+00
          2   -1    0    0  502    0  0.00000000000E+00  0.00000000000E+00  0.33629797985E+04  0.33629797985E+04  0.00000000000E+00 0. -1.
          1   -1    0    0  501    0 -0.00000000000E+00 -0.00000000000E+00 -0.27684204798E+03  0.27684204798E+03  0.00000000000E+00 0. -1.
         25    2    1    2    0    0 -0.50454661341E+02  0.13152639068E+03  0.13287722821E+04  0.13420524870E+04  0.12499694310E+03 0.  0.
          2    1    1    2  501    0  0.25342704874E+02 -0.72599195087E+02 -0.26421356752E+03  0.27517577125E+03  0.00000000000E+00 0. -1.
          1    1    1    2  502    0  0.25111956467E+02 -0.58927195597E+02  0.20215790359E+04  0.20225935882E+04  0.00000000000E+00 0. -1.
         22    1    3    3    0    0 -0.10717509266E+02  0.13179634104E+01  0.61187783258E+01  0.12411344835E+02  0.00000000000E+00 0. -1.
         22    1    3    3    0    0 -0.39737152075E+02  0.13020842727E+03  0.13226535038E+04  0.13296411421E+04  0.00000000000E+00 0. -1.
</event>
<event>
 7    1  0.7459264E-005  0.4196032E+03  0.7818608E-02  0.1114629E+00
          2   -1    0    0  502    0  0.00000000000E+00  0.00000000000E+00  0.49856045482E+03  0.49856045482E+03  0.00000000000E+00 0. -1.
          1   -1    0    0  501    0 -0.00000000000E+00 -0.00000000000E+00 -0.14485080515E+04  0.14485080515E+04  0.00000000000E+00 0. -1.
         25    2    1    2    0    0  0.46598647612E+03 -0.10452864442E+02 -0.41371818171E+03  0.63564200683E+03  0.12500147462E+03 0.  0.
          2    1    1    2  501    0 -0.38460429620E+03  0.13224277209E+03 -0.86261213398E+03  0.95368145055E+03  0.00000000000E+00 0. -1.
          1    1    1    2  502    0 -0.81382179918E+02 -0.12178990765E+03  0.32638271898E+03  0.35774504897E+03  0.00000000000E+00 0. -1.
         22    1    3    3    0    0  0.22333400084E+03 -0.52806640164E+02 -0.25272940115E+03  0.34137774881E+03  0.00000000000E+00 0.  1.
         22    1    3    3    0    0  0.24265247528E+03  0.42353775722E+02 -0.16098878056E+03  0.29426425801E+03  0.00000000000E+00 0.  1.
</event>
<event>
 7    1  0.7459264E-005  0.2724917E+03  0.7818608E-02  0.1197474E+00
          2   -1    0    0  502    0  0.00000000000E+00  0.00000000000E+00  0.82437320239E+03  0.82437320239E+03  0.00000000000E+00 0. -1.
          1   -1    0    0  501    0 -0.00000000000E+00 -0.00000000000E+00 -0.12949630428E+04  0.12949630428E+04  0.00000000000E+00 0. -1.
         25    2    1    2    0    0 -0.11526954564E+03  0.33145854315E+03 -0.17375429679E+03  0.41106692248E+03  0.12503449573E+03 0.  0.
          2    1    1    2  501    0  0.32082489315E+02 -0.79047508742E+02 -0.97560370938E+03  0.97932649944E+03  0.00000000000E+00 0. -1.
          1    1    1    2  502    0  0.83187056330E+02 -0.25241103441E+03  0.67876816580E+03  0.72894282323E+03  0.00000000000E+00 0. -1.
         22    1    3    3    0    0 -0.76586584273E+02  0.29976003106E+03 -0.18406691199E+03  0.36000306833E+03  0.00000000000E+00 0.  1.
         22    1    3    3    0    0 -0.38682961372E+02  0.31698512089E+02  0.10312615196E+02  0.51063854157E+02  0.00000000000E+00 0.  1.
</event>
<event>
 7    1  0.7459264E-005  0.2721782E+03  0.7818608E-02  0.1259406E+00
          2   -1    0    0  502    0  0.00000000000E+00  0.00000000000E+00  0.51715598247E+03  0.51715598247E+03  0.00000000000E+00 0. -1.
          1   -1    0    0  501    0 -0.00000000000E+00 -0.00000000000E+00 -0.82286694477E+03  0.82286694477E+03  0.00000000000E+00 0. -1.
         25    2    1    2    0    0  0.30845032523E+03 -0.51336315240E+02  0.11196363482E+03  0.35487721895E+03  0.12499985845E+03 0.  0.
          2    1    1    2  501    0 -0.26398702640E+03  0.44619818890E+02 -0.67383153528E+03  0.72507173182E+03  0.00000000000E+00 0. -1.
          1    1    1    2  502    0 -0.44463298832E+02  0.67164963510E+01  0.25615693816E+03  0.26007397647E+03  0.00000000000E+00 0. -1.
         22    1    3    3    0    0  0.28498183024E+03 -0.34338810752E+02  0.56862537175E+02  0.29262116400E+03  0.00000000000E+00 0. -1.
         22    1    3    3    0    0  0.23468494996E+02 -0.16997504489E+02  0.55101097645E+02  0.62256054950E+02  0.00000000000E+00 0. -1.
</event>
<event>
 7    1  0.7459264E-005  0.1165229E+03  0.7818608E-02  0.1329737E+00
          2   -1    0    0  502    0  0.00000000000E+00  0.00000000000E+00  0.36105523948E+03  0.36105523948E+03  0.00000000000E+00 0. -1.
          1   -1    0    0  501    0 -0.00000000000E+00 -0.00000000000E+00 -0.10364167715E+04  0.10364167715E+04  0.00000000000E+00 0. -1.
         25    2    1    2    0    0  0.65226554937E+02 -0.87563512284E+02  0.33184052739E+03  0.37102884303E+03  0.12498957792E+03 0.  0.
          2    1    1    2  501    0 -0.18208321829E+02  0.11530961576E+03 -0.88415468701E+03  0.89182810060E+03  0.00000000000E+00 0. -1.
          1    1    1    2  502    0 -0.47018233108E+02 -0.27746103476E+02 -0.12304737242E+03  0.13461506737E+03  0.00000000000E+00 0. -1.
         22    1    3    3    0    0  0.71313093525E+02  0.41719183082E+01  0.11333203129E+03  0.13396682995E+03  0.00000000000E+00 0. -1.
         22    1    3    3    0    0 -0.60865385880E+01 -0.91735430592E+02  0.21850849610E+03  0.23706201308E+03  0.00000000000E+00 0. -1.
</event>
<event>
 7    1  0.7459264E-005  0.5361455E+03  0.7818608E-02  0.1208377E+00
          2   -1    0    0  502    0  0.00000000000E+00  0.00000000000E+00  0.91776651516E+03  0.91776651516E+03  0.00000000000E+00 0. -1.
          1   -1    0    0  501    0 -0.00000000000E+00 -0.00000000000E+00 -0.98750632805E+03  0.98750632805E+03  0.00000000000E+00 0. -1.
         25    2    1    2    0    0  0.51423291617E+03 -0.15876183950E+03  0.18878475131E+03  0.58387112117E+03  0.12499996018E+03 0.  0.
          2    1    1    2  501    0 -0.15353570965E+02 -0.35348735074E+02 -0.65444862825E+03  0.65558239164E+03  0.00000000000E+00 0. -1.
          1    1    1    2  502    0 -0.49887934521E+03  0.19411057458E+03  0.39592406405E+03  0.66581933040E+03  0.00000000000E+00 0. -1.
         22    1    3    3    0    0  0.99141760127E+02 -0.39346025110E+02  0.92857110517E+02  0.14142008792E+03  0.00000000000E+00 0.  1.
         22    1    3    3    0    0  0.41509115605E+03 -0.11941581439E+03  0.95927640798E+02  0.44245103325E+03  0.00000000000E+00 0.  1.
</event>
<event>
 7    1  0.7459264E-005  0.4270469E+03  0.7818608E-02  0.1217226E+00
          2   -1    0    0  502    0  0.00000000000E+00  0.00000000000E+00  0.65555770619E+03  0.65555770619E+03  0.00000000000E+00 0. -1.
          1   -1    0    0  501    0 -0.00000000000E+00 -0.00000000000E+00 -0.12268689219E+04  0.12268689219E+04  0.00000000000E+00 0. -1.
         25    2    1    2    0    0  0.31549677419E+03  0.29540605567E+03 -0.15898112423E+03  0.47718077073E+03  0.12499415125E+03 0.  0.
          2    1    1    2  501    0 -0.33887316613E+03 -0.25807943001E+03 -0.85772950329E+03  0.95767422213E+03  0.00000000000E+00 0. -1.
          1    1    1    2  502    0  0.23376391947E+02 -0.37326625656E+02  0.44539941177E+03  0.44757163526E+03  0.00000000000E+00 0. -1.
         22    1    3    3    0    0  0.66193058454E+02  0.35061242411E+02  0.15842575429E+02  0.76562385694E+02  0.00000000000E+00 0. -1.
         22    1    3    3    0    0  0.24930371573E+03  0.26034481325E+03 -0.17482369965E+03  0.40061838503E+03  0.00000000000E+00 0. -1.
</event>
<event>
 7    1  0.7459264E-005  0.2730456E+03  0.7818608E-02  0.1201602E+00
          2   -1    0    0  502    0  0.00000000000E+00  0.00000000000E+00  0.17512707141E+04  0.17512707141E+04  0.00000000000E+00 0. -1.
          1   -1    0    0  501    0 -0.00000000000E+00 -0.00000000000E+00 -0.19504448782E+03  0.19504448782E+03  0.00000000000E+00 0. -1.
         25    2    1    2    0    0  0.20771371795E+03 -0.52185392664E+01  0.14373528574E+04  0.14576626187E+04  0.12499940496E+03 0.  0.
          2    1    1    2  501    0 -0.27293019752E+03  0.53932105003E+02 -0.66629621344E+02  0.28607528923E+03  0.00000000000E+00 0. -1.
          1    1    1    2  502    0  0.65216479573E+02 -0.48713565736E+02  0.18550299020E+03  0.20257729406E+03  0.00000000000E+00 0. -1.
         22    1    3    3    0    0  0.75802736541E+01 -0.21853110341E+02  0.42139473646E+02  0.48070304965E+02  0.00000000000E+00 0. -1.
         22    1    3    3    0    0  0.20013344430E+03  0.16634571075E+02  0.13952133838E+04  0.14095923137E+04  0.00000000000E+00 0. -1.
</event>
<event>
 7    1  0.7459264E-005  0.5319223E+03  0.7818608E-02  0.1195512E+00
          2   -1    0    0  502    0  0.00000000000E+00  0.00000000000E+00  0.61792769456E+03  0.61792769456E+03  0.00000000000E+00 0. -1.
          1   -1    0    0  501    0 -0.00000000000E+00 -0.00000000000E+00 -0.13314633087E+04  0.13314633087E+04  0.00000000000E+00 0. -1.
         25    2    1    2    0    0  0.17608520342E+03  0.47285225130E+03  0.24863539465E+03  0.57622600296E+03  0.12498638564E+03 0.  0.
          2    1    1    2  501    0 -0.21724774155E+03 -0.49014957211E+03 -0.11024760838E+04  0.12259268737E+04  0.00000000000E+00 0. -1.
          1    1    1    2  502    0  0.41162538124E+02  0.17297320808E+02  0.14030507502E+03  0.14723812661E+03  0.00000000000E+00 0. -1.
         22    1    3    3    0    0  0.15885406785E+03  0.45865697035E+03  0.20438575447E+03  0.52666342948E+03  0.00000000000E+00 0. -1.
         22    1    3    3    0    0  0.17231135572E+02  0.14195280953E+02  0.44249640176E+02  0.49562573482E+02  0.00000000000E+00 0. -1.
</event>
<event>
 7    1  0.7459264E-005  0.1642861E+03  0.7818608E-02  0.1189763E+00
          2   -1    0    0  502    0  0.00000000000E+00  0.00000000000E+00  0.15925278387E+04  0.15925278387E+04  0.00000000000E+00 0. -1.
          1   -1    0    0  501    0 -0.00000000000E+00 -0.00000000000E+00 -0.21600107881E+03  0.21600107881E+03  0.00000000000E+00 0. -1.
         25    2    1    2    0    0  0.70905457729E+01 -0.95913023318E+02  0.11881083270E+04  0.11985306272E+04  0.12499873484E+03 0.  0.
          2    1    1    2  501    0  0.14632830587E+03  0.82567980753E+02 -0.15815978558E+03  0.23074653263E+03  0.00000000000E+00 0. -1.
          1    1    1    2  502    0 -0.15341885165E+03  0.13345042565E+02  0.34657821848E+03  0.37925175771E+03  0.00000000000E+00 0. -1.
         22    1    3    3    0    0 -0.54846853227E+02 -0.37780616051E+02  0.69252454308E+03  0.69571962387E+03  0.00000000000E+00 0. -1.
         22    1    3    3    0    0  0.61937399000E+02 -0.58132407266E+02  0.49558378396E+03  0.50281100335E+03  0.00000000000E+00 0. -1.
</event>
<event>
 7    1  0.7459264E-005  0.9554673E+02  0.7818608E-02  0.1310269E+00
          2   -1    0    0  502    0  0.00000000000E+00  0.00000000000E+00  0.63587806098E+03  0.63587806098E+03  0.00000000000E+00 0. -1.
          1   -1    0    0  501    0 -0.00000000000E+00 -0.00000000000E+00 -0.45783247439E+03  0.45783247439E+03  0.00000000000E+00 0. -1.
         25    2    1    2    0    0  0.15207009433E+03 -0.11647935089E+02 -0.39707014878E+02  0.20115392336E+03  0.12500106347E+03 0.  0.
          2    1    1    2  501    0 -0.86193316323E+02 -0.32367468251E+02 -0.32820791650E+03  0.34087736392E+03  0.00000000000E+00 0. -1.
          1    1    1    2  502    0 -0.65876778010E+02  0.44015403341E+02  0.54596051796E+03  0.55167924810E+03  0.00000000000E+00 0. -1.
         22    1    3    3    0    0  0.67770257095E+02 -0.67031689607E+02 -0.91367035228E+01  0.95757686426E+02  0.00000000000E+00 0.  1.
         22    1    3    3    0    0  0.84299837237E+02  0.55383754517E+02 -0.30570311356E+02  0.10539623693E+03  0.00000000000E+00 0.  1.
</event>
<event>
 7    1  0.7459264E-005  0.1512118E+03  0.7818608E-02  0.1328050E+00
          2   -1    0    0  502    0  0.00000000000E+00  0.00000000000E+00  0.52908553626E+03  0.52908553626E+03  0.00000000000E+00 0. -1.
          1   -1    0    0  501    0 -0.00000000000E+00 -0.00000000000E+00 -0.38430868801E+03  0.38430868801E+03  0.00000000000E+00 0. -1.
         25    2    1    2    0    0 -0.15733991337E+03 -0.20630099791E+02  0.71773605487E+02  0.21438841414E+03  0.12501796797E+03 0.  0.
          2    1    1    2  501    0  0.18717620005E+02 -0.38379015539E+02 -0.29671372973E+03  0.29977047143E+03  0.00000000000E+00 0. -1.
          1    1    1    2  502    0  0.13862229337E+03  0.59009115330E+02  0.36971697250E+03  0.39923533869E+03  0.00000000000E+00 0. -1.
         22    1    3    3    0    0 -0.12740391408E+03  0.32959083600E+02  0.77525242869E+02  0.15273579082E+03  0.00000000000E+00 0. -1.
         22    1    3    3    0    0 -0.29935999288E+02 -0.53589183391E+02 -0.57516373818E+01  0.61652623321E+02  0.00000000000E+00 0. -1.
</event>
<event>
 7    1  0.7459264E-005  0.1024806E+04  0.7818608E-02  0.1126395E+00
          2   -1    0    0  502    0  0.00000000000E+00  0.00000000000E+00  0.42917911146E+04  0.42917911146E+04  0.00000000000E+00 0. -1.
          1   -1    0    0  501    0 -0.00000000000E+00 -0.00000000000E+00 -0.16011554201E+04  0.16011554201E+04  0.00000000000E+00 0. -1.
         25    2    1    2    0    0 -0.10304310119E+04 -0.23323501188E+03  0.30877897514E+03  0.11077710625E+04  0.12500252211E+03 0.  0.
          2    1    1    2  501    0  0.99660703422E+03  0.19403465373E+03 -0.98695588134E+03  0.14159650205E+04  0.00000000000E+00 0. -1.
          1    1    1    2  502    0  0.33823977654E+02  0.39200358151E+02  0.33688126007E+04  0.33692104517E+04  0.00000000000E+00 0. -1.
         22    1    3    3    0    0 -0.69090067238E+03 -0.15874530057E+03  0.26762434957E+03  0.75773781879E+03  0.00000000000E+00 0. -1.
         22    1    3    3    0    0 -0.33953033949E+03 -0.74489711308E+02  0.41154625572E+02  0.35003324375E+03  0.00000000000E+00 0. -1.
</event>
<event>
 7    1  0.7459264E-005  0.7363600E+03  0.7818608E-02  0.1149527E+00
          2   -1    0    0  502    0  0.00000000000E+00  0.00000000000E+00  0.10935333465E+04  0.10935333465E+04  0.00000000000E+00 0. -1.
          1   -1    0    0  501    0 -0.00000000000E+00 -0.00000000000E+00 -0.11212504771E+04  0.11212504771E+04  0.00000000000E+00 0. -1.
         25    2    1    2    0    0  0.77428355057E+02 -0.72976748409E+03  0.32392263361E+03  0.81185383886E+03  0.12500020847E+03 0.  0.
          2    1    1    2  501    0 -0.23466403926E+02  0.73709994512E+03 -0.71994231772E+03  0.10306230844E+04  0.00000000000E+00 0. -1.
          1    1    1    2  502    0 -0.53961951130E+02 -0.73324610335E+01  0.36830255345E+03  0.37230690032E+03  0.00000000000E+00 0. -1.
         22    1    3    3    0    0 -0.22704972718E+02 -0.33954341505E+02  0.25504982126E+02  0.48155136864E+02  0.00000000000E+00 0. -1.
         22    1    3    3    0    0  0.10013332777E+03 -0.69581314258E+03  0.29841765148E+03  0.76369870200E+03  0.00000000000E+00 0. -1.
</event>
<event>
 7    1  0.7459264E-005  0.9069707E+02  0.7818608E-02  0.1486645E+00
          2   -1    0    0  502    0  0.00000000000E+00  0.00000000000E+00  0.41604282231E+03  0.41604282231E+03  0.00000000000E+00 0. -1.
          1   -1    0    0  501    0 -0.00000000000E+00 -0.00000000000E+00 -0.23028418282E+03  0.23028418282E+03  0.00000000000E+00 0. -1.
         25    2    1    2    0    0 -0.97665931817E+02 -0.38621126262E+02  0.19536966699E+03  0.25460730432E+03  0.12500138800E+03 0.  0.
          2    1    1    2  501    0  0.15311989583E+02  0.13585125722E+02 -0.19039398377E+03  0.19149120534E+03  0.00000000000E+00 0. -1.
          1    1    1    2  502    0  0.82353942234E+02  0.25036000541E+02  0.18078295627E+03  0.20022849548E+03  0.00000000000E+00 0. -1.
         22    1    3    3    0    0 -0.51613291035E+02 -0.82965280493E+02  0.10016971612E+03  0.13993263239E+03  0.00000000000E+00 0.  1.
         22    1    3    3    0    0 -0.46052640783E+02  0.44344154231E+02  0.95199950867E+02  0.11467467193E+03  0.00000000000E+00 0.  1.
</event>
<event>
 7    1  0.7459264E-005  0.8029525E+03  0.7818608E-02  0.1034252E+00
          2   -1    0    0  502    0  0.00000000000E+00  0.00000000000E+00  0.17253448544E+04  0.17253448544E+04  0.00000000000E+00 0. -1.
          1   -1    0    0  501    0 -0.00000000000E+00 -0.00000000000E+00 -0.11260581922E+04  0.11260581922E+04  0.00000000000E+00 0. -1.
         25    2    1    2    0    0  0.63292921849E+03  0.60869089815E+03 -0.56989585141E+03  0.10542827399E+04  0.12500723654E+03 0.  0.
          2    1    1    2  501    0 -0.41135930637E+03 -0.55103057307E+03  0.89513791102E+02  0.69344350180E+03  0.00000000000E+00 0. -1.
          1    1    1    2  502    0 -0.22156991212E+03 -0.57660325083E+02  0.10796687225E+04  0.11036768048E+04  0.00000000000E+00 0. -1.
         22    1    3    3    0    0  0.14427829959E+02  0.25140371969E+02 -0.49445607033E+02  0.57315518273E+02  0.00000000000E+00 0.  1.
         22    1    3    3    0    0  0.61850138853E+03  0.58355052618E+03 -0.52045024438E+03  0.99696722167E+03  0.00000000000E+00 0.  1.
</event>
<event>
 7    1  0.7459264E-005  0.1347045E+03  0.7818608E-02  0.1324717E+00
          2   -1    0    0  502    0  0.00000000000E+00  0.00000000000E+00  0.14733651121E+04  0.14733651121E+04  0.00000000000E+00 0. -1.
          1   -1    0    0  501    0 -0.00000000000E+00 -0.00000000000E+00 -0.68829259615E+02  0.68829259615E+02  0.00000000000E+00 0. -1.
         25    2    1    2    0    0  0.11925147366E+03 -0.93109339944E+02  0.19624026112E+03  0.27753344270E+03  0.12499723426E+03 0.  0.
          2    1    1    2  501    0 -0.11930841561E+03  0.43742399498E+02  0.11851688150E+03  0.17376463031E+03  0.00000000000E+00 0. -1.
          1    1    1    2  502    0  0.56941942699E-01  0.49366940446E+02  0.10897787098E+04  0.10908962987E+04  0.00000000000E+00 0. -1.
         22    1    3    3    0    0  0.53656693326E+02  0.79122882192E+00  0.13999297604E+03  0.14992564865E+03  0.00000000000E+00 0. -1.
         22    1    3    3    0    0  0.65594780338E+02 -0.93900568766E+02  0.56247285077E+02  0.12760779404E+03  0.00000000000E+00 0. -1.
</event>
<event>
 7    1  0.7459264E-005  0.2436821E+03  0.7818608E-02  0.1305736E+00
          2   -1    0    0  502    0  0.00000000000E+00  0.00000000000E+00  0.10608972985E+04  0.10608972985E+04  0.00000000000E+00 0. -1.
          1   -1    0    0  501    0 -0.00000000000E+00 -0.00000000000E+00 -0.17175113487E+03  0.17175113487E+03  0.00000000000E+00 0. -1.
         25    2    1    2    0    0  0.24001329220E+03 -0.30194200451E+02  0.11003667422E+03  0.29368828025E+03  0.12500666427E+03 0.  0.
          2    1    1    2  501    0 -0.23832075847E+03  0.62523511661E+02  0.11128631672E+03  0.27035276532E+03  0.00000000000E+00 0. -1.
          1    1    1    2  502    0 -0.16925337241E+01 -0.32329311210E+02  0.66782317273E+03  0.66860738784E+03  0.00000000000E+00 0. -1.
         22    1    3    3    0    0  0.74564838777E+02  0.29094650875E+02  0.83985547467E+02  0.11601718008E+03  0.00000000000E+00 0. -1.
         22    1    3    3    0    0  0.16544845342E+03 -0.59288851326E+02  0.26051126756E+02  0.17767110017E+03  0.00000000000E+00 0. -1.
</event>
<event>
 7    1  0.7459264E-005  0.1077047E+03  0.7818608E-02  0.1319357E+00
          2   -1    0    0  502    0  0.00000000000E+00  0.00000000000E+00  0.20658465338E+04  0.20658465338E+04  0.00000000000E+00 0. -1.
          1   -1    0    0  501    0 -0.00000000000E+00 -0.00000000000E+00 -0.40022941865E+03  0.40022941865E+03  0.00000000000E+00 0. -1.
         25    2    1    2    0    0 -0.80279168507E+02 -0.54715896168E+02 -0.29202501112E+03  0.33217699946E+03  0.12499751061E+03 0.  0.
          2    1    1    2  501    0  0.14180250048E+03  0.34494137055E+02 -0.26818951056E+02  0.14838143674E+03  0.00000000000E+00 0. -1.
          1    1    1    2  502    0 -0.61523331975E+02  0.20221759114E+02  0.19844610773E+04  0.19855175163E+04  0.00000000000E+00 0. -1.
         22    1    3    3    0    0 -0.20447058819E+02 -0.86695619752E+02 -0.18723335434E+03  0.20734160624E+03  0.00000000000E+00 0.  1.
         22    1    3    3    0    0 -0.59832109688E+02  0.31979723584E+02 -0.10479165677E+03  0.12483539322E+03  0.00000000000E+00 0.  1.
</event>
<event>
 7    1  0.7459264E-005  0.4894743E+03  0.7818608E-02  0.1212534E+00
          2   -1    0    0  502    0  0.00000000000E+00  0.00000000000E+00  0.11176636305E+04  0.11176636305E+04  0.00000000000E+00 0. -1.
          1   -1    0    0  501    0 -0.00000000000E+00 -0.00000000000E+00 -0.84412144652E+03  0.84412144652E+03  0.00000000000E+00 0. -1.
         25    2    1    2    0    0  0.17200945940E+03  0.42291759460E+03 -0.12631586478E+03  0.48992607099E+03  0.12500124555E+03 0.  0.
          2    1    1    2  501    0  0.20653046252E+02  0.34701658328E+02 -0.46921434965E+03  0.47094889248E+03  0.00000000000E+00 0. -1.
          1    1    1    2  502    0 -0.19266250565E+03 -0.45761925293E+03  0.86907239837E+03  0.10009101135E+04  0.00000000000E+00 0. -1.
         22    1    3    3    0    0  0.17441697061E+03  0.42251146533E+03 -0.13840646088E+03  0.47759142201E+03  0.00000000000E+00 0. -1.
         22    1    3    3    0    0 -0.24075112067E+01  0.40612927273E+00  0.12090596099E+02  0.12334648970E+02  0.00000000000E+00 0. -1.
</event>
<event>
 7    1  0.7459264E-005  0.1134484E+03  0.7818608E-02  0.1297736E+00
          2   -1    0    0  502    0  0.00000000000E+00  0.00000000000E+00  0.64951437462E+03  0.64951437462E+03  0.00000000000E+00 0. -1.
          1   -1    0    0  501    0 -0.00000000000E+00 -0.00000000000E+00 -0.33899656374E+03  0.33899656374E+03  0.00000000000E+00 0. -1.
         25    2    1    2    0    0 -0.36878405220E+02  0.13129342345E+03  0.36437229653E+03  0.40864435025E+03  0.12500021879E+03 0.  0.
          2    1    1    2  501    0 -0.45019166559E+02 -0.59790246686E+02 -0.30084071373E+03  0.31001086109E+03  0.00000000000E+00 0. -1.
          1    1    1    2  502    0  0.81897571780E+02 -0.71503176764E+02  0.24698622807E+03  0.26985572702E+03  0.00000000000E+00 0. -1.
         22    1    3    3    0    0  0.31665748801E+02 -0.27705276142E+01  0.93229935343E+02  0.98499829007E+02  0.00000000000E+00 0. -1.
         22    1    3    3    0    0 -0.68544154022E+02  0.13406395106E+03  0.27114236119E+03  0.31014452124E+03  0.00000000000E+00 0. -1.
</event>
<event>
 7    1  0.7459264E-005  0.4304675E+03  0.7818608E-02  0.1291418E+00
          2   -1    0    0  502    0  0.00000000000E+00  0.00000000000E+00  0.17047059492E+04  0.17047059492E+04  0.00000000000E+00 0. -1.
          1   -1    0    0  501    0 -0.00000000000E+00 -0.00000000000E+00 -0.31221653658E+03  0.31221653658E+03  0.00000000000E+00 0. -1.
         25    2    1    2    0    0 -0.42310024617E+03 -0.14233973387E+03  0.74770731702E+02  0.46956345365E+03  0.12499902613E+03 0.  0.
          2    1    1    2  501    0  0.14588532571E+02  0.14991445416E+02 -0.81516466909E+02  0.84157608661E+02  0.00000000000E+00 0. -1.
          1    1    1    2  502    0  0.40851171360E+03  0.12734828845E+03  0.13992351479E+04  0.14632014235E+04  0.00000000000E+00 0. -1.
         22    1    3    3    0    0 -0.32351720621E+03 -0.15881091553E+03  0.77318718245E+02  0.36859527099E+03  0.00000000000E+00 0.  1.
         22    1    3    3    0    0 -0.99583039966E+02  0.16471181664E+02 -0.25479865429E+01  0.10096818266E+03  0.00000000000E+00 0.  1.
</event>
<event>
 7    1  0.7459264E-005  0.6304157E+03  0.7818608E-02  0.1218315E+00
          2   -1    0    0  502    0  0.00000000000E+00  0.00000000000E+00  0.17684280742E+04  0.17684280742E+04  0.00000000000E+00 0. -1.
          1   -1    0    0  501    0 -0.00000000000E+00 -0.00000000000E+00 -0.11487983003E+04  0.11487983003E+04  0.00000000000E+00 0. -1.
         25    2    1    2    0    0 -0.60178641773E+03  0.14254941538E+03  0.12893993192E+04  0.14354938381E+04  0.12499890597E+03 0.  0.
          2    1    1    2  501    0  0.60752908310E+03 -0.17147916802E+03 -0.98238817649E+03  0.11677256618E+04  0.00000000000E+00 0. -1.
          1    1    1    2  502    0 -0.57426653675E+01  0.28929752640E+02  0.31261863112E+03  0.31400687463E+03  0.00000000000E+00 0. -1.
         22    1    3    3    0    0 -0.58024599221E+03  0.16112027408E+03  0.12214098501E+04  0.13617955706E+04  0.00000000000E+00 0.  1.
         22    1    3    3    0    0 -0.21540425526E+02 -0.18570858692E+02  0.67989469155E+02  0.73698267553E+02  0.00000000000E+00 0.  1.
</event>
<event>
 7    1  0.7459264E-005  0.7761285E+03  0.7818608E-02  0.1123074E+00
          2   -1    0    0  502    0  0.00000000000E+00  0.00000000000E+00  0.88506685972E+03  0.88506685972E+03  0.00000000000E+00 0. -1.
          1   -1    0    0  501    0 -0.00000000000E+00 -0.00000000000E+00 -0.15093434195E+04  0.15093434195E+04  0.00000000000E+00 0. -1.
         25    2    1    2    0    0  0.63911605538E+03  0.41016248529E+03 -0.95461498273E+03  0.12262208544E+04  0.12500088812E+03 0.  0.
          2    1    1    2  501    0 -0.70833961217E+03 -0.42698852851E+03 -0.32408067080E+01  0.82708809233E+03  0.00000000000E+00 0. -1.
          1    1    1    2  502    0  0.69223556784E+02  0.16826043222E+02  0.33357922965E+03  0.34110133245E+03  0.00000000000E+00 0. -1.
         22    1    3    3    0    0  0.14598117273E+03  0.59624762954E+02 -0.26908354622E+03  0.31188390467E+03  0.00000000000E+00 0.  1.
         22    1    3    3    0    0  0.49313488265E+03  0.35053772233E+03 -0.68553143651E+03  0.91433694977E+03  0.00000000000E+00 0.  1.
</event>
<event>
 7    1  0.7459264E-005  0.5138979E+03  0.7818608E-02  0.1029430E+00
          2   -1    0    0  502    0  0.00000000000E+00  0.00000000000E+00  0.25259598877E+04  0.25259598877E+04  0.00000000000E+00 0. -1.
          1   -1    0    0  501    0 -0.00000000000E+00 -0.00000000000E+00 -0.40986017246E+03  0.40986017246E+03  0.00000000000E+00 0. -1.
         25    2    1    2    0    0 -0.49487396409E+03 -0.21951110502E+03  0.11693470520E+04  0.12946362364E+04  0.12500036490E+03 0.  0.
          2    1    1    2  501    0  0.25869155000E+03 -0.28399948666E+03 -0.14926365396E+03  0.41213670651E+03  0.00000000000E+00 0. -1.
          1    1    1    2  502    0  0.23618241409E+03  0.50351059168E+03  0.10960163172E+04  0.12290471172E+04  0.00000000000E+00 0. -1.
         22    1    3    3    0    0 -0.17620115158E+03 -0.51496959830E+02  0.27692437957E+03  0.33224372784E+03  0.00000000000E+00 0. -1.
         22    1    3    3    0    0 -0.31867281250E+03 -0.16801414519E+03  0.89242267239E+03  0.96239250860E+03  0.00000000000E+00 0. -1.
</event>
<event>
 7    1  0.7459264E-005  0.2887563E+03  0.7818608E-02  0.1337196E+00
          2   -1    0    0  502    0  0.00000000000E+00  0.00000000000E+00  0.10911367370E+04  0.10911367370E+04  0.00000000000E+00 0. -1.
          1   -1    0    0  501    0 -0.00000000000E+00 -0.00000000000E+00 -0.86234731988E+03  0.86234731988E+03  0.00000000000E+00 0. -1.
         25    2    1    2    0    0  0.24752189966E+03 -0.17046929337E+03 -0.34800189121E+03  0.47650570522E+03  0.12500200011E+03 0.  0.
          2    1    1    2  501    0 -0.22797390831E+03  0.16384876088E+03 -0.40619569539E+03  0.49377470801E+03  0.00000000000E+00 0. -1.
          1    1    1    2  502    0 -0.19547991344E+02  0.66205324854E+01  0.98298700371E+03  0.98320364365E+03  0.00000000000E+00 0. -1.
         22    1    3    3    0    0  0.99334971757E+02 -0.11661206775E+03 -0.24237098536E+03  0.28672200039E+03  0.00000000000E+00 0. -1.
         22    1    3    3    0    0  0.14818692790E+03 -0.53857225615E+02 -0.10563090585E+03  0.18978370484E+03  0.00000000000E+00 0. -1.
</event>
<event>
 7    1  0.7459264E-005  0.3157202E+03  0.7818608E-02  0.1084861E+00
          2   -1    0    0  502    0  0.00000000000E+00  0.00000000000E+00  0.72380301851E+03  0.72380301851E+03  0.00000000000E+00 0. -1.
          1   -1    0    0  501    0 -0.00000000000E+00 -0.00000000000E+00 -0.25324132817E+04  0.25324132817E+04  0.00000000000E+00 0. -1.
         25    2    1    2    0    0 -0.12133948000E+03  0.54158086510E+03  0.23557682462E+03  0.61575450768E+03  0.12499628227E+03 0.  0.
          2    1    1    2  501    0  0.17087298321E+03 -0.25938638685E+03 -0.22603272589E+04  0.22815692388E+04  0.00000000000E+00 0. -1.
          1    1    1    2  502    0 -0.49533503205E+02 -0.28219447826E+03  0.21614017115E+03  0.35889255368E+03  0.00000000000E+00 0. -1.
         22    1    3    3    0    0 -0.93269370868E+02  0.49044349398E+03  0.16859819983E+03  0.52693391361E+03  0.00000000000E+00 0. -1.
         22    1    3    3    0    0 -0.28070109134E+02  0.51137371122E+02  0.66978624792E+02  0.88820594071E+02  0.00000000000E+00 0. -1.
</event>
<event>
 7    1  0.7459264E-005  0.3266575E+03  0.7818608E-02  0.1177873E+00
          2   -1    0    0  502    0  0.00000000000E+00  0.00000000000E+00  0.55292380535E+03  0.55292380535E+03  0.00000000000E+00 0. -1.
          1   -1    0    0  501    0 -0.00000000000E+00 -0.00000000000E+00 -0.73810319575E+03  0.73810319575E+03  0.00000000000E+00 0. -1.
         25    2    1    2    0    0 -0.36994037188E+03 -0.42844970663E+02  0.17494194163E+03  0.43002450013E+03  0.12499927005E+03 0.  0.
          2    1    1    2  501    0  0.83083355886E+02 -0.30331990024E+02 -0.51799651532E+03  0.52549335251E+03  0.00000000000E+00 0. -1.
          1    1    1    2  502    0  0.28685701600E+03  0.73176960687E+02  0.15787518329E+03  0.33550914846E+03  0.00000000000E+00 0. -1.
         22    1    3    3    0    0 -0.32482745886E+03 -0.70036052456E+02  0.17855582575E+03  0.37722686752E+03  0.00000000000E+00 0.  1.
         22    1    3    3    0    0 -0.45112913026E+02  0.27191081793E+02 -0.36138841189E+01  0.52797632610E+02  0.00000000000E+00 0.  1.
</event>
<event>
 7    1  0.7459264E-005  0.1780266E+03  0.7818608E-02  0.1238503E+00
          2   -1    0    0  502    0  0.00000000000E+00  0.00000000000E+00  0.11204733337E+03  0.11204733337E+03  0.00000000000E+00 0. -1.
          1   -1    0    0  501    0 -0.00000000000E+00 -0.00000000000E+00 -0.11290921554E+04  0.11290921554E+04  0.00000000000E+00 0. -1.
         25    2    1    2    0    0 -0.48241910648E+02  0.16399820224E+03 -0.24279708554E+02  0.21315987279E+03  0.12499973937E+03 0.  0.
          2    1    1    2  501    0 -0.35424662853E+02 -0.17747327349E+03 -0.71700714879E+03  0.73949369231E+03  0.00000000000E+00 0. -1.
          1    1    1    2  502    0  0.83666573501E+02  0.13475071251E+02 -0.27575796470E+03  0.28848592368E+03  0.00000000000E+00 0. -1.
         22    1    3    3    0    0  0.42281066082E+02  0.48432646588E+02  0.44861010926E+00  0.64293164921E+02  0.00000000000E+00 0.  1.
         22    1    3    3    0    0 -0.90522976730E+02  0.11556555565E+03 -0.24728318664E+02  0.14886670787E+03  0.00000000000E+00 0.  1.
</event>
<event>
 7    1  0.7459264E-005  0.5293517E+03  0.7818608E-02  0.1271551E+00
          2   -1    0    0  502    0  0.00000000000E+00  0.00000000000E+00  0.11341644137E+04  0.11341644137E+04  0.00000000000E+00 0. -1.
          1   -1    0    0  501    0 -0.00000000000E+00 -0.00000000000E+00 -0.48992181762E+03  0.48992181762E+03  0.00000000000E+00 0. -1.
         25    2    1    2    0    0  0.60459378086E+02 -0.51716733165E+03 -0.88403248669E+01  0.53555639011E+03  0.12500044130E+03 0.  0.
          2    1    1    2  501    0 -0.68565930650E+02  0.53604160537E+03  0.11811332891E+03  0.55316602210E+03  0.00000000000E+00 0. -1.
          1    1    1    2  502    0  0.81065525648E+01 -0.18874273726E+02  0.53496959206E+03  0.53536381913E+03  0.00000000000E+00 0. -1.
         22    1    3    3    0    0 -0.43610758889E+01 -0.21213026730E+03 -0.57755094040E+02  0.21989524819E+03  0.00000000000E+00 0. -1.
         22    1    3    3    0    0  0.64820453974E+02 -0.30503706434E+03  0.48914769173E+02  0.31566114192E+03  0.00000000000E+00 0. -1.
</event>
<event>
 7    1  0.7459264E-005  0.4299931E+03  0.7818608E-02  0.1123342E+00
          2   -1    0    0  502    0  0.00000000000E+00  0.00000000000E+00  0.47243836172E+03  0.47243836172E+03  0.00000000000E+00 0. -1.
          1   -1    0    0  501    0 -0.00000000000E+00 -0.00000000000E+00 -0.13943575697E+04  0.13943575697E+04  0.00000000000E+00 0. -1.
         25    2    1    2    0    0 -0.40016792567E+03  0.23856333072E+03 -0.17618853597E+03  0.51353251764E+03  0.12500565974E+03 0.  0.
          2    1    1    2  501    0  0.29217582484E+03 -0.30757029017E+03 -0.99019524541E+03  0.10772431573E+04  0.00000000000E+00 0. -1.
          1    1    1    2  502    0  0.10799210083E+03  0.69006959447E+02  0.24446457342E+03  0.27602025642E+03  0.00000000000E+00 0. -1.
         22    1    3    3    0    0 -0.74976896797E+02  0.10149390345E+03 -0.20588753461E+02  0.12785321373E+03  0.00000000000E+00 0.  1.
         22    1    3    3    0    0 -0.32519102887E+03  0.13706942727E+03 -0.15559978251E+03  0.38567930391E+03  0.00000000000E+00 0.  1.
</event>
<event>
 7    1  0.7459264E-005  0.6363769E+02  0.7818608E-02  0.1412649E+00
          2   -1    0    0  502    0  0.00000000000E+00  0.00000000000E+00  0.13735881231E+04  0.13735881231E+04  0.00000000000E+00 0. -1.
          1   -1    0    0  501    0 -0.00000000000E+00 -0.00000000000E+00 -0.23949214032E+03  0.23949214032E+03  0.00000000000E+00 0. -1.
         25    2    1    2    0    0  0.92946536134E+02  0.60254833514E+02  0.99129852538E+01  0.16731405457E+03  0.12500408808E+03 0.  0.
          2    1    1    2  501    0 -0.47692964444E+02 -0.16148894481E+02 -0.15605103003E+03  0.16397356380E+03  0.00000000000E+00 0. -1.
          1    1    1    2  502    0 -0.45253571689E+02 -0.44105939032E+02  0.12802340276E+04  0.12817926451E+04  0.00000000000E+00 0. -1.
         22    1    3    3    0    0  0.61223925951E+02  0.47532631529E+02 -0.54254815511E+02  0.94611337456E+02  0.00000000000E+00 0.  1.
         22    1    3    3    0    0  0.31722610182E+02  0.12722201984E+02  0.64167800765E+02  0.72702717110E+02  0.00000000000E+00 0.  1.
</event>
<event>
 7    1  0.7459264E-005  0.7005574E+03  0.7818608E-02  0.1166716E+00
          2   -1    0    0  502    0  0.00000000000E+00  0.00000000000E+00  0.48105001016E+04  0.48105001016E+04  0.00000000000E+00 0. -1.
          1   -1    0    0  501    0 -0.00000000000E+00 -0.00000000000E+00 -0.29579694690E+03  0.29579694690E+03  0.00000000000E+00 0. -1.
         25    2    1    2    0    0  0.65720979208E+03 -0.33697385739E+03  0.88593844700E+03  0.11601682777E+04  0.12500963726E+03 0.  0.
          2    1    1    2  501    0 -0.42659989525E+02  0.19318948159E+02 -0.12274116965E+03  0.13137157680E+03  0.00000000000E+00 0. -1.
          1    1    1    2  502    0 -0.61454980256E+03  0.31765490923E+03  0.37515058774E+04  0.38147571940E+04  0.00000000000E+00 0. -1.
         22    1    3    3    0    0  0.54582746431E+03 -0.24342098615E+03  0.76648538599E+03  0.97194714066E+03  0.00000000000E+00 0.  1.
         22    1    3    3    0    0  0.11138232778E+03 -0.93552871238E+02  0.11945306101E+03  0.18822113708E+03  0.00000000000E+00 0.  1.
</event>
<event>
 7    1  0.7459264E-005  0.3233394E+03  0.7818608E-02  0.1195194E+00
          2   -1    0    0  502    0  0.00000000000E+00  0.00000000000E+00  0.81868293327E+03  0.81868293327E+03  0.00000000000E+00 0. -1.
          1   -1    0    0  501    0 -0.00000000000E+00 -0.00000000000E+00 -0.56977996575E+03  0.56977996575E+03  0.00000000000E+00 0. -1.
         25    2    1    2    0    0  0.30069047511E+03 -0.14061022175E+03  0.52633023924E+03  0.63469261513E+03  0.12500079470E+03 0.  0.
          2    1    1    2  501    0  0.40143410353E+01  0.73598515142E+02 -0.40869841533E+03  0.41529176618E+03  0.00000000000E+00 0. -1.
          1    1    1    2  502    0 -0.30470481615E+03  0.67011706605E+02  0.13127114361E+03  0.33847851771E+03  0.00000000000E+00 0. -1.
         22    1    3    3    0    0  0.13419799186E+02 -0.52269538532E+02  0.72907035828E+02  0.90706292735E+02  0.00000000000E+00 0.  1.
         22    1    3    3    0    0  0.28727067593E+03 -0.88340683215E+02  0.45342320341E+03  0.54398632240E+03  0.00000000000E+00 0.  1.
</event>
<event>
 7    1  0.7459264E-005  0.1504024E+03  0.7818608E-02  0.1268387E+00
          2   -1    0    0  502    0  0.00000000000E+00  0.00000000000E+00  0.17042056260E+04  0.17042056260E+04  0.00000000000E+00 0. -1.
          1   -1    0    0  501    0 -0.00000000000E+00 -0.00000000000E+00 -0.70776515626E+02  0.70776515626E+02  0.00000000000E+00 0. -1.
         25    2    1    2    0    0  0.15937831889E+03  0.11014922067E+02  0.12858181201E+03  0.24017160344E+03  0.12500535860E+03 0.  0.
          2    1    1    2  501    0 -0.13089681764E+03  0.57872927357E+02  0.35806935542E+03  0.38561239072E+03  0.00000000000E+00 0. -1.
          1    1    1    2  502    0 -0.28481501254E+02 -0.68887849425E+02  0.11467779430E+04  0.11491981475E+04  0.00000000000E+00 0. -1.
         22    1    3    3    0    0  0.99575319008E+02 -0.53858696079E+02  0.86188341430E+02  0.14228293467E+03  0.00000000000E+00 0.  1.
         22    1    3    3    0    0  0.59802999882E+02  0.64873618147E+02  0.42393470582E+02  0.97888668774E+02  0.00000000000E+00 0.  1.
</event>
<event>
 7    1  0.7459264E-005  0.6033217E+02  0.7818608E-02  0.1403635E+00
          2   -1    0    0  502    0  0.00000000000E+00  0.00000000000E+00  0.38237318049E+04  0.38237318049E+04  0.00000000000E+00 0. -1.
          1   -1    0    0  501    0 -0.00000000000E+00 -0.00000000000E+00 -0.10108225143E+03  0.10108225143E+03  0.00000000000E+00 0. -1.
         25    2    1    2    0    0 -0.38646981249E+02  0.10999193169E+03  0.30021582419E+03  0.34546419796E+03  0.12499662710E+03 0.  0.
          2    1    1    2  501    0  0.21233475863E+02 -0.52889423209E+02 -0.67819062378E+02  0.88586549806E+02  0.00000000000E+00 0. -1.
          1    1    1    2  502    0  0.17413505385E+02 -0.57102508481E+02  0.34902527917E+04  0.34907633086E+04  0.00000000000E+00 0. -1.
         22    1    3    3    0    0 -0.31309929599E+02  0.10766129603E+03  0.11686832741E+03  0.16195515524E+03  0.00000000000E+00 0. -1.
         22    1    3    3    0    0 -0.73370516501E+01  0.23306356560E+01  0.18334749677E+03  0.18350904273E+03  0.00000000000E+00 0. -1.
</event>
<event>
 7    1  0.7459264E-005  0.1119098E+03  0.7818608E-02  0.1295009E+00
          2   -1    0    0  502    0  0.00000000000E+00  0.00000000000E+00  0.31577019482E+04  0.31577019482E+04  0.00000000000E+00 0. -1.
          1   -1    0    0  501    0 -0.00000000000E+00 -0.00000000000E+00 -0.26956181523E+02  0.26956181523E+02  0.00000000000E+00 0. -1.
         25    2    1    2    0    0  0.17028098411E+03  0.31015472167E+02  0.73623702101E+03  0.76656887882E+03  0.12500128725E+03 0.  0.
          2    1    1    2  501    0 -0.93842880046E+02 -0.16438191293E+02  0.19327675590E+03  0.21548226062E+03  0.00000000000E+00 0. -1.
          1    1    1    2  502    0 -0.76438104067E+02 -0.14577280875E+02  0.22012319898E+04  0.22026069903E+04  0.00000000000E+00 0. -1.
         22    1    3    3    0    0  0.48793692898E+02 -0.14822151791E+02  0.63631115666E+02  0.81544095624E+02  0.00000000000E+00 0. -1.
         22    1    3    3    0    0  0.12148729122E+03  0.45837623958E+02  0.67260590534E+03  0.68502478320E+03  0.00000000000E+00 0. -1.
</event>
<event>
 7    1  0.7459264E-005  0.3252924E+03  0.7818608E-02  0.1133160E+00
          2   -1    0    0  502    0  0.00000000000E+00  0.00000000000E+00  0.28533066613E+04  0.28533066613E+04  0.00000000000E+00 0. -1.
          1   -1    0    0  501    0 -0.00000000000E+00 -0.00000000000E+00 -0.13660022422E+03  0.13660022422E+03  0.00000000000E+00 0. -1.
         25    2    1    2    0    0 -0.39276736154E+02 -0.45267323712E+03  0.16750551906E+04  0.17400851825E+04  0.12502331478E+03 0.  0.
          2    1    1    2  501    0  0.50774928662E+02  0.30300643067E+03  0.14328467107E+03  0.33900071883E+03  0.00000000000E+00 0. -1.
          1    1    1    2  502    0 -0.11498192508E+02  0.14966680645E+03  0.89836657534E+03  0.91082098410E+03  0.00000000000E+00 0. -1.
         22    1    3    3    0    0  0.79775420231E+01 -0.20098479676E+03  0.95208010750E+03  0.97309560722E+03  0.00000000000E+00 0.  1.
         22    1    3    3    0    0 -0.47254278177E+02 -0.25168844036E+03  0.72297508312E+03  0.76698957531E+03  0.00000000000E+00 0.  1.
</event>
<event>
 7    1  0.7459264E-005  0.6738993E+03  0.7818608E-02  0.1181137E+00
          2   -1    0    0  502    0  0.00000000000E+00  0.00000000000E+00  0.69947972020E+03  0.69947972020E+03  0.00000000000E+00 0. -1.
          1   -1    0    0  501    0 -0.00000000000E+00 -0.00000000000E+00 -0.20701326029E+04  0.20701326029E+04  0.00000000000E+00 0. -1.
         25    2    1    2    0    0 -0.55130963942E+03 -0.40492271703E+03 -0.82797913512E+03  0.10812392774E+04  0.12499680581E+03 0.  0.
          2    1    1    2  501    0  0.55808342839E+03  0.36415487708E+03 -0.10150209945E+04  0.12142213583E+04  0.00000000000E+00 0. -1.
          1    1    1    2  502    0 -0.67737889699E+01  0.40767839950E+02  0.47234724696E+03  0.47415168744E+03  0.00000000000E+00 0. -1.
         22    1    3    3    0    0 -0.20351202607E+03 -0.16920351168E+03 -0.41425345690E+03  0.49158203758E+03  0.00000000000E+00 0.  1.
         22    1    3    3    0    0 -0.34779761335E+03 -0.23571920535E+03 -0.41372567823E+03  0.58965723980E+03  0.00000000000E+00 0.  1.
</event>
<event>
 7    1  0.7459264E-005  0.2275221E+03  0.7818608E-02  0.1330642E+00
          2   -1    0    0  502    0  0.00000000000E+00  0.00000000000E+00  0.14658007775E+04  0.14658007775E+04  0.00000000000E+00 0. -1.
          1   -1    0    0  501    0 -0.00000000000E+00 -0.00000000000E+00 -0.15072711526E+04  0.15072711526E+04  0.00000000000E+00 0. -1.
         25    2    1    2    0    0  0.27107158252E+02  0.21656324520E+03 -0.43485971868E+03  0.50235444508E+03  0.12499030506E+03 0.  0.
          2    1    1    2  501    0 -0.53479381948E+02 -0.22516096743E+03 -0.10256358883E+04  0.10514211720E+04  0.00000000000E+00 0. -1.
          1    1    1    2  502    0  0.26372223695E+02  0.85977222286E+01  0.14190252319E+04  0.14192963129E+04  0.00000000000E+00 0. -1.
         22    1    3    3    0    0  0.45371162146E+02  0.22277574578E+03 -0.36617964387E+03  0.43101636494E+03  0.00000000000E+00 0.  1.
         22    1    3    3    0    0 -0.18264003894E+02 -0.62125005773E+01 -0.68680074812E+02  0.71338080139E+02  0.00000000000E+00 0.  1.
</event>
<event>
 7    1  0.7459264E-005  0.1177386E+03  0.7818608E-02  0.1319281E+00
          2   -1    0    0  502    0  0.00000000000E+00  0.00000000000E+00  0.34252668553E+03  0.34252668553E+03  0.00000000000E+00 0. -1.
          1   -1    0    0  501    0 -0.00000000000E+00 -0.00000000000E+00 -0.58765493567E+03  0.58765493567E+03  0.00000000000E+00 0. -1.
         25    2    1    2    0    0  0.16598447218E+03  0.53793027982E+02  0.11805525731E+03  0.24496337263E+03  0.12500190114E+03 0.  0.
          2    1    1    2  501    0 -0.11190289330E+03 -0.29511512021E+02 -0.51205887961E+03  0.52497379274E+03  0.00000000000E+00 0. -1.
          1    1    1    2  502    0 -0.54081578872E+02 -0.24281515961E+02  0.14887537215E+03  0.16024445583E+03  0.00000000000E+00 0. -1.
         22    1    3    3    0    0  0.18276450419E+03  0.64787551575E+02  0.10101544696E+03  0.21864219940E+03  0.00000000000E+00 0.  1.
         22    1    3    3    0    0 -0.16780032018E+02 -0.10994523593E+02  0.17039810351E+02  0.26321173233E+02  0.00000000000E+00 0.  1.
</event>
<event>
 7    1  0.7459264E-005  0.3656291E+03  0.7818608E-02  0.1308770E+00
          2   -1    0    0  502    0  0.00000000000E+00  0.00000000000E+00  0.71743280676E+03  0.71743280676E+03  0.00000000000E+00 0. -1.
          1   -1    0    0  501    0 -0.00000000000E+00 -0.00000000000E+00 -0.15013837966E+04  0.15013837966E+04  0.00000000000E+00 0. -1.
         25    2    1    2    0    0 -0.34713148306E+03 -0.15050232133E+03 -0.12331148234E+03  0.41710946150E+03  0.12499346361E+03 0.  0.
          2    1    1    2  501    0  0.19927461373E+02 -0.65869183275E+01 -0.11733435606E+04  0.11735312533E+04  0.00000000000E+00 0. -1.
          1    1    1    2  502    0  0.32720402169E+03  0.15708923966E+03  0.51270405306E+03  0.62817588862E+03  0.00000000000E+00 0. -1.
         22    1    3    3    0    0 -0.13490984808E+03 -0.12454036133E+03 -0.41865251585E+02  0.18831799701E+03  0.00000000000E+00 0.  1.
         22    1    3    3    0    0 -0.21222163498E+03 -0.25961960000E+02 -0.81446230753E+02  0.22879146449E+03  0.00000000000E+00 0.  1.
</event>
<event>
 7    1  0.7459264E-005  0.6491037E+03  0.7818608E-02  0.1183509E+00
          2   -1    0    0  502    0  0.00000000000E+00  0.00000000000E+00  0.20941967379E+04  0.20941967379E+04  0.00000000000E+00 0. -1.
          1   -1    0    0  501    0 -0.00000000000E+00 -0.00000000000E+00 -0.10816988748E+04  0.10816988748E+04  0.00000000000E+00 0. -1.
         25    2    1    2    0    0 -0.67850287198E+03  0.69235926767E+02  0.55108997927E+03  0.88571218979E+03  0.12500462813E+03 0.  0.
          2    1    1    2  501    0  0.64208940281E+03 -0.48748671839E+02 -0.80062954606E+03  0.10274545753E+04  0.00000000000E+00 0. -1.
          1    1    1    2  502    0  0.36413469163E+02 -0.20487254928E+02  0.12620374298E+04  0.12627288476E+04  0.00000000000E+00 0. -1.
         22    1    3    3    0    0 -0.48914010384E+02 -0.19436753221E+02  0.74030568219E+02  0.90834425294E+02  0.00000000000E+00 0. -1.
         22    1    3    3    0    0 -0.62958886159E+03  0.88672679988E+02  0.47705941105E+03  0.79487776450E+03  0.00000000000E+00 0. -1.
</event>
<event>
 7    1  0.7459264E-005  0.9808641E+02  0.7818608E-02  0.1425182E+00
          2   -1    0    0  502    0  0.00000000000E+00  0.00000000000E+00  0.50762419750E+03  0.50762419750E+03  0.00000000000E+00 0. -1.
          1   -1    0    0  501    0 -0.00000000000E+00 -0.00000000000E+00 -0.19528966716E+03  0.19528966716E+03  0.00000000000E+00 0. -1.
         25    2    1    2    0    0  0.73329014412E+02 -0.24586268759E+02  0.64697047428E+02  0.16059834667E+03  0.12499796815E+03 0.  0.
          2    1    1    2  501    0 -0.10067459379E+03  0.13094010035E+02 -0.12919847238E+03  0.16431394401E+03  0.00000000000E+00 0. -1.
          1    1    1    2  502    0  0.27345579373E+02  0.11492258724E+02  0.37683595529E+03  0.37800157397E+03  0.00000000000E+00 0. -1.
         22    1    3    3    0    0  0.76198396733E+02  0.13239742167E+02  0.87148548869E+02  0.11651762102E+03  0.00000000000E+00 0.  1.
         22    1    3    3    0    0 -0.28693823204E+01 -0.37826010926E+02 -0.22451501442E+02  0.44080725657E+02  0.00000000000E+00 0.  1.
</event>
<event>
 7    1  0.7459264E-005  0.2820837E+03  0.7818608E-02  0.1250692E+00
          2   -1    0    0  502    0  0.00000000000E+00  0.00000000000E+00  0.64208701998E+03  0.64208701998E+03  0.00000000000E+00 0. -1.
          1   -1    0    0  501    0 -0.00000000000E+00 -0.00000000000E+00 -0.98544149078E+03  0.98544149078E+03  0.00000000000E+00 0. -1.
         25    2    1    2    0    0  0.30291240872E+03 -0.11734001346E+03 -0.29684599698E+03  0.45745567797E+03  0.12499418093E+03 0.  0.
          2    1    1    2  501    0 -0.41014520837E+02  0.23562076637E+02 -0.57281878921E+03  0.57476841219E+03  0.00000000000E+00 0. -1.
          1    1    1    2  502    0 -0.26189788788E+03  0.93777936825E+02  0.52631031539E+03  0.59530442061E+03  0.00000000000E+00 0. -1.
         22    1    3    3    0    0  0.30011609239E+03 -0.90884259479E+02 -0.29541709859E+03  0.43081420552E+03  0.00000000000E+00 0. -1.
         22    1    3    3    0    0  0.27963163289E+01 -0.26455753983E+02 -0.14288983880E+01  0.26641472452E+02  0.00000000000E+00 0. -1.
</event>
<event>
 7    1  0.7459264E-005  0.7849672E+02  0.7818608E-02  0.1495234E+00
          2   -1    0    0  502    0  0.00000000000E+00  0.00000000000E+00  0.16326342699E+04  0.16326342699E+04  0.00000000000E+00 0. -1.
          1   -1    0    0  501    0 -0.00000000000E+00 -0.00000000000E+00 -0.19519599524E+03  0.19519599524E+03  0.00000000000E+00 0. -1.
         25    2    1    2    0    0 -0.42241205812E+02 -0.43487007267E+02  0.35317787663E+03  0.37951907756E+03  0.12499871367E+03 0.  0.
          2    1    1    2  501    0  0.43732472316E+02  0.65716484062E+02 -0.17336396181E+03  0.19048949752E+03  0.00000000000E+00 0. -1.
          1    1    1    2  502    0 -0.14912665038E+01 -0.22229476795E+02  0.12576243598E+04  0.12578216900E+04  0.00000000000E+00 0. -1.
         22    1    3    3    0    0  0.70599807871E+00 -0.79397454295E+02  0.24756374243E+03  0.25998511640E+03  0.00000000000E+00 0. -1.
         22    1    3    3    0    0 -0.42947203891E+02  0.35910447028E+02  0.10561413420E+03  0.11953396116E+03  0.00000000000E+00 0. -1.
</event>
<event>
 7    1  0.7459264E-005  0.7806534E+03  0.7818608E-02  0.1173498E+00
          2   -1    0    0  502    0  0.00000000000E+00  0.00000000000E+00  0.20253497479E+04  0.20253497479E+04  0.00000000000E+00 0. -1.
          1   -1    0    0  501    0 -0.00000000000E+00 -0.00000000000E+00 -0.14261976652E+04  0.14261976652E+04  0.00000000000E+00 0. -1.
         25    2    1    2    0    0  0.49194855660E+02  0.76244077728E+03  0.14257305727E+03  0.78720257386E+03  0.12499897180E+03 0.  0.
          2    1    1    2  501    0 -0.17956515128E+02 -0.78560487821E+03 -0.96373633455E+03  0.12434971587E+04  0.00000000000E+00 0. -1.
          1    1    1    2  502    0 -0.31238340532E+02  0.23164100929E+02  0.14203153600E+04  0.14208476806E+04  0.00000000000E+00 0. -1.
         22    1    3    3    0    0  0.28532564744E+02  0.52207412486E+03  0.15584362671E+03  0.54558476434E+03  0.00000000000E+00 0. -1.
         22    1    3    3    0    0  0.20662290916E+02  0.24036665242E+03 -0.13270569444E+02  0.24161780952E+03  0.00000000000E+00 0. -1.
</event>
<event>
 7    1  0.7459264E-005  0.1098285E+03  0.7818608E-02  0.1280861E+00
          2   -1    0    0  502    0  0.00000000000E+00  0.00000000000E+00  0.17150646576E+03  0.17150646576E+03  0.00000000000E+00 0. -1.
          1   -1    0    0  501    0 -0.00000000000E+00 -0.00000000000E+00 -0.40172732254E+03  0.40172732254E+03  0.00000000000E+00 0. -1.
         25    2    1    2    0    0 -0.68716029836E+02  0.10739432093E+02 -0.12158654973E+03  0.18773951579E+03  0.12500243420E+03 0.  0.
          2    1    1    2  501    0 -0.25392795265E+02 -0.86930857498E+02 -0.20928472020E+03  0.22803916801E+03  0.00000000000E+00 0. -1.
          1    1    1    2  502    0  0.94108825102E+02  0.76191425404E+02  0.10065041315E+03  0.15745510451E+03  0.00000000000E+00 0. -1.
         22    1    3    3    0    0 -0.69063588717E+01 -0.30913733458E+02  0.12722271876E+02  0.34135215114E+02  0.00000000000E+00 0. -1.
         22    1    3    3    0    0 -0.61809670965E+02  0.41653165552E+02 -0.13430882161E+03  0.15360430068E+03  0.00000000000E+00 0. -1.
</event>
<event>
 7    1  0.7459264E-005  0.8039724E+03  0.7818608E-02  0.1162240E+00
          2   -1    0    0  502    0  0.00000000000E+00  0.00000000000E+00  0.26839356936E+04  0.26839356936E+04  0.00000000000E+00 0. -1.
          1   -1    0    0  501    0 -0.00000000000E+00 -0.00000000000E+00 -0.11305124779E+04  0.11305124779E+04  0.00000000000E+00 0. -1.
         25    2    1    2    0    0 -0.46733028983E+03  0.68484733096E+03  0.12685493296E+04  0.15206104823E+04  0.12500148339E+03 0.  0.
          2    1    1    2  501    0  0.42471616749E+03 -0.67931904339E+03 -0.84425962095E+03  0.11638868043E+04  0.00000000000E+00 0. -1.
          1    1    1    2  502    0  0.42614122334E+02 -0.55282875690E+01  0.11291335071E+04  0.11299508849E+04  0.00000000000E+00 0. -1.
         22    1    3    3    0    0 -0.17460077858E+03  0.34111315543E+03  0.51095979810E+03  0.63868891643E+03  0.00000000000E+00 0.  1.
         22    1    3    3    0    0 -0.29272951125E+03  0.34373417553E+03  0.75758953151E+03  0.88192156592E+03  0.00000000000E+00 0.  1.
</event>
<event>
 7    1  0.7459264E-005  0.4169234E+03  0.7818608E-02  0.1186888E+00
          2   -1    0    0  502    0  0.00000000000E+00  0.00000000000E+00  0.15790806733E+04  0.15790806733E+04  0.00000000000E+00 0. -1.
          1   -1    0    0  501    0 -0.00000000000E+00 -0.00000000000E+00 -0.50394051947E+03  0.50394051947E+03  0.00000000000E+00 0. -1.
         25    2    1    2    0    0 -0.41441202039E+03 -0.52747347351E+02 -0.21632535674E+03  0.48676547578E+03  0.12499745254E+03 0.  0.
          2    1    1    2  501    0  0.41823365147E+03 -0.97822999670E+01  0.13717086477E+03  0.44026233856E+03  0.00000000000E+00 0. -1.
          1    1    1    2  502    0 -0.38216310781E+01  0.62529647318E+02  0.11542946458E+04  0.11559933785E+04  0.00000000000E+00 0. -1.
         22    1    3    3    0    0 -0.20082998389E+02  0.17215968657E+02 -0.42769895542E+02  0.50288968629E+02  0.00000000000E+00 0.  1.
         22    1    3    3    0    0 -0.39432902200E+03 -0.69963316008E+02 -0.17355546119E+03  0.43647650715E+03  0.00000000000E+00 0.  1.
</event>
<event>
 7    1  0.7459264E-005  0.2079211E+03  0.7818608E-02  0.1153808E+00
          2   -1    0    0  502    0  0.00000000000E+00  0.00000000000E+00  0.74994104454E+03  0.74994104454E+03  0.00000000000E+00 0. -1.
          1   -1    0    0  501    0 -0.00000000000E+00 -0.00000000000E+00 -0.37452674460E+03  0.37452674460E+03  0.00000000000E+00 0. -1.
         25    2    1    2    0    0 -0.32058420657E+03 -0.11386790409E+03  0.74000507228E+02  0.36992065048E+03  0.12500031798E+03 0.  0.
          2    1    1    2  501    0  0.18653710109E+03 -0.11233968137E+02 -0.16756553991E+03  0.25099900854E+03  0.00000000000E+00 0. -1.
          1    1    1    2  502    0  0.13404710549E+03  0.12510187222E+03  0.46897933262E+03  0.50354813013E+03  0.00000000000E+00 0. -1.
         22    1    3    3    0    0 -0.10304195776E+03 -0.47950166156E+02 -0.33480010921E+02  0.11848111506E+03  0.00000000000E+00 0. -1.
         22    1    3    3    0    0 -0.21754224881E+03 -0.65917737931E+02  0.10748051815E+03  0.25143953542E+03  0.00000000000E+00 0. -1.
</event>
<event>
 7    1  0.7459264E-005  0.2217885E+03  0.7818608E-02  0.1275511E+00
          2   -1    0    0  502    0  0.00000000000E+00  0.00000000000E+00  0.39505954341E+03  0.39505954341E+03  0.00000000000E+00 0. -1.
          1   -1    0    0  501    0 -0.00000000000E+00 -0.00000000000E+00 -0.64026222522E+03  0.64026222522E+03  0.00000000000E+00 0. -1.
         25    2    1    2    0    0 -0.19760975120E+03  0.14075954418E+03 -0.40114402247E+03  0.48518617596E+03  0.12500494204E+03 0.  0.
          2    1    1    2  501    0  0.16729622446E+03 -0.10458643170E+03 -0.14542155898E+03  0.24509952719E+03  0.00000000000E+00 0. -1.
          1    1    1    2  502    0  0.30313526736E+02 -0.36173112483E+02  0.30136289963E+03  0.30503606548E+03  0.00000000000E+00 0. -1.
         22    1    3    3    0    0  0.63730763676E+01 -0.14421133099E+02 -0.15270830418E+02  0.21949565916E+02  0.00000000000E+00 0. -1.
         22    1    3    3    0    0 -0.20398282756E+03  0.15518067728E+03 -0.38587319205E+03  0.46323661004E+03  0.00000000000E+00 0. -1.
</event>
<event>
 7    1  0.7459264E-005  0.8849842E+03  0.7818608E-02  0.1096543E+00
          2   -1    0    0  502    0  0.00000000000E+00  0.00000000000E+00  0.10132930725E+04  0.10132930725E+04  0.00000000000E+00 0. -1.
          1   -1    0    0  501    0 -0.00000000000E+00 -0.00000000000E+00 -0.16597864968E+04  0.16597864968E+04  0.00000000000E+00 0. -1.
         25    2    1    2    0    0  0.84091729562E+03 -0.83473564932E+02 -0.41471340029E+03  0.94959066120E+03  0.12500194143E+03 0.  0.
          2    1    1    2  501    0 -0.91699868579E+03  0.40040907303E+02 -0.75776939132E+03  0.11902538865E+04  0.00000000000E+00 0. -1.
          1    1    1    2  502    0  0.76081390173E+02  0.43432657629E+02  0.52598936732E+03  0.53323502155E+03  0.00000000000E+00 0. -1.
         22    1    3    3    0    0  0.40227757900E+03  0.13868731754E+02 -0.16038597246E+03  0.43329349458E+03  0.00000000000E+00 0.  1.
         22    1    3    3    0    0  0.43863971662E+03 -0.97342296686E+02 -0.25432742782E+03  0.51629716662E+03  0.00000000000E+00 0.  1.
</event>
<event>
 7    1  0.7459264E-005  0.4238814E+02  0.7818608E-02  0.1515991E+00
          2   -1    0    0  502    0  0.00000000000E+00  0.00000000000E+00  0.22466437761E+03  0.22466437761E+03  0.00000000000E+00 0. -1.
          1   -1    0    0  501    0 -0.00000000000E+00 -0.00000000000E+00 -0.34831663016E+03  0.34831663016E+03  0.00000000000E+00 0. -1.
         25    2    1    2    0    0  0.21982446006E+02 -0.72173781641E+02 -0.15461685072E+03  0.21266147188E+03  0.12500499352E+03 0.  0.
          2    1    1    2  501    0 -0.10989515981E+02  0.38089695389E+02 -0.16060795030E+03  0.16542825653E+03  0.00000000000E+00 0. -1.
          1    1    1    2  502    0 -0.10992930025E+02  0.34084086251E+02  0.19157254847E+03  0.19489127937E+03  0.00000000000E+00 0. -1.
         22    1    3    3    0    0  0.55105502780E+02  0.11152249649E+02 -0.63772995081E+02  0.85017551191E+02  0.00000000000E+00 0. -1.
         22    1    3    3    0    0 -0.33123056773E+02 -0.83326031289E+02 -0.90843855640E+02  0.12764392069E+03  0.00000000000E+00 0. -1.
</event>
<event>
 7    1  0.7459264E-005  0.1548314E+03  0.7818608E-02  0.1375423E+00
          2   -1    0    0  502    0  0.00000000000E+00  0.00000000000E+00  0.13299677566E+03  0.13299677566E+03  0.00000000000E+00 0. -1.
          1   -1    0    0  501    0 -0.00000000000E+00 -0.00000000000E+00 -0.83810059892E+03  0.83810059892E+03  0.00000000000E+00 0. -1.
         25    2    1    2    0    0 -0.16631494466E+03 -0.27831196862E+02 -0.80820605018E+02  0.22492667748E+03  0.12499921485E+03 0.  0.
          2    1    1    2  501    0  0.15333404014E+03  0.31759540499E+01 -0.67288850976E+03  0.69014517395E+03  0.00000000000E+00 0. -1.
          1    1    1    2  502    0  0.12980904522E+02  0.24655242812E+02  0.48605291522E+02  0.56025523150E+02  0.00000000000E+00 0. -1.
         22    1    3    3    0    0 -0.24358648031E+02  0.16818620899E+02  0.27862923383E+02  0.40651595815E+02  0.00000000000E+00 0. -1.
         22    1    3    3    0    0 -0.14195629663E+03 -0.44649817760E+02 -0.10868352840E+03  0.18427508167E+03  0.00000000000E+00 0. -1.
</event>
<event>
 7    1  0.7459264E-005  0.3506053E+03  0.7818608E-02  0.1079630E+00
          2   -1    0    0  502    0  0.00000000000E+00  0.00000000000E+00  0.10263972556E+04  0.10263972556E+04  0.00000000000E+00 0. -1.
          1   -1    0    0  501    0 -0.00000000000E+00 -0.00000000000E+00 -0.21858876167E+04  0.21858876167E+04  0.00000000000E+00 0. -1.
         25    2    1    2    0    0 -0.37434677544E+03 -0.42811766500E+03 -0.23874054738E+03  0.62931934003E+03  0.12500215760E+03 0.  0.
          2    1    1    2  501    0  0.25136540065E+03  0.11579075314E+03 -0.17063558405E+04  0.17286533249E+04  0.00000000000E+00 0. -1.
          1    1    1    2  502    0  0.12298137478E+03  0.31232691186E+03  0.78560602681E+03  0.85431220744E+03  0.00000000000E+00 0. -1.
         22    1    3    3    0    0 -0.28583609982E+03 -0.37485926376E+03 -0.15465754214E+03  0.49612568864E+03  0.00000000000E+00 0.  1.
         22    1    3    3    0    0 -0.88510675612E+02 -0.53258401244E+02 -0.84083005235E+02  0.13319365139E+03  0.00000000000E+00 0.  1.
</event>
<event>
 7    1  0.7459264E-005  0.4662121E+03  0.7818608E-02  0.1183061E+00
          2   -1    0    0  502    0  0.00000000000E+00  0.00000000000E+00  0.11582739724E+04  0.11582739724E+04  0.00000000000E+00 0. -1.
          1   -1    0    0  501    0 -0.00000000000E+00 -0.00000000000E+00 -0.16371377037E+04  0.16371377037E+04  0.00000000000E+00 0. -1.
         25    2    1    2    0    0  0.29980175998E+03  0.30072361061E+03 -0.10749656306E+03  0.45551870817E+03  0.12500398854E+03 0.  0.
          2    1    1    2  501    0  0.57123525975E+02  0.12447433695E+02 -0.12976643918E+04  0.12989807195E+04  0.00000000000E+00 0. -1.
          1    1    1    2  502    0 -0.35692528596E+03 -0.31317104431E+03  0.92629722357E+03  0.10409122485E+04  0.00000000000E+00 0. -1.
         22    1    3    3    0    0  0.10325060254E+03  0.17083006518E+03 -0.90925530276E+02  0.21934231272E+03  0.00000000000E+00 0. -1.
         22    1    3    3    0    0  0.19655115745E+03  0.12989354543E+03 -0.16571032787E+02  0.23617639545E+03  0.00000000000E+00 0. -1.
</event>
<event>
 7    1  0.7459264E-005  0.1452911E+03  0.7818608E-02  0.1352368E+00
          2   -1    0    0  502    0  0.00000000000E+00  0.00000000000E+00  0.47145987119E+03  0.47145987119E+03  0.00000000000E+00 0. -1.
          1   -1    0    0  501    0 -0.00000000000E+00 -0.00000000000E+00 -0.16487864290E+04  0.16487864290E+04  0.00000000000E+00 0. -1.
         25    2    1    2    0    0 -0.13872441418E+03  0.10691322630E+03  0.65783372220E+02  0.22500627978E+03  0.12500189131E+03 0.  0.
          2    1    1    2  501    0  0.24725957998E+02 -0.26166377585E+02 -0.15539938834E+04  0.15544108344E+04  0.00000000000E+00 0. -1.
          1    1    1    2  502    0  0.11399845618E+03 -0.80746848715E+02  0.31088395338E+03  0.34082918604E+03  0.00000000000E+00 0. -1.
         22    1    3    3    0    0 -0.14733811642E+03  0.73551250944E+02  0.85247037329E+02  0.18543291089E+03  0.00000000000E+00 0. -1.
         22    1    3    3    0    0  0.86137022412E+01  0.33361975356E+02 -0.19463665109E+02  0.39573368891E+02  0.00000000000E+00 0. -1.
</event>
<event>
 7    1  0.7459264E-005  0.2000166E+03  0.7818608E-02  0.1174747E+00
          2   -1    0    0  502    0  0.00000000000E+00  0.00000000000E+00  0.40548451168E+04  0.40548451168E+04  0.00000000000E+00 0. -1.
          1   -1    0    0  501    0 -0.00000000000E+00 -0.00000000000E+00 -0.38191938705E+03  0.38191938705E+03  0.00000000000E+00 0. -1.
         25    2    1    2    0    0 -0.31706997698E+03  0.10462850606E+03  0.11761497361E+04  0.12289968611E+04  0.12499835322E+03 0.  0.
          2    1    1    2  501    0  0.14484703101E+03 -0.37595282347E+02 -0.33660249304E+03  0.36836843780E+03  0.00000000000E+00 0. -1.
          1    1    1    2  502    0  0.17222294597E+03 -0.67033223709E+02  0.28333784867E+04  0.28393992050E+04  0.00000000000E+00 0. -1.
         22    1    3    3    0    0  0.91689448384E+01 -0.40057051528E+00  0.10212731269E+02  0.13730618564E+02  0.00000000000E+00 0. -1.
         22    1    3    3    0    0 -0.32623892182E+03  0.10502907657E+03  0.11659370049E+04  0.12152662426E+04  0.00000000000E+00 0. -1.
</event>
<event>
 7    1  0.7459264E-005  0.5129302E+03  0.7818608E-02  0.1025359E+00
          2   -1    0    0  502    0  0.00000000000E+00  0.00000000000E+00  0.32205449277E+04  0.32205449277E+04  0.00000000000E+00 0. -1.
          1   -1    0    0  501    0 -0.00000000000E+00 -0.00000000000E+00 -0.26278248319E+03  0.26278248319E+03  0.00000000000E+00 0. -1.
         25    2    1    2    0    0  0.52700119066E+02  0.27692478838E+03  0.35877793964E+03  0.47308590316E+03  0.12499608327E+03 0.  0.
          2    1    1    2  501    0 -0.51133616445E+03  0.40406963717E+02  0.20537795069E+03  0.55251922900E+03  0.00000000000E+00 0. -1.
          1    1    1    2  502    0  0.45863604538E+03 -0.31733175210E+03  0.23936065542E+04  0.24577222787E+04  0.00000000000E+00 0. -1.
         22    1    3    3    0    0  0.64120802349E+02  0.50432688977E+02  0.93528198385E+02  0.12410663683E+03  0.00000000000E+00 0. -1.
         22    1    3    3    0    0 -0.11420683283E+02  0.22649209941E+03  0.26524974125E+03  0.34897926634E+03  0.00000000000E+00 0. -1.
</event>
<event>
 7    1  0.7459264E-005  0.2609052E+03  0.7818608E-02  0.1225213E+00
          2   -1    0    0  502    0  0.00000000000E+00  0.00000000000E+00  0.15267086209E+03  0.15267086209E+03  0.00000000000E+00 0. -1.
          1   -1    0    0  501    0 -0.00000000000E+00 -0.00000000000E+00 -0.22306716962E+04  0.22306716962E+04  0.00000000000E+00 0. -1.
         25    2    1    2    0    0 -0.14200150558E+03 -0.18373135793E+03 -0.10529569082E+04  0.10854790350E+04  0.12499938125E+03 0.  0.
          2    1    1    2  501    0  0.32617756975E+02 -0.57722964239E+02 -0.10305993950E+04  0.10327298639E+04  0.00000000000E+00 0. -1.
          1    1    1    2  502    0  0.10938374860E+03  0.24145432217E+03  0.55554691271E+01  0.26513365948E+03  0.00000000000E+00 0. -1.
         22    1    3    3    0    0 -0.74181802548E+00 -0.65464462234E+02 -0.45786175224E+03  0.46251868100E+03  0.00000000000E+00 0. -1.
         22    1    3    3    0    0 -0.14125968755E+03 -0.11826689570E+03 -0.59509515598E+03  0.62296035397E+03  0.00000000000E+00 0. -1.
</event>
<event>
 7    1  0.7459264E-005  0.3573020E+03  0.7818608E-02  0.1228913E+00
          2   -1    0    0  502    0  0.00000000000E+00  0.00000000000E+00  0.55683048835E+03  0.55683048835E+03  0.00000000000E+00 0. -1.
          1   -1    0    0  501    0 -0.00000000000E+00 -0.00000000000E+00 -0.23091222083E+04  0.23091222083E+04  0.00000000000E+00 0. -1.
         25    2    1    2    0    0 -0.37793308994E+03  0.40008273155E+02  0.37088156941E+02  0.40178458410E+03  0.12498495205E+03 0.  0.
          2    1    1    2  501    0  0.31304825519E+02 -0.34506256060E+02 -0.20373861106E+04  0.20379187514E+04  0.00000000000E+00 0. -1.
          1    1    1    2  502    0  0.34662826442E+03 -0.55020170946E+01  0.24800623371E+03  0.42624936111E+03  0.00000000000E+00 0. -1.
         22    1    3    3    0    0 -0.29678455008E+03  0.71997504009E+02  0.60814798964E+02  0.31138906456E+03  0.00000000000E+00 0.  1.
         22    1    3    3    0    0 -0.81148539858E+02 -0.31989230854E+02 -0.23726642022E+02  0.90395519542E+02  0.00000000000E+00 0.  1.
</event>
<event>
 7    1  0.7459264E-005  0.1425380E+04  0.7818608E-02  0.1041549E+00
          2   -1    0    0  502    0  0.00000000000E+00  0.00000000000E+00  0.27929987192E+04  0.27929987192E+04  0.00000000000E+00 0. -1.
          1   -1    0    0  501    0 -0.00000000000E+00 -0.00000000000E+00 -0.25319088481E+04  0.25319088481E+04  0.00000000000E+00 0. -1.
         25    2    1    2    0    0  0.12830409734E+03  0.14602566279E+04 -0.89361103034E+03  0.17213297868E+04  0.12499680357E+03 0.  0.
          2    1    1    2  501    0 -0.37987085800E+02 -0.13875694109E+04 -0.82879808076E+03  0.16166935848E+04  0.00000000000E+00 0. -1.
          1    1    1    2  502    0 -0.90317011536E+02 -0.72687217016E+02  0.19834989822E+04  0.19868841956E+04  0.00000000000E+00 0. -1.
         22    1    3    3    0    0  0.12071318310E+03  0.12722353683E+04 -0.72862959628E+03  0.14710729396E+04  0.00000000000E+00 0.  1.
         22    1    3    3    0    0  0.75909142326E+01  0.18802125957E+03 -0.16498143405E+03  0.25025684728E+03  0.00000000000E+00 0.  1.
</event>
<event>
 7    1  0.7459264E-005  0.2038171E+03  0.7818608E-02  0.1245671E+00
          2   -1    0    0  502    0  0.00000000000E+00  0.00000000000E+00  0.35085734155E+04  0.35085734155E+04  0.00000000000E+00 0. -1.
          1   -1    0    0  501    0 -0.00000000000E+00 -0.00000000000E+00 -0.19435707339E+03  0.19435707339E+03  0.00000000000E+00 0. -1.
         25    2    1    2    0    0 -0.21623664529E+03 -0.12116895912E+03  0.19425074029E+03  0.33881930249E+03  0.12499986488E+03 0.  0.
          2    1    1    2  501    0  0.18209725438E+03  0.61388274341E+02 -0.45839177441E+02  0.19755799267E+03  0.00000000000E+00 0. -1.
          1    1    1    2  502    0  0.34139390918E+02  0.59780684774E+02  0.31658047793E+04  0.31665531937E+04  0.00000000000E+00 0. -1.
         22    1    3    3    0    0 -0.61689709314E+02 -0.10298400377E+03  0.64911264589E+02  0.13647269888E+03  0.00000000000E+00 0. -1.
         22    1    3    3    0    0 -0.15454693598E+03 -0.18184955341E+02  0.12933947570E+03  0.20234660361E+03  0.00000000000E+00 0. -1.
</event>
<event>
 7    1  0.7459264E-005  0.4353473E+02  0.7818608E-02  0.1484882E+00
          2   -1    0    0  502    0  0.00000000000E+00  0.00000000000E+00  0.19600011470E+03  0.19600011470E+03  0.00000000000E+00 0. -1.
          1   -1    0    0  501    0 -0.00000000000E+00 -0.00000000000E+00 -0.68208492476E+02  0.68208492476E+02  0.00000000000E+00 0. -1.
         25    2    1    2    0    0 -0.68257229840E+01  0.29776948190E+02  0.55596312333E+02  0.14021451798E+03  0.12504360827E+03 0.  0.
          2    1    1    2  501    0 -0.40031057714E+02 -0.17111023815E+02  0.92481763014E+01  0.44506196003E+02  0.00000000000E+00 0. -1.
          1    1    1    2  502    0  0.46856780698E+02 -0.12665924374E+02  0.62947133588E+02  0.79487893196E+02  0.00000000000E+00 0. -1.
         22    1    3    3    0    0 -0.14611970765E+02 -0.36382793725E+02 -0.16066256562E+02  0.42371475886E+02  0.00000000000E+00 0. -1.
         22    1    3    3    0    0  0.77862477805E+01  0.66159741915E+02  0.71662568895E+02  0.97843042090E+02  0.00000000000E+00 0. -1.
</event>
<event>
 7    1  0.7459264E-005  0.9886194E+02  0.7818608E-02  0.1316221E+00
          2   -1    0    0  502    0  0.00000000000E+00  0.00000000000E+00  0.60754169386E+02  0.60754169386E+02  0.00000000000E+00 0. -1.
          1   -1    0    0  501    0 -0.00000000000E+00 -0.00000000000E+00 -0.17945103396E+04  0.17945103396E+04  0.00000000000E+00 0. -1.
         25    2    1    2    0    0 -0.13265681105E+03  0.18950976485E+02 -0.96347386294E+03  0.98074718005E+03  0.12500471027E+03 0.  0.
          2    1    1    2  501    0  0.84933295494E+02  0.35713802043E+02 -0.79311150294E+03  0.79844536221E+03  0.00000000000E+00 0. -1.
          1    1    1    2  502    0  0.47723515560E+02 -0.54664778528E+02  0.22829195650E+02  0.76071966735E+02  0.00000000000E+00 0. -1.
         22    1    3    3    0    0 -0.32731368333E+02  0.10961976655E+02 -0.66487971111E+03  0.66577514046E+03  0.00000000000E+00 0.  1.
         22    1    3    3    0    0 -0.99925442721E+02  0.79889998303E+01 -0.29859415183E+03  0.31497203960E+03  0.00000000000E+00 0.  1.
</event>
<event>
 7    1  0.7459264E-005  0.1615219E+03  0.7818608E-02  0.1197398E+00
          2   -1    0    0  502    0  0.00000000000E+00  0.00000000000E+00  0.20576590121E+04  0.20576590121E+04  0.00000000000E+00 0. -1.
          1   -1    0    0  501    0 -0.00000000000E+00 -0.00000000000E+00 -0.37885812829E+02  0.37885812829E+02  0.00000000000E+00 0. -1.
         25    2    1    2    0    0 -0.20310952291E+02 -0.10418917490E+03  0.10771016341E+04  0.10895138285E+04  0.12499813388E+03 0.  0.
          2    1    1    2  501    0 -0.14120237487E+03  0.10252667876E+03  0.34098308788E+03  0.38303954985E+03  0.00000000000E+00 0. -1.
          1    1    1    2  502    0  0.16151332717E+03  0.16624961441E+01  0.60168847729E+03  0.62299144653E+03  0.00000000000E+00 0. -1.
         22    1    3    3    0    0  0.17539877571E+02 -0.11977941145E+03  0.72452623912E+03  0.73456995983E+03  0.00000000000E+00 0.  1.
         22    1    3    3    0    0 -0.37850829862E+02  0.15590236546E+02  0.35257539495E+03  0.35494386869E+03  0.00000000000E+00 0.  1.
</event>
<event>
 7    1  0.7459264E-005  0.2623028E+03  0.7818608E-02  0.1263412E+00
          2   -1    0    0  502    0  0.00000000000E+00  0.00000000000E+00  0.20430357857E+04  0.20430357857E+04  0.00000000000E+00 0. -1.
          1   -1    0    0  501    0 -0.00000000000E+00 -0.00000000000E+00 -0.69732938860E+03  0.69732938860E+03  0.00000000000E+00 0. -1.
         25    2    1    2    0    0 -0.74226187711E+02 -0.20970710710E+03  0.36933345639E+03  0.44891446210E+03  0.12502157640E+03 0.  0.
          2    1    1    2  501    0  0.10310226957E+03  0.24404193539E+03 -0.63052777910E+03  0.68392384403E+03  0.00000000000E+00 0. -1.
          1    1    1    2  502    0 -0.28876081860E+02 -0.34334828297E+02  0.16069007198E+04  0.16075268682E+04  0.00000000000E+00 0. -1.
         22    1    3    3    0    0 -0.96282834455E+02 -0.19376581180E+03  0.36023406426E+03  0.42021917506E+03  0.00000000000E+00 0. -1.
         22    1    3    3    0    0  0.22056646745E+02 -0.15941295293E+02  0.90993921315E+01  0.28695287041E+02  0.00000000000E+00 0. -1.
</event>
<event>
 7    1  0.7459264E-005  0.1008663E+04  0.7818608E-02  0.1146582E+00
          2   -1    0    0  502    0  0.00000000000E+00  0.00000000000E+00  0.15926331928E+04  0.15926331928E+04  0.00000000000E+00 0. -1.
          1   -1    0    0  501    0 -0.00000000000E+00 -0.00000000000E+00 -0.13678029011E+04  0.13678029011E+04  0.00000000000E+00 0. -1.
         25    2    1    2    0    0  0.34373777365E+03  0.98148288372E+03  0.42474688248E+03  0.11302652573E+04  0.12500131876E+03 0.  0.
          2    1    1    2  501    0 -0.32920355864E+03 -0.94296062810E+03 -0.76842757202E+03  0.12601708863E+04  0.00000000000E+00 0. -1.
          1    1    1    2  502    0 -0.14534215005E+02 -0.38522255623E+02  0.56851098125E+03  0.56999995034E+03  0.00000000000E+00 0. -1.
         22    1    3    3    0    0  0.25272022378E+03  0.76295817267E+03  0.38131562856E+03  0.88959220620E+03  0.00000000000E+00 0.  1.
         22    1    3    3    0    0  0.91017549871E+02  0.21852471106E+03  0.43431253918E+02  0.24067305114E+03  0.00000000000E+00 0.  1.
</event>
<event>
 7    1  0.7459264E-005  0.7834769E+02  0.7818608E-02  0.1405454E+00
          2   -1    0    0  502    0  0.00000000000E+00  0.00000000000E+00  0.21398403031E+04  0.21398403031E+04  0.00000000000E+00 0. -1.
          1   -1    0    0  501    0 -0.00000000000E+00 -0.00000000000E+00 -0.36905013439E+03  0.36905013439E+03  0.00000000000E+00 0. -1.
         25    2    1    2    0    0  0.92368588457E+02 -0.53745560879E+02  0.49810180355E+00  0.16445659066E+03  0.12500072263E+03 0.  0.
          2    1    1    2  501    0 -0.15359259180E+02  0.40446160037E+02 -0.28469385907E+03  0.28796248384E+03  0.00000000000E+00 0. -1.
          1    1    1    2  502    0 -0.77009329278E+02  0.13299400843E+02  0.20549859259E+04  0.20564713630E+04  0.00000000000E+00 0. -1.
         22    1    3    3    0    0  0.10039477676E+03 -0.47823062409E+02 -0.43450277159E+02  0.11939046480E+03  0.00000000000E+00 0.  1.
         22    1    3    3    0    0 -0.80261883069E+01 -0.59224984702E+01  0.43948378962E+02  0.45066125863E+02  0.00000000000E+00 0.  1.
</event>
<event>
 7    1  0.7459264E-005  0.2608469E+03  0.7818608E-02  0.1264109E+00
          2   -1    0    0  502    0  0.00000000000E+00  0.00000000000E+00  0.63284928032E+03  0.63284928032E+03  0.00000000000E+00 0. -1.
          1   -1    0    0  501    0 -0.00000000000E+00 -0.00000000000E+00 -0.66015495569E+03  0.66015495569E+03  0.00000000000E+00 0. -1.
         25    2    1    2    0    0 -0.22759922776E+03 -0.36079414734E+02  0.90736995008E+02  0.27741830092E+03  0.12499831509E+03 0.  0.
          2    1    1    2  501    0 -0.42178854942E+02 -0.15121335268E+02 -0.52376350526E+03  0.52567663066E+03  0.00000000000E+00 0. -1.
          1    1    1    2  502    0  0.26977808270E+03  0.51200750003E+02  0.40572083488E+03  0.48990930443E+03  0.00000000000E+00 0. -1.
         22    1    3    3    0    0 -0.78430160821E+02 -0.11456036440E+02 -0.29163731098E+02  0.84457410029E+02  0.00000000000E+00 0.  1.
         22    1    3    3    0    0 -0.14916906694E+03 -0.24623378294E+02  0.11990072611E+03  0.19296089089E+03  0.00000000000E+00 0.  1.
</event>
<event>
 7    1  0.7459264E-005  0.6702515E+02  0.7818608E-02  0.1467745E+00
          2   -1    0    0  502    0  0.00000000000E+00  0.00000000000E+00  0.89813073052E+03  0.89813073052E+03  0.00000000000E+00 0. -1.
          1   -1    0    0  501    0 -0.00000000000E+00 -0.00000000000E+00 -0.82053710901E+02  0.82053710901E+02  0.00000000000E+00 0. -1.
         25    2    1    2    0    0  0.10353202723E+01 -0.83084579959E+02  0.59948638705E+02  0.16162773683E+03  0.12500226684E+03 0.  0.
          2    1    1    2  501    0  0.20559983459E+02  0.59916223581E+02  0.16019925504E+01  0.63365867375E+02  0.00000000000E+00 0. -1.
          1    1    1    2  502    0 -0.21595303731E+02  0.23168356378E+02  0.75452638836E+03  0.75519083722E+03  0.00000000000E+00 0. -1.
         22    1    3    3    0    0 -0.38001847287E+02 -0.36951048058E+02 -0.24003065084E+02  0.58186488838E+02  0.00000000000E+00 0.  1.
         22    1    3    3    0    0  0.39037167559E+02 -0.46133531901E+02  0.83951703789E+02  0.10344124799E+03  0.00000000000E+00 0.  1.
</event>
<event>
 7    1  0.7459264E-005  0.2818922E+03  0.7818608E-02  0.1257441E+00
          2   -1    0    0  502    0  0.00000000000E+00  0.00000000000E+00  0.22742856973E+04  0.22742856973E+04  0.00000000000E+00 0. -1.
          1   -1    0    0  501    0 -0.00000000000E+00 -0.00000000000E+00 -0.13381825406E+04  0.13381825406E+04  0.00000000000E+00 0. -1.
         25    2    1    2    0    0  0.10072781060E+03  0.29947291098E+03  0.19118823451E+03  0.38988156366E+03  0.12499830569E+03 0.  0.
          2    1    1    2  501    0  0.89681723527E+01 -0.43348742532E+02 -0.12286517337E+04  0.12294489108E+04  0.00000000000E+00 0. -1.
          1    1    1    2  502    0 -0.10969598295E+03 -0.25612416845E+03  0.19735666559E+04  0.19931377633E+04  0.00000000000E+00 0. -1.
         22    1    3    3    0    0  0.10089111554E+03  0.15946107198E+03  0.59985782865E+02  0.19800289093E+03  0.00000000000E+00 0.  1.
         22    1    3    3    0    0 -0.16330494284E+00  0.14001183900E+03  0.13120245165E+03  0.19187867273E+03  0.00000000000E+00 0.  1.
</event>
<event>
 7    1  0.7459264E-005  0.1583980E+03  0.7818608E-02  0.1372343E+00
          2   -1    0    0  502    0  0.00000000000E+00  0.00000000000E+00  0.82250819887E+03  0.82250819887E+03  0.00000000000E+00 0. -1.
          1   -1    0    0  501    0 -0.00000000000E+00 -0.00000000000E+00 -0.52469287483E+02  0.52469287483E+02  0.00000000000E+00 0. -1.
         25    2    1    2    0    0  0.10947008160E+03 -0.12051396894E+03  0.46334563839E+03  0.50677499117E+03  0.12499758233E+03 0.  0.
          2    1    1    2  501    0 -0.25799246688E+02 -0.10713862628E+02  0.45112737665E+01  0.28297342156E+02  0.00000000000E+00 0. -1.
          1    1    1    2  502    0 -0.83670834911E+02  0.13122783157E+03  0.30218199923E+03  0.33990515302E+03  0.00000000000E+00 0. -1.
         22    1    3    3    0    0 -0.18396029839E+02  0.59638544793E+00  0.11213770795E+02  0.21552685329E+02  0.00000000000E+00 0.  1.
         22    1    3    3    0    0  0.12786611144E+03 -0.12111035439E+03  0.45213186759E+03  0.48522230584E+03  0.00000000000E+00 0.  1.
</event>
<event>
 7    1  0.7459264E-005  0.1810020E+03  0.7818608E-02  0.1363497E+00
          2   -1    0    0  502    0  0.00000000000E+00  0.00000000000E+00  0.91475216868E+03  0.91475216868E+03  0.00000000000E+00 0. -1.
          1   -1    0    0  501    0 -0.00000000000E+00 -0.00000000000E+00 -0.70774071544E+02  0.70774071544E+02  0.00000000000E+00 0. -1.
         25    2    1    2    0    0  0.15136861566E+03 -0.11020873961E+03  0.19651036190E+03  0.29883443364E+03  0.12500908888E+03 0.  0.
          2    1    1    2  501    0 -0.15010041281E+03  0.83929174085E+02  0.37037332953E+03  0.40835112760E+03  0.00000000000E+00 0. -1.
          1    1    1    2  502    0 -0.12682028529E+01  0.26279565524E+02  0.27709440570E+03  0.27834067898E+03  0.00000000000E+00 0. -1.
         22    1    3    3    0    0  0.12871329099E+03 -0.42287299851E+02  0.18011459849E+03  0.22538100096E+03  0.00000000000E+00 0. -1.
         22    1    3    3    0    0  0.22655324668E+02 -0.67921439758E+02  0.16395763415E+02  0.73453432680E+02  0.00000000000E+00 0. -1.
</event>
<event>
 7    1  0.7459264E-005  0.1534860E+03  0.7818608E-02  0.1228897E+00
          2   -1    0    0  502    0  0.00000000000E+00  0.00000000000E+00  0.23829675780E+03  0.23829675780E+03  0.00000000000E+00 0. -1.
          1   -1    0    0  501    0 -0.00000000000E+00 -0.00000000000E+00 -0.88390787839E+03  0.88390787839E+03  0.00000000000E+00 0. -1.
         25    2    1    2    0    0  0.93588562637E+00  0.18831624983E+03  0.74767593786E+02  0.23807675588E+03  0.12500585097E+03 0.  0.
          2    1    1    2  501    0 -0.80098824828E+02 -0.73153608691E+02 -0.73559912487E+03  0.74355453379E+03  0.00000000000E+00 0. -1.
          1    1    1    2  502    0  0.79162939202E+02 -0.11516264114E+03  0.15220410502E+02  0.14057334653E+03  0.00000000000E+00 0. -1.
         22    1    3    3    0    0 -0.17126784635E+02  0.10344090478E+03 -0.23011677586E+02  0.10734470103E+03  0.00000000000E+00 0.  1.
         22    1    3    3    0    0  0.18062670261E+02  0.84875345048E+02  0.97779271372E+02  0.13073205485E+03  0.00000000000E+00 0.  1.
</event>
<event>
 7    1  0.7459264E-005  0.1976613E+03  0.7818608E-02  0.1372065E+00
          2   -1    0    0  502    0  0.00000000000E+00  0.00000000000E+00  0.76483069527E+03  0.76483069527E+03  0.00000000000E+00 0. -1.
          1   -1    0    0  501    0 -0.00000000000E+00 -0.00000000000E+00 -0.76533189227E+03  0.76533189227E+03  0.00000000000E+00 0. -1.
         25    2    1    2    0    0  0.61349535306E+02 -0.20408004954E+03  0.11149099104E+03  0.27104706152E+03  0.12499534540E+03 0.  0.
          2    1    1    2  501    0 -0.70370084557E+02  0.18353539818E+03 -0.67123448965E+03  0.69942328477E+03  0.00000000000E+00 0. -1.
          1    1    1    2  502    0  0.90205492507E+01  0.20544651360E+02  0.55924230160E+03  0.55969224125E+03  0.00000000000E+00 0. -1.
         22    1    3    3    0    0 -0.36719397600E+02 -0.38645689477E+02  0.36593868734E+02  0.64659993072E+02  0.00000000000E+00 0. -1.
         22    1    3    3    0    0  0.98068932906E+02 -0.16543436006E+03  0.74897122311E+02  0.20638706845E+03  0.00000000000E+00 0. -1.
</event>
<event>
 7    1  0.7459264E-005  0.2249548E+03  0.7818608E-02  0.1338530E+00
          2   -1    0    0  502    0  0.00000000000E+00  0.00000000000E+00  0.13701369752E+04  0.13701369752E+04  0.00000000000E+00 0. -1.
          1   -1    0    0  501    0 -0.00000000000E+00 -0.00000000000E+00 -0.74732341834E+02  0.74732341834E+02  0.00000000000E+00 0. -1.
         25    2    1    2    0    0 -0.75904544401E+02  0.22123849763E+03  0.33421443202E+03  0.42665385952E+03  0.12500502621E+03 0.  0.
          2    1    1    2  501    0  0.52678392304E+02 -0.20914323901E+03  0.38392839510E+03  0.44035998910E+03  0.00000000000E+00 0. -1.
          1    1    1    2  502    0  0.23226152097E+02 -0.12095258622E+02  0.57726180627E+03  0.57785546844E+03  0.00000000000E+00 0. -1.
         22    1    3    3    0    0  0.15411003967E+02  0.14607907887E+03  0.18915817522E+03  0.23949407421E+03  0.00000000000E+00 0.  1.
         22    1    3    3    0    0 -0.91315548367E+02  0.75159418762E+02  0.14505625680E+03  0.18715978531E+03  0.00000000000E+00 0.  1.
</event>
<event>
 7    1  0.7459264E-005  0.6195508E+03  0.7818608E-02  0.1129224E+00
          2   -1    0    0  502    0  0.00000000000E+00  0.00000000000E+00  0.64473977555E+03  0.64473977555E+03  0.00000000000E+00 0. -1.
          1   -1    0    0  501    0 -0.00000000000E+00 -0.00000000000E+00 -0.18916196060E+04  0.18916196060E+04  0.00000000000E+00 0. -1.
         25    2    1    2    0    0 -0.57520331280E+03 -0.28038590036E+03 -0.67511688447E+03  0.93855389594E+03  0.12500201481E+03 0.  0.
          2    1    1    2  501    0  0.57516155041E+03  0.19767787261E+03 -0.99522348907E+03  0.11663434930E+04  0.00000000000E+00 0. -1.
          1    1    1    2  502    0  0.41762390582E-01  0.82708027749E+02  0.42346054306E+03  0.43146199268E+03  0.00000000000E+00 0. -1.
         22    1    3    3    0    0 -0.33837764926E+03 -0.19766973870E+03 -0.33259827940E+03  0.51399841884E+03  0.00000000000E+00 0. -1.
         22    1    3    3    0    0 -0.23682566354E+03 -0.82716161665E+02 -0.34251860506E+03  0.42455547709E+03  0.00000000000E+00 0. -1.
</event>
<event>
 7    1  0.7459264E-005  0.9810963E+02  0.7818608E-02  0.1296475E+00
          2   -1    0    0  502    0  0.00000000000E+00  0.00000000000E+00  0.74390083448E+03  0.74390083448E+03  0.00000000000E+00 0. -1.
          1   -1    0    0  501    0 -0.00000000000E+00 -0.00000000000E+00 -0.58342440652E+02  0.58342440652E+02  0.00000000000E+00 0. -1.
         25    2    1    2    0    0 -0.41960243205E+02 -0.30682233188E+02  0.25053049848E+03  0.28476742025E+03  0.12499956609E+03 0.  0.
          2    1    1    2  501    0  0.11875871067E+03 -0.11378449263E+02  0.62277984861E+02  0.13457952246E+03  0.00000000000E+00 0. -1.
          1    1    1    2  502    0 -0.76798467465E+02  0.42060682452E+02  0.37274991048E+03  0.38289633242E+03  0.00000000000E+00 0. -1.
         22    1    3    3    0    0 -0.13354244868E+02  0.25664609254E+02  0.20462767624E+03  0.20666275404E+03  0.00000000000E+00 0.  1.
         22    1    3    3    0    0 -0.28605998337E+02 -0.56346842442E+02  0.45902822242E+02  0.78104666211E+02  0.00000000000E+00 0.  1.
</event>
<event>
 7    1  0.8553035E-005  0.2063696E+03  0.7818608E-02  0.1273209E+00
          2   -1    0    0  502    0  0.00000000000E+00  0.00000000000E+00  0.21860858599E+04  0.21860858599E+04  0.00000000000E+00 0. -1.
          1   -1    0    0  501    0 -0.00000000000E+00 -0.00000000000E+00 -0.12338825716E+04  0.12338825716E+04  0.00000000000E+00 0. -1.
         25    2    1    2    0    0  0.18269722465E+02  0.25564475884E+03 -0.14422903905E+03  0.31954301038E+03  0.12497077379E+03 0.  0.
          2    1    1    2  501    0 -0.12000634846E+02 -0.50447809577E+02 -0.99629961424E+03  0.99764819353E+03  0.00000000000E+00 0. -1.
          1    1    1    2  502    0 -0.62690876192E+01 -0.20519694926E+03  0.20927319415E+04  0.21027772275E+04  0.00000000000E+00 0. -1.
         22    1    3    3    0    0  0.63324483501E+01  0.57542751515E+02 -0.10102126195E+03  0.11643265659E+03  0.00000000000E+00 0. -1.
         22    1    3    3    0    0  0.11937274115E+02  0.19810200732E+03 -0.43207777100E+02  0.20311035380E+03  0.00000000000E+00 0. -1.
</event>
<event>
 7    1  0.7459264E-005  0.5734075E+03  0.7818608E-02  0.1196955E+00
          2   -1    0    0  502    0  0.00000000000E+00  0.00000000000E+00  0.84397666861E+03  0.84397666861E+03  0.00000000000E+00 0. -1.
          1   -1    0    0  501    0 -0.00000000000E+00 -0.00000000000E+00 -0.15539878977E+04  0.15539878977E+04  0.00000000000E+00 0. -1.
         25    2    1    2    0    0 -0.50230037206E+01  0.55579144888E+03 -0.46527220776E+03  0.73554898487E+03  0.12499886645E+03 0.  0.
          2    1    1    2  501    0  0.34077446298E+02 -0.58439344150E+03 -0.86300274195E+03  0.10428090426E+04  0.00000000000E+00 0. -1.
          1    1    1    2  502    0 -0.29054442577E+02  0.28601992619E+02  0.61826372064E+03  0.61960653876E+03  0.00000000000E+00 0. -1.
         22    1    3    3    0    0  0.27119797590E+01  0.34630658353E+03 -0.36507841779E+03  0.50320756728E+03  0.00000000000E+00 0. -1.
         22    1    3    3    0    0 -0.77349834796E+01  0.20948486535E+03 -0.10019378998E+03  0.23234141759E+03  0.00000000000E+00 0. -1.
</event>
<event>
 7    1  0.7459264E-005  0.3192475E+03  0.7818608E-02  0.1249742E+00
          2   -1    0    0  502    0  0.00000000000E+00  0.00000000000E+00  0.30528529948E+03  0.30528529948E+03  0.00000000000E+00 0. -1.
          1   -1    0    0  501    0 -0.00000000000E+00 -0.00000000000E+00 -0.11788615699E+04  0.11788615699E+04  0.00000000000E+00 0. -1.
         25    2    1    2    0    0 -0.25450716278E+01 -0.29651636139E+03 -0.20531286041E+03  0.38171347345E+03  0.12499350063E+03 0.  0.
          2    1    1    2  501    0 -0.28285900972E+02 -0.31307165284E+02 -0.75956769992E+03  0.76073866837E+03  0.00000000000E+00 0. -1.
          1    1    1    2  502    0  0.30830972600E+02  0.32782352668E+03  0.91304289875E+02  0.34169472759E+03  0.00000000000E+00 0. -1.
         22    1    3    3    0    0  0.53135332437E+02 -0.14480365516E+03 -0.63852318550E+02  0.16693885313E+03  0.00000000000E+00 0.  1.
         22    1    3    3    0    0 -0.55680404065E+02 -0.15171270623E+03 -0.14146054186E+03  0.21477462031E+03  0.00000000000E+00 0.  1.
</event>
<event>
 7    1  0.7459264E-005  0.7225241E+03  0.7818608E-02  0.1106600E+00
          2   -1    0    0  502    0  0.00000000000E+00  0.00000000000E+00  0.34408291630E+04  0.34408291630E+04  0.00000000000E+00 0. -1.
          1   -1    0    0  501    0 -0.00000000000E+00 -0.00000000000E+00 -0.11291120428E+04  0.11291120428E+04  0.00000000000E+00 0. -1.
         25    2    1    2    0    0 -0.57713594455E+03  0.45083413190E+03 -0.25018435149E+03  0.78393541581E+03  0.12500085382E+03 0.  0.
          2    1    1    2  501    0  0.50414695615E+03 -0.51040709450E+03 -0.40081883098E+03  0.82178786240E+03  0.00000000000E+00 0. -1.
          1    1    1    2  502    0  0.72988988396E+02  0.59572962604E+02  0.29627203027E+04  0.29642179276E+04  0.00000000000E+00 0. -1.
         22    1    3    3    0    0 -0.32542514354E+03  0.17697607506E+03 -0.10984167399E+03  0.38637708076E+03  0.00000000000E+00 0.  1.
         22    1    3    3    0    0 -0.25171080101E+03  0.27385805684E+03 -0.14034267750E+03  0.39755833505E+03  0.00000000000E+00 0.  1.
</event>
<event>
 7    1  0.7459264E-005  0.4628825E+03  0.7818608E-02  0.1212416E+00
          2   -1    0    0  502    0  0.00000000000E+00  0.00000000000E+00  0.68280870884E+03  0.68280870884E+03  0.00000000000E+00 0. -1.
          1   -1    0    0  501    0 -0.00000000000E+00 -0.00000000000E+00 -0.90631626652E+03  0.90631626652E+03  0.00000000000E+00 0. -1.
         25    2    1    2    0    0 -0.31414528402E+03  0.32390242715E+03 -0.30082992619E+03  0.55652849339E+03  0.12500111073E+03 0.  0.
          2    1    1    2  501    0  0.35568829219E+03 -0.31378915240E+03 -0.35857704771E+03  0.59460515681E+03  0.00000000000E+00 0. -1.
          1    1    1    2  502    0 -0.41543008172E+02 -0.10113274746E+02  0.43589941621E+03  0.43799132515E+03  0.00000000000E+00 0. -1.
         22    1    3    3    0    0 -0.63288128928E+02  0.68828022548E+02 -0.12984755138E+03  0.16000959518E+03  0.00000000000E+00 0. -1.
         22    1    3    3    0    0 -0.25085715509E+03  0.25507440460E+03 -0.17098237481E+03  0.39651889821E+03  0.00000000000E+00 0. -1.
</event>
<event>
 7    1  0.7459264E-005  0.2446605E+03  0.7818608E-02  0.1310893E+00
          2   -1    0    0  502    0  0.00000000000E+00  0.00000000000E+00  0.15995464128E+03  0.15995464128E+03  0.00000000000E+00 0. -1.
          1   -1    0    0  501    0 -0.00000000000E+00 -0.00000000000E+00 -0.50257597298E+03  0.50257597298E+03  0.00000000000E+00 0. -1.
         25    2    1    2    0    0  0.63461753877E+02 -0.23528519541E+03 -0.20447557713E+03  0.34179021103E+03  0.12499507721E+03 0.  0.
          2    1    1    2  501    0  0.29806060580E+02  0.76262473055E+01 -0.51338633837E+02  0.59851618353E+02  0.00000000000E+00 0. -1.
          1    1    1    2  502    0 -0.93267814457E+02  0.22765894811E+03 -0.86807120736E+02  0.26088878488E+03  0.00000000000E+00 0. -1.
         22    1    3    3    0    0 -0.47781562159E+01 -0.19010948837E+03 -0.16072131020E+03  0.24898953371E+03  0.00000000000E+00 0.  1.
         22    1    3    3    0    0  0.68239910093E+02 -0.45175707041E+02 -0.43754266933E+02  0.92800677320E+02  0.00000000000E+00 0.  1.
</event>
<event>
 7    1  0.7459264E-005  0.3570747E+03  0.7818608E-02  0.1201859E+00
          2   -1    0    0  502    0  0.00000000000E+00  0.00000000000E+00  0.58419363086E+03  0.58419363086E+03  0.00000000000E+00 0. -1.
          1   -1    0    0  501    0 -0.00000000000E+00 -0.00000000000E+00 -0.17932395814E+04  0.17932395814E+04  0.00000000000E+00 0. -1.
         25    2    1    2    0    0 -0.32765735332E+03  0.26910531644E+02 -0.25209566587E+03  0.43273607646E+03  0.12499907687E+03 0.  0.
          2    1    1    2  501    0  0.35559348002E+03 -0.82341426376E+02 -0.14257885663E+04  0.14717676003E+04  0.00000000000E+00 0. -1.
          1    1    1    2  502    0 -0.27936126707E+02  0.55430894733E+02  0.46883828161E+03  0.47292953552E+03  0.00000000000E+00 0. -1.
         22    1    3    3    0    0 -0.25181165139E+03  0.72871288224E+02 -0.20146144249E+03  0.33061464763E+03  0.00000000000E+00 0.  1.
         22    1    3    3    0    0 -0.75845701931E+02 -0.45960756580E+02 -0.50634223386E+02  0.10212142882E+03  0.00000000000E+00 0.  1.
</event>
<event>
 7    1  0.7459264E-005  0.4595421E+03  0.7818608E-02  0.1083785E+00
          2   -1    0    0  502    0  0.00000000000E+00  0.00000000000E+00  0.13967665599E+04  0.13967665599E+04  0.00000000000E+00 0. -1.
          1   -1    0    0  501    0 -0.00000000000E+00 -0.00000000000E+00 -0.21749955312E+04  0.21749955312E+04  0.00000000000E+00 0. -1.
         25    2    1    2    0    0  0.39054559480E+03  0.36672405577E+03 -0.28709530681E+03  0.62053281877E+03  0.12499947711E+03 0.  0.
          2    1    1    2  501    0 -0.19466118209E+03  0.44533045772E+02 -0.16728649091E+04  0.16847412775E+04  0.00000000000E+00 0. -1.
          1    1    1    2  502    0 -0.19588441271E+03 -0.41125710154E+03  0.11817312445E+04  0.12664879948E+04  0.00000000000E+00 0. -1.
         22    1    3    3    0    0  0.28086849940E+03  0.30930884801E+03 -0.26506497903E+03  0.49479139092E+03  0.00000000000E+00 0.  1.
         22    1    3    3    0    0  0.10967709540E+03  0.57415207755E+02 -0.22030327784E+02  0.12574142785E+03  0.00000000000E+00 0.  1.
</event>
<event>
 7    1  0.7459264E-005  0.2271041E+03  0.7818608E-02  0.1224447E+00
          2   -1    0    0  502    0  0.00000000000E+00  0.00000000000E+00  0.21364032212E+04  0.21364032212E+04  0.00000000000E+00 0. -1.
          1   -1    0    0  501    0 -0.00000000000E+00 -0.00000000000E+00 -0.72369300350E+03  0.72369300350E+03  0.00000000000E+00 0. -1.
         25    2    1    2    0    0 -0.16944712092E+03  0.16892146227E+03  0.17510636513E+04  0.17717493555E+04  0.12500032230E+03 0.  0.
          2    1    1    2  501    0 -0.10076019600E+02 -0.76115589232E+02 -0.68381688660E+03  0.68811383033E+03  0.00000000000E+00 0. -1.
          1    1    1    2  502    0  0.17952314052E+03 -0.92805873034E+02  0.34546345303E+03  0.40023303891E+03  0.00000000000E+00 0. -1.
         22    1    3    3    0    0 -0.32867676180E+02  0.96635821679E+02  0.98367082256E+03  0.98895250307E+03  0.00000000000E+00 0. -1.
         22    1    3    3    0    0 -0.13657944474E+03  0.72285640587E+02  0.76739282872E+03  0.78279685240E+03  0.00000000000E+00 0. -1.
</event>
<event>
 7    1  0.7459264E-005  0.3106863E+03  0.7818608E-02  0.1279665E+00
          2   -1    0    0  502    0  0.00000000000E+00  0.00000000000E+00  0.14833692705E+04  0.14833692705E+04  0.00000000000E+00 0. -1.
          1   -1    0    0  501    0 -0.00000000000E+00 -0.00000000000E+00 -0.26374594504E+04  0.26374594504E+04  0.00000000000E+00 0. -1.
         25    2    1    2    0    0 -0.15713734396E+03 -0.29838995257E+03  0.75775395385E+02  0.36755419744E+03  0.12500187539E+03 0.  0.
          2    1    1    2  501    0  0.15827722726E+03  0.26602938735E+03 -0.24817451379E+04  0.25009762584E+04  0.00000000000E+00 0. -1.
          1    1    1    2  502    0 -0.11398833011E+01  0.32360565220E+02  0.12518795626E+04  0.12522982651E+04  0.00000000000E+00 0. -1.
         22    1    3    3    0    0 -0.71202418847E+02 -0.23720496832E+03  0.20629944373E+02  0.24851876398E+03  0.00000000000E+00 0.  1.
         22    1    3    3    0    0 -0.85934925110E+02 -0.61184984243E+02  0.55145451012E+02  0.11903543345E+03  0.00000000000E+00 0.  1.
</event>
<event>
 7    1  0.7459264E-005  0.3815220E+03  0.7818608E-02  0.1186291E+00
          2   -1    0    0  502    0  0.00000000000E+00  0.00000000000E+00  0.33597450053E+04  0.33597450053E+04  0.00000000000E+00 0. -1.
          1   -1    0    0  501    0 -0.00000000000E+00 -0.00000000000E+00 -0.38714709346E+03  0.38714709346E+03  0.00000000000E+00 0. -1.
         25    2    1    2    0    0  0.30146066816E+03 -0.32266675996E+03  0.15002793928E+03  0.48283155980E+03  0.12500224058E+03 0.  0.
          2    1    1    2  501    0 -0.61190257982E+02  0.31702303085E+02 -0.20334620471E+03  0.21470668984E+03  0.00000000000E+00 0. -1.
          1    1    1    2  502    0 -0.24027041018E+03  0.29096445687E+03  0.30259161773E+04  0.30493538491E+04  0.00000000000E+00 0. -1.
         22    1    3    3    0    0  0.88236098236E+02 -0.26702861752E+02  0.48627178781E+02  0.10422693689E+03  0.00000000000E+00 0.  1.
         22    1    3    3    0    0  0.21322456992E+03 -0.29596389821E+03  0.10140076050E+03  0.37860462291E+03  0.00000000000E+00 0.  1.
</event>
<event>
 7    1  0.7459264E-005  0.3713836E+03  0.7818608E-02  0.1197449E+00
          2   -1    0    0  502    0  0.00000000000E+00  0.00000000000E+00  0.16944367573E+04  0.16944367573E+04  0.00000000000E+00 0. -1.
          1   -1    0    0  501    0 -0.00000000000E+00 -0.00000000000E+00 -0.38335224302E+03  0.38335224302E+03  0.00000000000E+00 0. -1.
         25    2    1    2    0    0 -0.36775183311E+03  0.13917209213E+03  0.92729257711E+03  0.10149419501E+04  0.12500142630E+03 0.  0.
          2    1    1    2  501    0  0.57208385723E+02  0.25441537712E+02 -0.29333064681E+03  0.29993822630E+03  0.00000000000E+00 0. -1.
          1    1    1    2  502    0  0.31054344739E+03 -0.16461362985E+03  0.67712258403E+03  0.76290882394E+03  0.00000000000E+00 0. -1.
         22    1    3    3    0    0 -0.13643937220E+03  0.93062388095E+02  0.26881370569E+03  0.31549503757E+03  0.00000000000E+00 0.  1.
         22    1    3    3    0    0 -0.23131246091E+03  0.46109704040E+02  0.65847887142E+03  0.69944691256E+03  0.00000000000E+00 0.  1.
</event>
<event>
 7    1  0.7459264E-005  0.1318964E+03  0.7818608E-02  0.1244434E+00
          2   -1    0    0  502    0  0.00000000000E+00  0.00000000000E+00  0.67524702644E+03  0.67524702644E+03  0.00000000000E+00 0. -1.
          1   -1    0    0  501    0 -0.00000000000E+00 -0.00000000000E+00 -0.10380250814E+04  0.10380250814E+04  0.00000000000E+00 0. -1.
         25    2    1    2    0    0  0.11900848055E+03 -0.15998427747E+03 -0.64660172116E+03  0.68809867867E+03  0.12501207266E+03 0.  0.
          2    1    1    2  501    0  0.16323653768E+01  0.10770129650E+03 -0.35602128319E+03  0.37195885252E+03  0.00000000000E+00 0. -1.
          1    1    1    2  502    0 -0.12064084593E+03  0.52282980962E+02  0.63984494942E+03  0.65321457661E+03  0.00000000000E+00 0. -1.
         22    1    3    3    0    0 -0.39277873471E+01  0.57548692796E+01 -0.15220888593E+03  0.15236827423E+03  0.00000000000E+00 0.  1.
         22    1    3    3    0    0  0.12293626790E+03 -0.16573914675E+03 -0.49439283522E+03  0.53573040445E+03  0.00000000000E+00 0.  1.
</event>
<event>
 7    1  0.7459264E-005  0.6962252E+03  0.7818608E-02  0.1185372E+00
          2   -1    0    0  502    0  0.00000000000E+00  0.00000000000E+00  0.87420237534E+03  0.87420237534E+03  0.00000000000E+00 0. -1.
          1   -1    0    0  501    0 -0.00000000000E+00 -0.00000000000E+00 -0.16183490194E+04  0.16183490194E+04  0.00000000000E+00 0. -1.
         25    2    1    2    0    0  0.46359106723E+03 -0.50847490660E+03  0.47893006404E+03  0.84762230106E+03  0.12500460296E+03 0.  0.
          2    1    1    2  501    0  0.34150622131E+02 -0.17009816853E+02 -0.81130284943E+03  0.81219942893E+03  0.00000000000E+00 0. -1.
          1    1    1    2  502    0 -0.49774168936E+03  0.52548472345E+03 -0.41177385870E+03  0.83272966478E+03  0.00000000000E+00 0. -1.
         22    1    3    3    0    0  0.19085660185E+03 -0.14974705508E+03  0.22229059045E+03  0.32903423770E+03  0.00000000000E+00 0.  1.
         22    1    3    3    0    0  0.27273446538E+03 -0.35872785151E+03  0.25663947359E+03  0.51858806336E+03  0.00000000000E+00 0.  1.
</event>
<event>
 7    1  0.7459264E-005  0.8017756E+03  0.7818608E-02  0.1141462E+00
          2   -1    0    0  502    0  0.00000000000E+00  0.00000000000E+00  0.80170658194E+03  0.80170658194E+03  0.00000000000E+00 0. -1.
          1   -1    0    0  501    0 -0.00000000000E+00 -0.00000000000E+00 -0.22086729069E+04  0.22086729069E+04  0.00000000000E+00 0. -1.
         25    2    1    2    0    0  0.68794329580E+03 -0.45678835251E+03 -0.72040831583E+03  0.11029665082E+04  0.12500159765E+03 0.  0.
          2    1    1    2  501    0 -0.51372351924E+02 -0.19844070163E+02 -0.10369451525E+04  0.10384065461E+04  0.00000000000E+00 0. -1.
          1    1    1    2  502    0 -0.63657094388E+03  0.47663242267E+03  0.35038714343E+03  0.86900643451E+03  0.00000000000E+00 0. -1.
         22    1    3    3    0    0  0.51025597753E+03 -0.29986165641E+03 -0.57320553523E+03  0.82391914725E+03  0.00000000000E+00 0.  1.
         22    1    3    3    0    0  0.17768731827E+03 -0.15692669609E+03 -0.14720278060E+03  0.27904736092E+03  0.00000000000E+00 0.  1.
</event>
<event>
 7    1  0.7459264E-005  0.9438672E+03  0.7818608E-02  0.1179322E+00
          2   -1    0    0  502    0  0.00000000000E+00  0.00000000000E+00  0.27444267903E+04  0.27444267903E+04  0.00000000000E+00 0. -1.
          1   -1    0    0  501    0 -0.00000000000E+00 -0.00000000000E+00 -0.59802923161E+03  0.59802923161E+03  0.00000000000E+00 0. -1.
         25    2    1    2    0    0 -0.13673964870E+03  0.92458350640E+03  0.37049577137E+03  0.10131360248E+04  0.12500038542E+03 0.  0.
          2    1    1    2  501    0 -0.29059872051E+02  0.78988483375E+01 -0.16602983130E+03  0.16873877104E+03  0.00000000000E+00 0. -1.
          1    1    1    2  502    0  0.16579952075E+03 -0.93248235474E+03  0.19419316186E+04  0.21605812261E+04  0.00000000000E+00 0. -1.
         22    1    3    3    0    0  0.17225505824E+02  0.18301681955E+03  0.48259707965E+02  0.19005492285E+03  0.00000000000E+00 0.  1.
         22    1    3    3    0    0 -0.15396515453E+03  0.74156668686E+03  0.32223606341E+03  0.82308110197E+03  0.00000000000E+00 0.  1.
</event>
<event>
 7    1  0.7459264E-005  0.1627946E+03  0.7818608E-02  0.1213697E+00
          2   -1    0    0  502    0  0.00000000000E+00  0.00000000000E+00  0.47862412460E+03  0.47862412460E+03  0.00000000000E+00 0. -1.
          1   -1    0    0  501    0 -0.00000000000E+00 -0.00000000000E+00 -0.29528287016E+03  0.29528287016E+03  0.00000000000E+00 0. -1.
         25    2    1    2    0    0  0.20398854581E+03  0.20176331008E+02  0.99358020453E+02  0.25983974683E+03  0.12500506649E+03 0.  0.
          2    1    1    2  501    0 -0.84644901657E+02  0.84957873614E+02 -0.17380373697E+03  0.21116424567E+03  0.00000000000E+00 0. -1.
          1    1    1    2  502    0 -0.11934364416E+03 -0.10513420462E+03  0.25778697095E+03  0.30290300226E+03  0.00000000000E+00 0. -1.
         22    1    3    3    0    0  0.74678336794E+00 -0.24264824793E+02  0.33988167588E+02  0.41767630333E+02  0.00000000000E+00 0. -1.
         22    1    3    3    0    0  0.20324176244E+03  0.44441155801E+02  0.65369852865E+02  0.21807211650E+03  0.00000000000E+00 0. -1.
</event>
<event>
 7    1  0.7459264E-005  0.7208737E+03  0.7818608E-02  0.1018500E+00
          2   -1    0    0  502    0  0.00000000000E+00  0.00000000000E+00  0.11482793619E+04  0.11482793619E+04  0.00000000000E+00 0. -1.
          1   -1    0    0  501    0 -0.00000000000E+00 -0.00000000000E+00 -0.13264096816E+04  0.13264096816E+04  0.00000000000E+00 0. -1.
         25    2    1    2    0    0  0.35180634802E+03 -0.72263918270E+03 -0.58224869113E+03  0.10003070245E+04  0.12500204024E+03 0.  0.
          2    1    1    2  501    0 -0.34784929552E+02  0.66233993474E+03 -0.27848195841E+03  0.71934441100E+03  0.00000000000E+00 0. -1.
          1    1    1    2  502    0 -0.31702141847E+03  0.60299247959E+02  0.68260032993E+03  0.75503760800E+03  0.00000000000E+00 0. -1.
         22    1    3    3    0    0  0.60426759808E+02 -0.11575384810E+03 -0.15627839689E+03  0.20364990544E+03  0.00000000000E+00 0. -1.
         22    1    3    3    0    0  0.29137958821E+03 -0.60688533460E+03 -0.42597029424E+03  0.79665711906E+03  0.00000000000E+00 0. -1.
</event>
<event>
 7    1  0.7459264E-005  0.3193216E+03  0.7818608E-02  0.1152740E+00
          2   -1    0    0  502    0  0.00000000000E+00  0.00000000000E+00  0.88722514795E+03  0.88722514795E+03  0.00000000000E+00 0. -1.
          1   -1    0    0  501    0 -0.00000000000E+00 -0.00000000000E+00 -0.23331132714E+04  0.23331132714E+04  0.00000000000E+00 0. -1.
         25    2    1    2    0    0  0.34270662841E+03 -0.14838261756E+03 -0.15317077309E+03  0.42255410561E+03  0.12500180837E+03 0.  0.
          2    1    1    2  501    0 -0.10560334650E+03 -0.58862623325E+02 -0.20104102311E+04  0.20140422470E+04  0.00000000000E+00 0. -1.
          1    1    1    2  502    0 -0.23710328190E+03  0.20724524088E+03  0.71769288075E+03  0.78374206678E+03  0.00000000000E+00 0. -1.
         22    1    3    3    0    0  0.72846392646E+02 -0.89852773656E+02 -0.26077573164E+02  0.11857553575E+03  0.00000000000E+00 0. -1.
         22    1    3    3    0    0  0.26986023576E+03 -0.58529843904E+02 -0.12709319992E+03  0.30397856987E+03  0.00000000000E+00 0. -1.
</event>
<event>
 7    1  0.7459264E-005  0.2615755E+03  0.7818608E-02  0.1166750E+00
          2   -1    0    0  502    0  0.00000000000E+00  0.00000000000E+00  0.16609318751E+04  0.16609318751E+04  0.00000000000E+00 0. -1.
          1   -1    0    0  501    0 -0.00000000000E+00 -0.00000000000E+00 -0.44804038035E+03  0.44804038035E+03  0.00000000000E+00 0. -1.
         25    2    1    2    0    0  0.34219820365E+03  0.12717033363E+03  0.10792673499E+03  0.40068093328E+03  0.12500050333E+03 0.  0.
          2    1    1    2  501    0 -0.12528299611E+03  0.47254450847E+01 -0.27655185018E+03  0.30364302196E+03  0.00000000000E+00 0. -1.
          1    1    1    2  502    0 -0.21691520754E+03 -0.13189577871E+03  0.13815166100E+04  0.14046483002E+04  0.00000000000E+00 0. -1.
         22    1    3    3    0    0  0.48436895349E+02  0.99148918428E+01 -0.27539973156E+02  0.56594063582E+02  0.00000000000E+00 0. -1.
         22    1    3    3    0    0  0.29376130830E+03  0.11725544178E+03  0.13546670815E+03  0.34408686970E+03  0.00000000000E+00 0. -1.
</event>
<event>
 7    1  0.7459264E-005  0.3202715E+03  0.7818608E-02  0.1317155E+00
          2   -1    0    0  502    0  0.00000000000E+00  0.00000000000E+00  0.15356925379E+04  0.15356925379E+04  0.00000000000E+00 0. -1.
          1   -1    0    0  501    0 -0.00000000000E+00 -0.00000000000E+00 -0.20115525867E+04  0.20115525867E+04  0.00000000000E+00 0. -1.
         25    2    1    2    0    0  0.24736961435E+03  0.21150901482E+03  0.84223029869E+03  0.91153984299E+03  0.12500087948E+03 0.  0.
          2    1    1    2  501    0 -0.25673080616E+03 -0.19136540830E+03 -0.19637393694E+04  0.19896742792E+04  0.00000000000E+00 0. -1.
          1    1    1    2  502    0  0.93611918077E+01 -0.20143606526E+02  0.64564902181E+03  0.64603100247E+03  0.00000000000E+00 0. -1.
         22    1    3    3    0    0  0.18424684882E+03  0.84071151157E+02  0.42610845025E+03  0.47178731557E+03  0.00000000000E+00 0.  1.
         22    1    3    3    0    0  0.63122765528E+02  0.12743786367E+03  0.41612184844E+03  0.43975252742E+03  0.00000000000E+00 0.  1.
</event>
<event>
 7    1  0.7459264E-005  0.2957099E+03  0.7818608E-02  0.1171899E+00
          2   -1    0    0  502    0  0.00000000000E+00  0.00000000000E+00  0.54519212965E+03  0.54519212965E+03  0.00000000000E+00 0. -1.
          1   -1    0    0  501    0 -0.00000000000E+00 -0.00000000000E+00 -0.16730925261E+04  0.16730925261E+04  0.00000000000E+00 0. -1.
         25    2    1    2    0    0  0.18604748132E+03  0.31214992915E+03 -0.68758960512E+03  0.78768817965E+03  0.12498783826E+03 0.  0.
          2    1    1    2  501    0 -0.10171212996E+03 -0.25035614953E+03 -0.91007046368E+03  0.94934282946E+03  0.00000000000E+00 0. -1.
          1    1    1    2  502    0 -0.84335351361E+02 -0.61793779622E+02  0.46975967232E+03  0.48125364667E+03  0.00000000000E+00 0. -1.
         22    1    3    3    0    0 -0.14973383922E+02  0.40197465988E+01 -0.39832791818E+02  0.42743559664E+02  0.00000000000E+00 0.  1.
         22    1    3    3    0    0  0.20102086524E+03  0.30813018255E+03 -0.64775681330E+03  0.74494461998E+03  0.00000000000E+00 0.  1.
</event>
<event>
 7    1  0.7459264E-005  0.7314967E+03  0.7818608E-02  0.1127868E+00
          2   -1    0    0  502    0  0.00000000000E+00  0.00000000000E+00  0.20172823530E+04  0.20172823530E+04  0.00000000000E+00 0. -1.
          1   -1    0    0  501    0 -0.00000000000E+00 -0.00000000000E+00 -0.16054512641E+04  0.16054512641E+04  0.00000000000E+00 0. -1.
         25    2    1    2    0    0  0.51912404709E+03  0.41635682026E+03  0.10498416758E+04  0.12492538044E+04  0.12499898271E+03 0.  0.
          2    1    1    2  501    0 -0.57370199240E+03 -0.46212640637E+03 -0.14139121382E+04  0.15943156294E+04  0.00000000000E+00 0. -1.
          1    1    1    2  502    0  0.54577945308E+02  0.45769586111E+02  0.77590155137E+03  0.77916418331E+03  0.00000000000E+00 0. -1.
         22    1    3    3    0    0  0.24140059561E+03  0.25734451993E+03  0.61985480735E+03  0.71324640321E+03  0.00000000000E+00 0. -1.
         22    1    3    3    0    0  0.27772345148E+03  0.15901230033E+03  0.42998686843E+03  0.53600740124E+03  0.00000000000E+00 0. -1.
</event>
<event>
 7    1  0.7459264E-005  0.4223168E+02  0.7818608E-02  0.1499201E+00
          2   -1    0    0  502    0  0.00000000000E+00  0.00000000000E+00  0.20999687792E+03  0.20999687792E+03  0.00000000000E+00 0. -1.
          1   -1    0    0  501    0 -0.00000000000E+00 -0.00000000000E+00 -0.14647047566E+03  0.14647047566E+03  0.00000000000E+00 0. -1.
         25    2    1    2    0    0 -0.40732303922E+02 -0.23994083582E+02  0.15932073724E+03  0.20795801836E+03  0.12501441300E+03 0.  0.
          2    1    1    2  501    0  0.37369098423E+02 -0.19673975037E+02 -0.95817938940E+02  0.10471194886E+03  0.00000000000E+00 0. -1.
          1    1    1    2  502    0  0.33632054987E+01  0.43668058619E+02  0.23603962713E-01  0.43797386359E+02  0.00000000000E+00 0. -1.
         22    1    3    3    0    0 -0.46668230973E+02 -0.98096303248E+01  0.17770420139E+03  0.18399167324E+03  0.00000000000E+00 0.  1.
         22    1    3    3    0    0  0.59359270508E+01 -0.14184453257E+02 -0.18383464154E+02  0.23966345121E+02  0.00000000000E+00 0.  1.
</event>
<event>
 7    1  0.7459264E-005  0.2063485E+03  0.7818608E-02  0.1222391E+00
          2   -1    0    0  502    0  0.00000000000E+00  0.00000000000E+00  0.19409052353E+04  0.19409052353E+04  0.00000000000E+00 0. -1.
          1   -1    0    0  501    0 -0.00000000000E+00 -0.00000000000E+00 -0.29951498965E+03  0.29951498965E+03  0.00000000000E+00 0. -1.
         25    2    1    2    0    0  0.85298465351E+02  0.19251970130E+03  0.18042118433E+04  0.18207541880E+04  0.12500309610E+03 0.  0.
          2    1    1    2  501    0  0.51991676896E+02 -0.68924751604E+02 -0.21166065849E+03  0.22859131698E+03  0.00000000000E+00 0. -1.
          1    1    1    2  502    0 -0.13729014225E+03 -0.12359494970E+03  0.48839060851E+02  0.19107471997E+03  0.00000000000E+00 0. -1.
         22    1    3    3    0    0 -0.18226289352E+02  0.59068247899E+02  0.80484890489E+03  0.80721931050E+03  0.00000000000E+00 0.  1.
         22    1    3    3    0    0  0.10352475470E+03  0.13345145340E+03  0.99936293840E+03  0.10135348775E+04  0.00000000000E+00 0.  1.
</event>
<event>
 7    1  0.7459264E-005  0.2887721E+03  0.7818608E-02  0.1190006E+00
          2   -1    0    0  502    0  0.00000000000E+00  0.00000000000E+00  0.80556528860E+03  0.80556528860E+03  0.00000000000E+00 0. -1.
          1   -1    0    0  501    0 -0.00000000000E+00 -0.00000000000E+00 -0.80845709997E+03  0.80845709997E+03  0.00000000000E+00 0. -1.
         25    2    1    2    0    0  0.34304715576E+03 -0.11930624553E+03 -0.21220440378E+02  0.38469523191E+03  0.12499913226E+03 0.  0.
          2    1    1    2  501    0 -0.26008491427E+03  0.91883105463E+02 -0.57069350842E+03  0.63385940732E+03  0.00000000000E+00 0. -1.
          1    1    1    2  502    0 -0.82962241486E+02  0.27423140070E+02  0.58902213743E+03  0.59546774934E+03  0.00000000000E+00 0. -1.
         22    1    3    3    0    0  0.32001490206E+03 -0.70201236509E+02 -0.35250025600E+01  0.32764336830E+03  0.00000000000E+00 0. -1.
         22    1    3    3    0    0  0.23032253700E+02 -0.49105009024E+02 -0.17695437818E+02  0.57051863610E+02  0.00000000000E+00 0. -1.
</event>
<event>
 7    1  0.7459264E-005  0.5402300E+03  0.7818608E-02  0.1185660E+00
          2   -1    0    0  502    0  0.00000000000E+00  0.00000000000E+00  0.76063788490E+03  0.76063788490E+03  0.00000000000E+00 0. -1.
          1   -1    0    0  501    0 -0.00000000000E+00 -0.00000000000E+00 -0.20792830630E+04  0.20792830630E+04  0.00000000000E+00 0. -1.
         25    2    1    2    0    0  0.56417238904E+03  0.12391929510E+03 -0.29578073007E+03  0.66087711448E+03  0.12500337562E+03 0.  0.
          2    1    1    2  501    0 -0.48901782475E+02  0.32821446508E+01 -0.14786457522E+04  0.14794578120E+04  0.00000000000E+00 0. -1.
          1    1    1    2  502    0 -0.51527060656E+03 -0.12720143975E+03  0.45578130416E+03  0.69958602150E+03  0.00000000000E+00 0. -1.
         22    1    3    3    0    0  0.38660327788E+03  0.11842746321E+03 -0.25681472833E+03  0.47899996158E+03  0.00000000000E+00 0.  1.
         22    1    3    3    0    0  0.17756911116E+03  0.54918318851E+01 -0.38966001745E+02  0.18187715290E+03  0.00000000000E+00 0.  1.
</event>
<event>
 7    1  0.7459264E-005  0.1752339E+03  0.7818608E-02  0.1309585E+00
          2   -1    0    0  502    0  0.00000000000E+00  0.00000000000E+00  0.78198608826E+03  0.78198608826E+03  0.00000000000E+00 0. -1.
          1   -1    0    0  501    0 -0.00000000000E+00 -0.00000000000E+00 -0.54361258896E+03  0.54361258896E+03  0.00000000000E+00 0. -1.
         25    2    1    2    0    0 -0.12113904793E+02  0.15576637057E+03  0.22522303665E+03  0.30124725699E+03  0.12495833193E+03 0.  0.
          2    1    1    2  501    0 -0.37618465841E+02  0.21779615485E+02 -0.48822076063E+03  0.49015202920E+03  0.00000000000E+00 0. -1.
          1    1    1    2  502    0  0.49732370635E+02 -0.17754598606E+03  0.50137122328E+03  0.53419939103E+03  0.00000000000E+00 0. -1.
         22    1    3    3    0    0 -0.45904116210E+02  0.59663548981E+01  0.58077049363E+02  0.74267953644E+02  0.00000000000E+00 0.  1.
         22    1    3    3    0    0  0.33790211416E+02  0.14980001567E+03  0.16714598729E+03  0.22697930335E+03  0.00000000000E+00 0.  1.
</event>
<event>
 7    1  0.7459264E-005  0.2441000E+03  0.7818608E-02  0.1219721E+00
          2   -1    0    0  502    0  0.00000000000E+00  0.00000000000E+00  0.59212676008E+03  0.59212676008E+03  0.00000000000E+00 0. -1.
          1   -1    0    0  501    0 -0.00000000000E+00 -0.00000000000E+00 -0.26650480706E+04  0.26650480706E+04  0.00000000000E+00 0. -1.
         25    2    1    2    0    0  0.23943807113E+03 -0.81029796968E+02  0.42891134905E+03  0.51330922211E+03  0.12499997703E+03 0.  0.
          2    1    1    2  501    0 -0.10384385286E+02  0.74332202526E+02 -0.25133065407E+04  0.25144269485E+04  0.00000000000E+00 0. -1.
          1    1    1    2  502    0 -0.22905368584E+03  0.66975944418E+01  0.11473881169E+02  0.22943866003E+03  0.00000000000E+00 0. -1.
         22    1    3    3    0    0  0.12608655989E+03 -0.76172207882E+02  0.33525574542E+03  0.36619180859E+03  0.00000000000E+00 0.  1.
         22    1    3    3    0    0  0.11335151123E+03 -0.48575890860E+01  0.93655603635E+02  0.14711741352E+03  0.00000000000E+00 0.  1.
</event>
<event>
 7    1  0.7459264E-005  0.2161154E+03  0.7818608E-02  0.1206096E+00
          2   -1    0    0  502    0  0.00000000000E+00  0.00000000000E+00  0.37043305341E+04  0.37043305341E+04  0.00000000000E+00 0. -1.
          1   -1    0    0  501    0 -0.00000000000E+00 -0.00000000000E+00 -0.83135464009E+02  0.83135464009E+02  0.00000000000E+00 0. -1.
         25    2    1    2    0    0 -0.25558301253E+03 -0.15889235236E+03  0.85538628967E+03  0.91535785761E+03  0.12499938796E+03 0.  0.
          2    1    1    2  501    0  0.72200510113E+02  0.66231144529E+02 -0.70072565918E+00  0.97979432447E+02  0.00000000000E+00 0. -1.
          1    1    1    2  502    0  0.18338250242E+03  0.92661207831E+02  0.27665095061E+04  0.27741287081E+04  0.00000000000E+00 0. -1.
         22    1    3    3    0    0 -0.87113428756E+02 -0.53966815593E+02  0.14357288853E+03  0.17639257631E+03  0.00000000000E+00 0. -1.
         22    1    3    3    0    0 -0.16846958378E+03 -0.10492553677E+03  0.71181340114E+03  0.73896528130E+03  0.00000000000E+00 0. -1.
</event>
<event>
 7    1  0.7459264E-005  0.1760717E+04  0.7818608E-02  0.1114975E+00
          2   -1    0    0  502    0  0.00000000000E+00  0.00000000000E+00  0.19691936476E+04  0.19691936476E+04  0.00000000000E+00 0. -1.
          1   -1    0    0  501    0 -0.00000000000E+00 -0.00000000000E+00 -0.16812716083E+04  0.16812716083E+04  0.00000000000E+00 0. -1.
         25    2    1    2    0    0 -0.24484695922E+03  0.17254228334E+04  0.36884951210E+03  0.17856956981E+04  0.12500070415E+03 0.  0.
          2    1    1    2  501    0  0.23484811160E+03 -0.17587088853E+04 -0.15688109371E+03  0.17812417736E+04  0.00000000000E+00 0. -1.
          1    1    1    2  502    0  0.99988476207E+01  0.33286051822E+02  0.75953620889E+02  0.83527784155E+02  0.00000000000E+00 0. -1.
         22    1    3    3    0    0 -0.13411089542E+03  0.12815770319E+04  0.30070883052E+03  0.13231973480E+04  0.00000000000E+00 0. -1.
         22    1    3    3    0    0 -0.11073606380E+03  0.44384580148E+03  0.68140681576E+02  0.46249835006E+03  0.00000000000E+00 0. -1.
</event>
<event>
 7    1  0.7459264E-005  0.3339958E+03  0.7818608E-02  0.1182409E+00
          2   -1    0    0  502    0  0.00000000000E+00  0.00000000000E+00  0.11484071795E+04  0.11484071795E+04  0.00000000000E+00 0. -1.
          1   -1    0    0  501    0 -0.00000000000E+00 -0.00000000000E+00 -0.23462302660E+03  0.23462302660E+03  0.00000000000E+00 0. -1.
         25    2    1    2    0    0 -0.31181185093E+03  0.53937102264E+02  0.81077845979E+02  0.34976589614E+03  0.12500689427E+03 0.  0.
          2    1    1    2  501    0  0.34192385798E+03 -0.13042862811E+03  0.24629155427E+03  0.44111572336E+03  0.00000000000E+00 0. -1.
          1    1    1    2  502    0 -0.30112007056E+02  0.76491525842E+02  0.58641475267E+03  0.59214858662E+03  0.00000000000E+00 0. -1.
         22    1    3    3    0    0 -0.31513846300E+02  0.27718070209E+02  0.51885659170E+02  0.66734815143E+02  0.00000000000E+00 0. -1.
         22    1    3    3    0    0 -0.28029800463E+03  0.26219032055E+02  0.29192186809E+02  0.28303108100E+03  0.00000000000E+00 0. -1.
</event>
<event>
 7    1  0.7459264E-005  0.8468243E+02  0.7818608E-02  0.1389764E+00
          2   -1    0    0  502    0  0.00000000000E+00  0.00000000000E+00  0.32376409069E+03  0.32376409069E+03  0.00000000000E+00 0. -1.
          1   -1    0    0  501    0 -0.00000000000E+00 -0.00000000000E+00 -0.25037941463E+03  0.25037941463E+03  0.00000000000E+00 0. -1.
         25    2    1    2    0    0 -0.37557388314E+02  0.33111472467E+02  0.19021246923E+02  0.13599850937E+03  0.12500743854E+03 0.  0.
          2    1    1    2  501    0  0.44594764019E+02 -0.77904575120E+02 -0.17909088140E+03  0.20032812984E+03  0.00000000000E+00 0. -1.
          1    1    1    2  502    0 -0.70373757044E+01  0.44793102654E+02  0.23345431053E+03  0.23781686611E+03  0.00000000000E+00 0. -1.
         22    1    3    3    0    0 -0.14177300116E+02  0.78188707864E+02 -0.54092046385E+01  0.79647532108E+02  0.00000000000E+00 0.  1.
         22    1    3    3    0    0 -0.23380088199E+02 -0.45077235397E+02  0.24430451562E+02  0.56350977266E+02  0.00000000000E+00 0.  1.
</event>
<event>
 7    1  0.7459264E-005  0.1380900E+03  0.7818608E-02  0.1237676E+00
          2   -1    0    0  502    0  0.00000000000E+00  0.00000000000E+00  0.69611967923E+03  0.69611967923E+03  0.00000000000E+00 0. -1.
          1   -1    0    0  501    0 -0.00000000000E+00 -0.00000000000E+00 -0.44727355792E+03  0.44727355792E+03  0.00000000000E+00 0. -1.
         25    2    1    2    0    0 -0.15640308513E+03 -0.15670624194E+03  0.46513600036E+02  0.25847013204E+03  0.12499809146E+03 0.  0.
          2    1    1    2  501    0  0.12140399462E+03  0.52235666663E+02 -0.32256289414E+03  0.34858903519E+03  0.00000000000E+00 0. -1.
          1    1    1    2  502    0  0.34999090509E+02  0.10447057528E+03  0.52489541542E+03  0.53633406992E+03  0.00000000000E+00 0. -1.
         22    1    3    3    0    0 -0.12626869184E+03 -0.61486658253E+02 -0.14888896672E+02  0.14123055946E+03  0.00000000000E+00 0.  1.
         22    1    3    3    0    0 -0.30134393287E+02 -0.95219583690E+02  0.61402496708E+02  0.11723957258E+03  0.00000000000E+00 0.  1.
</event>
<event>
 7    1  0.7459264E-005  0.8454505E+02  0.7818608E-02  0.1339549E+00
          2   -1    0    0  502    0  0.00000000000E+00  0.00000000000E+00  0.10949224581E+03  0.10949224581E+03  0.00000000000E+00 0. -1.
          1   -1    0    0  501    0 -0.00000000000E+00 -0.00000000000E+00 -0.12377273623E+04  0.12377273623E+04  0.00000000000E+00 0. -1.
         25    2    1    2    0    0 -0.46900740243E+02  0.71145454583E+02  0.45893019007E+02  0.15809259559E+03  0.12500297775E+03 0.  0.
          2    1    1    2  501    0 -0.52160253556E+02 -0.45267629029E+02 -0.73423002168E+03  0.73747106724E+03  0.00000000000E+00 0. -1.
          1    1    1    2  502    0  0.99060993799E+02 -0.25877825554E+02 -0.43989811380E+03  0.45165594524E+03  0.00000000000E+00 0. -1.
         22    1    3    3    0    0 -0.31913285019E+02 -0.32454889771E+02  0.22751899356E+02  0.50886408352E+02  0.00000000000E+00 0. -1.
         22    1    3    3    0    0 -0.14987455224E+02  0.10360034435E+03  0.23141119651E+02  0.10720618724E+03  0.00000000000E+00 0. -1.
</event>
<event>
 7    1  0.7459264E-005  0.3163300E+03  0.7818608E-02  0.1282216E+00
          2   -1    0    0  502    0  0.00000000000E+00  0.00000000000E+00  0.49557080420E+03  0.49557080420E+03  0.00000000000E+00 0. -1.
          1   -1    0    0  501    0 -0.00000000000E+00 -0.00000000000E+00 -0.64428045498E+03  0.64428045498E+03  0.00000000000E+00 0. -1.
         25    2    1    2    0    0 -0.19826308572E+02  0.33639637845E+03  0.35825405924E+02  0.36119796681E+03  0.12499962229E+03 0.  0.
          2    1    1    2  501    0  0.62952276323E+01 -0.30396295557E+02 -0.40187962582E+03  0.40307666557E+03  0.00000000000E+00 0. -1.
          1    1    1    2  502    0  0.13531080940E+02 -0.30600008289E+03  0.21734456912E+03  0.37557662681E+03  0.00000000000E+00 0. -1.
         22    1    3    3    0    0  0.72576502658E+01  0.31546408137E+03  0.57414460069E+02  0.32072835912E+03  0.00000000000E+00 0.  1.
         22    1    3    3    0    0 -0.27083958838E+02  0.20932297080E+02 -0.21589054145E+02  0.40469607686E+02  0.00000000000E+00 0.  1.
</event>
<event>
 7    1  0.7459264E-005  0.5099228E+02  0.7818608E-02  0.1488635E+00
          2   -1    0    0  502    0  0.00000000000E+00  0.00000000000E+00  0.24713985271E+04  0.24713985271E+04  0.00000000000E+00 0. -1.
          1   -1    0    0  501    0 -0.00000000000E+00 -0.00000000000E+00 -0.13054685817E+03  0.13054685817E+03  0.00000000000E+00 0. -1.
         25    2    1    2    0    0 -0.59211180941E+02  0.35241145818E+02 -0.26591213712E+02  0.14518883916E+03  0.12499921625E+03 0.  0.
          2    1    1    2  501    0  0.48531231779E+02 -0.96070370480E+00 -0.31292060229E+02  0.57752891209E+02  0.00000000000E+00 0. -1.
          1    1    1    2  502    0  0.10679949162E+02 -0.34280442114E+02  0.23987349428E+04  0.23990036549E+04  0.00000000000E+00 0. -1.
         22    1    3    3    0    0 -0.88548654286E+02  0.16786604632E+02 -0.50285052882E+02  0.10320484879E+03  0.00000000000E+00 0.  1.
         22    1    3    3    0    0  0.29337473345E+02  0.18454541187E+02  0.23693839170E+02  0.41983990368E+02  0.00000000000E+00 0.  1.
</event>
<event>
 7    1  0.7459264E-005  0.1293884E+03  0.7818608E-02  0.1264638E+00
          2   -1    0    0  502    0  0.00000000000E+00  0.00000000000E+00  0.49727316848E+03  0.49727316848E+03  0.00000000000E+00 0. -1.
          1   -1    0    0  501    0 -0.00000000000E+00 -0.00000000000E+00 -0.15720457756E+03  0.15720457756E+03  0.00000000000E+00 0. -1.
         25    2    1    2    0    0 -0.12773023324E+03  0.15524973343E+03  0.18254598296E+03  0.29894150082E+03  0.12500197120E+03 0.  0.
          2    1    1    2  501    0  0.52435628420E+02 -0.10618993705E+03 -0.50640271475E+02  0.12880308596E+03  0.00000000000E+00 0. -1.
          1    1    1    2  502    0  0.75294604817E+02 -0.49059796385E+02  0.20816287944E+03  0.22673315927E+03  0.00000000000E+00 0. -1.
         22    1    3    3    0    0 -0.16215424284E+02  0.95163134779E+02  0.30921096545E+02  0.10136605160E+03  0.00000000000E+00 0. -1.
         22    1    3    3    0    0 -0.11151480895E+03  0.60086598651E+02  0.15162488641E+03  0.19757544922E+03  0.00000000000E+00 0. -1.
</event>
<event>
 7    1  0.7459264E-005  0.8090363E+03  0.7818608E-02  0.1222105E+00
          2   -1    0    0  502    0  0.00000000000E+00  0.00000000000E+00  0.53036433981E+03  0.53036433981E+03  0.00000000000E+00 0. -1.
          1   -1    0    0  501    0 -0.00000000000E+00 -0.00000000000E+00 -0.15802820746E+04  0.15802820746E+04  0.00000000000E+00 0. -1.
         25    2    1    2    0    0 -0.63904216392E+03  0.51670345874E+03 -0.71987345530E+03  0.10996362925E+04  0.12499933010E+03 0.  0.
          2    1    1    2  501    0  0.85547978841E+01 -0.20362122104E+02 -0.19628471453E+03  0.19752339037E+03  0.00000000000E+00 0. -1.
          1    1    1    2  502    0  0.63048736604E+03 -0.49634133663E+03 -0.13375956492E+03  0.81348673154E+03  0.00000000000E+00 0. -1.
         22    1    3    3    0    0 -0.42371670561E+03  0.27745373995E+03 -0.48433627138E+03  0.70078388124E+03  0.00000000000E+00 0. -1.
         22    1    3    3    0    0 -0.21532545831E+03  0.23924971879E+03 -0.23553718392E+03  0.39885241123E+03  0.00000000000E+00 0. -1.
</event>
<event>
 7    1  0.7459264E-005  0.1973745E+03  0.7818608E-02  0.1303592E+00
          2   -1    0    0  502    0  0.00000000000E+00  0.00000000000E+00  0.64881934867E+03  0.64881934867E+03  0.00000000000E+00 0. -1.
          1   -1    0    0  501    0 -0.00000000000E+00 -0.00000000000E+00 -0.70731420840E+03  0.70731420840E+03  0.00000000000E+00 0. -1.
         25    2    1    2    0    0  0.17430168402E+03 -0.10739327398E+03  0.31382551906E+03  0.39500115043E+03  0.12500024031E+03 0.  0.
          2    1    1    2  501    0 -0.32753728130E+02 -0.24262515999E+02 -0.63426892037E+03  0.63557732790E+03  0.00000000000E+00 0. -1.
          1    1    1    2  502    0 -0.14154795589E+03  0.13165578998E+03  0.26194854158E+03  0.32555507874E+03  0.00000000000E+00 0. -1.
         22    1    3    3    0    0 -0.99507440612E+01 -0.41041575991E+02  0.38601229627E+02  0.57214361798E+02  0.00000000000E+00 0. -1.
         22    1    3    3    0    0  0.18425242809E+03 -0.66351697994E+02  0.27522428944E+03  0.33778678864E+03  0.00000000000E+00 0. -1.
</event>
<event>
 7    1  0.7459264E-005  0.6932375E+03  0.7818608E-02  0.1028591E+00
          2   -1    0    0  502    0  0.00000000000E+00  0.00000000000E+00  0.14403444609E+04  0.14403444609E+04  0.00000000000E+00 0. -1.
          1   -1    0    0  501    0 -0.00000000000E+00 -0.00000000000E+00 -0.17129114962E+04  0.17129114962E+04  0.00000000000E+00 0. -1.
         25    2    1    2    0    0 -0.19179968261E+03  0.80806059330E+03  0.39529683422E+03  0.92824236265E+03  0.12500102397E+03 0.  0.
          2    1    1    2  501    0 -0.12781864868E+03 -0.25847728350E+03 -0.12981390055E+04  0.13297793015E+04  0.00000000000E+00 0. -1.
          1    1    1    2  502    0  0.31961833129E+03 -0.54958330980E+03  0.63027513599E+03  0.89523429289E+03  0.00000000000E+00 0. -1.
         22    1    3    3    0    0 -0.16464805369E+03  0.48865979505E+03  0.20126085348E+03  0.55353708821E+03  0.00000000000E+00 0.  1.
         22    1    3    3    0    0 -0.27151628921E+02  0.31940079824E+03  0.19403598074E+03  0.37470527444E+03  0.00000000000E+00 0.  1.
</event>
<event>
 7    1  0.7459264E-005  0.6674663E+03  0.7818608E-02  0.1120222E+00
          2   -1    0    0  502    0  0.00000000000E+00  0.00000000000E+00  0.14989681351E+04  0.14989681351E+04  0.00000000000E+00 0. -1.
          1   -1    0    0  501    0 -0.00000000000E+00 -0.00000000000E+00 -0.37154683783E+03  0.37154683783E+03  0.00000000000E+00 0. -1.
         25    2    1    2    0    0 -0.48222147682E+03 -0.42684548749E+03  0.44368930227E+03  0.79197042588E+03  0.12498934205E+03 0.  0.
          2    1    1    2  501    0  0.56454346585E+03  0.40254250996E+03  0.44258268836E+03  0.82257475842E+03  0.00000000000E+00 0. -1.
          1    1    1    2  502    0 -0.82321989030E+02  0.24302977529E+02  0.24114930660E+03  0.25596978859E+03  0.00000000000E+00 0. -1.
         22    1    3    3    0    0 -0.19134737422E+03 -0.92457451956E+02  0.15518331150E+03  0.26314265753E+03  0.00000000000E+00 0.  1.
         22    1    3    3    0    0 -0.29087410260E+03 -0.33438803553E+03  0.28850599076E+03  0.52882776835E+03  0.00000000000E+00 0.  1.
</event>
<event>
 7    1  0.7459264E-005  0.5720204E+03  0.7818608E-02  0.1105075E+00
          2   -1    0    0  502    0  0.00000000000E+00  0.00000000000E+00  0.20015824943E+04  0.20015824943E+04  0.00000000000E+00 0. -1.
          1   -1    0    0  501    0 -0.00000000000E+00 -0.00000000000E+00 -0.23575830508E+03  0.23575830508E+03  0.00000000000E+00 0. -1.
         25    2    1    2    0    0 -0.32429010615E+03 -0.39539030411E+03  0.79403968202E+03  0.95269182083E+03  0.12500049323E+03 0.  0.
          2    1    1    2  501    0  0.43916972038E+03  0.43449933793E+03  0.49201955674E+03  0.78977399437E+03  0.00000000000E+00 0. -1.
          1    1    1    2  502    0 -0.11487961424E+03 -0.39109033823E+02  0.47976495049E+03  0.49487498422E+03  0.00000000000E+00 0. -1.
         22    1    3    3    0    0 -0.21351438216E+03 -0.31795393530E+03  0.65521248548E+03  0.75893774283E+03  0.00000000000E+00 0. -1.
         22    1    3    3    0    0 -0.11077572399E+03 -0.77436368814E+02  0.13882719654E+03  0.19375407799E+03  0.00000000000E+00 0. -1.
</event>
<event>
 7    1  0.7459264E-005  0.2030355E+03  0.7818608E-02  0.1155505E+00
          2   -1    0    0  502    0  0.00000000000E+00  0.00000000000E+00  0.98555451642E+03  0.98555451642E+03  0.00000000000E+00 0. -1.
          1   -1    0    0  501    0 -0.00000000000E+00 -0.00000000000E+00 -0.73081996222E+03  0.73081996222E+03  0.00000000000E+00 0. -1.
         25    2    1    2    0    0  0.35771944144E+02  0.15780765808E+03 -0.94864906391E+02  0.22540580774E+03  0.12500215503E+03 0.  0.
          2    1    1    2  501    0 -0.18394091699E+03 -0.66026328846E+01 -0.54313584054E+03  0.57347571613E+03  0.00000000000E+00 0. -1.
          1    1    1    2  502    0  0.14816897285E+03 -0.15120502519E+03  0.89273530114E+03  0.91749295477E+03  0.00000000000E+00 0. -1.
         22    1    3    3    0    0 -0.33817615813E+01  0.15041238252E+03 -0.10599001885E+03  0.18403588026E+03  0.00000000000E+00 0.  1.
         22    1    3    3    0    0  0.39153705725E+02  0.73952755600E+01  0.11125112463E+02  0.41369927483E+02  0.00000000000E+00 0.  1.
</event>
<event>
 7    1  0.7459264E-005  0.4393485E+02  0.7818608E-02  0.1483261E+00
          2   -1    0    0  502    0  0.00000000000E+00  0.00000000000E+00  0.92315655332E+03  0.92315655332E+03  0.00000000000E+00 0. -1.
          1   -1    0    0  501    0 -0.00000000000E+00 -0.00000000000E+00 -0.16124719267E+04  0.16124719267E+04  0.00000000000E+00 0. -1.
         25    2    1    2    0    0 -0.40769515064E+02  0.73771257466E+02 -0.61507609588E+02  0.16282612403E+03  0.12499923537E+03 0.  0.
          2    1    1    2  501    0  0.10792875868E+02 -0.41904687159E+02 -0.14994442835E+04  0.15000685479E+04  0.00000000000E+00 0. -1.
          1    1    1    2  502    0  0.29976639196E+02 -0.31866570307E+02  0.87163651975E+03  0.87273380807E+03  0.00000000000E+00 0. -1.
         22    1    3    3    0    0 -0.45092881417E+02 -0.22781630208E+02 -0.38385013464E+02  0.63449033784E+02  0.00000000000E+00 0.  1.
         22    1    3    3    0    0  0.43233663533E+01  0.96552887673E+02 -0.23122596124E+02  0.99377090248E+02  0.00000000000E+00 0.  1.
</event>
<event>
 7    1  0.7459264E-005  0.8886210E+03  0.7818608E-02  0.1221316E+00
          2   -1    0    0  502    0  0.00000000000E+00  0.00000000000E+00  0.70455347130E+03  0.70455347130E+03  0.00000000000E+00 0. -1.
          1   -1    0    0  501    0 -0.00000000000E+00 -0.00000000000E+00 -0.13787253733E+04  0.13787253733E+04  0.00000000000E+00 0. -1.
         25    2    1    2    0    0  0.89479962593E+03  0.89184810386E+02 -0.10881239622E+02  0.90794488388E+03  0.12500083928E+03 0.  0.
          2    1    1    2  501    0 -0.88043656140E+03 -0.74874764604E+02 -0.70405299242E+03  0.11298076762E+04  0.00000000000E+00 0. -1.
          1    1    1    2  502    0 -0.14363064535E+02 -0.14310045782E+02  0.40762330046E+02  0.45526284539E+02  0.00000000000E+00 0. -1.
         22    1    3    3    0    0  0.30079228858E+03  0.24945091274E+02  0.55198974070E+02  0.30683087392E+03  0.00000000000E+00 0. -1.
         22    1    3    3    0    0  0.59400733735E+03  0.64239719113E+02 -0.66080213692E+02  0.60111400997E+03  0.00000000000E+00 0. -1.
</event>
<event>
 7    1  0.7459264E-005  0.8568460E+03  0.7818608E-02  0.1126228E+00
          2   -1    0    0  502    0  0.00000000000E+00  0.00000000000E+00  0.17279676916E+04  0.17279676916E+04  0.00000000000E+00 0. -1.
          1   -1    0    0  501    0 -0.00000000000E+00 -0.00000000000E+00 -0.17939673008E+04  0.17939673008E+04  0.00000000000E+00 0. -1.
         25    2    1    2    0    0  0.73293154192E+02  0.90578941864E+03 -0.35177791241E+03  0.98244560281E+03  0.12500122175E+03 0.  0.
          2    1    1    2  501    0  0.56250660486E+00 -0.62050702475E+02 -0.99885361192E+03  0.10007792684E+04  0.00000000000E+00 0. -1.
          1    1    1    2  502    0 -0.73855660797E+02 -0.84373871617E+03  0.12846319151E+04  0.15387101212E+04  0.00000000000E+00 0. -1.
         22    1    3    3    0    0  0.13508209843E+02  0.14100847407E+02 -0.23061295204E+02  0.30218023880E+02  0.00000000000E+00 0. -1.
         22    1    3    3    0    0  0.59784944350E+02  0.89168857123E+03 -0.32871661721E+03  0.95222757893E+03  0.00000000000E+00 0. -1.
</event>
<event>
 7    1  0.7459264E-005  0.8272164E+02  0.7818608E-02  0.1336049E+00
          2   -1    0    0  502    0  0.00000000000E+00  0.00000000000E+00  0.32467164698E+04  0.32467164698E+04  0.00000000000E+00 0. -1.
          1   -1    0    0  501    0 -0.00000000000E+00 -0.00000000000E+00 -0.14317202353E+03  0.14317202353E+03  0.00000000000E+00 0. -1.
         25    2    1    2    0    0  0.26915314047E+02 -0.10181271956E+02  0.62619694959E+03  0.63919894742E+03  0.12499832909E+03 0.  0.
          2    1    1    2  501    0 -0.17275293699E+02  0.82306616983E+02 -0.12317607192E+03  0.14914811318E+03  0.00000000000E+00 0. -1.
          1    1    1    2  502    0 -0.96400203487E+01 -0.72125345027E+02  0.26005235686E+04  0.26015414328E+04  0.00000000000E+00 0. -1.
         22    1    3    3    0    0  0.95619823179E+01 -0.27602569961E+02  0.60776905175E+03  0.60847066785E+03  0.00000000000E+00 0. -1.
         22    1    3    3    0    0  0.17353331729E+02  0.17421298005E+02  0.18427897849E+02  0.30728279571E+02  0.00000000000E+00 0. -1.
</event>
<event>
 7    1  0.7459264E-005  0.2934054E+03  0.7818608E-02  0.1133518E+00
          2   -1    0    0  502    0  0.00000000000E+00  0.00000000000E+00  0.26011792349E+04  0.26011792349E+04  0.00000000000E+00 0. -1.
          1   -1    0    0  501    0 -0.00000000000E+00 -0.00000000000E+00 -0.21645029245E+04  0.21645029245E+04  0.00000000000E+00 0. -1.
         25    2    1    2    0    0 -0.35650900973E+03 -0.55251816878E+02  0.10926623193E+03  0.39713409279E+03  0.12499976370E+03 0.  0.
          2    1    1    2  501    0  0.11967532212E+03 -0.11459835275E+03 -0.20080997313E+04  0.20149241912E+04  0.00000000000E+00 0. -1.
          1    1    1    2  502    0  0.23683368761E+03  0.16985016963E+03  0.23355098097E+04  0.23536238755E+04  0.00000000000E+00 0. -1.
         22    1    3    3    0    0 -0.85089354934E+02  0.34132450904E+02  0.52971198499E+02  0.10588281446E+03  0.00000000000E+00 0.  1.
         22    1    3    3    0    0 -0.27141965479E+03 -0.89384267782E+02  0.56295033436E+02  0.29125127832E+03  0.00000000000E+00 0.  1.
</event>
<event>
 7    1  0.8061960E-005  0.3428465E+03  0.7818608E-02  0.1229038E+00
          2   -1    0    0  502    0  0.00000000000E+00  0.00000000000E+00  0.17490739323E+04  0.17490739323E+04  0.00000000000E+00 0. -1.
          1   -1    0    0  501    0 -0.00000000000E+00 -0.00000000000E+00 -0.68966956331E+03  0.68966956331E+03  0.00000000000E+00 0. -1.
         25    2    1    2    0    0 -0.25089045831E+03  0.16196840498E+03 -0.17893040113E+03  0.36989364679E+03  0.12500174079E+03 0.  0.
          2    1    1    2  501    0 -0.46052784432E+02  0.15186528498E+02 -0.39568550505E+03  0.39864584346E+03  0.00000000000E+00 0. -1.
          1    1    1    2  502    0  0.29694324274E+03 -0.17715493348E+03  0.16340202752E+04  0.16702040053E+04  0.00000000000E+00 0. -1.
         22    1    3    3    0    0 -0.11661954611E+03  0.39763620707E+02 -0.12931652953E+02  0.12388902984E+03  0.00000000000E+00 0.  1.
         22    1    3    3    0    0 -0.13427091221E+03  0.12220478428E+03 -0.16599874818E+03  0.24600461695E+03  0.00000000000E+00 0.  1.
</event>
<event>
 7    1  0.7459264E-005  0.1852425E+03  0.7818608E-02  0.1318024E+00
          2   -1    0    0  502    0  0.00000000000E+00  0.00000000000E+00  0.26599465097E+04  0.26599465097E+04  0.00000000000E+00 0. -1.
          1   -1    0    0  501    0 -0.00000000000E+00 -0.00000000000E+00 -0.42020711138E+03  0.42020711138E+03  0.00000000000E+00 0. -1.
         25    2    1    2    0    0  0.10180434200E+03  0.16786329134E+03  0.18668841615E+04  0.18813352208E+04  0.12499412829E+03 0.  0.
          2    1    1    2  501    0  0.97698729021E+01 -0.36832086404E+02 -0.40264879615E+03  0.40444790276E+03  0.00000000000E+00 0. -1.
          1    1    1    2  502    0 -0.11157421490E+03 -0.13103120493E+03  0.77550403302E+03  0.79437049751E+03  0.00000000000E+00 0. -1.
         22    1    3    3    0    0  0.10305597990E+03  0.64314439720E+02  0.76367671191E+03  0.77327808870E+03  0.00000000000E+00 0. -1.
         22    1    3    3    0    0 -0.12516379022E+01  0.10354885162E+03  0.11032074496E+04  0.11080571321E+04  0.00000000000E+00 0. -1.
</event>
<event>
 7    1  0.7459264E-005  0.4274410E+03  0.7818608E-02  0.1125428E+00
          2   -1    0    0  502    0  0.00000000000E+00  0.00000000000E+00  0.93724700422E+03  0.93724700422E+03  0.00000000000E+00 0. -1.
          1   -1    0    0  501    0 -0.00000000000E+00 -0.00000000000E+00 -0.26612627891E+04  0.26612627891E+04  0.00000000000E+00 0. -1.
         25    2    1    2    0    0  0.29960444257E+03  0.33286029999E+03  0.74804816557E+03  0.88077166910E+03  0.12499549495E+03 0.  0.
          2    1    1    2  501    0 -0.12297834801E+03 -0.25669285537E+02 -0.23341005980E+04  0.23374790240E+04  0.00000000000E+00 0. -1.
          1    1    1    2  502    0 -0.17662609457E+03 -0.30719101445E+03 -0.13796335244E+03  0.38025910017E+03  0.00000000000E+00 0. -1.
         22    1    3    3    0    0  0.30401579305E+03  0.33626584216E+03  0.71041148917E+03  0.84272463057E+03  0.00000000000E+00 0.  1.
         22    1    3    3    0    0 -0.44113504741E+01 -0.34055421691E+01  0.37636676400E+02  0.38047038530E+02  0.00000000000E+00 0.  1.
</event>
<event>
 7    1  0.7459264E-005  0.3876582E+02  0.7818608E-02  0.1609414E+00
          2   -1    0    0  502    0  0.00000000000E+00  0.00000000000E+00  0.12009074138E+04  0.12009074138E+04  0.00000000000E+00 0. -1.
          1   -1    0    0  501    0 -0.00000000000E+00 -0.00000000000E+00 -0.61018292926E+03  0.61018292926E+03  0.00000000000E+00 0. -1.
         25    2    1    2    0    0  0.12932892159E+02 -0.57758740011E+02 -0.45988779775E+02  0.14575869846E+03  0.12500919392E+03 0.  0.
          2    1    1    2  501    0 -0.32598757466E+01  0.38340429711E+02 -0.51348705057E+03  0.51492675833E+03  0.00000000000E+00 0. -1.
          1    1    1    2  502    0 -0.96730164122E+01  0.19418310300E+02  0.11502003148E+04  0.11504048862E+04  0.00000000000E+00 0. -1.
         22    1    3    3    0    0  0.46443747621E+01 -0.96473150709E+02 -0.20695418782E+02  0.98777220973E+02  0.00000000000E+00 0.  1.
         22    1    3    3    0    0  0.82885173967E+01  0.38714410698E+02 -0.25293360993E+02  0.46981477484E+02  0.00000000000E+00 0.  1.
</event>
<event>
 7    1  0.7459264E-005  0.9861437E+02  0.7818608E-02  0.1401318E+00
          2   -1    0    0  502    0  0.00000000000E+00  0.00000000000E+00  0.75385929832E+03  0.75385929832E+03  0.00000000000E+00 0. -1.
          1   -1    0    0  501    0 -0.00000000000E+00 -0.00000000000E+00 -0.10507219361E+04  0.10507219361E+04  0.00000000000E+00 0. -1.
         25    2    1    2    0    0 -0.92986125653E+02 -0.13510961387E+02 -0.25817343525E+03  0.30183930574E+03  0.12499791270E+03 0.  0.
          2    1    1    2  501    0  0.68886975605E+01 -0.34836890208E+02 -0.76697296947E+03  0.76779463333E+03  0.00000000000E+00 0. -1.
          1    1    1    2  502    0  0.86097428093E+02  0.48347851595E+02  0.72828376690E+03  0.73494729539E+03  0.00000000000E+00 0. -1.
         22    1    3    3    0    0 -0.92756047127E+02 -0.50726720834E+00 -0.26923509963E+03  0.28476565887E+03  0.00000000000E+00 0.  1.
         22    1    3    3    0    0 -0.23007852658E+00 -0.13003694178E+02  0.11061664383E+02  0.17073646867E+02  0.00000000000E+00 0.  1.
</event>
<event>
 7    1  0.7459264E-005  0.2724153E+03  0.7818608E-02  0.1310416E+00
          2   -1    0    0  502    0  0.00000000000E+00  0.00000000000E+00  0.15754015680E+04  0.15754015680E+04  0.00000000000E+00 0. -1.
          1   -1    0    0  501    0 -0.00000000000E+00 -0.00000000000E+00 -0.17040930768E+03  0.17040930768E+03  0.00000000000E+00 0. -1.
         25    2    1    2    0    0  0.14736840502E+03  0.24336010471E+03  0.41988137952E+03  0.52236638637E+03  0.12499872553E+03 0.  0.
          2    1    1    2  501    0 -0.27617183614E+02 -0.27274327409E+01 -0.10091019640E+03  0.10465665511E+03  0.00000000000E+00 0. -1.
          1    1    1    2  502    0 -0.11975122140E+03 -0.24063267197E+03  0.10860210772E+04  0.11187878342E+04  0.00000000000E+00 0. -1.
         22    1    3    3    0    0 -0.21655937253E+02  0.39848252061E+02  0.48580320139E+02  0.66459839869E+02  0.00000000000E+00 0. -1.
         22    1    3    3    0    0  0.16902434227E+03  0.20351185265E+03  0.37130105938E+03  0.45590654650E+03  0.00000000000E+00 0. -1.
</event>
<event>
 7    1  0.7459264E-005  0.2133581E+03  0.7818608E-02  0.1190488E+00
          2   -1    0    0  502    0  0.00000000000E+00  0.00000000000E+00  0.22907602742E+04  0.22907602742E+04  0.00000000000E+00 0. -1.
          1   -1    0    0  501    0 -0.00000000000E+00 -0.00000000000E+00 -0.58928028903E+03  0.58928028903E+03  0.00000000000E+00 0. -1.
         25    2    1    2    0    0  0.24111288178E+03  0.67571463176E+02  0.11946905228E+03  0.30430132405E+03  0.12500046787E+03 0.  0.
          2    1    1    2  501    0 -0.20732798805E+03  0.45105431175E+02 -0.47245297231E+03  0.51791042237E+03  0.00000000000E+00 0. -1.
          1    1    1    2  502    0 -0.33784893731E+02 -0.11267689435E+03  0.20544639052E+04  0.20578288168E+04  0.00000000000E+00 0. -1.
         22    1    3    3    0    0  0.13566531665E+03  0.13744662834E+02  0.35697668677E+00  0.13636026302E+03  0.00000000000E+00 0. -1.
         22    1    3    3    0    0  0.10544756513E+03  0.53826800341E+02  0.11911207560E+03  0.16794106103E+03  0.00000000000E+00 0. -1.
</event>
<event>
 7    1  0.7459264E-005  0.1117863E+03  0.7818608E-02  0.1289051E+00
          2   -1    0    0  502    0  0.00000000000E+00  0.00000000000E+00  0.16420571139E+04  0.16420571139E+04  0.00000000000E+00 0. -1.
          1   -1    0    0  501    0 -0.00000000000E+00 -0.00000000000E+00 -0.15567125545E+04  0.15567125545E+04  0.00000000000E+00 0. -1.
         25    2    1    2    0    0 -0.19175633249E+03 -0.20976842114E+02  0.33997446295E+03  0.41038470291E+03  0.12498979945E+03 0.  0.
          2    1    1    2  501    0  0.11129666206E+03  0.34011323523E+01 -0.15181278103E+04  0.15222058215E+04  0.00000000000E+00 0. -1.
          1    1    1    2  502    0  0.80459670435E+02  0.17575709762E+02  0.12634979068E+04  0.12661791439E+04  0.00000000000E+00 0. -1.
         22    1    3    3    0    0  0.18768438573E+01 -0.16045927147E+02  0.10328844089E+03  0.10454423151E+03  0.00000000000E+00 0. -1.
         22    1    3    3    0    0 -0.19363317635E+03 -0.49309149672E+01  0.23668602206E+03  0.30584047140E+03  0.00000000000E+00 0. -1.
</event>
<event>
 7    1  0.7459264E-005  0.3620138E+03  0.7818608E-02  0.1240399E+00
          2   -1    0    0  502    0  0.00000000000E+00  0.00000000000E+00  0.13450324552E+04  0.13450324552E+04  0.00000000000E+00 0. -1.
          1   -1    0    0  501    0 -0.00000000000E+00 -0.00000000000E+00 -0.10468944929E+04  0.10468944929E+04  0.00000000000E+00 0. -1.
         25    2    1    2    0    0  0.30631060487E+03  0.22674117230E+03  0.14922204955E+03  0.42793670424E+03  0.12499942756E+03 0.  0.
          2    1    1    2  501    0 -0.39148660048E+02  0.11768378579E+02 -0.87669508927E+03  0.87764764676E+03  0.00000000000E+00 0. -1.
          1    1    1    2  502    0 -0.26716194482E+03 -0.23850955088E+03  0.10256110021E+04  0.10863425970E+04  0.00000000000E+00 0. -1.
         22    1    3    3    0    0  0.14343232067E+03  0.53718292556E+02  0.12227423486E+02  0.15364893573E+03  0.00000000000E+00 0. -1.
         22    1    3    3    0    0  0.16287828420E+03  0.17302287975E+03  0.13699462607E+03  0.27428776850E+03  0.00000000000E+00 0. -1.
</event>
<event>
 7    1  0.7459264E-005  0.4420253E+03  0.7818608E-02  0.1201270E+00
          2   -1    0    0  502    0  0.00000000000E+00  0.00000000000E+00  0.96757246802E+03  0.96757246802E+03  0.00000000000E+00 0. -1.
          1   -1    0    0  501    0 -0.00000000000E+00 -0.00000000000E+00 -0.16012630028E+04  0.16012630028E+04  0.00000000000E+00 0. -1.
         25    2    1    2    0    0  0.14418323217E+03 -0.46691343465E+03  0.40807195771E+03  0.64880390826E+03  0.12500731504E+03 0.  0.
          2    1    1    2  501    0 -0.13837247484E+03  0.41678523298E+03 -0.14467391098E+04  0.15119229226E+04  0.00000000000E+00 0. -1.
          1    1    1    2  502    0 -0.58107573307E+01  0.50128201671E+02  0.40497661724E+03  0.40810863996E+03  0.00000000000E+00 0. -1.
         22    1    3    3    0    0  0.16724158286E+03 -0.40563376431E+03  0.34928079389E+03  0.56080796247E+03  0.00000000000E+00 0. -1.
         22    1    3    3    0    0 -0.23058350687E+02 -0.61279670343E+02  0.58791163818E+02  0.87995945798E+02  0.00000000000E+00 0. -1.
</event>
<event>
 7    1  0.7459264E-005  0.1448507E+03  0.7818608E-02  0.1222494E+00
          2   -1    0    0  502    0  0.00000000000E+00  0.00000000000E+00  0.10930933715E+04  0.10930933715E+04  0.00000000000E+00 0. -1.
          1   -1    0    0  501    0 -0.00000000000E+00 -0.00000000000E+00 -0.59466991706E+03  0.59466991706E+03  0.00000000000E+00 0. -1.
         25    2    1    2    0    0 -0.22078826251E+03  0.93518720554E+02  0.64328730646E+02  0.27795218788E+03  0.12500410076E+03 0.  0.
          2    1    1    2  501    0  0.12262344168E+03  0.75724186350E+01 -0.47460614791E+03  0.49024977879E+03  0.00000000000E+00 0. -1.
          1    1    1    2  502    0  0.98164820831E+02 -0.10109113919E+03  0.90870087168E+03  0.91956132187E+03  0.00000000000E+00 0. -1.
         22    1    3    3    0    0 -0.33888731997E+02 -0.70645558207E+01 -0.29887636703E+02  0.45734286186E+02  0.00000000000E+00 0.  1.
         22    1    3    3    0    0 -0.18689953051E+03  0.10058327638E+03  0.94216367349E+02  0.23221790170E+03  0.00000000000E+00 0.  1.
</event>
<event>
 7    1  0.7459264E-005  0.4094943E+03  0.7818608E-02  0.1188069E+00
          2   -1    0    0  502    0  0.00000000000E+00  0.00000000000E+00  0.54162075865E+03  0.54162075865E+03  0.00000000000E+00 0. -1.
          1   -1    0    0  501    0 -0.00000000000E+00 -0.00000000000E+00 -0.24773400744E+04  0.24773400744E+04  0.00000000000E+00 0. -1.
         25    2    1    2    0    0 -0.44172872283E+03  0.11441295031E+03 -0.70627651178E+03  0.85009850626E+03  0.12500548583E+03 0.  0.
          2    1    1    2  501    0  0.37892039555E+03 -0.11015468768E+03 -0.16739943821E+04  0.17198755515E+04  0.00000000000E+00 0. -1.
          1    1    1    2  502    0  0.62808327286E+02 -0.42582626241E+01  0.44455157812E+03  0.44898677529E+03  0.00000000000E+00 0. -1.
         22    1    3    3    0    0 -0.38784154863E+02  0.14575024191E+02 -0.15232917935E+03  0.15786329808E+03  0.00000000000E+00 0. -1.
         22    1    3    3    0    0 -0.40294456797E+03  0.99837926117E+02 -0.55394733243E+03  0.69223520819E+03  0.00000000000E+00 0. -1.
</event>
<event>
 7    1  0.7459264E-005  0.5080288E+03  0.7818608E-02  0.1083191E+00
          2   -1    0    0  502    0  0.00000000000E+00  0.00000000000E+00  0.17439224700E+04  0.17439224700E+04  0.00000000000E+00 0. -1.
          1   -1    0    0  501    0 -0.00000000000E+00 -0.00000000000E+00 -0.12499039246E+04  0.12499039246E+04  0.00000000000E+00 0. -1.
         25    2    1    2    0    0  0.54668502023E+03  0.22683601835E+03 -0.43091389558E+03  0.74271882210E+03  0.12500149092E+03 0.  0.
          2    1    1    2  501    0 -0.46479651969E+03 -0.64216960554E+02 -0.57387740148E+03  0.74127922854E+03  0.00000000000E+00 0. -1.
          1    1    1    2  502    0 -0.81888500537E+02 -0.16261905780E+03  0.14988098425E+04  0.15098283440E+04  0.00000000000E+00 0. -1.
         22    1    3    3    0    0  0.20425880828E+03  0.47648366173E+02 -0.21348346087E+03  0.29927782347E+03  0.00000000000E+00 0. -1.
         22    1    3    3    0    0  0.34242621195E+03  0.17918765218E+03 -0.21743043471E+03  0.44344099863E+03  0.00000000000E+00 0. -1.
</event>
<event>
 7    1  0.7459264E-005  0.3218734E+03  0.7818608E-02  0.1170962E+00
          2   -1    0    0  502    0  0.00000000000E+00  0.00000000000E+00  0.89580449943E+03  0.89580449943E+03  0.00000000000E+00 0. -1.
          1   -1    0    0  501    0 -0.00000000000E+00 -0.00000000000E+00 -0.14654298562E+04  0.14654298562E+04  0.00000000000E+00 0. -1.
         25    2    1    2    0    0  0.31966683931E+03  0.97068975800E+02 -0.11213405965E+04  0.11767068613E+04  0.12500012001E+03 0.  0.
          2    1    1    2  501    0 -0.29950047357E+03 -0.21008872442E+01 -0.24190103056E+03  0.38499487786E+03  0.00000000000E+00 0. -1.
          1    1    1    2  502    0 -0.20166365744E+02 -0.94968088556E+02  0.79361627031E+03  0.79953261638E+03  0.00000000000E+00 0. -1.
         22    1    3    3    0    0  0.57189927665E+02  0.45936997138E+02 -0.41517027400E+03  0.42160082062E+03  0.00000000000E+00 0. -1.
         22    1    3    3    0    0  0.26247691164E+03  0.51131978663E+02 -0.70617032247E+03  0.75510604072E+03  0.00000000000E+00 0. -1.
</event>
<event>
 7    1  0.7459264E-005  0.1566947E+03  0.7818608E-02  0.1235575E+00
          2   -1    0    0  502    0  0.00000000000E+00  0.00000000000E+00  0.40856114355E+03  0.40856114355E+03  0.00000000000E+00 0. -1.
          1   -1    0    0  501    0 -0.00000000000E+00 -0.00000000000E+00 -0.51620133511E+03  0.51620133511E+03  0.00000000000E+00 0. -1.
         25    2    1    2    0    0 -0.13127021484E+03  0.95296365742E+02 -0.26703467265E+02  0.20652236787E+03  0.12500058656E+03 0.  0.
          2    1    1    2  501    0  0.50175119739E+02 -0.15243206289E+03 -0.37500014588E+03  0.40789482204E+03  0.00000000000E+00 0. -1.
          1    1    1    2  502    0  0.81095095096E+02  0.57135697151E+02  0.29406342158E+03  0.31034528875E+03  0.00000000000E+00 0. -1.
         22    1    3    3    0    0 -0.10525677229E+03  0.12316310523E+02 -0.48989117878E+02  0.11675021751E+03  0.00000000000E+00 0. -1.
         22    1    3    3    0    0 -0.26013442548E+02  0.82980055219E+02  0.22285650613E+02  0.89772150361E+02  0.00000000000E+00 0. -1.
</event>
<event>
 7    1  0.7459264E-005  0.8465410E+02  0.7818608E-02  0.1340292E+00
          2   -1    0    0  502    0  0.00000000000E+00  0.00000000000E+00  0.55921185866E+03  0.55921185866E+03  0.00000000000E+00 0. -1.
          1   -1    0    0  501    0 -0.00000000000E+00 -0.00000000000E+00 -0.87828649437E+03  0.87828649437E+03  0.00000000000E+00 0. -1.
         25    2    1    2    0    0  0.79996425821E+02  0.65910378168E+02  0.47832450661E+03  0.50512833923E+03  0.12496679312E+03 0.  0.
          2    1    1    2  501    0 -0.84646194284E+02  0.24639462637E+01 -0.84480554206E+03  0.84903913522E+03  0.00000000000E+00 0. -1.
          1    1    1    2  502    0  0.46497684629E+01 -0.68374324432E+02  0.47406399742E+02  0.83330878579E+02  0.00000000000E+00 0. -1.
         22    1    3    3    0    0  0.59151920963E+02  0.35228977034E+02  0.81992810672E+02  0.10706470744E+03  0.00000000000E+00 0.  1.
         22    1    3    3    0    0  0.20844504858E+02  0.30681401134E+02  0.39633169593E+03  0.39806363180E+03  0.00000000000E+00 0.  1.
</event>
<event>
 7    1  0.7459264E-005  0.1979978E+03  0.7818608E-02  0.1200942E+00
          2   -1    0    0  502    0  0.00000000000E+00  0.00000000000E+00  0.13485373259E+03  0.13485373259E+03  0.00000000000E+00 0. -1.
          1   -1    0    0  501    0 -0.00000000000E+00 -0.00000000000E+00 -0.16735177553E+04  0.16735177553E+04  0.00000000000E+00 0. -1.
         25    2    1    2    0    0 -0.95670313837E+02  0.25179550306E+03 -0.10937632427E+04  0.11333563202E+04  0.12499893243E+03 0.  0.
          2    1    1    2  501    0  0.58357600142E+02 -0.14506863865E+03 -0.51752940812E+03  0.54063592896E+03  0.00000000000E+00 0. -1.
          1    1    1    2  502    0  0.37312713695E+02 -0.10672686441E+03  0.72628628095E+02  0.13437923876E+03  0.00000000000E+00 0. -1.
         22    1    3    3    0    0 -0.55619639766E+02  0.77091712332E+02 -0.61185880174E+03  0.61919937799E+03  0.00000000000E+00 0.  1.
         22    1    3    3    0    0 -0.40050674071E+02  0.17470379072E+03 -0.48190444095E+03  0.51415694218E+03  0.00000000000E+00 0.  1.
</event>
<event>
 7    1  0.7459264E-005  0.7616936E+03  0.7818608E-02  0.1090569E+00
          2   -1    0    0  502    0  0.00000000000E+00  0.00000000000E+00  0.10858724459E+04  0.10858724459E+04  0.00000000000E+00 0. -1.
          1   -1    0    0  501    0 -0.00000000000E+00 -0.00000000000E+00 -0.18982897152E+04  0.18982897152E+04  0.00000000000E+00 0. -1.
         25    2    1    2    0    0  0.54110721923E+03  0.54736417227E+03  0.91775144791E+02  0.78514477451E+03  0.12500031980E+03 0.  0.
          2    1    1    2  501    0 -0.60721649795E+03 -0.45933208678E+03 -0.14523988369E+04  0.16398659161E+04  0.00000000000E+00 0. -1.
          1    1    1    2  502    0  0.66109278714E+02 -0.88032085491E+02  0.54820642292E+03  0.55915147048E+03  0.00000000000E+00 0. -1.
         22    1    3    3    0    0  0.21497349557E+03  0.14877870142E+03  0.65241141840E+02  0.26945335845E+03  0.00000000000E+00 0. -1.
         22    1    3    3    0    0  0.32613372367E+03  0.39858547085E+03  0.26534002951E+02  0.51569141606E+03  0.00000000000E+00 0. -1.
</event>
<event>
 7    1  0.7459264E-005  0.2711130E+03  0.7818608E-02  0.1275817E+00
          2   -1    0    0  502    0  0.00000000000E+00  0.00000000000E+00  0.22049117721E+04  0.22049117721E+04  0.00000000000E+00 0. -1.
          1   -1    0    0  501    0 -0.00000000000E+00 -0.00000000000E+00 -0.98137580029E+03  0.98137580029E+03  0.00000000000E+00 0. -1.
         25    2    1    2    0    0  0.28501841937E+03  0.85675429152E+02 -0.25891250558E+03  0.41380249246E+03  0.12498415374E+03 0.  0.
          2    1    1    2  501    0 -0.25466400484E+03 -0.61999328337E+02 -0.61820841786E+03  0.67147547981E+03  0.00000000000E+00 0. -1.
          1    1    1    2  502    0 -0.30354414528E+02 -0.23676100815E+02  0.21006568952E+04  0.21010096001E+04  0.00000000000E+00 0. -1.
         22    1    3    3    0    0  0.23960831332E+02 -0.21509376082E+02 -0.21502419341E+01  0.32270702471E+02  0.00000000000E+00 0. -1.
         22    1    3    3    0    0  0.26105758804E+03  0.10718480523E+03 -0.25676226364E+03  0.38153178999E+03  0.00000000000E+00 0. -1.
</event>
<event>
 7    1  0.7459264E-005  0.2511870E+03  0.7818608E-02  0.1309699E+00
          2   -1    0    0  502    0  0.00000000000E+00  0.00000000000E+00  0.11609255633E+04  0.11609255633E+04  0.00000000000E+00 0. -1.
          1   -1    0    0  501    0 -0.00000000000E+00 -0.00000000000E+00 -0.84927085910E+02  0.84927085910E+02  0.00000000000E+00 0. -1.
         25    2    1    2    0    0  0.96532514030E+02 -0.23304263415E+03  0.58450214329E+03  0.64876383013E+03  0.12499742468E+03 0.  0.
          2    1    1    2  501    0 -0.67595396569E+02  0.24200446216E+03  0.25263459306E+03  0.35631381527E+03  0.00000000000E+00 0. -1.
          1    1    1    2  502    0 -0.28937117461E+02 -0.89618280112E+01  0.23886174107E+03  0.24077500384E+03  0.00000000000E+00 0. -1.
         22    1    3    3    0    0  0.15328592431E+02 -0.18761028927E+03  0.37859115400E+03  0.42280474013E+03  0.00000000000E+00 0.  1.
         22    1    3    3    0    0  0.81203921599E+02 -0.45432344874E+02  0.20591098929E+03  0.22595909000E+03  0.00000000000E+00 0.  1.
</event>
<event>
 7    1  0.7459264E-005  0.3463107E+03  0.7818608E-02  0.1135376E+00
          2   -1    0    0  502    0  0.00000000000E+00  0.00000000000E+00  0.11312268435E+04  0.11312268435E+04  0.00000000000E+00 0. -1.
          1   -1    0    0  501    0 -0.00000000000E+00 -0.00000000000E+00 -0.26936544567E+03  0.26936544567E+03  0.00000000000E+00 0. -1.
         25    2    1    2    0    0 -0.10887039467E+03  0.43365966321E+03  0.25721473511E+03  0.53075180456E+03  0.12499836701E+03 0.  0.
          2    1    1    2  501    0 -0.10063568309E+02 -0.13687213271E+03 -0.46109799391E+02  0.14478041898E+03  0.00000000000E+00 0. -1.
          1    1    1    2  502    0  0.11893396298E+03 -0.29678753050E+03  0.65075646209E+03  0.72506006562E+03  0.00000000000E+00 0. -1.
         22    1    3    3    0    0 -0.64615590397E+01  0.19165075620E+03  0.16271662831E+03  0.25149247548E+03  0.00000000000E+00 0.  1.
         22    1    3    3    0    0 -0.10240883563E+03  0.24200890701E+03  0.94498106808E+02  0.27925932908E+03  0.00000000000E+00 0.  1.
</event>
<event>
 7    1  0.7459264E-005  0.1085209E+03  0.7818608E-02  0.1425619E+00
          2   -1    0    0  502    0  0.00000000000E+00  0.00000000000E+00  0.20928105563E+04  0.20928105563E+04  0.00000000000E+00 0. -1.
          1   -1    0    0  501    0 -0.00000000000E+00 -0.00000000000E+00 -0.25697933621E+03  0.25697933621E+03  0.00000000000E+00 0. -1.
         25    2    1    2    0    0  0.66099852778E+02  0.96060038017E+02  0.13480220342E+04  0.13588173514E+04  0.12499787354E+03 0.  0.
          2    1    1    2  501    0 -0.39821531647E+02 -0.10090302795E+03 -0.23963176964E+03  0.26304098627E+03  0.00000000000E+00 0. -1.
          1    1    1    2  502    0 -0.26278321131E+02  0.48429899365E+01  0.72744095558E+03  0.72793155487E+03  0.00000000000E+00 0. -1.
         22    1    3    3    0    0 -0.75914108940E+01 -0.61833532515E+01  0.73712266724E+01  0.12255544029E+02  0.00000000000E+00 0. -1.
         22    1    3    3    0    0  0.73691263672E+02  0.10224339127E+03  0.13406508075E+04  0.13465618074E+04  0.00000000000E+00 0. -1.
</event>
<event>
 7    1  0.7459264E-005  0.8374220E+02  0.7818608E-02  0.1492806E+00
          2   -1    0    0  502    0  0.00000000000E+00  0.00000000000E+00  0.31697786575E+04  0.31697786575E+04  0.00000000000E+00 0. -1.
          1   -1    0    0  501    0 -0.00000000000E+00 -0.00000000000E+00 -0.70349622071E+03  0.70349622071E+03  0.00000000000E+00 0. -1.
         25    2    1    2    0    0  0.80560326704E+01  0.85132291706E+02  0.61848227615E+03  0.63675589755E+03  0.12500136162E+03 0.  0.
          2    1    1    2  501    0 -0.21106794635E+02 -0.23586085776E+01 -0.69350626732E+03  0.69383139351E+03  0.00000000000E+00 0. -1.
          1    1    1    2  502    0  0.13050761965E+02 -0.82773683129E+02  0.25413064280E+04  0.25426875872E+04  0.00000000000E+00 0. -1.
         22    1    3    3    0    0  0.20268316802E+02 -0.29694758569E+02  0.15181727548E+03  0.15601624431E+03  0.00000000000E+00 0.  1.
         22    1    3    3    0    0 -0.12212284132E+02  0.11482705028E+03  0.46666500066E+03  0.48073965325E+03  0.00000000000E+00 0.  1.
</event>
<event>
 7    1  0.7459264E-005  0.2710427E+03  0.7818608E-02  0.1192665E+00
          2   -1    0    0  502    0  0.00000000000E+00  0.00000000000E+00  0.26176370409E+03  0.26176370409E+03  0.00000000000E+00 0. -1.
          1   -1    0    0  501    0 -0.00000000000E+00 -0.00000000000E+00 -0.16544773902E+04  0.16544773902E+04  0.00000000000E+00 0. -1.
         25    2    1    2    0    0  0.55802075063E+02  0.25425032900E+03  0.45581116660E+02  0.29233958955E+03  0.12501078372E+03 0.  0.
          2    1    1    2  501    0  0.89987208178E+02  0.86633636838E+01 -0.12817898049E+04  0.12849738734E+04  0.00000000000E+00 0. -1.
          1    1    1    2  502    0 -0.14578928324E+03 -0.26291369268E+03 -0.15650499792E+03  0.33892763133E+03  0.00000000000E+00 0. -1.
         22    1    3    3    0    0  0.83656147421E+02  0.24199500998E+03  0.28998076363E+02  0.25768357396E+03  0.00000000000E+00 0. -1.
         22    1    3    3    0    0 -0.27854072358E+02  0.12255319016E+02  0.16583040297E+02  0.34656015591E+02  0.00000000000E+00 0. -1.
</event>
<event>
 7    1  0.7459264E-005  0.1650721E+03  0.7818608E-02  0.1214772E+00
          2   -1    0    0  502    0  0.00000000000E+00  0.00000000000E+00  0.10119736835E+04  0.10119736835E+04  0.00000000000E+00 0. -1.
          1   -1    0    0  501    0 -0.00000000000E+00 -0.00000000000E+00 -0.22468332366E+04  0.22468332366E+04  0.00000000000E+00 0. -1.
         25    2    1    2    0    0 -0.63573873009E+02  0.20281442234E+03  0.44909891797E+03  0.51233801015E+03  0.12500028513E+03 0.  0.
          2    1    1    2  501    0  0.10464068936E+03 -0.52189366944E+02 -0.22021587324E+04  0.22052610926E+04  0.00000000000E+00 0. -1.
          1    1    1    2  502    0 -0.41066816350E+02 -0.15062505539E+03  0.51820026130E+03  0.54120781732E+03  0.00000000000E+00 0. -1.
         22    1    3    3    0    0 -0.24084382162E+02  0.15507998130E+03  0.19250235507E+03  0.24836870731E+03  0.00000000000E+00 0.  1.
         22    1    3    3    0    0 -0.39489490847E+02  0.47734441039E+02  0.25659656290E+03  0.26396930284E+03  0.00000000000E+00 0.  1.
</event>
<event>
 7    1  0.7459264E-005  0.7937580E+03  0.7818608E-02  0.1140113E+00
          2   -1    0    0  502    0  0.00000000000E+00  0.00000000000E+00  0.11060493360E+04  0.11060493360E+04  0.00000000000E+00 0. -1.
          1   -1    0    0  501    0 -0.00000000000E+00 -0.00000000000E+00 -0.14429337038E+04  0.14429337038E+04  0.00000000000E+00 0. -1.
         25    2    1    2    0    0 -0.51990424580E+03  0.65281249478E+03 -0.20518034805E+03  0.86844034887E+03  0.12500034472E+03 0.  0.
          2    1    1    2  501    0  0.42174131155E+02 -0.37656200602E+02 -0.70887459355E+03  0.71112575271E+03  0.00000000000E+00 0. -1.
          1    1    1    2  502    0  0.47773011465E+03 -0.61515629418E+03  0.57717057385E+03  0.96941693818E+03  0.00000000000E+00 0. -1.
         22    1    3    3    0    0 -0.18201127982E+03  0.18933316664E+03 -0.10896386581E+02  0.26285715743E+03  0.00000000000E+00 0.  1.
         22    1    3    3    0    0 -0.33789296598E+03  0.46347932813E+03 -0.19428396147E+03  0.60558319144E+03  0.00000000000E+00 0.  1.
</event>
<event>
 7    1  0.7459264E-005  0.4635277E+03  0.7818608E-02  0.1241283E+00
          2   -1    0    0  502    0  0.00000000000E+00  0.00000000000E+00  0.18911693794E+04  0.18911693794E+04  0.00000000000E+00 0. -1.
          1   -1    0    0  501    0 -0.00000000000E+00 -0.00000000000E+00 -0.74418477690E+03  0.74418477690E+03  0.00000000000E+00 0. -1.
         25    2    1    2    0    0  0.46286226239E+03  0.49758659880E+02  0.49345618749E+03  0.68981229819E+03  0.12499839832E+03 0.  0.
          2    1    1    2  501    0 -0.69331141818E+01  0.30872583306E+02 -0.60433941895E+03  0.60516718167E+03  0.00000000000E+00 0. -1.
          1    1    1    2  502    0 -0.45592914821E+03 -0.80631243187E+02  0.12578678340E+04  0.13403746764E+04  0.00000000000E+00 0. -1.
         22    1    3    3    0    0  0.19432345641E+03  0.45249006875E+02  0.13096180798E+03  0.23866309619E+03  0.00000000000E+00 0.  1.
         22    1    3    3    0    0  0.26853880598E+03  0.45096530054E+01  0.36249437951E+03  0.45114920200E+03  0.00000000000E+00 0.  1.
</event>
<event>
 7    1  0.7459264E-005  0.1141210E+03  0.7818608E-02  0.1272369E+00
          2   -1    0    0  502    0  0.00000000000E+00  0.00000000000E+00  0.67692449378E+03  0.67692449378E+03  0.00000000000E+00 0. -1.
          1   -1    0    0  501    0 -0.00000000000E+00 -0.00000000000E+00 -0.17573292920E+03  0.17573292920E+03  0.00000000000E+00 0. -1.
         25    2    1    2    0    0  0.28779791947E+02  0.14535265509E+03  0.19665576698E+03  0.27614074923E+03  0.12499820770E+03 0.  0.
          2    1    1    2  501    0 -0.82561600249E+02 -0.46045597821E+02 -0.11106224182E+03  0.14584730533E+03  0.00000000000E+00 0. -1.
          1    1    1    2  502    0  0.53781808302E+02 -0.99307057271E+02  0.41559803942E+03  0.43066936842E+03  0.00000000000E+00 0. -1.
         22    1    3    3    0    0 -0.51605907550E+01  0.11602461707E+02 -0.17352534728E+02  0.21502541154E+02  0.00000000000E+00 0.  1.
         22    1    3    3    0    0  0.33940382702E+02  0.13375019339E+03  0.21400830171E+03  0.25463820807E+03  0.00000000000E+00 0.  1.
</event>
<event>
 7    1  0.7459264E-005  0.5636211E+03  0.7818608E-02  0.1133454E+00
          2   -1    0    0  502    0  0.00000000000E+00  0.00000000000E+00  0.30151927216E+04  0.30151927216E+04  0.00000000000E+00 0. -1.
          1   -1    0    0  501    0 -0.00000000000E+00 -0.00000000000E+00 -0.26767794050E+03  0.26767794050E+03  0.00000000000E+00 0. -1.
         25    2    1    2    0    0  0.45899925645E+03 -0.43070820660E+03  0.53411828939E+03  0.83492416958E+03  0.12500458087E+03 0.  0.
          2    1    1    2  501    0 -0.79716649322E+02  0.33122198900E+02 -0.62553314612E+02  0.10660554117E+03  0.00000000000E+00 0. -1.
          1    1    1    2  502    0 -0.37928260713E+03  0.39758600770E+03  0.22759498063E+04  0.23413409513E+04  0.00000000000E+00 0. -1.
         22    1    3    3    0    0  0.18147985435E+03 -0.20923015594E+03  0.16329207605E+03  0.32152215754E+03  0.00000000000E+00 0.  1.
         22    1    3    3    0    0  0.27751940210E+03 -0.22147805066E+03  0.37082621334E+03  0.51340201204E+03  0.00000000000E+00 0.  1.
</event>
<event>
 7    1  0.7459264E-005  0.8247436E+02  0.7818608E-02  0.1324324E+00
          2   -1    0    0  502    0  0.00000000000E+00  0.00000000000E+00  0.49176446572E+03  0.49176446572E+03  0.00000000000E+00 0. -1.
          1   -1    0    0  501    0 -0.00000000000E+00 -0.00000000000E+00 -0.25810844840E+03  0.25810844840E+03  0.00000000000E+00 0. -1.
         25    2    1    2    0    0  0.29934175794E+02 -0.15669572320E+01 -0.23523639332E+02  0.13067798022E+03  0.12499945069E+03 0.  0.
          2    1    1    2  501    0 -0.51825866053E+02  0.81082834104E+02 -0.16392843553E+03  0.19008650229E+03  0.00000000000E+00 0. -1.
          1    1    1    2  502    0  0.21891690260E+02 -0.79515876872E+02  0.42110809218E+03  0.42910843160E+03  0.00000000000E+00 0. -1.
         22    1    3    3    0    0 -0.13139662537E+02 -0.38469412523E+02 -0.52969166232E+02  0.66770345235E+02  0.00000000000E+00 0.  1.
         22    1    3    3    0    0  0.43073838330E+02  0.36902455291E+02  0.29445526900E+02  0.63907634985E+02  0.00000000000E+00 0.  1.
</event>
<event>
 7    1  0.7459264E-005  0.3046528E+03  0.7818608E-02  0.1246683E+00
          2   -1    0    0  502    0  0.00000000000E+00  0.00000000000E+00  0.54699411237E+04  0.54699411237E+04  0.00000000000E+00 0. -1.
          1   -1    0    0  501    0 -0.00000000000E+00 -0.00000000000E+00 -0.30638414907E+03  0.30638414907E+03  0.00000000000E+00 0. -1.
         25    2    1    2    0    0  0.27036807060E+03  0.51594376491E+02  0.61468271220E+02  0.30846473774E+03  0.12494507905E+03 0.  0.
          2    1    1    2  501    0  0.21258612922E+02  0.40330257770E+02 -0.17554909203E+03  0.18137238497E+03  0.00000000000E+00 0. -1.
          1    1    1    2  502    0 -0.29162668352E+03 -0.91924634261E+02  0.52776377954E+04  0.52864881500E+04  0.00000000000E+00 0. -1.
         22    1    3    3    0    0  0.19206971780E+03 -0.37160449700E+01 -0.43942224672E+01  0.19215591242E+03  0.00000000000E+00 0.  1.
         22    1    3    3    0    0  0.78298352796E+02  0.55310421461E+02  0.65862493687E+02  0.11630882532E+03  0.00000000000E+00 0.  1.
</event>
<event>
 7    1  0.7459264E-005  0.2308860E+03  0.7818608E-02  0.1148757E+00
          2   -1    0    0  502    0  0.00000000000E+00  0.00000000000E+00  0.44214699182E+04  0.44214699182E+04  0.00000000000E+00 0. -1.
          1   -1    0    0  501    0 -0.00000000000E+00 -0.00000000000E+00 -0.72063211537E+03  0.72063211537E+03  0.00000000000E+00 0. -1.
         25    2    1    2    0    0 -0.20763733631E+03 -0.17387253948E+03  0.16925296145E+03  0.34295011936E+03  0.12499318380E+03 0.  0.
          2    1    1    2  501    0  0.23238391767E+03  0.35161962536E+00 -0.61056606785E+03  0.65329421552E+03  0.00000000000E+00 0. -1.
          1    1    1    2  502    0 -0.24746581365E+02  0.17352091986E+03  0.41421509092E+04  0.41458576987E+04  0.00000000000E+00 0. -1.
         22    1    3    3    0    0 -0.11952620676E+03 -0.10671280596E+03  0.26752062831E+02  0.16244940728E+03  0.00000000000E+00 0.  1.
         22    1    3    3    0    0 -0.88111129546E+02 -0.67159733524E+02  0.14250089862E+03  0.18050071209E+03  0.00000000000E+00 0.  1.
</event>
<event>
 7    1  0.7459264E-005  0.1069856E+03  0.7818608E-02  0.1367723E+00
          2   -1    0    0  502    0  0.00000000000E+00  0.00000000000E+00  0.24999880993E+04  0.24999880993E+04  0.00000000000E+00 0. -1.
          1   -1    0    0  501    0 -0.00000000000E+00 -0.00000000000E+00 -0.96909635027E+03  0.96909635027E+03  0.00000000000E+00 0. -1.
         25    2    1    2    0    0 -0.14239695686E+03 -0.43970824564E+02  0.21586203156E+03  0.29057176516E+03  0.12500082921E+03 0.  0.
          2    1    1    2  501    0  0.10312630571E+03  0.26522597871E+02 -0.92849277499E+03  0.93457868386E+03  0.00000000000E+00 0. -1.
          1    1    1    2  502    0  0.39270651154E+02  0.17448226693E+02  0.22435224924E+04  0.22439340005E+04  0.00000000000E+00 0. -1.
         22    1    3    3    0    0  0.18660868578E+02  0.84043745738E+01  0.47704571422E+02  0.51909417860E+02  0.00000000000E+00 0.  1.
         22    1    3    3    0    0 -0.16105782544E+03 -0.52375199137E+02  0.16815746014E+03  0.23866234730E+03  0.00000000000E+00 0.  1.
</event>
<event>
 7    1  0.7459264E-005  0.2771519E+03  0.7818608E-02  0.1102942E+00
          2   -1    0    0  502    0  0.00000000000E+00  0.00000000000E+00  0.55647950734E+03  0.55647950734E+03  0.00000000000E+00 0. -1.
          1   -1    0    0  501    0 -0.00000000000E+00 -0.00000000000E+00 -0.17319743680E+04  0.17319743680E+04  0.00000000000E+00 0. -1.
         25    2    1    2    0    0  0.30527443615E+03  0.16864708395E+03 -0.73983297961E+03  0.82741440306E+03  0.12500974512E+03 0.  0.
          2    1    1    2  501    0 -0.23656532144E+03  0.10155570061E+03 -0.89082321771E+03  0.92727704427E+03  0.00000000000E+00 0. -1.
          1    1    1    2  502    0 -0.68709114719E+02 -0.27020278456E+03  0.45516133662E+03  0.53376242804E+03  0.00000000000E+00 0. -1.
         22    1    3    3    0    0  0.31115668867E+03  0.17740089555E+03 -0.72930860997E+03  0.81251499138E+03  0.00000000000E+00 0.  1.
         22    1    3    3    0    0 -0.58822525103E+01 -0.87538115951E+01 -0.10524369639E+02  0.14899411678E+02  0.00000000000E+00 0.  1.
</event>
<event>
 7    1  0.7459264E-005  0.2314735E+03  0.7818608E-02  0.1147516E+00
          2   -1    0    0  502    0  0.00000000000E+00  0.00000000000E+00  0.21821146751E+04  0.21821146751E+04  0.00000000000E+00 0. -1.
          1   -1    0    0  501    0 -0.00000000000E+00 -0.00000000000E+00 -0.13349778335E+03  0.13349778335E+03  0.00000000000E+00 0. -1.
         25    2    1    2    0    0 -0.12840777917E+03 -0.23528378063E+03  0.80932318046E+03  0.86167052244E+03  0.12500025454E+03 0.  0.
          2    1    1    2  501    0  0.17734468986E+03  0.54315958772E+01 -0.14777040928E+02  0.17804213601E+03  0.00000000000E+00 0. -1.
          1    1    1    2  502    0 -0.48936910693E+02  0.22985218476E+03  0.12540707522E+04  0.12758998000E+04  0.00000000000E+00 0. -1.
         22    1    3    3    0    0 -0.11173769115E+03 -0.10927946842E+03  0.32027341394E+03  0.35637392373E+03  0.00000000000E+00 0.  1.
         22    1    3    3    0    0 -0.16670088022E+02 -0.12600431222E+03  0.48904976653E+03  0.50529659871E+03  0.00000000000E+00 0.  1.
</event>
<event>
 7    1  0.7459264E-005  0.3616325E+03  0.7818608E-02  0.1118173E+00
          2   -1    0    0  502    0  0.00000000000E+00  0.00000000000E+00  0.26098512004E+04  0.26098512004E+04  0.00000000000E+00 0. -1.
          1   -1    0    0  501    0 -0.00000000000E+00 -0.00000000000E+00 -0.24701403901E+03  0.24701403901E+03  0.00000000000E+00 0. -1.
         25    2    1    2    0    0 -0.10213328861E+03 -0.34937751933E+03  0.12031534977E+04  0.12632101757E+04  0.12500299717E+03 0.  0.
          2    1    1    2  501    0  0.16100276957E+03 -0.22320753808E+02 -0.15594941477E+03  0.22525613827E+03  0.00000000000E+00 0. -1.
          1    1    1    2  502    0 -0.58869480957E+02  0.37169827313E+03  0.13156330785E+04  0.13683989255E+04  0.00000000000E+00 0. -1.
         22    1    3    3    0    0 -0.78963996260E+02 -0.75903417903E+02  0.30574890309E+03  0.32477535820E+03  0.00000000000E+00 0. -1.
         22    1    3    3    0    0 -0.23169292353E+02 -0.27347410142E+03  0.89740459460E+03  0.93843481748E+03  0.00000000000E+00 0. -1.
</event>
<event>
 7    1  0.7459264E-005  0.2824853E+02  0.7818608E-02  0.1626172E+00
          2   -1    0    0  502    0  0.00000000000E+00  0.00000000000E+00  0.23698908874E+04  0.23698908874E+04  0.00000000000E+00 0. -1.
          1   -1    0    0  501    0 -0.00000000000E+00 -0.00000000000E+00 -0.33902903724E+02  0.33902903724E+02  0.00000000000E+00 0. -1.
         25    2    1    2    0    0  0.30331956593E+01  0.54304345026E+02  0.99307070689E+03  0.10023831225E+04  0.12499733262E+03 0.  0.
          2    1    1    2  501    0 -0.28079320094E+01 -0.26830651906E+02 -0.22858064723E+02  0.35359008566E+02  0.00000000000E+00 0. -1.
          1    1    1    2  502    0 -0.22526364988E+00 -0.27473693120E+02  0.13657753415E+04  0.13660516601E+04  0.00000000000E+00 0. -1.
         22    1    3    3    0    0  0.65999704464E+01  0.93793439498E+02  0.78081109619E+03  0.78645199271E+03  0.00000000000E+00 0.  1.
         22    1    3    3    0    0 -0.35667747871E+01 -0.39489094472E+02  0.21225961070E+03  0.21593112976E+03  0.00000000000E+00 0.  1.
</event>
<event>
 7    1  0.7459264E-005  0.1234370E+03  0.7818608E-02  0.1303847E+00
          2   -1    0    0  502    0  0.00000000000E+00  0.00000000000E+00  0.92126057280E+02  0.92126057280E+02  0.00000000000E+00 0. -1.
          1   -1    0    0  501    0 -0.00000000000E+00 -0.00000000000E+00 -0.24696263202E+04  0.24696263202E+04  0.00000000000E+00 0. -1.
         25    2    1    2    0    0 -0.11172185733E+03 -0.98878370219E+02 -0.20017261411E+04  0.20111667408E+04  0.12500163968E+03 0.  0.
          2    1    1    2  501    0  0.90377404967E+02  0.37456751584E+02 -0.44498979585E+03  0.45561716603E+03  0.00000000000E+00 0. -1.
          1    1    1    2  502    0  0.21344452358E+02  0.61421618634E+02  0.69215674032E+02  0.94968470630E+02  0.00000000000E+00 0. -1.
         22    1    3    3    0    0  0.50521269553E+00 -0.89553932647E+01 -0.73059551754E+01  0.11568547420E+02  0.00000000000E+00 0.  1.
         22    1    3    3    0    0 -0.11222707002E+03 -0.89922976954E+02 -0.19944201859E+04  0.19995981934E+04  0.00000000000E+00 0.  1.
</event>
<event>
 7    1  0.7459264E-005  0.1287008E+04  0.7818608E-02  0.1024954E+00
          2   -1    0    0  502    0  0.00000000000E+00  0.00000000000E+00  0.14133746741E+04  0.14133746741E+04  0.00000000000E+00 0. -1.
          1   -1    0    0  501    0 -0.00000000000E+00 -0.00000000000E+00 -0.19383915438E+04  0.19383915438E+04  0.00000000000E+00 0. -1.
         25    2    1    2    0    0 -0.76263156638E+03 -0.10969759708E+04  0.26673822376E+03  0.13681151311E+04  0.12500618175E+03 0.  0.
          2    1    1    2  501    0  0.16276538042E+03  0.19977878161E+02 -0.73121550451E+03  0.74937827478E+03  0.00000000000E+00 0. -1.
          1    1    1    2  502    0  0.59986618596E+03  0.10769980926E+04 -0.60539588938E+02  0.12342728120E+04  0.00000000000E+00 0. -1.
         22    1    3    3    0    0 -0.90793200309E+02 -0.20623199008E+03  0.26984650913E+02  0.22694318747E+03  0.00000000000E+00 0. -1.
         22    1    3    3    0    0 -0.67183836607E+03 -0.89074398071E+03  0.23975357285E+03  0.11411719437E+04  0.00000000000E+00 0. -1.
</event>
<event>
 7    1  0.7459264E-005  0.2560593E+03  0.7818608E-02  0.1207368E+00
          2   -1    0    0  502    0  0.00000000000E+00  0.00000000000E+00  0.18885345256E+04  0.18885345256E+04  0.00000000000E+00 0. -1.
          1   -1    0    0  501    0 -0.00000000000E+00 -0.00000000000E+00 -0.81278391709E+03  0.81278391709E+03  0.00000000000E+00 0. -1.
         25    2    1    2    0    0 -0.19884469707E+03 -0.22138575321E+03 -0.19899141181E+02  0.32336636056E+03  0.12497584586E+03 0.  0.
          2    1    1    2  501    0  0.11727322916E+03  0.22141644781E+03 -0.61566379840E+03  0.66469554407E+03  0.00000000000E+00 0. -1.
          1    1    1    2  502    0  0.81571467915E+02 -0.30694604529E-01  0.17113135481E+04  0.17132565380E+04  0.00000000000E+00 0. -1.
         22    1    3    3    0    0 -0.11066438595E+03 -0.14555590329E+03  0.47540670950E+02  0.18892655370E+03  0.00000000000E+00 0. -1.
         22    1    3    3    0    0 -0.88180311124E+02 -0.75829849920E+02 -0.67439812131E+02  0.13443980686E+03  0.00000000000E+00 0. -1.
</event>
<event>
 7    1  0.7459264E-005  0.1869532E+03  0.7818608E-02  0.1276868E+00
          2   -1    0    0  502    0  0.00000000000E+00  0.00000000000E+00  0.75676984714E+03  0.75676984714E+03  0.00000000000E+00 0. -1.
          1   -1    0    0  501    0 -0.00000000000E+00 -0.00000000000E+00 -0.33755225890E+03  0.33755225890E+03  0.00000000000E+00 0. -1.
         25    2    1    2    0    0 -0.13745934856E+03 -0.14178147616E+03 -0.52670916824E+02  0.23958073470E+03  0.12501057345E+03 0.  0.
          2    1    1    2  501    0  0.50162643490E+02 -0.23197968426E+02 -0.17392557281E+03  0.18249531890E+03  0.00000000000E+00 0. -1.
          1    1    1    2  502    0  0.87296705070E+02  0.16497944459E+03  0.64581407787E+03  0.67224605245E+03  0.00000000000E+00 0. -1.
         22    1    3    3    0    0 -0.32086152844E+01 -0.89641588578E+02 -0.20295031278E+02  0.91966286809E+02  0.00000000000E+00 0.  1.
         22    1    3    3    0    0 -0.13425073328E+03 -0.52139887581E+02 -0.32375885546E+02  0.14761444789E+03  0.00000000000E+00 0.  1.
</event>
<event>
 7    1  0.7459264E-005  0.6329949E+02  0.7818608E-02  0.1487477E+00
          2   -1    0    0  502    0  0.00000000000E+00  0.00000000000E+00  0.56802086826E+03  0.56802086826E+03  0.00000000000E+00 0. -1.
          1   -1    0    0  501    0 -0.00000000000E+00 -0.00000000000E+00 -0.15224959976E+03  0.15224959976E+03  0.00000000000E+00 0. -1.
         25    2    1    2    0    0 -0.26494911516E+02  0.77217451322E+02 -0.19699856811E+02  0.15059090661E+03  0.12500008668E+03 0.  0.
          2    1    1    2  501    0  0.29939286047E+01 -0.59955238317E+02 -0.53156680185E+02  0.80182459793E+02  0.00000000000E+00 0. -1.
          1    1    1    2  502    0  0.23500982911E+02 -0.17262213005E+02  0.48862780549E+03  0.48949710162E+03  0.00000000000E+00 0. -1.
         22    1    3    3    0    0 -0.24308057712E+01  0.72990558774E+02  0.41987942450E+02  0.84240832130E+02  0.00000000000E+00 0.  1.
         22    1    3    3    0    0 -0.24064105744E+02  0.42268925481E+01 -0.61687799261E+02  0.66350074480E+02  0.00000000000E+00 0.  1.
</event>
<event>
 7    1  0.7459264E-005  0.2120399E+03  0.7818608E-02  0.1173983E+00
          2   -1    0    0  502    0  0.00000000000E+00  0.00000000000E+00  0.41117421302E+04  0.41117421302E+04  0.00000000000E+00 0. -1.
          1   -1    0    0  501    0 -0.00000000000E+00 -0.00000000000E+00 -0.14655623565E+04  0.14655623565E+04  0.00000000000E+00 0. -1.
         25    2    1    2    0    0  0.24678496926E+03  0.13783463284E+03 -0.26218007228E+03  0.40530002275E+03  0.12501404351E+03 0.  0.
          2    1    1    2  501    0 -0.20666822470E+03 -0.12122491814E+01 -0.11211196752E+04  0.11400098906E+04  0.00000000000E+00 0. -1.
          1    1    1    2  502    0 -0.40116744561E+02 -0.13662238366E+03  0.40294795211E+04  0.40319945734E+04  0.00000000000E+00 0. -1.
         22    1    3    3    0    0  0.21756607331E+03  0.15873769499E+03 -0.24971179277E+03  0.36727187684E+03  0.00000000000E+00 0. -1.
         22    1    3    3    0    0  0.29218895954E+02 -0.20903062141E+02 -0.12468279502E+02  0.38028145910E+02  0.00000000000E+00 0. -1.
</event>
<event>
 7    1  0.7459264E-005  0.8372381E+02  0.7818608E-02  0.1366991E+00
          2   -1    0    0  502    0  0.00000000000E+00  0.00000000000E+00  0.52026184833E+03  0.52026184833E+03  0.00000000000E+00 0. -1.
          1   -1    0    0  501    0 -0.00000000000E+00 -0.00000000000E+00 -0.22033585213E+03  0.22033585213E+03  0.00000000000E+00 0. -1.
         25    2    1    2    0    0 -0.44578207887E+02  0.12843488364E+03  0.13255739309E+03  0.22733183230E+03  0.12500225422E+03 0.  0.
          2    1    1    2  501    0  0.22751503653E+02 -0.77682545499E+02 -0.16104199046E+03  0.18024075978E+03  0.00000000000E+00 0. -1.
          1    1    1    2  502    0  0.21826704234E+02 -0.50752338143E+02  0.32841059357E+03  0.33302510838E+03  0.00000000000E+00 0. -1.
         22    1    3    3    0    0 -0.75746950248E+01  0.73782655345E+02  0.14244112830E+03  0.16059492914E+03  0.00000000000E+00 0.  1.
         22    1    3    3    0    0 -0.37003512862E+02  0.54652228297E+02 -0.98837352079E+01  0.66736903162E+02  0.00000000000E+00 0.  1.
</event>
<event>
 7    1  0.7459264E-005  0.1422835E+03  0.7818608E-02  0.1318705E+00
          2   -1    0    0  502    0  0.00000000000E+00  0.00000000000E+00  0.55334286702E+03  0.55334286702E+03  0.00000000000E+00 0. -1.
          1   -1    0    0  501    0 -0.00000000000E+00 -0.00000000000E+00 -0.22788851121E+03  0.22788851121E+03  0.00000000000E+00 0. -1.
         25    2    1    2    0    0 -0.90802691470E+02  0.12635096582E+03  0.35496025007E+02  0.20271786708E+03  0.12499948200E+03 0.  0.
          2    1    1    2  501    0 -0.23611269116E+02 -0.43288423852E+02 -0.12806370423E+03  0.13722861222E+03  0.00000000000E+00 0. -1.
          1    1    1    2  502    0  0.11441396059E+03 -0.83062541965E+02  0.41802203503E+03  0.44128489893E+03  0.00000000000E+00 0. -1.
         22    1    3    3    0    0 -0.73837299730E+02  0.64002007797E+02  0.78295139651E+02  0.12521314918E+03  0.00000000000E+00 0.  1.
         22    1    3    3    0    0 -0.16965391740E+02  0.62348958020E+02 -0.42799114644E+02  0.77504717904E+02  0.00000000000E+00 0.  1.
</event>
<event>
 7    1  0.7459264E-005  0.1824342E+03  0.7818608E-02  0.1250359E+00
          2   -1    0    0  502    0  0.00000000000E+00  0.00000000000E+00  0.33293643606E+03  0.33293643606E+03  0.00000000000E+00 0. -1.
          1   -1    0    0  501    0 -0.00000000000E+00 -0.00000000000E+00 -0.31251930924E+03  0.31251930924E+03  0.00000000000E+00 0. -1.
         25    2    1    2    0    0 -0.14568346785E+03 -0.15753526178E+03 -0.10980236393E+03  0.27151870224E+03  0.12499926012E+03 0.  0.
          2    1    1    2  501    0  0.73358737209E+02  0.14513112160E+03 -0.57421339128E+02  0.17245798610E+03  0.00000000000E+00 0. -1.
          1    1    1    2  502    0  0.72324730644E+02  0.12404140173E+02  0.18764082988E+03  0.20147905696E+03  0.00000000000E+00 0. -1.
         22    1    3    3    0    0  0.73553943207E+01 -0.68970507642E+02 -0.15292169611E+02  0.71027341224E+02  0.00000000000E+00 0. -1.
         22    1    3    3    0    0 -0.15303886217E+03 -0.88564754134E+02 -0.94510194323E+02  0.20049136101E+03  0.00000000000E+00 0. -1.
</event>
<event>
 7    1  0.7459264E-005  0.9875783E+03  0.7818608E-02  0.1161552E+00
          2   -1    0    0  502    0  0.00000000000E+00  0.00000000000E+00  0.11208918779E+04  0.11208918779E+04  0.00000000000E+00 0. -1.
          1   -1    0    0  501    0 -0.00000000000E+00 -0.00000000000E+00 -0.16818753450E+04  0.16818753450E+04  0.00000000000E+00 0. -1.
         25    2    1    2    0    0  0.34356546595E+03  0.95054987931E+03 -0.48944294273E+03  0.11299385028E+04  0.12499729405E+03 0.  0.
          2    1    1    2  501    0 -0.25130158000E+02 -0.24736706287E+02 -0.57213877059E+03  0.57322439087E+03  0.00000000000E+00 0. -1.
          1    1    1    2  502    0 -0.31843530795E+03 -0.92581317302E+03  0.50059824624E+03  0.10996043292E+04  0.00000000000E+00 0. -1.
         22    1    3    3    0    0  0.55666777195E+02  0.32592755338E+03 -0.15679091502E+03  0.36593845271E+03  0.00000000000E+00 0.  1.
         22    1    3    3    0    0  0.28789868876E+03  0.62462232593E+03 -0.33265202771E+03  0.76400005011E+03  0.00000000000E+00 0.  1.
</event>
<event>
 7    1  0.7459264E-005  0.6774282E+02  0.7818608E-02  0.1388667E+00
          2   -1    0    0  502    0  0.00000000000E+00  0.00000000000E+00  0.74447694418E+03  0.74447694418E+03  0.00000000000E+00 0. -1.
          1   -1    0    0  501    0 -0.00000000000E+00 -0.00000000000E+00 -0.56963449938E+03  0.56963449938E+03  0.00000000000E+00 0. -1.
         25    2    1    2    0    0 -0.92316371406E+02  0.61836509810E+02  0.74281716096E+02  0.18300077125E+03  0.12500177022E+03 0.  0.
          2    1    1    2  501    0  0.35327466481E+02 -0.57127712722E+02 -0.51174819245E+03  0.51613740217E+03  0.00000000000E+00 0. -1.
          1    1    1    2  502    0  0.56988904925E+02 -0.47087970871E+01  0.61230892115E+03  0.61497327013E+03  0.00000000000E+00 0. -1.
         22    1    3    3    0    0 -0.18004950653E+02  0.65717123096E+02  0.83772880119E+02  0.10798524880E+03  0.00000000000E+00 0. -1.
         22    1    3    3    0    0 -0.74311420752E+02 -0.38806132866E+01 -0.94911640229E+01  0.75015522449E+02  0.00000000000E+00 0. -1.
</event>
<event>
 7    1  0.7459264E-005  0.4307605E+03  0.7818608E-02  0.1255887E+00
          2   -1    0    0  502    0  0.00000000000E+00  0.00000000000E+00  0.11571758820E+04  0.11571758820E+04  0.00000000000E+00 0. -1.
          1   -1    0    0  501    0 -0.00000000000E+00 -0.00000000000E+00 -0.34920038556E+04  0.34920038556E+04  0.00000000000E+00 0. -1.
         25    2    1    2    0    0 -0.35931857223E+03  0.22255764402E+03 -0.48014409662E+03  0.65177081282E+03  0.12500039062E+03 0.  0.
          2    1    1    2  501    0  0.38160570826E+03 -0.20335816594E+03 -0.29098650363E+04  0.29418178036E+04  0.00000000000E+00 0. -1.
          1    1    1    2  502    0 -0.22287136023E+02 -0.19199478076E+02  0.10551811593E+04  0.10555911213E+04  0.00000000000E+00 0. -1.
         22    1    3    3    0    0 -0.66674793496E+02  0.79190768342E+02 -0.18555521993E+03  0.21247928257E+03  0.00000000000E+00 0.  1.
         22    1    3    3    0    0 -0.29264377874E+03  0.14336687568E+03 -0.29458887669E+03  0.43929153025E+03  0.00000000000E+00 0.  1.
</event>
<event>
 7    1  0.7459264E-005  0.6622994E+02  0.7818608E-02  0.1470264E+00
          2   -1    0    0  502    0  0.00000000000E+00  0.00000000000E+00  0.91901470876E+03  0.91901470876E+03  0.00000000000E+00 0. -1.
          1   -1    0    0  501    0 -0.00000000000E+00 -0.00000000000E+00 -0.45637837387E+03  0.45637837387E+03  0.00000000000E+00 0. -1.
         25    2    1    2    0    0 -0.88134513047E+02 -0.33072714464E+02  0.70470037548E+02  0.17161823082E+03  0.12500117650E+03 0.  0.
          2    1    1    2  501    0  0.56656128282E+02  0.33159358408E+02 -0.40283586999E+03  0.40814972507E+03  0.00000000000E+00 0. -1.
          1    1    1    2  502    0  0.31478384765E+02 -0.86643944686E-01  0.79500216734E+03  0.79562512674E+03  0.00000000000E+00 0. -1.
         22    1    3    3    0    0 -0.14093554577E+02  0.30961967193E+02 -0.19030759091E+02  0.38980013913E+02  0.00000000000E+00 0.  1.
         22    1    3    3    0    0 -0.74040958470E+02 -0.64034681657E+02  0.89500796639E+02  0.13263821691E+03  0.00000000000E+00 0.  1.
</event>
<event>
 7    1  0.7459264E-005  0.8101442E+03  0.7818608E-02  0.1000839E+00
          2   -1    0    0  502    0  0.00000000000E+00  0.00000000000E+00  0.89540181771E+03  0.89540181771E+03  0.00000000000E+00 0. -1.
          1   -1    0    0  501    0 -0.00000000000E+00 -0.00000000000E+00 -0.15094232559E+04  0.15094232559E+04  0.00000000000E+00 0. -1.
         25    2    1    2    0    0  0.42855474557E+03  0.77386614405E+03 -0.43673510111E+03  0.99443069804E+03  0.12500754302E+03 0.  0.
          2    1    1    2  501    0 -0.37621414640E+03  0.28021845187E+02 -0.42615191007E+03  0.56914651735E+03  0.00000000000E+00 0. -1.
          1    1    1    2  502    0 -0.52340599172E+02 -0.80188798924E+03  0.24886557296E+03  0.84124785825E+03  0.00000000000E+00 0. -1.
         22    1    3    3    0    0  0.42214985810E+03  0.77746516919E+03 -0.43767002814E+03  0.98702464281E+03  0.00000000000E+00 0. -1.
         22    1    3    3    0    0  0.64048874729E+01 -0.35990251385E+01  0.93492703002E+00  0.74060552279E+01  0.00000000000E+00 0. -1.
</event>
<event>
 7    1  0.7459264E-005  0.2590283E+03  0.7818608E-02  0.1292361E+00
          2   -1    0    0  502    0  0.00000000000E+00  0.00000000000E+00  0.58584117996E+02  0.58584117996E+02  0.00000000000E+00 0. -1.
          1   -1    0    0  501    0 -0.00000000000E+00 -0.00000000000E+00 -0.23389784072E+04  0.23389784072E+04  0.00000000000E+00 0. -1.
         25    2    1    2    0    0  0.26660553844E+03  0.65196691387E+02 -0.56414088674E+03  0.63969591429E+03  0.12500720369E+03 0.  0.
          2    1    1    2  501    0 -0.25325684641E+03 -0.33429066376E+02 -0.17011848979E+04  0.17202577103E+04  0.00000000000E+00 0. -1.
          1    1    1    2  502    0 -0.13348692037E+02 -0.31767625011E+02 -0.15068504502E+02  0.37608900620E+02  0.00000000000E+00 0. -1.
         22    1    3    3    0    0  0.47177394880E+02  0.63376925998E+02 -0.11133039756E+03  0.13651666110E+03  0.00000000000E+00 0. -1.
         22    1    3    3    0    0  0.21942814356E+03  0.18197653889E+01 -0.45281048918E+03  0.50317925319E+03  0.00000000000E+00 0. -1.
</event>
<event>
 7    1  0.7459264E-005  0.3671321E+03  0.7818608E-02  0.1271658E+00
          2   -1    0    0  502    0  0.00000000000E+00  0.00000000000E+00  0.72600937382E+02  0.72600937382E+02  0.00000000000E+00 0. -1.
          1   -1    0    0  501    0 -0.00000000000E+00 -0.00000000000E+00 -0.51509368368E+04  0.51509368368E+04  0.00000000000E+00 0. -1.
         25    2    1    2    0    0 -0.38934778179E+03  0.29264546377E+02 -0.89212338827E+03  0.98181325794E+03  0.12500009884E+03 0.  0.
          2    1    1    2  501    0  0.36108526216E+03 -0.38018442010E+02 -0.41951377731E+04  0.42108204550E+04  0.00000000000E+00 0. -1.
          1    1    1    2  502    0  0.28262519625E+02  0.87538956330E+01  0.89252619449E+01  0.30904061304E+02  0.00000000000E+00 0. -1.
         22    1    3    3    0    0 -0.22292906133E+03  0.48504937963E+02 -0.38262594447E+03  0.44548031244E+03  0.00000000000E+00 0. -1.
         22    1    3    3    0    0 -0.16641872046E+03 -0.19240391587E+02 -0.50949744380E+03  0.53633294550E+03  0.00000000000E+00 0. -1.
</event>
<event>
 7    1  0.7459264E-005  0.3033538E+03  0.7818608E-02  0.1154063E+00
          2   -1    0    0  502    0  0.00000000000E+00  0.00000000000E+00  0.13519040082E+03  0.13519040082E+03  0.00000000000E+00 0. -1.
          1   -1    0    0  501    0 -0.00000000000E+00 -0.00000000000E+00 -0.32662098813E+04  0.32662098813E+04  0.00000000000E+00 0. -1.
         25    2    1    2    0    0 -0.28193727483E+03 -0.19594923377E+03 -0.14845259041E+04  0.15288318409E+04  0.12499963359E+03 0.  0.
          2    1    1    2  501    0  0.28005595370E+03  0.70667824391E+02 -0.17085186343E+04  0.17327611498E+04  0.00000000000E+00 0. -1.
          1    1    1    2  502    0  0.18813211313E+01  0.12528140938E+03  0.62025058009E+02  0.13980729139E+03  0.00000000000E+00 0. -1.
         22    1    3    3    0    0 -0.99439011468E+02 -0.83412885946E+01 -0.51626881991E+03  0.52582429433E+03  0.00000000000E+00 0. -1.
         22    1    3    3    0    0 -0.18249826337E+03 -0.18760794518E+03 -0.96825708424E+03  0.10030075465E+04  0.00000000000E+00 0. -1.
</event>
<event>
 7    1  0.7459264E-005  0.4480794E+03  0.7818608E-02  0.1235535E+00
          2   -1    0    0  502    0  0.00000000000E+00  0.00000000000E+00  0.19714084413E+04  0.19714084413E+04  0.00000000000E+00 0. -1.
          1   -1    0    0  501    0 -0.00000000000E+00 -0.00000000000E+00 -0.36956466885E+04  0.36956466885E+04  0.00000000000E+00 0. -1.
         25    2    1    2    0    0 -0.77860776789E+02 -0.42927021030E+03 -0.15061846202E+04  0.15730708613E+04  0.12499844196E+03 0.  0.
          2    1    1    2  501    0  0.53373715848E+02  0.45386382073E+03 -0.21316437788E+04  0.21800794299E+04  0.00000000000E+00 0. -1.
          1    1    1    2  502    0  0.24487060941E+02 -0.24593610423E+02  0.19135901518E+04  0.19139048385E+04  0.00000000000E+00 0. -1.
         22    1    3    3    0    0 -0.78824996758E+02 -0.35348395998E+03 -0.10517449727E+04  0.11123541602E+04  0.00000000000E+00 0. -1.
         22    1    3    3    0    0  0.96421996838E+00 -0.75786250321E+02 -0.45443964749E+03  0.46071670109E+03  0.00000000000E+00 0. -1.
</event>
<event>
 7    1  0.7459264E-005  0.2278430E+03  0.7818608E-02  0.1147022E+00
          2   -1    0    0  502    0  0.00000000000E+00  0.00000000000E+00  0.48393237932E+03  0.48393237932E+03  0.00000000000E+00 0. -1.
          1   -1    0    0  501    0 -0.00000000000E+00 -0.00000000000E+00 -0.88236973795E+03  0.88236973795E+03  0.00000000000E+00 0. -1.
         25    2    1    2    0    0 -0.10544586239E+03 -0.34289009834E+03 -0.36631264721E+03  0.52773330721E+03  0.12500015438E+03 0.  0.
          2    1    1    2  501    0  0.13229883551E+03  0.12399026488E+03 -0.38322145680E+03  0.42395194612E+03  0.00000000000E+00 0. -1.
          1    1    1    2  502    0 -0.26852973123E+02  0.21889983346E+03  0.35109674538E+03  0.41461686395E+03  0.00000000000E+00 0. -1.
         22    1    3    3    0    0 -0.36145851870E+02 -0.24116644173E+03 -0.30415282130E+03  0.38984190890E+03  0.00000000000E+00 0.  1.
         22    1    3    3    0    0 -0.69300010522E+02 -0.10172365661E+03 -0.62159825911E+02  0.13789139832E+03  0.00000000000E+00 0.  1.
</event>
<event>
 7    1  0.7459264E-005  0.4912717E+03  0.7818608E-02  0.1202750E+00
          2   -1    0    0  502    0  0.00000000000E+00  0.00000000000E+00  0.12294089375E+04  0.12294089375E+04  0.00000000000E+00 0. -1.
          1   -1    0    0  501    0 -0.00000000000E+00 -0.00000000000E+00 -0.70247861969E+03  0.70247861969E+03  0.00000000000E+00 0. -1.
         25    2    1    2    0    0  0.49917866805E+03 -0.10693924770E+03 -0.29802894722E+03  0.60420316778E+03  0.12499947696E+03 0.  0.
          2    1    1    2  501    0 -0.14399789408E+02  0.42300036580E+02 -0.19312259519E+03  0.19822457921E+03  0.00000000000E+00 0. -1.
          1    1    1    2  502    0 -0.48477887864E+03  0.64639211125E+02  0.10180818603E+04  0.11294598103E+04  0.00000000000E+00 0. -1.
         22    1    3    3    0    0  0.38643113974E+02  0.25393893385E+02 -0.30721875554E+02  0.55515526805E+02  0.00000000000E+00 0.  1.
         22    1    3    3    0    0  0.46053555407E+03 -0.13233314109E+03 -0.26730707166E+03  0.54868764097E+03  0.00000000000E+00 0.  1.
</event>
<event>
 7    1  0.7459264E-005  0.7282541E+03  0.7818608E-02  0.1093074E+00
          2   -1    0    0  502    0  0.00000000000E+00  0.00000000000E+00  0.14941913634E+04  0.14941913634E+04  0.00000000000E+00 0. -1.
          1   -1    0    0  501    0 -0.00000000000E+00 -0.00000000000E+00 -0.17073154717E+04  0.17073154717E+04  0.00000000000E+00 0. -1.
         25    2    1    2    0    0  0.37960692669E+03 -0.71592106348E+03 -0.63033023246E+03  0.10342075337E+04  0.12499853113E+03 0.  0.
          2    1    1    2  501    0  0.85284188142E+01  0.11108216143E+03 -0.77081279178E+03  0.77882240625E+03  0.00000000000E+00 0. -1.
          1    1    1    2  502    0 -0.38813534550E+03  0.60483890206E+03  0.11880189159E+04  0.13884768952E+04  0.00000000000E+00 0. -1.
         22    1    3    3    0    0  0.36549754840E+03 -0.60520879489E+03 -0.52365268954E+03  0.87981718701E+03  0.00000000000E+00 0. -1.
         22    1    3    3    0    0  0.14109378286E+02 -0.11071226859E+03 -0.10667754292E+03  0.15439034664E+03  0.00000000000E+00 0. -1.
</event>
<event>
 7    1  0.7459264E-005  0.3310305E+03  0.7818608E-02  0.1236477E+00
          2   -1    0    0  502    0  0.00000000000E+00  0.00000000000E+00  0.10126259229E+04  0.10126259229E+04  0.00000000000E+00 0. -1.
          1   -1    0    0  501    0 -0.00000000000E+00 -0.00000000000E+00 -0.10083454300E+04  0.10083454300E+04  0.00000000000E+00 0. -1.
         25    2    1    2    0    0 -0.70939391298E+02  0.30831040667E+03 -0.55847115045E+03  0.65391332777E+03  0.12499964101E+03 0.  0.
          2    1    1    2  501    0  0.10503335325E+03 -0.33996990129E+03 -0.32271418634E+03  0.48037067473E+03  0.00000000000E+00 0. -1.
          1    1    1    2  502    0 -0.34093961950E+02  0.31659494622E+02  0.88546582966E+03  0.88668735039E+03  0.00000000000E+00 0. -1.
         22    1    3    3    0    0 -0.36173062442E+02  0.52164321154E+02 -0.21414510261E+03  0.22335561739E+03  0.00000000000E+00 0. -1.
         22    1    3    3    0    0 -0.34766328856E+02  0.25614608551E+03 -0.34432604783E+03  0.43055771037E+03  0.00000000000E+00 0. -1.
</event>
<event>
 7    1  0.7459264E-005  0.1577911E+03  0.7818608E-02  0.1320945E+00
          2   -1    0    0  502    0  0.00000000000E+00  0.00000000000E+00  0.34901672732E+03  0.34901672732E+03  0.00000000000E+00 0. -1.
          1   -1    0    0  501    0 -0.00000000000E+00 -0.00000000000E+00 -0.29273905850E+03  0.29273905850E+03  0.00000000000E+00 0. -1.
         25    2    1    2    0    0  0.14222900676E+02 -0.18651088643E+03  0.12234966573E+03  0.25609155295E+03  0.12499936452E+03 0.  0.
          2    1    1    2  501    0 -0.40434492170E+01  0.43393825601E+02 -0.19069974209E+03  0.19561637257E+03  0.00000000000E+00 0. -1.
          1    1    1    2  502    0 -0.10179451459E+02  0.14311706083E+03  0.12462774518E+03  0.19004786029E+03  0.00000000000E+00 0. -1.
         22    1    3    3    0    0  0.30032595081E+02 -0.23602794264E+02 -0.16353696323E+02  0.41551077577E+02  0.00000000000E+00 0. -1.
         22    1    3    3    0    0 -0.15809694405E+02 -0.16290809217E+03  0.13870336205E+03  0.21454047538E+03  0.00000000000E+00 0. -1.
</event>
<event>
 7    1  0.7459264E-005  0.1062399E+03  0.7818608E-02  0.1375941E+00
          2   -1    0    0  502    0  0.00000000000E+00  0.00000000000E+00  0.37243138100E+03  0.37243138100E+03  0.00000000000E+00 0. -1.
          1   -1    0    0  501    0 -0.00000000000E+00 -0.00000000000E+00 -0.13291675889E+04  0.13291675889E+04  0.00000000000E+00 0. -1.
         25    2    1    2    0    0 -0.49528921067E+02  0.44821330742E+02 -0.31038297485E+03  0.34121072059E+03  0.12500039625E+03 0.  0.
          2    1    1    2  501    0 -0.30999864255E+02  0.25962212427E+02 -0.99490132694E+03  0.99572269152E+03  0.00000000000E+00 0. -1.
          1    1    1    2  502    0  0.80528785321E+02 -0.70783543169E+02  0.34854809392E+03  0.36466555777E+03  0.00000000000E+00 0. -1.
         22    1    3    3    0    0 -0.20097624894E+01  0.74585293299E+02 -0.10844859223E+03  0.13163624987E+03  0.00000000000E+00 0. -1.
         22    1    3    3    0    0 -0.47519158577E+02 -0.29763962557E+02 -0.20193438261E+03  0.20957447073E+03  0.00000000000E+00 0. -1.
</event>
<event>
 7    1  0.7459264E-005  0.1762814E+03  0.7818608E-02  0.1267937E+00
          2   -1    0    0  502    0  0.00000000000E+00  0.00000000000E+00  0.19005003060E+03  0.19005003060E+03  0.00000000000E+00 0. -1.
          1   -1    0    0  501    0 -0.00000000000E+00 -0.00000000000E+00 -0.14015822310E+04  0.14015822310E+04  0.00000000000E+00 0. -1.
         25    2    1    2    0    0 -0.57113685415E+02  0.13740783870E+03 -0.11486059445E+03  0.22574782010E+03  0.12500493961E+03 0.  0.
          2    1    1    2  501    0  0.97344959212E+01 -0.18025196706E+03 -0.12166458617E+04  0.12299645055E+04  0.00000000000E+00 0. -1.
          1    1    1    2  502    0  0.47379189493E+02  0.42844128362E+02  0.11997425579E+03  0.13591993593E+03  0.00000000000E+00 0. -1.
         22    1    3    3    0    0 -0.56312331909E+02  0.91201312592E+02 -0.13745541697E+03  0.17430648237E+03  0.00000000000E+00 0. -1.
         22    1    3    3    0    0 -0.80135350563E+00  0.46206526106E+02  0.22594822522E+02  0.51441337726E+02  0.00000000000E+00 0. -1.
</event>
<event>
 7    1  0.7459264E-005  0.1973399E+03  0.7818608E-02  0.1189606E+00
          2   -1    0    0  502    0  0.00000000000E+00  0.00000000000E+00  0.47009457380E+03  0.47009457380E+03  0.00000000000E+00 0. -1.
          1   -1    0    0  501    0 -0.00000000000E+00 -0.00000000000E+00 -0.66608677208E+03  0.66608677208E+03  0.00000000000E+00 0. -1.
         25    2    1    2    0    0  0.25102187321E+03 -0.10219807451E+03 -0.91862855674E+02  0.31228170019E+03  0.12499859504E+03 0.  0.
          2    1    1    2  501    0 -0.60587143072E+02  0.11323757849E+03 -0.42864575309E+03  0.44747148818E+03  0.00000000000E+00 0. -1.
          1    1    1    2  502    0 -0.19043473013E+03 -0.11039503978E+02  0.32451641048E+03  0.37642815750E+03  0.00000000000E+00 0. -1.
         22    1    3    3    0    0  0.94151662115E+02  0.13851245432E+02  0.32176760833E+01  0.95219461867E+02  0.00000000000E+00 0. -1.
         22    1    3    3    0    0  0.15687021109E+03 -0.11604931995E+03 -0.95080531758E+02  0.21706223833E+03  0.00000000000E+00 0. -1.
</event>
<event>
 7    1  0.7459264E-005  0.9539793E+02  0.7818608E-02  0.1375635E+00
          2   -1    0    0  502    0  0.00000000000E+00  0.00000000000E+00  0.33595380582E+04  0.33595380582E+04  0.00000000000E+00 0. -1.
          1   -1    0    0  501    0 -0.00000000000E+00 -0.00000000000E+00 -0.17585013429E+04  0.17585013429E+04  0.00000000000E+00 0. -1.
         25    2    1    2    0    0  0.63031055287E+02  0.34686062704E+02  0.99078819364E+03  0.10012292545E+04  0.12499095382E+03 0.  0.
          2    1    1    2  501    0 -0.53747572144E+02 -0.78865310423E+02 -0.17517661830E+04  0.17543640724E+04  0.00000000000E+00 0. -1.
          1    1    1    2  502    0 -0.92834831424E+01  0.44179247719E+02  0.23620147046E+04  0.23624460742E+04  0.00000000000E+00 0. -1.
         22    1    3    3    0    0  0.82583981799E+02  0.47488820658E+02  0.45178510031E+03  0.46171969743E+03  0.00000000000E+00 0.  1.
         22    1    3    3    0    0 -0.19552926513E+02 -0.12802757954E+02  0.53900309333E+03  0.53950955706E+03  0.00000000000E+00 0.  1.
</event>
<event>
 7    1  0.7459264E-005  0.4091086E+03  0.7818608E-02  0.1162714E+00
          2   -1    0    0  502    0  0.00000000000E+00  0.00000000000E+00  0.69233664753E+03  0.69233664753E+03  0.00000000000E+00 0. -1.
          1   -1    0    0  501    0 -0.00000000000E+00 -0.00000000000E+00 -0.84165966449E+03  0.84165966449E+03  0.00000000000E+00 0. -1.
         25    2    1    2    0    0  0.37983691427E+03 -0.21713836778E+03 -0.11214208716E+03  0.46864295708E+03  0.12500088520E+03 0.  0.
          2    1    1    2  501    0 -0.30588119666E+03  0.25693590002E+03 -0.47437252302E+03  0.62016824635E+03  0.00000000000E+00 0. -1.
          1    1    1    2  502    0 -0.73955717612E+02 -0.39797532242E+02  0.43719159321E+03  0.44518510860E+03  0.00000000000E+00 0. -1.
         22    1    3    3    0    0  0.20274810410E+03 -0.12307296871E+03 -0.12425626645E+03  0.26775617471E+03  0.00000000000E+00 0.  1.
         22    1    3    3    0    0  0.17708881017E+03 -0.94065399065E+02  0.12114179292E+02  0.20088678236E+03  0.00000000000E+00 0.  1.
</event>
<event>
 7    1  0.7459264E-005  0.1765667E+03  0.7818608E-02  0.1212531E+00
          2   -1    0    0  502    0  0.00000000000E+00  0.00000000000E+00  0.93830609702E+03  0.93830609702E+03  0.00000000000E+00 0. -1.
          1   -1    0    0  501    0 -0.00000000000E+00 -0.00000000000E+00 -0.30637900897E+03  0.30637900897E+03  0.00000000000E+00 0. -1.
         25    2    1    2    0    0 -0.17510150649E+03  0.21748999778E+03  0.68878349317E+03  0.75366420795E+03  0.12499840472E+03 0.  0.
          2    1    1    2  501    0  0.12771843988E+03 -0.11606032015E+03 -0.22834623511E+03  0.28622369029E+03  0.00000000000E+00 0. -1.
          1    1    1    2  502    0  0.47383066608E+02 -0.10142967764E+03  0.17148982999E+03  0.20479720774E+03  0.00000000000E+00 0. -1.
         22    1    3    3    0    0 -0.89282920408E+01  0.13409091702E+02  0.18115109483E+03  0.18186598719E+03  0.00000000000E+00 0. -1.
         22    1    3    3    0    0 -0.16617321445E+03  0.20408090608E+03  0.50763239833E+03  0.57179822076E+03  0.00000000000E+00 0. -1.
</event>
<event>
 7    1  0.7459264E-005  0.7616138E+03  0.7818608E-02  0.1125329E+00
          2   -1    0    0  502    0  0.00000000000E+00  0.00000000000E+00  0.11892472122E+04  0.11892472122E+04  0.00000000000E+00 0. -1.
          1   -1    0    0  501    0 -0.00000000000E+00 -0.00000000000E+00 -0.15692783944E+04  0.15692783944E+04  0.00000000000E+00 0. -1.
         25    2    1    2    0    0 -0.31146014386E+03 -0.72889453403E+03 -0.16628261194E+03  0.81949092499E+03  0.12498322348E+03 0.  0.
          2    1    1    2  501    0  0.34395873911E+03  0.66622651410E+03 -0.94391539847E+03  0.12054632561E+04  0.00000000000E+00 0. -1.
          1    1    1    2  502    0 -0.32498595255E+02  0.62668019936E+02  0.73016682815E+03  0.73357142552E+03  0.00000000000E+00 0. -1.
         22    1    3    3    0    0 -0.21012481489E+03 -0.50652508133E+03 -0.55497141886E+02  0.55118057713E+03  0.00000000000E+00 0.  1.
         22    1    3    3    0    0 -0.10133532897E+03 -0.22236945270E+03 -0.11078547006E+03  0.26831034786E+03  0.00000000000E+00 0.  1.
</event>
<event>
 7    1  0.7459264E-005  0.3274787E+03  0.7818608E-02  0.1166933E+00
          2   -1    0    0  502    0  0.00000000000E+00  0.00000000000E+00  0.20666984658E+04  0.20666984658E+04  0.00000000000E+00 0. -1.
          1   -1    0    0  501    0 -0.00000000000E+00 -0.00000000000E+00 -0.38995599755E+03  0.38995599755E+03  0.00000000000E+00 0. -1.
         25    2    1    2    0    0 -0.24662305123E+03  0.19898779244E+03  0.65460964605E+02  0.34688412211E+03  0.12499754139E+03 0.  0.
          2    1    1    2  501    0  0.18923714432E+03 -0.28080043467E+03 -0.13214236999E+03  0.36348478214E+03  0.00000000000E+00 0. -1.
          1    1    1    2  502    0  0.57385906907E+02  0.81812642228E+02  0.17434238737E+04  0.17462855591E+04  0.00000000000E+00 0. -1.
         22    1    3    3    0    0 -0.25738333420E+03  0.16921018607E+03  0.66840849379E+02  0.31519195253E+03  0.00000000000E+00 0.  1.
         22    1    3    3    0    0  0.10760282977E+02  0.29777606371E+02 -0.13798847736E+01  0.31692169584E+02  0.00000000000E+00 0.  1.
</event>
<event>
 7    1  0.7459264E-005  0.8024249E+03  0.7818608E-02  0.1190833E+00
          2   -1    0    0  502    0  0.00000000000E+00  0.00000000000E+00  0.22415166115E+04  0.22415166115E+04  0.00000000000E+00 0. -1.
          1   -1    0    0  501    0 -0.00000000000E+00 -0.00000000000E+00 -0.15074000917E+04  0.15074000917E+04  0.00000000000E+00 0. -1.
         25    2    1    2    0    0 -0.64985565571E+03 -0.45158324547E+03  0.24657556540E+03  0.83825089184E+03  0.12500098944E+03 0.  0.
          2    1    1    2  501    0  0.40664112858E+01 -0.30892558048E+02 -0.11157195117E+04  0.11161545210E+04  0.00000000000E+00 0. -1.
          1    1    1    2  502    0  0.64578924443E+03  0.48247580352E+03  0.16032604661E+04  0.17945112904E+04  0.00000000000E+00 0. -1.
         22    1    3    3    0    0 -0.51234254043E+03 -0.38579710150E+03  0.24277252889E+03  0.68576437866E+03  0.00000000000E+00 0. -1.
         22    1    3    3    0    0 -0.13751311529E+03 -0.65786143964E+02  0.38030365170E+01  0.15248651318E+03  0.00000000000E+00 0. -1.
</event>
<event>
 7    1  0.7459264E-005  0.2143082E+03  0.7818608E-02  0.1235619E+00
          2   -1    0    0  502    0  0.00000000000E+00  0.00000000000E+00  0.70785832046E+03  0.70785832046E+03  0.00000000000E+00 0. -1.
          1   -1    0    0  501    0 -0.00000000000E+00 -0.00000000000E+00 -0.47243699487E+03  0.47243699487E+03  0.00000000000E+00 0. -1.
         25    2    1    2    0    0  0.16533667088E+03  0.16616499459E+03  0.21441668579E+03  0.34138941935E+03  0.12500080131E+03 0.  0.
          2    1    1    2  501    0 -0.69694555854E+02  0.19972865811E+02 -0.37985279444E+03  0.38670969981E+03  0.00000000000E+00 0. -1.
          1    1    1    2  502    0 -0.95642115030E+02 -0.18613786041E+03  0.40085743424E+03  0.45219619617E+03  0.00000000000E+00 0. -1.
         22    1    3    3    0    0  0.15352784616E+03  0.11074935214E+03  0.21264752316E+03  0.28470192773E+03  0.00000000000E+00 0. -1.
         22    1    3    3    0    0  0.11808824728E+02  0.55415642451E+02  0.17691626294E+01  0.56687491619E+02  0.00000000000E+00 0. -1.
</event>
<event>
 7    1  0.7459264E-005  0.2456858E+03  0.7818608E-02  0.1196231E+00
          2   -1    0    0  502    0  0.00000000000E+00  0.00000000000E+00  0.24716822004E+04  0.24716822004E+04  0.00000000000E+00 0. -1.
          1   -1    0    0  501    0 -0.00000000000E+00 -0.00000000000E+00 -0.34571911000E+03  0.34571911000E+03  0.00000000000E+00 0. -1.
         25    2    1    2    0    0  0.67061693229E+02  0.25623085044E+03  0.18933136096E+03  0.34874450649E+03  0.12499938858E+03 0.  0.
          2    1    1    2  501    0 -0.14348369466E+03 -0.19827805040E+03 -0.20841728871E+03  0.32146465145E+03  0.00000000000E+00 0. -1.
          1    1    1    2  502    0  0.76422001433E+02 -0.57952800044E+02  0.21450490182E+04  0.21471921525E+04  0.00000000000E+00 0. -1.
         22    1    3    3    0    0 -0.43840355085E+01 -0.13316472049E+02  0.88497663065E+01  0.16579100062E+02  0.00000000000E+00 0.  1.
         22    1    3    3    0    0  0.71445728737E+02  0.26954732249E+03  0.18048159465E+03  0.33216540642E+03  0.00000000000E+00 0.  1.
</event>
<event>
 7    1  0.7459264E-005  0.1104013E+03  0.7818608E-02  0.1396201E+00
          2   -1    0    0  502    0  0.00000000000E+00  0.00000000000E+00  0.60372469114E+03  0.60372469114E+03  0.00000000000E+00 0. -1.
          1   -1    0    0  501    0 -0.00000000000E+00 -0.00000000000E+00 -0.18326302787E+03  0.18326302787E+03  0.00000000000E+00 0. -1.
         25    2    1    2    0    0  0.79232531319E+02  0.18959494225E+02  0.20527391535E+03  0.25377025766E+03  0.12499882764E+03 0.  0.
          2    1    1    2  501    0 -0.11200463300E+03 -0.14807561261E+02 -0.13807877895E+03  0.17840978359E+03  0.00000000000E+00 0. -1.
          1    1    1    2  502    0  0.32772101676E+02 -0.41519329640E+01  0.35326652687E+03  0.35480767776E+03  0.00000000000E+00 0. -1.
         22    1    3    3    0    0  0.88810516103E+02  0.34157716725E+02  0.21370075661E+03  0.23392749038E+03  0.00000000000E+00 0. -1.
         22    1    3    3    0    0 -0.95779847838E+01 -0.15198222500E+02 -0.84268412587E+01  0.19842767279E+02  0.00000000000E+00 0. -1.
</event>
<event>
 7    1  0.7459264E-005  0.2018375E+03  0.7818608E-02  0.1233959E+00
          2   -1    0    0  502    0  0.00000000000E+00  0.00000000000E+00  0.71666193383E+03  0.71666193383E+03  0.00000000000E+00 0. -1.
          1   -1    0    0  501    0 -0.00000000000E+00 -0.00000000000E+00 -0.42808883372E+03  0.42808883372E+03  0.00000000000E+00 0. -1.
         25    2    1    2    0    0  0.11770517780E+03 -0.11046632243E+03  0.16038176311E+03  0.25962460701E+03  0.12500123741E+03 0.  0.
          2    1    1    2  501    0  0.29965184162E+01 -0.78241985626E+02 -0.34915771747E+03  0.35782942739E+03  0.00000000000E+00 0. -1.
          1    1    1    2  502    0 -0.12070169622E+03  0.18870830805E+03  0.47734905446E+03  0.52729673315E+03  0.00000000000E+00 0. -1.
         22    1    3    3    0    0  0.10684717125E+03 -0.26724408015E+02  0.50821075283E+02  0.12129836636E+03  0.00000000000E+00 0.  1.
         22    1    3    3    0    0  0.10858006551E+02 -0.83741914414E+02  0.10956068783E+03  0.13832624065E+03  0.00000000000E+00 0.  1.
</event>
<event>
 7    1  0.7459264E-005  0.1310961E+03  0.7818608E-02  0.1308424E+00
          2   -1    0    0  502    0  0.00000000000E+00  0.00000000000E+00  0.92359537253E+02  0.92359537253E+02  0.00000000000E+00 0. -1.
          1   -1    0    0  501    0 -0.00000000000E+00 -0.00000000000E+00 -0.10749230292E+04  0.10749230292E+04  0.00000000000E+00 0. -1.
         25    2    1    2    0    0 -0.61113517618E+02 -0.11091866709E+03 -0.59438797968E+03  0.62045165496E+03  0.12500149202E+03 0.  0.
          2    1    1    2  501    0  0.54623318382E+02 -0.21547260479E+02 -0.40846411559E+03  0.41266321022E+03  0.00000000000E+00 0. -1.
          1    1    1    2  502    0  0.64901992352E+01  0.13246592757E+03  0.20288603280E+02  0.13416770132E+03  0.00000000000E+00 0. -1.
         22    1    3    3    0    0  0.12104918747E+02 -0.64827273846E+01 -0.29125765091E+03  0.29158116199E+03  0.00000000000E+00 0. -1.
         22    1    3    3    0    0 -0.73218436364E+02 -0.10443593971E+03 -0.30313032877E+03  0.32887049297E+03  0.00000000000E+00 0. -1.
</event>
<event>
 7    1  0.7459264E-005  0.3027196E+03  0.7818608E-02  0.1222603E+00
          2   -1    0    0  502    0  0.00000000000E+00  0.00000000000E+00  0.33636144412E+04  0.33636144412E+04  0.00000000000E+00 0. -1.
          1   -1    0    0  501    0 -0.00000000000E+00 -0.00000000000E+00 -0.65185282416E+03  0.65185282416E+03  0.00000000000E+00 0. -1.
         25    2    1    2    0    0 -0.25555406447E+03  0.23638776554E+03  0.33620948040E+03  0.49984806454E+03  0.12499686937E+03 0.  0.
          2    1    1    2  501    0  0.17486075975E+02 -0.56055810618E+02 -0.56092671891E+03  0.56399184457E+03  0.00000000000E+00 0. -1.
          1    1    1    2  502    0  0.23806798850E+03 -0.18033195492E+03  0.29364788555E+04  0.29516273562E+04  0.00000000000E+00 0. -1.
         22    1    3    3    0    0 -0.10601385440E+03  0.18086020942E+03  0.20630879335E+03  0.29413036376E+03  0.00000000000E+00 0. -1.
         22    1    3    3    0    0 -0.14954021008E+03  0.55527556121E+02  0.12990068705E+03  0.20571770078E+03  0.00000000000E+00 0. -1.
</event>
<event>
 7    1  0.7459264E-005  0.5558905E+03  0.7818608E-02  0.1267099E+00
          2   -1    0    0  502    0  0.00000000000E+00  0.00000000000E+00  0.82705590405E+03  0.82705590405E+03  0.00000000000E+00 0. -1.
          1   -1    0    0  501    0 -0.00000000000E+00 -0.00000000000E+00 -0.77014140063E+03  0.77014140063E+03  0.00000000000E+00 0. -1.
         25    2    1    2    0    0 -0.56593656058E+03 -0.59019673736E+02  0.21917387299E+02  0.58298596040E+03  0.12499898268E+03 0.  0.
          2    1    1    2  501    0  0.54571719481E+03  0.61891478438E+02 -0.33521676708E+03  0.64343460643E+03  0.00000000000E+00 0. -1.
          1    1    1    2  502    0  0.20219365766E+02 -0.28718047016E+01  0.37021388320E+03  0.37077673785E+03  0.00000000000E+00 0. -1.
         22    1    3    3    0    0 -0.30772927294E+03 -0.16033702385E+02  0.72073203771E+02  0.31646316016E+03  0.00000000000E+00 0. -1.
         22    1    3    3    0    0 -0.25820728764E+03 -0.42985971351E+02 -0.50155816472E+02  0.26652280024E+03  0.00000000000E+00 0. -1.
</event>
<event>
 7    1  0.7459264E-005  0.1728581E+03  0.7818608E-02  0.1211827E+00
          2   -1    0    0  502    0  0.00000000000E+00  0.00000000000E+00  0.24403097121E+04  0.24403097121E+04  0.00000000000E+00 0. -1.
          1   -1    0    0  501    0 -0.00000000000E+00 -0.00000000000E+00 -0.15724361237E+04  0.15724361237E+04  0.00000000000E+00 0. -1.
         25    2    1    2    0    0  0.25270623134E+03 -0.60216736398E+02  0.68650186409E+03  0.74458018927E+03  0.12501341594E+03 0.  0.
          2    1    1    2  501    0 -0.14318605272E+03  0.95985360417E+02 -0.15366481928E+04  0.15462868763E+04  0.00000000000E+00 0. -1.
          1    1    1    2  502    0 -0.10952017862E+03 -0.35768624018E+02  0.17180199171E+04  0.17218787703E+04  0.00000000000E+00 0. -1.
         22    1    3    3    0    0  0.20120933075E+03 -0.83774734134E+02  0.62021976115E+03  0.65740090735E+03  0.00000000000E+00 0. -1.
         22    1    3    3    0    0  0.51496900590E+02  0.23557997736E+02  0.66282102937E+02  0.87179281928E+02  0.00000000000E+00 0. -1.
</event>
<event>
 7    1  0.7459264E-005  0.6675323E+03  0.7818608E-02  0.1193316E+00
          2   -1    0    0  502    0  0.00000000000E+00  0.00000000000E+00  0.31797174862E+03  0.31797174862E+03  0.00000000000E+00 0. -1.
          1   -1    0    0  501    0 -0.00000000000E+00 -0.00000000000E+00 -0.41279182452E+04  0.41279182452E+04  0.00000000000E+00 0. -1.
         25    2    1    2    0    0 -0.61500405959E+03  0.28939494557E+03 -0.82129235398E+03  0.10733716394E+04  0.12500447116E+03 0.  0.
          2    1    1    2  501    0  0.58649084548E+03 -0.31209449687E+03 -0.31437581621E+04  0.32131899832E+04  0.00000000000E+00 0. -1.
          1    1    1    2  502    0  0.28513214110E+02  0.22699551302E+02  0.15510401945E+03  0.15932837116E+03  0.00000000000E+00 0. -1.
         22    1    3    3    0    0 -0.20619141440E+02  0.29147306932E+02 -0.15805721090E+02  0.39045298235E+02  0.00000000000E+00 0.  1.
         22    1    3    3    0    0 -0.59438491815E+03  0.26024763864E+03 -0.80548663289E+03  0.10343263412E+04  0.00000000000E+00 0.  1.
</event>
<event>
 7    1  0.7459264E-005  0.2582359E+03  0.7818608E-02  0.1138909E+00
          2   -1    0    0  502    0  0.00000000000E+00  0.00000000000E+00  0.20802326625E+04  0.20802326625E+04  0.00000000000E+00 0. -1.
          1   -1    0    0  501    0 -0.00000000000E+00 -0.00000000000E+00 -0.92545525993E+03  0.92545525993E+03  0.00000000000E+00 0. -1.
         25    2    1    2    0    0  0.11354528482E+03  0.30216629105E+03  0.66093574913E+02  0.35240724255E+03  0.12500201920E+03 0.  0.
          2    1    1    2  501    0 -0.16881754078E+03 -0.50930738239E+02 -0.76335774236E+03  0.78345921719E+03  0.00000000000E+00 0. -1.
          1    1    1    2  502    0  0.55272255957E+02 -0.25123555281E+03  0.18520415701E+04  0.18698214627E+04  0.00000000000E+00 0. -1.
         22    1    3    3    0    0 -0.26701787552E+02  0.31604893024E+02  0.64231860369E+01  0.41870180802E+02  0.00000000000E+00 0.  1.
         22    1    3    3    0    0  0.14024707237E+03  0.27056139803E+03  0.59670388876E+02  0.31053706175E+03  0.00000000000E+00 0.  1.
</event>
<event>
 7    1  0.7459264E-005  0.9613500E+03  0.7818608E-02  0.1126947E+00
          2   -1    0    0  502    0  0.00000000000E+00  0.00000000000E+00  0.44419235458E+04  0.44419235458E+04  0.00000000000E+00 0. -1.
          1   -1    0    0  501    0 -0.00000000000E+00 -0.00000000000E+00 -0.11815131818E+04  0.11815131818E+04  0.00000000000E+00 0. -1.
         25    2    1    2    0    0 -0.97945225064E+03 -0.10814898233E+03  0.19726663134E+04  0.22086333809E+04  0.12500445411E+03 0.  0.
          2    1    1    2  501    0  0.39724576253E+02  0.37775930328E+02 -0.96830205401E+03  0.96985253037E+03  0.00000000000E+00 0. -1.
          1    1    1    2  502    0  0.93972767438E+03  0.70373051999E+02  0.22560461046E+04  0.24449508164E+04  0.00000000000E+00 0. -1.
         22    1    3    3    0    0 -0.66353382682E+03 -0.11677974947E+03  0.12534297167E+04  0.14230251944E+04  0.00000000000E+00 0.  1.
         22    1    3    3    0    0 -0.31591842381E+03  0.86307671432E+01  0.71923659666E+03  0.78560818645E+03  0.00000000000E+00 0.  1.
</event>
<event>
 7    1  0.7459264E-005  0.3171601E+03  0.7818608E-02  0.1155063E+00
          2   -1    0    0  502    0  0.00000000000E+00  0.00000000000E+00  0.18715709880E+03  0.18715709880E+03  0.00000000000E+00 0. -1.
          1   -1    0    0  501    0 -0.00000000000E+00 -0.00000000000E+00 -0.12529805175E+04  0.12529805175E+04  0.00000000000E+00 0. -1.
         25    2    1    2    0    0 -0.28974773136E+03 -0.20456563984E+03 -0.39056225523E+03  0.54218408128E+03  0.12499541573E+03 0.  0.
          2    1    1    2  501    0  0.29453257998E+03  0.86219832420E+02 -0.71085974725E+03  0.77427700497E+03  0.00000000000E+00 0. -1.
          1    1    1    2  502    0 -0.47848486241E+01  0.11834580742E+03  0.35598583794E+02  0.12367653003E+03  0.00000000000E+00 0. -1.
         22    1    3    3    0    0 -0.34411878923E+01  0.14894238450E+02 -0.14407099860E+02  0.21005823942E+02  0.00000000000E+00 0. -1.
         22    1    3    3    0    0 -0.28630654347E+03 -0.21945987829E+03 -0.37615515537E+03  0.52117825734E+03  0.00000000000E+00 0. -1.
</event>
<event>
 7    1  0.7459264E-005  0.6541120E+02  0.7818608E-02  0.1402379E+00
          2   -1    0    0  502    0  0.00000000000E+00  0.00000000000E+00  0.60220017111E+03  0.60220017111E+03  0.00000000000E+00 0. -1.
          1   -1    0    0  501    0 -0.00000000000E+00 -0.00000000000E+00 -0.41119117402E+03  0.41119117402E+03  0.00000000000E+00 0. -1.
         25    2    1    2    0    0 -0.80005392743E+02 -0.56832775668E+02  0.19995732474E+03  0.25541768542E+03  0.12499774017E+03 0.  0.
          2    1    1    2  501    0  0.17030192888E+02  0.50284855898E+02 -0.37892114690E+03  0.38262230694E+03  0.00000000000E+00 0. -1.
          1    1    1    2  502    0  0.62975199855E+02  0.65479197699E+01  0.36997281924E+03  0.37535135277E+03  0.00000000000E+00 0. -1.
         22    1    3    3    0    0  0.11736383500E+02  0.17083330519E+02  0.96265272839E+02  0.98471242675E+02  0.00000000000E+00 0. -1.
         22    1    3    3    0    0 -0.91741776243E+02 -0.73916106187E+02  0.10369205190E+03  0.15694644275E+03  0.00000000000E+00 0. -1.
</event>
<event>
 7    1  0.7459264E-005  0.1639580E+03  0.7818608E-02  0.1196076E+00
          2   -1    0    0  502    0  0.00000000000E+00  0.00000000000E+00  0.80358571395E+03  0.80358571395E+03  0.00000000000E+00 0. -1.
          1   -1    0    0  501    0 -0.00000000000E+00 -0.00000000000E+00 -0.17951379542E+03  0.17951379542E+03  0.00000000000E+00 0. -1.
         25    2    1    2    0    0  0.83857099050E+02  0.18945774438E+03  0.11820335942E+03  0.26930142346E+03  0.12499989013E+03 0.  0.
          2    1    1    2  501    0 -0.15077356597E+03 -0.61993165132E+02 -0.23948523927E+02  0.16477060574E+03  0.00000000000E+00 0. -1.
          1    1    1    2  502    0  0.66916466918E+02 -0.12746457925E+03  0.52981708303E+03  0.54902748017E+03  0.00000000000E+00 0. -1.
         22    1    3    3    0    0  0.81955063147E+02  0.18625372465E+03  0.61644096118E+02  0.21261955909E+03  0.00000000000E+00 0. -1.
         22    1    3    3    0    0  0.19020359034E+01  0.32040197303E+01  0.56559263302E+02  0.56681864369E+02  0.00000000000E+00 0. -1.
</event>
<event>
 7    1  0.7459264E-005  0.7620773E+02  0.7818608E-02  0.1458147E+00
          2   -1    0    0  502    0  0.00000000000E+00  0.00000000000E+00  0.82072358293E+03  0.82072358293E+03  0.00000000000E+00 0. -1.
          1   -1    0    0  501    0 -0.00000000000E+00 -0.00000000000E+00 -0.23289666084E+03  0.23289666084E+03  0.00000000000E+00 0. -1.
         25    2    1    2    0    0  0.33563421477E+02  0.76723725611E+02  0.26225726363E+03  0.30235298062E+03  0.12500167691E+03 0.  0.
          2    1    1    2  501    0 -0.53340295006E+02 -0.54353776380E+02 -0.20560429695E+03  0.21925475366E+03  0.00000000000E+00 0. -1.
          1    1    1    2  502    0  0.19776873529E+02 -0.22369949231E+02  0.53117395541E+03  0.53201250950E+03  0.00000000000E+00 0. -1.
         22    1    3    3    0    0  0.55010499820E+01  0.40328526398E+02  0.25199833924E+03  0.25526420543E+03  0.00000000000E+00 0. -1.
         22    1    3    3    0    0  0.28062371495E+02  0.36395199213E+02  0.10258924393E+02  0.47088775195E+02  0.00000000000E+00 0. -1.
</event>
<event>
 7    1  0.7459264E-005  0.1322400E+03  0.7818608E-02  0.1319103E+00
          2   -1    0    0  502    0  0.00000000000E+00  0.00000000000E+00  0.16793085240E+04  0.16793085240E+04  0.00000000000E+00 0. -1.
          1   -1    0    0  501    0 -0.00000000000E+00 -0.00000000000E+00 -0.26305075615E+03  0.26305075615E+03  0.00000000000E+00 0. -1.
         25    2    1    2    0    0 -0.13435113949E+03 -0.12320699025E+03  0.39841996903E+03  0.45562790267E+03  0.12501249076E+03 0.  0.
          2    1    1    2  501    0  0.10066610499E+03  0.82462619779E+02 -0.21577982694E+03  0.25198151137E+03  0.00000000000E+00 0. -1.
          1    1    1    2  502    0  0.33685034490E+02  0.40744370470E+02  0.12336176258E+04  0.12347498661E+04  0.00000000000E+00 0. -1.
         22    1    3    3    0    0 -0.36306301066E+02 -0.59571434527E+01  0.98623855836E+01  0.38090703651E+02  0.00000000000E+00 0. -1.
         22    1    3    3    0    0 -0.98044838419E+02 -0.11724984680E+03  0.38855758344E+03  0.41753719902E+03  0.00000000000E+00 0. -1.
</event>
<event>
 7    1  0.7459264E-005  0.6058114E+03  0.7818608E-02  0.1142201E+00
          2   -1    0    0  502    0  0.00000000000E+00  0.00000000000E+00  0.43424683562E+04  0.43424683562E+04  0.00000000000E+00 0. -1.
          1   -1    0    0  501    0 -0.00000000000E+00 -0.00000000000E+00 -0.18872430377E+04  0.18872430377E+04  0.00000000000E+00 0. -1.
         25    2    1    2    0    0  0.35317029087E+03  0.42911397920E+03  0.10632441674E+04  0.12062262101E+04  0.12500179543E+03 0.  0.
          2    1    1    2  501    0  0.37260248045E+02  0.61891156269E+02 -0.17843443342E+04  0.17858061329E+04  0.00000000000E+00 0. -1.
          1    1    1    2  502    0 -0.39043053891E+03 -0.49100513547E+03  0.31763254852E+04  0.32376790509E+04  0.00000000000E+00 0. -1.
         22    1    3    3    0    0  0.35080058761E+03  0.42910518402E+03  0.10666633341E+04  0.12020661294E+04  0.00000000000E+00 0. -1.
         22    1    3    3    0    0  0.23697032617E+01  0.87951840471E-02 -0.34191666379E+01  0.41600806965E+01  0.00000000000E+00 0. -1.
</event>
<event>
 7    1  0.7459264E-005  0.4015112E+03  0.7818608E-02  0.1159657E+00
          2   -1    0    0  502    0  0.00000000000E+00  0.00000000000E+00  0.14839870331E+04  0.14839870331E+04  0.00000000000E+00 0. -1.
          1   -1    0    0  501    0 -0.00000000000E+00 -0.00000000000E+00 -0.34700857345E+04  0.34700857345E+04  0.00000000000E+00 0. -1.
         25    2    1    2    0    0 -0.10882522928E+02  0.48167249780E+03 -0.18815796038E+03  0.53212500943E+03  0.12500713247E+03 0.  0.
          2    1    1    2  501    0 -0.10162755136E+02 -0.39554061082E+03 -0.30958405093E+04  0.31210229278E+04  0.00000000000E+00 0. -1.
          1    1    1    2  502    0  0.21045278064E+02 -0.86131886978E+02  0.12978997684E+04  0.13009248304E+04  0.00000000000E+00 0. -1.
         22    1    3    3    0    0  0.50419591302E+02  0.23158018472E+03 -0.12054806165E+03  0.26590101976E+03  0.00000000000E+00 0.  1.
         22    1    3    3    0    0 -0.61302114230E+02  0.25009231308E+03 -0.67609898728E+02  0.26622398967E+03  0.00000000000E+00 0.  1.
</event>
<event>
 7    1  0.7459264E-005  0.4353740E+03  0.7818608E-02  0.1151730E+00
          2   -1    0    0  502    0  0.00000000000E+00  0.00000000000E+00  0.24884556826E+03  0.24884556826E+03  0.00000000000E+00 0. -1.
          1   -1    0    0  501    0 -0.00000000000E+00 -0.00000000000E+00 -0.12698355776E+04  0.12698355776E+04  0.00000000000E+00 0. -1.
         25    2    1    2    0    0 -0.34908337642E+03 -0.17773768448E+03 -0.46109344782E+03  0.61780381034E+03  0.12499796906E+03 0.  0.
          2    1    1    2  501    0  0.43332726004E+03  0.20865008892E+03 -0.62600176002E+03  0.78942103940E+03  0.00000000000E+00 0. -1.
          1    1    1    2  502    0 -0.84243883619E+02 -0.30912404440E+02  0.66105198497E+02  0.11145629612E+03  0.00000000000E+00 0. -1.
         22    1    3    3    0    0 -0.10566338850E+03 -0.30232549176E+02 -0.57765223853E+02  0.12415949334E+03  0.00000000000E+00 0.  1.
         22    1    3    3    0    0 -0.24341998792E+03 -0.14750513531E+03 -0.40332822397E+03  0.49364431700E+03  0.00000000000E+00 0.  1.
</event>
<event>
 7    1  0.7459264E-005  0.3248946E+03  0.7818608E-02  0.1316703E+00
          2   -1    0    0  502    0  0.00000000000E+00  0.00000000000E+00  0.18146532062E+04  0.18146532062E+04  0.00000000000E+00 0. -1.
          1   -1    0    0  501    0 -0.00000000000E+00 -0.00000000000E+00 -0.67780434694E+03  0.67780434694E+03  0.00000000000E+00 0. -1.
         25    2    1    2    0    0 -0.31377488179E+03 -0.24224534173E+02  0.67421885537E+03  0.75447815351E+03  0.12499885876E+03 0.  0.
          2    1    1    2  501    0 -0.17399041250E+02  0.13440077464E+02 -0.61252708281E+03  0.61292151985E+03  0.00000000000E+00 0. -1.
          1    1    1    2  502    0  0.33117392304E+03  0.10784456709E+02  0.10751570867E+04  0.11250578798E+04  0.00000000000E+00 0. -1.
         22    1    3    3    0    0 -0.30774366401E+03 -0.41651784038E+02  0.66482916888E+03  0.73378393117E+03  0.00000000000E+00 0.  1.
         22    1    3    3    0    0 -0.60312177748E+01  0.17427249865E+02  0.93896864867E+01  0.20694222334E+02  0.00000000000E+00 0.  1.
</event>
<event>
 7    1  0.7459264E-005  0.1426724E+03  0.7818608E-02  0.1308741E+00
          2   -1    0    0  502    0  0.00000000000E+00  0.00000000000E+00  0.36813554184E+04  0.36813554184E+04  0.00000000000E+00 0. -1.
          1   -1    0    0  501    0 -0.00000000000E+00 -0.00000000000E+00 -0.27503906847E+03  0.27503906847E+03  0.00000000000E+00 0. -1.
         25    2    1    2    0    0  0.73425163824E+02 -0.53144047173E+02 -0.10932623571E+03  0.18919020613E+03  0.12500065539E+03 0.  0.
          2    1    1    2  501    0  0.33391308530E+02 -0.42183658782E+02 -0.11855323541E+03  0.13018951640E+03  0.00000000000E+00 0. -1.
          1    1    1    2  502    0 -0.10681647235E+03  0.95327705955E+02  0.36341958210E+04  0.36370147643E+04  0.00000000000E+00 0. -1.
         22    1    3    3    0    0  0.77474954945E+02 -0.83744829123E+02 -0.10977008928E+03  0.15831941621E+03  0.00000000000E+00 0.  1.
         22    1    3    3    0    0 -0.40497911215E+01  0.30600781950E+02  0.44385357126E+00  0.30870789916E+02  0.00000000000E+00 0.  1.
</event>
<event>
 7    1  0.7459264E-005  0.1485550E+03  0.7818608E-02  0.1297315E+00
          2   -1    0    0  502    0  0.00000000000E+00  0.00000000000E+00  0.69773011636E+03  0.69773011636E+03  0.00000000000E+00 0. -1.
          1   -1    0    0  501    0 -0.00000000000E+00 -0.00000000000E+00 -0.23160375200E+03  0.23160375200E+03  0.00000000000E+00 0. -1.
         25    2    1    2    0    0  0.20019144437E+03  0.21184439523E+02  0.30121862010E+03  0.38325328902E+03  0.12500012631E+03 0.  0.
          2    1    1    2  501    0 -0.14281417584E+03 -0.20648626059E+02 -0.16039748107E+03  0.21575357822E+03  0.00000000000E+00 0. -1.
          1    1    1    2  502    0 -0.57377268528E+02 -0.53581346445E+00  0.32530522533E+03  0.33032700112E+03  0.00000000000E+00 0. -1.
         22    1    3    3    0    0  0.50910820931E+02  0.40071826110E+02  0.17582911623E+03  0.18738607486E+03  0.00000000000E+00 0.  1.
         22    1    3    3    0    0  0.14928062344E+03 -0.18887386587E+02  0.12538950386E+03  0.19586721417E+03  0.00000000000E+00 0.  1.
</event>
<event>
 7    1  0.7459264E-005  0.5131763E+03  0.7818608E-02  0.1236860E+00
          2   -1    0    0  502    0  0.00000000000E+00  0.00000000000E+00  0.12382859075E+04  0.12382859075E+04  0.00000000000E+00 0. -1.
          1   -1    0    0  501    0 -0.00000000000E+00 -0.00000000000E+00 -0.36655434402E+03  0.36655434402E+03  0.00000000000E+00 0. -1.
         25    2    1    2    0    0 -0.50467960678E+03 -0.13639055031E+03  0.84394197773E+02  0.54410571596E+03  0.12499904720E+03 0.  0.
          2    1    1    2  501    0  0.48651041863E+03  0.11265013397E+03  0.32146550643E+03  0.59390446365E+03  0.00000000000E+00 0. -1.
          1    1    1    2  502    0  0.18169188152E+02  0.23740416344E+02  0.46587185931E+03  0.46683007194E+03  0.00000000000E+00 0. -1.
         22    1    3    3    0    0 -0.10687644986E+03 -0.30298681659E+02  0.71671270320E+02  0.13220195397E+03  0.00000000000E+00 0.  1.
         22    1    3    3    0    0 -0.39780315692E+03 -0.10609186865E+03  0.12722927452E+02  0.41190376198E+03  0.00000000000E+00 0.  1.
</event>
<event>
 7    1  0.7459264E-005  0.2464661E+03  0.7818608E-02  0.1350806E+00
          2   -1    0    0  502    0  0.00000000000E+00  0.00000000000E+00  0.43368132336E+03  0.43368132336E+03  0.00000000000E+00 0. -1.
          1   -1    0    0  501    0 -0.00000000000E+00 -0.00000000000E+00 -0.24871717080E+03  0.24871717080E+03  0.00000000000E+00 0. -1.
         25    2    1    2    0    0 -0.17287676205E+03  0.16916287599E+03  0.10040089748E+03  0.29018607945E+03  0.12500066809E+03 0.  0.
          2    1    1    2  501    0  0.16310612727E+03 -0.18832163063E+03 -0.51547859060E+02  0.25441271016E+03  0.00000000000E+00 0. -1.
          1    1    1    2  502    0  0.97706347794E+01  0.19158754637E+02  0.13611111414E+03  0.13779970456E+03  0.00000000000E+00 0. -1.
         22    1    3    3    0    0 -0.10598842570E+03  0.10231503873E+03  0.12418475230E+03  0.19267528704E+03  0.00000000000E+00 0.  1.
         22    1    3    3    0    0 -0.66888336345E+02  0.66847837268E+02 -0.23783854823E+02  0.97510792411E+02  0.00000000000E+00 0.  1.
</event>
<event>
 7    1  0.7459264E-005  0.1237786E+03  0.7818608E-02  0.1381585E+00
          2   -1    0    0  502    0  0.00000000000E+00  0.00000000000E+00  0.21184006062E+03  0.21184006062E+03  0.00000000000E+00 0. -1.
          1   -1    0    0  501    0 -0.00000000000E+00 -0.00000000000E+00 -0.83229895235E+03  0.83229895235E+03  0.00000000000E+00 0. -1.
         25    2    1    2    0    0  0.63016983541E+02 -0.91039293005E+02 -0.20583304241E+02  0.16824964631E+03  0.12499991193E+03 0.  0.
          2    1    1    2  501    0  0.32751709505E+02  0.50705247169E+01 -0.70740731966E+03  0.70818323943E+03  0.00000000000E+00 0. -1.
          1    1    1    2  502    0 -0.95768693046E+02  0.85968768288E+02  0.10753173217E+03  0.16770612724E+03  0.00000000000E+00 0. -1.
         22    1    3    3    0    0 -0.19122318572E+02 -0.23946848805E+02  0.36618304234E+02  0.47749500942E+02  0.00000000000E+00 0.  1.
         22    1    3    3    0    0  0.82139302114E+02 -0.67092444201E+02 -0.57201608475E+02  0.12050014536E+03  0.00000000000E+00 0.  1.
</event>
<event>
 7    1  0.7459264E-005  0.5977880E+03  0.7818608E-02  0.1193658E+00
          2   -1    0    0  502    0  0.00000000000E+00  0.00000000000E+00  0.66853683424E+03  0.66853683424E+03  0.00000000000E+00 0. -1.
          1   -1    0    0  501    0 -0.00000000000E+00 -0.00000000000E+00 -0.28445338727E+04  0.28445338727E+04  0.00000000000E+00 0. -1.
         25    2    1    2    0    0 -0.53797341566E+03 -0.24087776591E+03 -0.67160736080E+03  0.90228554653E+03  0.12500106534E+03 0.  0.
          2    1    1    2  501    0  0.56364328006E+03  0.20949363961E+03 -0.20128304732E+04  0.21007303125E+04  0.00000000000E+00 0. -1.
          1    1    1    2  502    0 -0.25669864399E+02  0.31384126300E+02  0.50844079551E+03  0.51005484790E+03  0.00000000000E+00 0. -1.
         22    1    3    3    0    0 -0.58466692570E+02 -0.71318914286E+02 -0.79772644366E+02  0.12193611632E+03  0.00000000000E+00 0.  1.
         22    1    3    3    0    0 -0.47950672309E+03 -0.16955885163E+03 -0.59183471643E+03  0.78034943021E+03  0.00000000000E+00 0.  1.
</event>
<event>
 7    1  0.1133110E-004  0.2057976E+04  0.7818608E-02  0.1072582E+00
          2   -1    0    0  502    0  0.00000000000E+00  0.00000000000E+00  0.28534118923E+04  0.28534118923E+04  0.00000000000E+00 0. -1.
          1   -1    0    0  501    0 -0.00000000000E+00 -0.00000000000E+00 -0.27147978355E+04  0.27147978355E+04  0.00000000000E+00 0. -1.
         25    2    1    2    0    0  0.19682129624E+04 -0.50517220428E+03  0.59662608288E+03  0.21214732218E+04  0.12499890629E+03 0.  0.
          2    1    1    2  501    0  0.51847664615E+02 -0.18319361525E+01 -0.12258819330E+04  0.12269792378E+04  0.00000000000E+00 0. -1.
          1    1    1    2  502    0 -0.20200606270E+04  0.50700414043E+03  0.76786990697E+03  0.22197572681E+04  0.00000000000E+00 0. -1.
         22    1    3    3    0    0  0.47507230125E+03 -0.12977449396E+03  0.20044942980E+03  0.53170958672E+03  0.00000000000E+00 0. -1.
         22    1    3    3    0    0  0.14931406612E+04 -0.37539771032E+03  0.39617665308E+03  0.15897636351E+04  0.00000000000E+00 0. -1.
</event>
<event>
 7    1  0.7459264E-005  0.1035536E+03  0.7818608E-02  0.1317689E+00
          2   -1    0    0  502    0  0.00000000000E+00  0.00000000000E+00  0.55980268290E+02  0.55980268290E+02  0.00000000000E+00 0. -1.
          1   -1    0    0  501    0 -0.00000000000E+00 -0.00000000000E+00 -0.19502864862E+04  0.19502864862E+04  0.00000000000E+00 0. -1.
         25    2    1    2    0    0 -0.38039882619E+02 -0.70521657953E+02 -0.74299260533E+03  0.75768268408E+03  0.12499880506E+03 0.  0.
          2    1    1    2  501    0 -0.12367279725E+02  0.11671368313E+03 -0.11714458800E+04  0.11773106995E+04  0.00000000000E+00 0. -1.
          1    1    1    2  502    0  0.50407162344E+02 -0.46192025178E+02  0.20132267427E+02  0.71273370886E+02  0.00000000000E+00 0. -1.
         22    1    3    3    0    0 -0.38379621244E+02 -0.78377199641E+02 -0.25302645905E+03  0.26765345081E+03  0.00000000000E+00 0.  1.
         22    1    3    3    0    0  0.33973862491E+00  0.78555416881E+01 -0.48996614628E+03  0.49002923327E+03  0.00000000000E+00 0.  1.
</event>
<event>
 7    1  0.7459264E-005  0.4031026E+03  0.7818608E-02  0.1279094E+00
          2   -1    0    0  502    0  0.00000000000E+00  0.00000000000E+00  0.25782675371E+04  0.25782675371E+04  0.00000000000E+00 0. -1.
          1   -1    0    0  501    0 -0.00000000000E+00 -0.00000000000E+00 -0.10425268354E+04  0.10425268354E+04  0.00000000000E+00 0. -1.
         25    2    1    2    0    0  0.35035741189E+03  0.22041983110E+03  0.56298781074E+02  0.43603814087E+03  0.12499795813E+03 0.  0.
          2    1    1    2  501    0  0.11728449278E+01 -0.25065648011E+02 -0.83512919258E+03  0.83550609248E+03  0.00000000000E+00 0. -1.
          1    1    1    2  502    0 -0.35153025682E+03 -0.19535418309E+03  0.23145711132E+04  0.23492501392E+04  0.00000000000E+00 0. -1.
         22    1    3    3    0    0  0.18483866895E+03  0.12472645653E+03  0.92573644047E+02  0.24143715967E+03  0.00000000000E+00 0. -1.
         22    1    3    3    0    0  0.16551874294E+03  0.95693374567E+02 -0.36274862973E+02  0.19460098120E+03  0.00000000000E+00 0. -1.
</event>
<event>
 7    1  0.7459264E-005  0.1919248E+03  0.7818608E-02  0.1350865E+00
          2   -1    0    0  502    0  0.00000000000E+00  0.00000000000E+00  0.45753741243E+03  0.45753741243E+03  0.00000000000E+00 0. -1.
          1   -1    0    0  501    0 -0.00000000000E+00 -0.00000000000E+00 -0.14884225334E+03  0.14884225334E+03  0.00000000000E+00 0. -1.
         25    2    1    2    0    0  0.26817189166E+02 -0.17323325599E+03 -0.81364970341E+01  0.21545471325E+03  0.12500243303E+03 0.  0.
          2    1    1    2  501    0 -0.14351046667E+02 -0.23580402316E+02  0.68227428010E+02  0.73600066893E+02  0.00000000000E+00 0. -1.
          1    1    1    2  502    0 -0.12466142500E+02  0.19681365830E+03  0.24860422811E+03  0.31732488563E+03  0.00000000000E+00 0. -1.
         22    1    3    3    0    0  0.10150073146E+02 -0.18973999343E+03 -0.16075181417E+02  0.19069006411E+03  0.00000000000E+00 0.  1.
         22    1    3    3    0    0  0.16667116020E+02  0.16506737444E+02  0.79386843825E+01  0.24764649144E+02  0.00000000000E+00 0.  1.
</event>
<event>
 7    1  0.7459264E-005  0.8556483E+02  0.7818608E-02  0.1352411E+00
          2   -1    0    0  502    0  0.00000000000E+00  0.00000000000E+00  0.48042614698E+04  0.48042614698E+04  0.00000000000E+00 0. -1.
          1   -1    0    0  501    0 -0.00000000000E+00 -0.00000000000E+00 -0.60621111477E+02  0.60621111477E+02  0.00000000000E+00 0. -1.
         25    2    1    2    0    0  0.19844892581E+02  0.11594544030E+03  0.39508770777E+03  0.43076297938E+03  0.12500113073E+03 0.  0.
          2    1    1    2  501    0 -0.53138277156E+02 -0.64703701524E+02 -0.13988597541E+01  0.83738893584E+02  0.00000000000E+00 0. -1.
          1    1    1    2  502    0  0.33293384575E+02 -0.51241738775E+02  0.43499515103E+04  0.43503807084E+04  0.00000000000E+00 0. -1.
         22    1    3    3    0    0 -0.39538386790E+02 -0.30626740449E+00  0.69154937809E+02  0.79660424635E+02  0.00000000000E+00 0. -1.
         22    1    3    3    0    0  0.59383279371E+02  0.11625170770E+03  0.32593276996E+03  0.35110255474E+03  0.00000000000E+00 0. -1.
</event>
<event>
 7    1  0.7459264E-005  0.3409236E+03  0.7818608E-02  0.1263683E+00
          2   -1    0    0  502    0  0.00000000000E+00  0.00000000000E+00  0.14904992368E+04  0.14904992368E+04  0.00000000000E+00 0. -1.
          1   -1    0    0  501    0 -0.00000000000E+00 -0.00000000000E+00 -0.22184879509E+04  0.22184879509E+04  0.00000000000E+00 0. -1.
         25    2    1    2    0    0  0.36481908884E+03 -0.30951563654E+02 -0.72401570827E+02  0.39359638025E+03  0.12500062485E+03 0.  0.
          2    1    1    2  501    0 -0.29656215205E+02 -0.17483378172E+02 -0.19637776635E+04  0.19640793953E+04  0.00000000000E+00 0. -1.
          1    1    1    2  502    0 -0.33516287363E+03  0.48434941826E+02  0.13081905202E+04  0.13513114121E+04  0.00000000000E+00 0. -1.
         22    1    3    3    0    0  0.37142238675E+03 -0.18067190063E+02 -0.73577429397E+02  0.37907077288E+03  0.00000000000E+00 0.  1.
         22    1    3    3    0    0 -0.66032979093E+01 -0.12884373591E+02  0.11758585697E+01  0.14525607371E+02  0.00000000000E+00 0.  1.
</event>
<event>
 7    1  0.7459264E-005  0.1762063E+03  0.7818608E-02  0.1346026E+00
          2   -1    0    0  502    0  0.00000000000E+00  0.00000000000E+00  0.84982135994E+03  0.84982135994E+03  0.00000000000E+00 0. -1.
          1   -1    0    0  501    0 -0.00000000000E+00 -0.00000000000E+00 -0.10732737102E+04  0.10732737102E+04  0.00000000000E+00 0. -1.
         25    2    1    2    0    0  0.20517517224E+03  0.21060403519E+02 -0.27929155054E+03  0.36901195234E+03  0.12500263544E+03 0.  0.
          2    1    1    2  501    0 -0.31303275584E+02  0.14510784775E+01 -0.73923958473E+03  0.73990348311E+03  0.00000000000E+00 0. -1.
          1    1    1    2  502    0 -0.17387189666E+03 -0.22511481997E+02  0.79507878498E+03  0.81417963472E+03  0.00000000000E+00 0. -1.
         22    1    3    3    0    0  0.17577733512E+03  0.26906812210E+01 -0.28402136320E+03  0.33402551708E+03  0.00000000000E+00 0. -1.
         22    1    3    3    0    0  0.29397837119E+02  0.18369722298E+02  0.47298126569E+01  0.34986435262E+02  0.00000000000E+00 0. -1.
</event>
<event>
 7    1  0.7459264E-005  0.1543778E+03  0.7818608E-02  0.1251753E+00
          2   -1    0    0  502    0  0.00000000000E+00  0.00000000000E+00  0.97536191359E+02  0.97536191359E+02  0.00000000000E+00 0. -1.
          1   -1    0    0  501    0 -0.00000000000E+00 -0.00000000000E+00 -0.77855502834E+03  0.77855502834E+03  0.00000000000E+00 0. -1.
         25    2    1    2    0    0 -0.10649968791E+03 -0.17978333284E+03 -0.56657553513E+03  0.61668283258E+03  0.12500259473E+03 0.  0.
          2    1    1    2  501    0  0.77250577696E+02  0.36688409039E+02 -0.55254251542E+02  0.10181710773E+03  0.00000000000E+00 0. -1.
          1    1    1    2  502    0  0.29249110216E+02  0.14309492380E+03 -0.59189050303E+02  0.15759127940E+03  0.00000000000E+00 0. -1.
         22    1    3    3    0    0 -0.39484415053E+02 -0.11232937532E+03 -0.45385858246E+03  0.46921692261E+03  0.00000000000E+00 0. -1.
         22    1    3    3    0    0 -0.67015272859E+02 -0.67453957523E+02 -0.11271695268E+03  0.14746590997E+03  0.00000000000E+00 0. -1.
</event>
<event>
 7    1  0.7459264E-005  0.4541061E+03  0.7818608E-02  0.1116027E+00
          2   -1    0    0  502    0  0.00000000000E+00  0.00000000000E+00  0.19758302959E+04  0.19758302959E+04  0.00000000000E+00 0. -1.
          1   -1    0    0  501    0 -0.00000000000E+00 -0.00000000000E+00 -0.15040551306E+04  0.15040551306E+04  0.00000000000E+00 0. -1.
         25    2    1    2    0    0  0.22665370209E+03 -0.44797889038E+03 -0.62937606027E+03  0.81473724657E+03  0.12500227526E+03 0.  0.
          2    1    1    2  501    0 -0.97164691747E+02  0.41770129216E+03 -0.72059551997E+03  0.83855426193E+03  0.00000000000E+00 0. -1.
          1    1    1    2  502    0 -0.12948901034E+03  0.30277598221E+02  0.18217467455E+04  0.18265939180E+04  0.00000000000E+00 0. -1.
         22    1    3    3    0    0  0.42741077013E+02 -0.63450234266E+02 -0.17886297964E+03  0.19453713625E+03  0.00000000000E+00 0. -1.
         22    1    3    3    0    0  0.18391262508E+03 -0.38452865611E+03 -0.45051308062E+03  0.62020011033E+03  0.00000000000E+00 0. -1.
</event>
<event>
 7    1  0.7459264E-005  0.2364718E+03  0.7818608E-02  0.1146434E+00
          2   -1    0    0  502    0  0.00000000000E+00  0.00000000000E+00  0.26373661260E+03  0.26373661260E+03  0.00000000000E+00 0. -1.
          1   -1    0    0  501    0 -0.00000000000E+00 -0.00000000000E+00 -0.25428014637E+04  0.25428014637E+04  0.00000000000E+00 0. -1.
         25    2    1    2    0    0 -0.34649111865E+03  0.14760899390E+03 -0.40457519666E+03  0.56670072939E+03  0.12499646616E+03 0.  0.
          2    1    1    2  501    0  0.17557675013E+03 -0.11154065986E+02 -0.19863916851E+04  0.19941673789E+04  0.00000000000E+00 0. -1.
          1    1    1    2  502    0  0.17091436852E+03 -0.13645492791E+03  0.11190203067E+03  0.24566996802E+03  0.00000000000E+00 0. -1.
         22    1    3    3    0    0 -0.30704350785E+03  0.10403367308E+03 -0.27768544561E+03  0.42685820544E+03  0.00000000000E+00 0.  1.
         22    1    3    3    0    0 -0.39447610797E+02  0.43575320814E+02 -0.12688975105E+03  0.13984252394E+03  0.00000000000E+00 0.  1.
</event>
<event>
 7    1  0.7459264E-005  0.8719987E+02  0.7818608E-02  0.1456198E+00
          2   -1    0    0  502    0  0.00000000000E+00  0.00000000000E+00  0.14277506899E+04  0.14277506899E+04  0.00000000000E+00 0. -1.
          1   -1    0    0  501    0 -0.00000000000E+00 -0.00000000000E+00 -0.31184812440E+03  0.31184812440E+03  0.00000000000E+00 0. -1.
         25    2    1    2    0    0  0.10270772415E+03 -0.31892999380E+01 -0.59439191793E+02  0.17238713018E+03  0.12500102757E+03 0.  0.
          2    1    1    2  501    0 -0.83609999219E+02 -0.15136782627E+02 -0.18658840083E+03  0.20502435339E+03  0.00000000000E+00 0. -1.
          1    1    1    2  502    0 -0.19097724935E+02  0.18326082565E+02  0.13619301581E+04  0.13621873307E+04  0.00000000000E+00 0. -1.
         22    1    3    3    0    0  0.63317404251E+01  0.43293109852E+01  0.35842524392E+02  0.36654064239E+02  0.00000000000E+00 0. -1.
         22    1    3    3    0    0  0.96375983729E+02 -0.75186109232E+01 -0.95281716185E+02  0.13573306594E+03  0.00000000000E+00 0. -1.
</event>
<event>
 7    1  0.7459264E-005  0.1681398E+03  0.7818608E-02  0.1249009E+00
          2   -1    0    0  502    0  0.00000000000E+00  0.00000000000E+00  0.14813633109E+04  0.14813633109E+04  0.00000000000E+00 0. -1.
          1   -1    0    0  501    0 -0.00000000000E+00 -0.00000000000E+00 -0.15725265458E+03  0.15725265458E+03  0.00000000000E+00 0. -1.
         25    2    1    2    0    0  0.36370423205E+02  0.18515454471E+03  0.12335318326E+04  0.12541249247E+04  0.12499412565E+03 0.  0.
          2    1    1    2  501    0 -0.61180325670E+02 -0.52626390344E+02 -0.11388140751E+03  0.13957630238E+03  0.00000000000E+00 0. -1.
          1    1    1    2  502    0  0.24809902465E+02 -0.13252815436E+03  0.20446023121E+03  0.24491473844E+03  0.00000000000E+00 0. -1.
         22    1    3    3    0    0  0.78682500969E+02  0.81828325580E+02  0.68531233475E+03  0.69465085258E+03  0.00000000000E+00 0. -1.
         22    1    3    3    0    0 -0.42312077764E+02  0.10332621913E+03  0.54821949786E+03  0.55947407207E+03  0.00000000000E+00 0. -1.
</event>
<event>
 7    1  0.7459264E-005  0.5102289E+03  0.7818608E-02  0.1172500E+00
          2   -1    0    0  502    0  0.00000000000E+00  0.00000000000E+00  0.41943526040E+04  0.41943526040E+04  0.00000000000E+00 0. -1.
          1   -1    0    0  501    0 -0.00000000000E+00 -0.00000000000E+00 -0.42983749980E+03  0.42983749980E+03  0.00000000000E+00 0. -1.
         25    2    1    2    0    0  0.29860235235E+03  0.38966389201E+03  0.12915095458E+04  0.13873085230E+04  0.12500687054E+03 0.  0.
          2    1    1    2  501    0  0.59111907218E+02 -0.11291615830E+02 -0.35564735634E+03  0.36070314697E+03  0.00000000000E+00 0. -1.
          1    1    1    2  502    0 -0.35771425957E+03 -0.37837227618E+03  0.28286529148E+04  0.28761784338E+04  0.00000000000E+00 0. -1.
         22    1    3    3    0    0  0.39350291855E+02  0.99248259986E+02  0.17634597951E+03  0.20614695503E+03  0.00000000000E+00 0. -1.
         22    1    3    3    0    0  0.25925206050E+03  0.29041563202E+03  0.11151635663E+04  0.11811615680E+04  0.00000000000E+00 0. -1.
</event>
<event>
 7    1  0.7459264E-005  0.1362982E+03  0.7818608E-02  0.1243440E+00
          2   -1    0    0  502    0  0.00000000000E+00  0.00000000000E+00  0.50131833596E+02  0.50131833596E+02  0.00000000000E+00 0. -1.
          1   -1    0    0  501    0 -0.00000000000E+00 -0.00000000000E+00 -0.28434785142E+04  0.28434785142E+04  0.00000000000E+00 0. -1.
         25    2    1    2    0    0 -0.13610986722E+03  0.15318457913E+03 -0.22376737346E+04  0.22505113561E+04  0.12500483997E+03 0.  0.
          2    1    1    2  501    0  0.11425645334E+02 -0.10466412446E+03 -0.47573230127E+03  0.48724362160E+03  0.00000000000E+00 0. -1.
          1    1    1    2  502    0  0.12468422189E+03 -0.48520454669E+02 -0.79940644675E+02  0.15585537007E+03  0.00000000000E+00 0. -1.
         22    1    3    3    0    0 -0.46409586070E+02  0.10070545031E+03 -0.64591842469E+03  0.65536710992E+03  0.00000000000E+00 0. -1.
         22    1    3    3    0    0 -0.89700281154E+02  0.52479128813E+02 -0.15917553100E+04  0.15951442462E+04  0.00000000000E+00 0. -1.
</event>
<event>
 7    1  0.7459264E-005  0.2137162E+03  0.7818608E-02  0.1234637E+00
          2   -1    0    0  502    0  0.00000000000E+00  0.00000000000E+00  0.17279879580E+03  0.17279879580E+03  0.00000000000E+00 0. -1.
          1   -1    0    0  501    0 -0.00000000000E+00 -0.00000000000E+00 -0.57121845447E+03  0.57121845447E+03  0.00000000000E+00 0. -1.
         25    2    1    2    0    0 -0.17225111579E+03  0.18505782066E+03 -0.27558040895E+03  0.39432161577E+03  0.12501252332E+03 0.  0.
          2    1    1    2  501    0  0.19659699055E+01 -0.73408709369E+02 -0.12623811214E+03  0.14604370786E+03  0.00000000000E+00 0. -1.
          1    1    1    2  502    0  0.17028514588E+03 -0.11164911129E+03  0.33988624185E+01  0.20365192664E+03  0.00000000000E+00 0. -1.
         22    1    3    3    0    0 -0.18193691572E+02  0.12199032097E+02  0.12106783461E+02  0.25028004373E+02  0.00000000000E+00 0. -1.
         22    1    3    3    0    0 -0.15405742422E+03  0.17285878856E+03 -0.28768719241E+03  0.36929361139E+03  0.00000000000E+00 0. -1.
</event>
<event>
 7    1  0.7459264E-005  0.1056080E+03  0.7818608E-02  0.1339187E+00
          2   -1    0    0  502    0  0.00000000000E+00  0.00000000000E+00  0.15709552197E+04  0.15709552197E+04  0.00000000000E+00 0. -1.
          1   -1    0    0  501    0 -0.00000000000E+00 -0.00000000000E+00 -0.22425369850E+03  0.22425369850E+03  0.00000000000E+00 0. -1.
         25    2    1    2    0    0  0.42234162602E+02 -0.12197606160E+03  0.16433691067E+02  0.18043629701E+03  0.12500122792E+03 0.  0.
          2    1    1    2  501    0  0.30832605792E+02  0.46103784039E+02 -0.13488254778E+03  0.14584070138E+03  0.00000000000E+00 0. -1.
          1    1    1    2  502    0 -0.73066768394E+02  0.75872277564E+02  0.14651503779E+04  0.14689319198E+04  0.00000000000E+00 0. -1.
         22    1    3    3    0    0 -0.46328497476E+01 -0.34840771321E+02 -0.50105047330E+02  0.61203418295E+02  0.00000000000E+00 0.  1.
         22    1    3    3    0    0  0.46867012349E+02 -0.87135290282E+02  0.66538738398E+02  0.11923287871E+03  0.00000000000E+00 0.  1.
</event>
<event>
 7    1  0.7459264E-005  0.2670373E+03  0.7818608E-02  0.1168691E+00
          2   -1    0    0  502    0  0.00000000000E+00  0.00000000000E+00  0.28389741815E+04  0.28389741815E+04  0.00000000000E+00 0. -1.
          1   -1    0    0  501    0 -0.00000000000E+00 -0.00000000000E+00 -0.85330828681E+03  0.85330828681E+03  0.00000000000E+00 0. -1.
         25    2    1    2    0    0 -0.63181435067E+02  0.18211076794E+03  0.49627172452E+03  0.54686911427E+03  0.12499591211E+03 0.  0.
          2    1    1    2  501    0 -0.10077863076E+03  0.65330682981E+02 -0.81408039251E+03  0.82289204397E+03  0.00000000000E+00 0. -1.
          1    1    1    2  502    0  0.16396006582E+03 -0.24744145092E+03  0.23034745627E+04  0.23225213101E+04  0.00000000000E+00 0. -1.
         22    1    3    3    0    0 -0.57768639191E+02  0.89395022503E+02  0.39660090731E+03  0.41063483219E+03  0.00000000000E+00 0.  1.
         22    1    3    3    0    0 -0.54127958757E+01  0.92715745439E+02  0.99670817203E+02  0.13623428208E+03  0.00000000000E+00 0.  1.
</event>
<event>
 7    1  0.7459264E-005  0.1088941E+03  0.7818608E-02  0.1401389E+00
          2   -1    0    0  502    0  0.00000000000E+00  0.00000000000E+00  0.20143755641E+03  0.20143755641E+03  0.00000000000E+00 0. -1.
          1   -1    0    0  501    0 -0.00000000000E+00 -0.00000000000E+00 -0.13310578392E+04  0.13310578392E+04  0.00000000000E+00 0. -1.
         25    2    1    2    0    0  0.61234500363E+02  0.50994436465E+02 -0.57178545757E+03  0.59068941067E+03  0.12500109524E+03 0.  0.
          2    1    1    2  501    0  0.31045067915E+02  0.83210989045E+01 -0.73376959028E+03  0.73447317755E+03  0.00000000000E+00 0. -1.
          1    1    1    2  502    0 -0.92279568278E+02 -0.59315535369E+02  0.17593476506E+03  0.20733280738E+03  0.00000000000E+00 0. -1.
         22    1    3    3    0    0  0.44606231568E+02  0.90733141730E+02 -0.33158014916E+03  0.34665200738E+03  0.00000000000E+00 0. -1.
         22    1    3    3    0    0  0.16628268795E+02 -0.39738705265E+02 -0.24020530841E+03  0.24403740330E+03  0.00000000000E+00 0. -1.
</event>
<event>
 7    1  0.7459264E-005  0.1498637E+03  0.7818608E-02  0.1219665E+00
          2   -1    0    0  502    0  0.00000000000E+00  0.00000000000E+00  0.46469250556E+03  0.46469250556E+03  0.00000000000E+00 0. -1.
          1   -1    0    0  501    0 -0.00000000000E+00 -0.00000000000E+00 -0.69897761457E+03  0.69897761457E+03  0.00000000000E+00 0. -1.
         25    2    1    2    0    0 -0.18766716308E+03 -0.23681761509E+02  0.10066735581E+03  0.24808120241E+03  0.12502230416E+03 0.  0.
          2    1    1    2  501    0  0.12575042628E+03 -0.81810894527E+02 -0.60277059982E+03  0.62115906834E+03  0.00000000000E+00 0. -1.
          1    1    1    2  502    0  0.61916736799E+02  0.10549265604E+03  0.26781813499E+03  0.29442984938E+03  0.00000000000E+00 0. -1.
         22    1    3    3    0    0 -0.19550615233E+03 -0.13712935793E+02  0.11634340842E+03  0.22791772395E+03  0.00000000000E+00 0.  1.
         22    1    3    3    0    0  0.78389892467E+01 -0.99688257160E+01 -0.15676052605E+02  0.20163478466E+02  0.00000000000E+00 0.  1.
</event>
<event>
 7    1  0.7459264E-005  0.6635197E+02  0.7818608E-02  0.1375720E+00
          2   -1    0    0  502    0  0.00000000000E+00  0.00000000000E+00  0.28575262736E+03  0.28575262736E+03  0.00000000000E+00 0. -1.
          1   -1    0    0  501    0 -0.00000000000E+00 -0.00000000000E+00 -0.31442348828E+03  0.31442348828E+03  0.00000000000E+00 0. -1.
         25    2    1    2    0    0 -0.10281530854E+03 -0.58765032682E+02  0.74981795578E+02  0.18780733415E+03  0.12500003343E+03 0.  0.
          2    1    1    2  501    0  0.64695069723E+02  0.62878998799E+01 -0.24679799825E+03  0.25521410946E+03  0.00000000000E+00 0. -1.
          1    1    1    2  502    0  0.38120238813E+02  0.52477132802E+02  0.14314534175E+03  0.15715467202E+03  0.00000000000E+00 0. -1.
         22    1    3    3    0    0 -0.10599300533E+03 -0.78286015573E+02  0.92815231204E+02  0.16117656330E+03  0.00000000000E+00 0.  1.
         22    1    3    3    0    0  0.31776967916E+01  0.19520982891E+02 -0.17833435627E+02  0.26630770852E+02  0.00000000000E+00 0.  1.
</event>
<event>
 7    1  0.7459264E-005  0.2089499E+03  0.7818608E-02  0.1322282E+00
          2   -1    0    0  502    0  0.00000000000E+00  0.00000000000E+00  0.94254241420E+03  0.94254241420E+03  0.00000000000E+00 0. -1.
          1   -1    0    0  501    0 -0.00000000000E+00 -0.00000000000E+00 -0.28452798343E+03  0.28452798343E+03  0.00000000000E+00 0. -1.
         25    2    1    2    0    0  0.14662400072E+03 -0.16625997523E+03  0.17639568448E+03  0.30964782585E+03  0.12500144640E+03 0.  0.
          2    1    1    2  501    0 -0.11461752542E+03  0.17202605845E+03 -0.16837922197E+03  0.26661152322E+03  0.00000000000E+00 0. -1.
          1    1    1    2  502    0 -0.32006475299E+02 -0.57660832258E+01  0.64999796826E+03  0.65081104856E+03  0.00000000000E+00 0. -1.
         22    1    3    3    0    0  0.61780705367E+02 -0.67979557231E+02  0.15563135598E+01  0.91872182236E+02  0.00000000000E+00 0. -1.
         22    1    3    3    0    0  0.84843295349E+02 -0.98280417997E+02  0.17483937092E+03  0.21777564361E+03  0.00000000000E+00 0. -1.
</event>
<event>
 7    1  0.7459264E-005  0.1773943E+03  0.7818608E-02  0.1189531E+00
          2   -1    0    0  502    0  0.00000000000E+00  0.00000000000E+00  0.88279419787E+03  0.88279419787E+03  0.00000000000E+00 0. -1.
          1   -1    0    0  501    0 -0.00000000000E+00 -0.00000000000E+00 -0.21033770022E+03  0.21033770022E+03  0.00000000000E+00 0. -1.
         25    2    1    2    0    0  0.23544913366E+03 -0.16724637273E+03  0.33135086757E+03  0.45697437724E+03  0.12499816113E+03 0.  0.
          2    1    1    2  501    0 -0.91437940423E+02  0.10992650560E+03 -0.96107202178E+02  0.17228269760E+03  0.00000000000E+00 0. -1.
          1    1    1    2  502    0 -0.14401119324E+03  0.57319867126E+02  0.43721283226E+03  0.46387482324E+03  0.00000000000E+00 0. -1.
         22    1    3    3    0    0  0.17397567453E+03 -0.62002244953E+02  0.14736630811E+03  0.23628085508E+03  0.00000000000E+00 0. -1.
         22    1    3    3    0    0  0.61473459126E+02 -0.10524412777E+03  0.18398455946E+03  0.22069352217E+03  0.00000000000E+00 0. -1.
</event>
<event>
 7    1  0.7459264E-005  0.5422538E+03  0.7818608E-02  0.1104189E+00
          2   -1    0    0  502    0  0.00000000000E+00  0.00000000000E+00  0.25750353694E+04  0.25750353694E+04  0.00000000000E+00 0. -1.
          1   -1    0    0  501    0 -0.00000000000E+00 -0.00000000000E+00 -0.79737023442E+03  0.79737023442E+03  0.00000000000E+00 0. -1.
         25    2    1    2    0    0 -0.56155950694E+03  0.67849740745E+02 -0.16526510453E+03  0.60240358599E+03  0.12499943391E+03 0.  0.
          2    1    1    2  501    0  0.49842141940E+03 -0.18089761926E+03 -0.24086049654E+03  0.58237585696E+03  0.00000000000E+00 0. -1.
          1    1    1    2  502    0  0.63138087541E+02  0.11304787852E+03  0.21837907361E+04  0.21876261609E+04  0.00000000000E+00 0. -1.
         22    1    3    3    0    0  0.54061318698E+01  0.72345978323E+01 -0.14959687112E+01  0.91544300737E+01  0.00000000000E+00 0. -1.
         22    1    3    3    0    0 -0.56696563881E+03  0.60615142913E+02 -0.16376913582E+03  0.59324915591E+03  0.00000000000E+00 0. -1.
</event>
<event>
 7    1  0.7459264E-005  0.9348618E+02  0.7818608E-02  0.1295289E+00
          2   -1    0    0  502    0  0.00000000000E+00  0.00000000000E+00  0.42667272203E+03  0.42667272203E+03  0.00000000000E+00 0. -1.
          1   -1    0    0  501    0 -0.00000000000E+00 -0.00000000000E+00 -0.18852038107E+03  0.18852038107E+03  0.00000000000E+00 0. -1.
         25    2    1    2    0    0  0.95188501040E+02  0.26721810174E+02  0.12009217287E+03  0.19955426531E+03  0.12499947580E+03 0.  0.
          2    1    1    2  501    0 -0.62278189407E+02  0.68945961402E+02 -0.12303654310E+03  0.15417557980E+03  0.00000000000E+00 0. -1.
          1    1    1    2  502    0 -0.32910311633E+02 -0.95667771576E+02  0.24109671119E+03  0.26146325799E+03  0.00000000000E+00 0. -1.
         22    1    3    3    0    0  0.54934161942E+02 -0.15134178756E+02  0.12879247896E+03  0.14083432874E+03  0.00000000000E+00 0. -1.
         22    1    3    3    0    0  0.40254339098E+02  0.41855988931E+02 -0.87003060872E+01  0.58719936577E+02  0.00000000000E+00 0. -1.
</event>
<event>
 7    1  0.7459264E-005  0.5478079E+03  0.7818608E-02  0.1128106E+00
          2   -1    0    0  502    0  0.00000000000E+00  0.00000000000E+00  0.67414213919E+03  0.67414213919E+03  0.00000000000E+00 0. -1.
          1   -1    0    0  501    0 -0.00000000000E+00 -0.00000000000E+00 -0.15038127357E+04  0.15038127357E+04  0.00000000000E+00 0. -1.
         25    2    1    2    0    0  0.59061970560E+03 -0.66469939407E+02 -0.51477202974E+01  0.60737178594E+03  0.12499639131E+03 0.  0.
          2    1    1    2  501    0 -0.52271080201E+03  0.13266823786E+03 -0.11292647381E+04  0.12514257040E+04  0.00000000000E+00 0. -1.
          1    1    1    2  502    0 -0.67908903590E+02 -0.66198298449E+02  0.30474186196E+03  0.31915738490E+03  0.00000000000E+00 0. -1.
         22    1    3    3    0    0  0.18268573551E+03 -0.67717397663E+02  0.33186427134E+02  0.19763871799E+03  0.00000000000E+00 0. -1.
         22    1    3    3    0    0  0.40793397009E+03  0.12474582559E+01 -0.38334147432E+02  0.40973306794E+03  0.00000000000E+00 0. -1.
</event>
<event>
 7    1  0.7459264E-005  0.6618658E+03  0.7818608E-02  0.1077921E+00
          2   -1    0    0  502    0  0.00000000000E+00  0.00000000000E+00  0.17597312203E+04  0.17597312203E+04  0.00000000000E+00 0. -1.
          1   -1    0    0  501    0 -0.00000000000E+00 -0.00000000000E+00 -0.67244540322E+03  0.67244540322E+03  0.00000000000E+00 0. -1.
         25    2    1    2    0    0  0.27833620623E+02 -0.55634552156E+03  0.50039205626E+03  0.75914329616E+03  0.12494512534E+03 0.  0.
          2    1    1    2  501    0 -0.84826786011E+02  0.69512177472E+03 -0.30845537567E+03  0.76520231580E+03  0.00000000000E+00 0. -1.
          1    1    1    2  502    0  0.56993165388E+02 -0.13877625317E+03  0.89534913644E+03  0.90783101152E+03  0.00000000000E+00 0. -1.
         22    1    3    3    0    0  0.10246642098E+02 -0.47381580236E+03  0.47507139841E+03  0.67104339787E+03  0.00000000000E+00 0.  1.
         22    1    3    3    0    0  0.17586978525E+02 -0.82529719203E+02  0.25320657849E+02  0.88099898293E+02  0.00000000000E+00 0.  1.
</event>
<event>
 7    1  0.7459264E-005  0.6542054E+02  0.7818608E-02  0.1514721E+00
          2   -1    0    0  502    0  0.00000000000E+00  0.00000000000E+00  0.24209023603E+03  0.24209023603E+03  0.00000000000E+00 0. -1.
          1   -1    0    0  501    0 -0.00000000000E+00 -0.00000000000E+00 -0.12679005144E+03  0.12679005144E+03  0.00000000000E+00 0. -1.
         25    2    1    2    0    0  0.13273900291E+02 -0.78104194998E+02  0.54770380899E+02  0.15780399753E+03  0.12500338118E+03 0.  0.
          2    1    1    2  501    0  0.51694026499E+01  0.63696833537E+02 -0.60381959976E+02  0.87920364063E+02  0.00000000000E+00 0. -1.
          1    1    1    2  502    0 -0.18443302941E+02  0.14407361461E+02  0.12091176366E+03  0.12315592588E+03  0.00000000000E+00 0. -1.
         22    1    3    3    0    0  0.56966187422E+02 -0.46758443713E+02  0.70281691446E+02  0.10183817909E+03  0.00000000000E+00 0. -1.
         22    1    3    3    0    0 -0.43692287132E+02 -0.31345751284E+02 -0.15511310547E+02  0.55965818436E+02  0.00000000000E+00 0. -1.
</event>
<event>
 7    1  0.7459264E-005  0.1661147E+03  0.7818608E-02  0.1294383E+00
          2   -1    0    0  502    0  0.00000000000E+00  0.00000000000E+00  0.36577767764E+03  0.36577767764E+03  0.00000000000E+00 0. -1.
          1   -1    0    0  501    0 -0.00000000000E+00 -0.00000000000E+00 -0.14061598319E+04  0.14061598319E+04  0.00000000000E+00 0. -1.
         25    2    1    2    0    0 -0.12846848621E+03  0.16059714394E+03  0.11411582763E+03  0.26635130609E+03  0.12500000621E+03 0.  0.
          2    1    1    2  501    0  0.77917142534E+02 -0.14559816343E+03 -0.13208213889E+04  0.13311044466E+04  0.00000000000E+00 0. -1.
          1    1    1    2  502    0  0.50551343678E+02 -0.14998980507E+02  0.16632340701E+03  0.17448175688E+03  0.00000000000E+00 0. -1.
         22    1    3    3    0    0 -0.13104915326E+03  0.13105966496E+03  0.44386379859E+02  0.19057981810E+03  0.00000000000E+00 0. -1.
         22    1    3    3    0    0  0.25806670458E+01  0.29537478976E+02  0.69729447769E+02  0.75771487994E+02  0.00000000000E+00 0. -1.
</event>
<event>
 7    1  0.7459264E-005  0.2925944E+02  0.7818608E-02  0.1616197E+00
          2   -1    0    0  502    0  0.00000000000E+00  0.00000000000E+00  0.72469689782E+03  0.72469689782E+03  0.00000000000E+00 0. -1.
          1   -1    0    0  501    0 -0.00000000000E+00 -0.00000000000E+00 -0.27006985515E+02  0.27006985515E+02  0.00000000000E+00 0. -1.
         25    2    1    2    0    0  0.38501556797E+02  0.42368618077E+01  0.30373705365E+03  0.33072891960E+03  0.12500039851E+03 0.  0.
          2    1    1    2  501    0 -0.20282114673E+02  0.18736047796E+02  0.17386737025E+01  0.27666345058E+02  0.00000000000E+00 0. -1.
          1    1    1    2  502    0 -0.18219442124E+02 -0.22972909604E+02  0.39221418495E+03  0.39330861867E+03  0.00000000000E+00 0. -1.
         22    1    3    3    0    0  0.15829430062E+02 -0.54148709140E+02  0.21389400331E+03  0.22120872092E+03  0.00000000000E+00 0. -1.
         22    1    3    3    0    0  0.22672126735E+02  0.58385570947E+02  0.89843050344E+02  0.10952019869E+03  0.00000000000E+00 0. -1.
</event>
<event>
 7    1  0.7459264E-005  0.4735393E+02  0.7818608E-02  0.1485000E+00
          2   -1    0    0  502    0  0.00000000000E+00  0.00000000000E+00  0.19194566857E+04  0.19194566857E+04  0.00000000000E+00 0. -1.
          1   -1    0    0  501    0 -0.00000000000E+00 -0.00000000000E+00 -0.14471660707E+03  0.14471660707E+03  0.00000000000E+00 0. -1.
         25    2    1    2    0    0  0.44479389138E+02  0.22652783054E+02 -0.10466877776E+03  0.17050447140E+03  0.12499862835E+03 0.  0.
          2    1    1    2  501    0 -0.32224374740E+02  0.23120072933E+02  0.50810483054E+02  0.64456600035E+02  0.00000000000E+00 0. -1.
          1    1    1    2  502    0 -0.12255014398E+02 -0.45772855987E+02  0.18285983734E+04  0.18292122214E+04  0.00000000000E+00 0. -1.
         22    1    3    3    0    0 -0.38012889838E+02 -0.16034313606E+02 -0.47614055029E+02  0.63001406674E+02  0.00000000000E+00 0. -1.
         22    1    3    3    0    0  0.82492278976E+02  0.38687096661E+02 -0.57054722732E+02  0.10750306472E+03  0.00000000000E+00 0. -1.
</event>
<event>
 7    1  0.7459264E-005  0.1372918E+03  0.7818608E-02  0.1250731E+00
          2   -1    0    0  502    0  0.00000000000E+00  0.00000000000E+00  0.17895274833E+04  0.17895274833E+04  0.00000000000E+00 0. -1.
          1   -1    0    0  501    0 -0.00000000000E+00 -0.00000000000E+00 -0.60035078840E+02  0.60035078840E+02  0.00000000000E+00 0. -1.
         25    2    1    2    0    0  0.12189575591E+03 -0.13101493936E+03  0.35093759915E+03  0.41328510311E+03  0.12499555316E+03 0.  0.
          2    1    1    2  501    0  0.90596614414E+01  0.96724483577E+02  0.67602793945E+02  0.11835472503E+03  0.00000000000E+00 0. -1.
          1    1    1    2  502    0 -0.13095541735E+03  0.34290455780E+02  0.13109520113E+04  0.13179227340E+04  0.00000000000E+00 0. -1.
         22    1    3    3    0    0 -0.14147018991E+02 -0.23760639003E+02  0.12799135521E+03  0.13094461853E+03  0.00000000000E+00 0.  1.
         22    1    3    3    0    0  0.13604277490E+03 -0.10725430035E+03  0.22294624393E+03  0.28234048458E+03  0.00000000000E+00 0.  1.
</event>
<event>
 7    1  0.7459264E-005  0.3081365E+03  0.7818608E-02  0.1269378E+00
          2   -1    0    0  502    0  0.00000000000E+00  0.00000000000E+00  0.55401310648E+03  0.55401310648E+03  0.00000000000E+00 0. -1.
          1   -1    0    0  501    0 -0.00000000000E+00 -0.00000000000E+00 -0.16474410467E+04  0.16474410467E+04  0.00000000000E+00 0. -1.
         25    2    1    2    0    0 -0.20212572859E+03  0.22610957046E+03  0.32735192466E+03  0.46343717042E+03  0.12503751572E+03 0.  0.
          2    1    1    2  501    0 -0.34721176574E+02 -0.96503884987E+01 -0.14166725748E+04  0.14171308600E+04  0.00000000000E+00 0. -1.
          1    1    1    2  502    0  0.23684690516E+03 -0.21645918196E+03 -0.41072900434E+01  0.32088612274E+03  0.00000000000E+00 0. -1.
         22    1    3    3    0    0 -0.17939571442E+03  0.17074717392E+03  0.18535663403E+03  0.30934527883E+03  0.00000000000E+00 0. -1.
         22    1    3    3    0    0 -0.22730014171E+02  0.55362396540E+02  0.14199529063E+03  0.15409189159E+03  0.00000000000E+00 0. -1.
</event>
<event>
 7    1  0.7459264E-005  0.6433442E+02  0.7818608E-02  0.1495903E+00
          2   -1    0    0  502    0  0.00000000000E+00  0.00000000000E+00  0.42114732287E+03  0.42114732287E+03  0.00000000000E+00 0. -1.
          1   -1    0    0  501    0 -0.00000000000E+00 -0.00000000000E+00 -0.49938128835E+03  0.49938128835E+03  0.00000000000E+00 0. -1.
         25    2    1    2    0    0  0.66014522837E+02 -0.62254103761E+02 -0.21389621794E+03  0.26383684291E+03  0.12499918786E+03 0.  0.
          2    1    1    2  501    0 -0.22063821596E+02  0.15663733296E+02 -0.25721173868E+03  0.25863109496E+03  0.00000000000E+00 0. -1.
          1    1    1    2  502    0 -0.43950701240E+02  0.46590370465E+02  0.39287399114E+03  0.39806067336E+03  0.00000000000E+00 0. -1.
         22    1    3    3    0    0  0.32716164152E+02 -0.22324509539E+02 -0.20773974352E+03  0.21148175373E+03  0.00000000000E+00 0.  1.
         22    1    3    3    0    0  0.33298358684E+02 -0.39929594222E+02 -0.61564744215E+01  0.52355089181E+02  0.00000000000E+00 0.  1.
</event>
<event>
 7    1  0.1037261E-004  0.1162085E+04  0.7818608E-02  0.1103664E+00
          2   -1    0    0  502    0  0.00000000000E+00  0.00000000000E+00  0.14246940674E+04  0.14246940674E+04  0.00000000000E+00 0. -1.
          1   -1    0    0  501    0 -0.00000000000E+00 -0.00000000000E+00 -0.17600899218E+04  0.17600899218E+04  0.00000000000E+00 0. -1.
         25    2    1    2    0    0  0.83287872742E+03  0.82450237230E+03 -0.87166488432E+03  0.14659180913E+04  0.12500017378E+03 0.  0.
          2    1    1    2  501    0 -0.77472906803E+03 -0.84236014983E+03 -0.34392914108E+02  0.11449710142E+04  0.00000000000E+00 0. -1.
          1    1    1    2  502    0 -0.58149659387E+02  0.17857777531E+02  0.57066194403E+03  0.57389488364E+03  0.00000000000E+00 0. -1.
         22    1    3    3    0    0  0.86334525898E+02  0.60180938745E+02 -0.42481430833E+02  0.11349038601E+03  0.00000000000E+00 0.  1.
         22    1    3    3    0    0  0.74654420152E+03  0.76432143355E+03 -0.82918345349E+03  0.13524277053E+04  0.00000000000E+00 0.  1.
</event>
<event>
 7    1  0.7459264E-005  0.5519502E+03  0.7818608E-02  0.1202199E+00
          2   -1    0    0  502    0  0.00000000000E+00  0.00000000000E+00  0.17473013687E+04  0.17473013687E+04  0.00000000000E+00 0. -1.
          1   -1    0    0  501    0 -0.00000000000E+00 -0.00000000000E+00 -0.33529235388E+03  0.33529235388E+03  0.00000000000E+00 0. -1.
         25    2    1    2    0    0  0.25868868682E+03  0.50162549007E+03  0.15215801258E+03  0.59776690330E+03  0.12500096365E+03 0.  0.
          2    1    1    2  501    0 -0.22393104003E+03 -0.48180971194E+03  0.51844319279E+03  0.74234025443E+03  0.00000000000E+00 0. -1.
          1    1    1    2  502    0 -0.34757646788E+02 -0.19815778133E+02  0.74140780942E+03  0.74248656483E+03  0.00000000000E+00 0. -1.
         22    1    3    3    0    0  0.26568696661E+03  0.50451609942E+03  0.14784802183E+03  0.58905440866E+03  0.00000000000E+00 0. -1.
         22    1    3    3    0    0 -0.69982797961E+01 -0.28906093532E+01  0.43099907531E+01  0.87124946387E+01  0.00000000000E+00 0. -1.
</event>
<event>
 7    1  0.7459264E-005  0.3777836E+03  0.7818608E-02  0.1263986E+00
          2   -1    0    0  502    0  0.00000000000E+00  0.00000000000E+00  0.23050418424E+03  0.23050418424E+03  0.00000000000E+00 0. -1.
          1   -1    0    0  501    0 -0.00000000000E+00 -0.00000000000E+00 -0.18337752051E+04  0.18337752051E+04  0.00000000000E+00 0. -1.
         25    2    1    2    0    0  0.21593253233E+03 -0.33006648295E+03 -0.69098261774E+03  0.80538527691E+03  0.12497089492E+03 0.  0.
          2    1    1    2  501    0 -0.21577074944E+03  0.29909159090E+03 -0.10525301143E+04  0.11152723603E+04  0.00000000000E+00 0. -1.
          1    1    1    2  502    0 -0.16178288988E+00  0.30974892050E+02  0.14024171123E+03  0.14362175211E+03  0.00000000000E+00 0. -1.
         22    1    3    3    0    0  0.73506499138E+02 -0.95810123283E+02 -0.33478765247E+03  0.35590104999E+03  0.00000000000E+00 0.  1.
         22    1    3    3    0    0  0.14242603319E+03 -0.23425635966E+03 -0.35619496527E+03  0.44948422692E+03  0.00000000000E+00 0.  1.
</event>
<event>
 7    1  0.7459264E-005  0.5975046E+03  0.7818608E-02  0.1139594E+00
          2   -1    0    0  502    0  0.00000000000E+00  0.00000000000E+00  0.11191554912E+04  0.11191554912E+04  0.00000000000E+00 0. -1.
          1   -1    0    0  501    0 -0.00000000000E+00 -0.00000000000E+00 -0.18138430201E+04  0.18138430201E+04  0.00000000000E+00 0. -1.
         25    2    1    2    0    0 -0.65059772696E+03 -0.29872717386E+02 -0.37814232005E+03  0.76340449126E+03  0.12500008598E+03 0.  0.
          2    1    1    2  501    0  0.57873411128E+03  0.64585964772E+01 -0.11739484627E+04  0.13088658748E+04  0.00000000000E+00 0. -1.
          1    1    1    2  502    0  0.71863615686E+02  0.23414120909E+02  0.85740325387E+03  0.86072814527E+03  0.00000000000E+00 0. -1.
         22    1    3    3    0    0 -0.57861549421E+03  0.87738849371E+01 -0.30701777013E+03  0.65508227145E+03  0.00000000000E+00 0. -1.
         22    1    3    3    0    0 -0.71982232754E+02 -0.38646602323E+02 -0.71124549924E+02  0.10832221981E+03  0.00000000000E+00 0. -1.
</event>
<event>
 7    1  0.7459264E-005  0.1852745E+03  0.7818608E-02  0.1272767E+00
          2   -1    0    0  502    0  0.00000000000E+00  0.00000000000E+00  0.23096583151E+03  0.23096583151E+03  0.00000000000E+00 0. -1.
          1   -1    0    0  501    0 -0.00000000000E+00 -0.00000000000E+00 -0.11591230827E+04  0.11591230827E+04  0.00000000000E+00 0. -1.
         25    2    1    2    0    0 -0.10309097530E+02 -0.22752710036E+03 -0.43408508952E+03  0.50589492776E+03  0.12499981642E+03 0.  0.
          2    1    1    2  501    0 -0.78146784704E+01  0.17242564562E+03 -0.67368628084E+03  0.69544581203E+03  0.00000000000E+00 0. -1.
          1    1    1    2  502    0  0.18123776000E+02  0.55101454731E+02  0.17961411913E+03  0.18874817446E+03  0.00000000000E+00 0. -1.
         22    1    3    3    0    0 -0.64310910880E+02 -0.11209821065E+03 -0.25770355860E+03  0.28829329892E+03  0.00000000000E+00 0. -1.
         22    1    3    3    0    0  0.54001813351E+02 -0.11542888971E+03 -0.17638153092E+03  0.21760162884E+03  0.00000000000E+00 0. -1.
</event>
<event>
 7    1  0.7459264E-005  0.3953556E+03  0.7818608E-02  0.1102297E+00
          2   -1    0    0  502    0  0.00000000000E+00  0.00000000000E+00  0.17653286577E+04  0.17653286577E+04  0.00000000000E+00 0. -1.
          1   -1    0    0  501    0 -0.00000000000E+00 -0.00000000000E+00 -0.24594221655E+04  0.24594221655E+04  0.00000000000E+00 0. -1.
         25    2    1    2    0    0 -0.25796937178E+03 -0.49690418838E+03 -0.16096340308E+03  0.59581567424E+03  0.12500052533E+03 0.  0.
          2    1    1    2  501    0  0.20425642550E+03  0.32302947533E+03 -0.20580289992E+04  0.20932157297E+04  0.00000000000E+00 0. -1.
          1    1    1    2  502    0  0.53712946280E+02  0.17387471305E+03  0.15248988945E+04  0.15357194194E+04  0.00000000000E+00 0. -1.
         22    1    3    3    0    0 -0.24301666331E+03 -0.37706135868E+03 -0.15600451154E+03  0.47494186432E+03  0.00000000000E+00 0. -1.
         22    1    3    3    0    0 -0.14952708469E+02 -0.11984282969E+03 -0.49588915402E+01  0.12087380992E+03  0.00000000000E+00 0. -1.
</event>
<event>
 7    1  0.7459264E-005  0.1254287E+03  0.7818608E-02  0.1239586E+00
          2   -1    0    0  502    0  0.00000000000E+00  0.00000000000E+00  0.86652710469E+03  0.86652710469E+03  0.00000000000E+00 0. -1.
          1   -1    0    0  501    0 -0.00000000000E+00 -0.00000000000E+00 -0.12028848387E+04  0.12028848387E+04  0.00000000000E+00 0. -1.
         25    2    1    2    0    0 -0.13953945729E+03 -0.15839259151E+03  0.60106509876E+02  0.25255520352E+03  0.12494744940E+03 0.  0.
          2    1    1    2  501    0  0.11222637045E+03  0.39467276838E+02 -0.10981830521E+04  0.11046078219E+04  0.00000000000E+00 0. -1.
          1    1    1    2  502    0  0.27313086841E+02  0.11892531468E+03  0.70171880829E+03  0.71224891793E+03  0.00000000000E+00 0. -1.
         22    1    3    3    0    0 -0.12253005501E+03 -0.15426751258E+03  0.91030125912E+02  0.21702203492E+03  0.00000000000E+00 0.  1.
         22    1    3    3    0    0 -0.17009402282E+02 -0.41250789338E+01 -0.30923616036E+02  0.35533168602E+02  0.00000000000E+00 0.  1.
</event>
<event>
 7    1  0.7459264E-005  0.2916252E+03  0.7818608E-02  0.1255042E+00
          2   -1    0    0  502    0  0.00000000000E+00  0.00000000000E+00  0.21508120008E+03  0.21508120008E+03  0.00000000000E+00 0. -1.
          1   -1    0    0  501    0 -0.00000000000E+00 -0.00000000000E+00 -0.62524169789E+03  0.62524169789E+03  0.00000000000E+00 0. -1.
         25    2    1    2    0    0 -0.15782111262E+03  0.27216174345E+03 -0.26002891316E+03  0.42687260516E+03  0.12500266867E+03 0.  0.
          2    1    1    2  501    0  0.12564035971E+03 -0.24242493923E+03 -0.20629434250E+03  0.34221733869E+03  0.00000000000E+00 0. -1.
          1    1    1    2  502    0  0.32180752909E+02 -0.29736804216E+02  0.56162757853E+02  0.71232954118E+02  0.00000000000E+00 0. -1.
         22    1    3    3    0    0 -0.26504517297E+02  0.16161675960E+03 -0.15585885908E+03  0.22608505120E+03  0.00000000000E+00 0.  1.
         22    1    3    3    0    0 -0.13131659532E+03  0.11054498385E+03 -0.10417005408E+03  0.20078755397E+03  0.00000000000E+00 0.  1.
</event>
<event>
 7    1  0.7459264E-005  0.7841864E+03  0.7818608E-02  0.1127567E+00
          2   -1    0    0  502    0  0.00000000000E+00  0.00000000000E+00  0.15147619752E+04  0.15147619752E+04  0.00000000000E+00 0. -1.
          1   -1    0    0  501    0 -0.00000000000E+00 -0.00000000000E+00 -0.27005296346E+04  0.27005296346E+04  0.00000000000E+00 0. -1.
         25    2    1    2    0    0 -0.52101458944E+03 -0.58780560525E+03 -0.16513275185E+02  0.79552725840E+03  0.12497719240E+03 0.  0.
          2    1    1    2  501    0  0.52371792530E+02 -0.41290055102E+02 -0.21572096345E+04  0.21582402741E+04  0.00000000000E+00 0. -1.
          1    1    1    2  502    0  0.46864279691E+03  0.62909566035E+03  0.98795525036E+03  0.12615240773E+04  0.00000000000E+00 0. -1.
         22    1    3    3    0    0 -0.34612645922E+03 -0.30715199362E+03  0.17558783129E+02  0.46309198203E+03  0.00000000000E+00 0.  1.
         22    1    3    3    0    0 -0.17488813022E+03 -0.28065361163E+03 -0.34072058315E+02  0.33243527637E+03  0.00000000000E+00 0.  1.
</event>
<event>
 7    1  0.7459264E-005  0.1620319E+03  0.7818608E-02  0.1228179E+00
          2   -1    0    0  502    0  0.00000000000E+00  0.00000000000E+00  0.94192116271E+03  0.94192116271E+03  0.00000000000E+00 0. -1.
          1   -1    0    0  501    0 -0.00000000000E+00 -0.00000000000E+00 -0.12131371337E+04  0.12131371337E+04  0.00000000000E+00 0. -1.
         25    2    1    2    0    0  0.18159578290E+03 -0.13852839925E+03  0.21996514431E+03  0.34084605485E+03  0.12499689048E+03 0.  0.
          2    1    1    2  501    0 -0.78100877647E+02  0.14086985667E+03 -0.11429649307E+04  0.11542585917E+04  0.00000000000E+00 0. -1.
          1    1    1    2  502    0 -0.10349490525E+03 -0.23414574198E+01  0.65178381546E+03  0.65995364984E+03  0.00000000000E+00 0. -1.
         22    1    3    3    0    0  0.20902792478E+02 -0.20941137855E+01  0.91732072103E+02  0.94106774986E+02  0.00000000000E+00 0. -1.
         22    1    3    3    0    0  0.16069299042E+03 -0.13643428547E+03  0.12823307221E+03  0.24673927987E+03  0.00000000000E+00 0. -1.
</event>
<event>
 7    1  0.7459264E-005  0.1235522E+03  0.7818608E-02  0.1253167E+00
          2   -1    0    0  502    0  0.00000000000E+00  0.00000000000E+00  0.46035581281E+03  0.46035581281E+03  0.00000000000E+00 0. -1.
          1   -1    0    0  501    0 -0.00000000000E+00 -0.00000000000E+00 -0.80976507587E+03  0.80976507587E+03  0.00000000000E+00 0. -1.
         25    2    1    2    0    0  0.13208866659E+03  0.15484584138E+03 -0.38546369893E+03  0.45346644367E+03  0.12499960762E+03 0.  0.
          2    1    1    2  501    0 -0.98537085082E+02 -0.37310329184E+02 -0.37411025882E+03  0.38866451286E+03  0.00000000000E+00 0. -1.
          1    1    1    2  502    0 -0.33551581511E+02 -0.11753551220E+03  0.41016469469E+03  0.42798993215E+03  0.00000000000E+00 0. -1.
         22    1    3    3    0    0  0.82719709625E+02  0.13216296884E+03 -0.16751009975E+03  0.22884325249E+03  0.00000000000E+00 0.  1.
         22    1    3    3    0    0  0.49368956968E+02  0.22682872545E+02 -0.21795359918E+03  0.22462319118E+03  0.00000000000E+00 0.  1.
</event>
<event>
 7    1  0.7459264E-005  0.5849869E+03  0.7818608E-02  0.1135379E+00
          2   -1    0    0  502    0  0.00000000000E+00  0.00000000000E+00  0.24468500296E+04  0.24468500296E+04  0.00000000000E+00 0. -1.
          1   -1    0    0  501    0 -0.00000000000E+00 -0.00000000000E+00 -0.18883310803E+04  0.18883310803E+04  0.00000000000E+00 0. -1.
         25    2    1    2    0    0 -0.60800841866E+03  0.61475537338E+02  0.11116940849E+04  0.12747319122E+04  0.12499692311E+03 0.  0.
          2    1    1    2  501    0  0.54950897788E+02  0.59840711715E+02 -0.17418850045E+04  0.17437786215E+04  0.00000000000E+00 0. -1.
          1    1    1    2  502    0  0.55305752087E+03 -0.12131624905E+03  0.11887098689E+04  0.13166705762E+04  0.00000000000E+00 0. -1.
         22    1    3    3    0    0 -0.16024109065E+03  0.13776920366E+02  0.19008918019E+03  0.24899981344E+03  0.00000000000E+00 0.  1.
         22    1    3    3    0    0 -0.44776732801E+03  0.47698616971E+02  0.92160490470E+03  0.10257320988E+04  0.00000000000E+00 0.  1.
</event>
<event>
 7    1  0.7459264E-005  0.4711422E+03  0.7818608E-02  0.1129903E+00
          2   -1    0    0  502    0  0.00000000000E+00  0.00000000000E+00  0.15253889163E+04  0.15253889163E+04  0.00000000000E+00 0. -1.
          1   -1    0    0  501    0 -0.00000000000E+00 -0.00000000000E+00 -0.12854958174E+04  0.12854958174E+04  0.00000000000E+00 0. -1.
         25    2    1    2    0    0  0.36399199113E+03 -0.26944155442E+03  0.11177591406E+04  0.12124766701E+04  0.12500103376E+03 0.  0.
          2    1    1    2  501    0 -0.30558829607E+03  0.36011736621E+03 -0.11835215421E+04  0.12742809599E+04  0.00000000000E+00 0. -1.
          1    1    1    2  502    0 -0.58403695054E+02 -0.90675811789E+02  0.30565550042E+03  0.32412710373E+03  0.00000000000E+00 0. -1.
         22    1    3    3    0    0  0.21308487368E+03 -0.14752949969E+03  0.79199774331E+03  0.83332499187E+03  0.00000000000E+00 0.  1.
         22    1    3    3    0    0  0.15090711745E+03 -0.12191205473E+03  0.32576139726E+03  0.37915167826E+03  0.00000000000E+00 0.  1.
</event>
<event>
 7    1  0.7459264E-005  0.4934359E+02  0.7818608E-02  0.1483352E+00
          2   -1    0    0  502    0  0.00000000000E+00  0.00000000000E+00  0.52078855565E+03  0.52078855565E+03  0.00000000000E+00 0. -1.
          1   -1    0    0  501    0 -0.00000000000E+00 -0.00000000000E+00 -0.21381354518E+03  0.21381354518E+03  0.00000000000E+00 0. -1.
         25    2    1    2    0    0 -0.82388381442E+02  0.15494596709E+02 -0.18316055926E+02  0.15162057525E+03  0.12500157203E+03 0.  0.
          2    1    1    2  501    0  0.43923000748E+02 -0.17227167065E+02 -0.12367423709E+03  0.13236813136E+03  0.00000000000E+00 0. -1.
          1    1    1    2  502    0  0.38465380694E+02  0.17325703557E+01  0.44896530350E+03  0.45061339422E+03  0.00000000000E+00 0. -1.
         22    1    3    3    0    0 -0.10704474743E+03  0.40154937256E+02 -0.22425552821E+02  0.11650709145E+03  0.00000000000E+00 0. -1.
         22    1    3    3    0    0  0.24656365988E+02 -0.24660340547E+02  0.41094968944E+01  0.35113483797E+02  0.00000000000E+00 0. -1.
</event>
<event>
 7    1  0.7459264E-005  0.4652248E+03  0.7818608E-02  0.1234845E+00
          2   -1    0    0  502    0  0.00000000000E+00  0.00000000000E+00  0.19629019869E+04  0.19629019869E+04  0.00000000000E+00 0. -1.
          1   -1    0    0  501    0 -0.00000000000E+00 -0.00000000000E+00 -0.77455128364E+03  0.77455128364E+03  0.00000000000E+00 0. -1.
         25    2    1    2    0    0  0.45747610855E+03  0.37055552077E+02  0.84565012974E+03  0.97026107501E+03  0.12499963166E+03 0.  0.
          2    1    1    2  501    0  0.13469974634E+02 -0.30850587103E+02 -0.65922621789E+03  0.66008515003E+03  0.00000000000E+00 0. -1.
          1    1    1    2  502    0 -0.47094608319E+03 -0.62049649746E+01  0.10019267914E+04  0.11071070455E+04  0.00000000000E+00 0. -1.
         22    1    3    3    0    0  0.26458459198E+03 -0.13667216204E+02  0.37551680343E+03  0.45957009124E+03  0.00000000000E+00 0. -1.
         22    1    3    3    0    0  0.19289151657E+03  0.50722768281E+02  0.47013332631E+03  0.51069098376E+03  0.00000000000E+00 0. -1.
</event>
<event>
 7    1  0.7459264E-005  0.1479826E+04  0.7818608E-02  0.1058749E+00
          2   -1    0    0  502    0  0.00000000000E+00  0.00000000000E+00  0.28645810308E+04  0.28645810308E+04  0.00000000000E+00 0. -1.
          1   -1    0    0  501    0 -0.00000000000E+00 -0.00000000000E+00 -0.23694898720E+04  0.23694898720E+04  0.00000000000E+00 0. -1.
         25    2    1    2    0    0 -0.14700416758E+04 -0.38523282771E+03  0.11123605107E+04  0.18874318156E+04  0.12500436965E+03 0.  0.
          2    1    1    2  501    0  0.67310464922E+02  0.55711165328E+02 -0.16000783591E+04  0.16024622267E+04  0.00000000000E+00 0. -1.
          1    1    1    2  502    0  0.14027312109E+04  0.32952166238E+03  0.98280900729E+03  0.17441768606E+04  0.00000000000E+00 0. -1.
         22    1    3    3    0    0 -0.13479967672E+04 -0.35615507575E+03  0.97466277096E+03  0.17011493878E+04  0.00000000000E+00 0. -1.
         22    1    3    3    0    0 -0.12204490860E+03 -0.29077751960E+02  0.13769773973E+03  0.18628242778E+03  0.00000000000E+00 0. -1.
</event>
<event>
 7    1  0.7459264E-005  0.3363175E+03  0.7818608E-02  0.1123912E+00
          2   -1    0    0  502    0  0.00000000000E+00  0.00000000000E+00  0.21576459175E+04  0.21576459175E+04  0.00000000000E+00 0. -1.
          1   -1    0    0  501    0 -0.00000000000E+00 -0.00000000000E+00 -0.19225706842E+03  0.19225706842E+03  0.00000000000E+00 0. -1.
         25    2    1    2    0    0  0.33439975177E+03 -0.19229283332E+03  0.12887331295E+04  0.13510208111E+04  0.12499770039E+03 0.  0.
          2    1    1    2  501    0 -0.32287826860E+02  0.15946007176E+03 -0.81588704694E+02  0.18200751353E+03  0.00000000000E+00 0. -1.
          1    1    1    2  502    0 -0.30211192491E+03  0.32832761560E+02  0.75824442431E+03  0.81687466138E+03  0.00000000000E+00 0. -1.
         22    1    3    3    0    0  0.15743146971E+03 -0.24175815613E+02  0.44278319027E+03  0.47055933877E+03  0.00000000000E+00 0.  1.
         22    1    3    3    0    0  0.17696828205E+03 -0.16811701771E+03  0.84594993923E+03  0.88046147228E+03  0.00000000000E+00 0.  1.
</event>
<event>
 7    1  0.7459264E-005  0.2889298E+03  0.7818608E-02  0.1295830E+00
          2   -1    0    0  502    0  0.00000000000E+00  0.00000000000E+00  0.40320645516E+03  0.40320645516E+03  0.00000000000E+00 0. -1.
          1   -1    0    0  501    0 -0.00000000000E+00 -0.00000000000E+00 -0.94999163431E+03  0.94999163431E+03  0.00000000000E+00 0. -1.
         25    2    1    2    0    0  0.10156988260E+03  0.29000197352E+03 -0.92387836559E+02  0.34435023116E+03  0.12499593457E+03 0.  0.
          2    1    1    2  501    0 -0.23997438141E+02 -0.17854933791E+02 -0.65897788561E+03  0.65965637223E+03  0.00000000000E+00 0. -1.
          1    1    1    2  502    0 -0.77572444456E+02 -0.27214703972E+03  0.20458054302E+03  0.34919148608E+03  0.00000000000E+00 0. -1.
         22    1    3    3    0    0  0.12035343362E+03  0.17923825643E+03 -0.84105244753E+02  0.23170022388E+03  0.00000000000E+00 0.  1.
         22    1    3    3    0    0 -0.18783551021E+02  0.11076371709E+03 -0.82825918062E+01  0.11265000728E+03  0.00000000000E+00 0.  1.
</event>
<event>
 7    1  0.7459264E-005  0.2537678E+03  0.7818608E-02  0.1156988E+00
          2   -1    0    0  502    0  0.00000000000E+00  0.00000000000E+00  0.26267536131E+03  0.26267536131E+03  0.00000000000E+00 0. -1.
          1   -1    0    0  501    0 -0.00000000000E+00 -0.00000000000E+00 -0.28045938225E+04  0.28045938225E+04  0.00000000000E+00 0. -1.
         25    2    1    2    0    0 -0.22665684080E+03  0.12341891996E+03 -0.87097315320E+03  0.91696375521E+03  0.12499096565E+03 0.  0.
          2    1    1    2  501    0 -0.29074382617E+02 -0.14177627188E+03 -0.18383921893E+04  0.18440801698E+04  0.00000000000E+00 0. -1.
          1    1    1    2  502    0  0.25573122341E+03  0.18357351922E+02  0.16744688138E+03  0.30622525873E+03  0.00000000000E+00 0. -1.
         22    1    3    3    0    0 -0.15378428246E+03  0.12245413664E+03 -0.75349056897E+03  0.77871217958E+03  0.00000000000E+00 0. -1.
         22    1    3    3    0    0 -0.72872558336E+02  0.96478332173E+00 -0.11748258423E+03  0.13825157563E+03  0.00000000000E+00 0. -1.
</event>
<event>
 7    1  0.7459264E-005  0.2159211E+03  0.7818608E-02  0.1318813E+00
          2   -1    0    0  502    0  0.00000000000E+00  0.00000000000E+00  0.19331341133E+04  0.19331341133E+04  0.00000000000E+00 0. -1.
          1   -1    0    0  501    0 -0.00000000000E+00 -0.00000000000E+00 -0.15873424757E+04  0.15873424757E+04  0.00000000000E+00 0. -1.
         25    2    1    2    0    0 -0.19236694529E+03  0.73639507618E+02  0.23468360880E+03  0.33634637079E+03  0.12499866474E+03 0.  0.
          2    1    1    2  501    0 -0.19869216222E+02 -0.25670209568E+02 -0.15291541996E+04  0.15294987125E+04  0.00000000000E+00 0. -1.
          1    1    1    2  502    0  0.21223616151E+03 -0.47969298050E+02  0.16402622284E+04  0.16546315057E+04  0.00000000000E+00 0. -1.
         22    1    3    3    0    0 -0.14409863522E+02  0.60624702438E+02  0.66759539342E+02  0.91322696005E+02  0.00000000000E+00 0.  1.
         22    1    3    3    0    0 -0.17795708176E+03  0.13014805180E+02  0.16792406946E+03  0.24502367479E+03  0.00000000000E+00 0.  1.
</event>
<event>
 7    1  0.7459264E-005  0.3390963E+03  0.7818608E-02  0.1087704E+00
          2   -1    0    0  502    0  0.00000000000E+00  0.00000000000E+00  0.60290963214E+03  0.60290963214E+03  0.00000000000E+00 0. -1.
          1   -1    0    0  501    0 -0.00000000000E+00 -0.00000000000E+00 -0.83128139860E+03  0.83128139860E+03  0.00000000000E+00 0. -1.
         25    2    1    2    0    0 -0.23355397240E+03 -0.33565525672E+03 -0.47539737194E+02  0.43021785877E+03  0.12496187422E+03 0.  0.
          2    1    1    2  501    0  0.32512084795E+03  0.95679356837E+02 -0.49391749160E+03  0.59900967739E+03  0.00000000000E+00 0. -1.
          1    1    1    2  502    0 -0.91566875553E+02  0.23997589988E+03  0.31308546233E+03  0.40496349459E+03  0.00000000000E+00 0. -1.
         22    1    3    3    0    0 -0.19238312424E+03 -0.22385193180E+03 -0.81724830327E+02  0.30626769623E+03  0.00000000000E+00 0.  1.
         22    1    3    3    0    0 -0.41170848155E+02 -0.11180332492E+03  0.34185093133E+02  0.12395016254E+03  0.00000000000E+00 0.  1.
</event>
<event>
 7    1  0.7459264E-005  0.2330940E+03  0.7818608E-02  0.1258820E+00
          2   -1    0    0  502    0  0.00000000000E+00  0.00000000000E+00  0.11736932961E+04  0.11736932961E+04  0.00000000000E+00 0. -1.
          1   -1    0    0  501    0 -0.00000000000E+00 -0.00000000000E+00 -0.37126295398E+03  0.37126295398E+03  0.00000000000E+00 0. -1.
         25    2    1    2    0    0 -0.15243230143E+03  0.23476889602E+03  0.29978174776E+03  0.42877210699E+03  0.12499752954E+03 0.  0.
          2    1    1    2  501    0  0.11812407465E+03 -0.19461938036E+03 -0.26349443723E+03  0.34822308751E+03  0.00000000000E+00 0. -1.
          1    1    1    2  502    0  0.34308226773E+02 -0.40149515662E+02  0.76614303156E+03  0.76796105555E+03  0.00000000000E+00 0. -1.
         22    1    3    3    0    0 -0.68692120366E+02  0.12721835306E+03  0.23944353394E+03  0.27970756640E+03  0.00000000000E+00 0.  1.
         22    1    3    3    0    0 -0.83740181060E+02  0.10755054297E+03  0.60338213816E+02  0.14906454059E+03  0.00000000000E+00 0.  1.
</event>
<event>
 7    1  0.7459264E-005  0.7207715E+02  0.7818608E-02  0.1353489E+00
          2   -1    0    0  502    0  0.00000000000E+00  0.00000000000E+00  0.72181279638E+03  0.72181279638E+03  0.00000000000E+00 0. -1.
          1   -1    0    0  501    0 -0.00000000000E+00 -0.00000000000E+00 -0.95727617247E+03  0.95727617247E+03  0.00000000000E+00 0. -1.
         25    2    1    2    0    0 -0.26765504179E+02 -0.16980091969E+02 -0.13498668652E+03  0.18668376069E+03  0.12499882091E+03 0.  0.
          2    1    1    2  501    0  0.50110708062E+02 -0.51807653320E+02 -0.79290637583E+03  0.79617563190E+03  0.00000000000E+00 0. -1.
          1    1    1    2  502    0 -0.23345203883E+02  0.68787745288E+02  0.69242968627E+03  0.69622957627E+03  0.00000000000E+00 0. -1.
         22    1    3    3    0    0 -0.84270635389E+01 -0.65766084773E+02 -0.11103438112E+03  0.12932450308E+03  0.00000000000E+00 0. -1.
         22    1    3    3    0    0 -0.18338440640E+02  0.48785992804E+02 -0.23952305401E+02  0.57359257605E+02  0.00000000000E+00 0. -1.
</event>
<event>
 7    1  0.7459264E-005  0.7718019E+02  0.7818608E-02  0.1483677E+00
          2   -1    0    0  502    0  0.00000000000E+00  0.00000000000E+00  0.21286656066E+04  0.21286656066E+04  0.00000000000E+00 0. -1.
          1   -1    0    0  501    0 -0.00000000000E+00 -0.00000000000E+00 -0.16142435263E+03  0.16142435263E+03  0.00000000000E+00 0. -1.
         25    2    1    2    0    0 -0.80784009861E+02 -0.44430705907E+02 -0.11950225849E+03  0.19597057963E+03  0.12499413754E+03 0.  0.
          2    1    1    2  501    0  0.65050584849E+01  0.23683683346E+02  0.48009757934E+02  0.53927446626E+02  0.00000000000E+00 0. -1.
          1    1    1    2  502    0  0.74278951377E+02  0.20747022561E+02  0.20387337545E+04  0.20401919330E+04  0.00000000000E+00 0. -1.
         22    1    3    3    0    0 -0.74531534224E+02  0.11943930184E+02 -0.11694886413E+03  0.13919282986E+03  0.00000000000E+00 0.  1.
         22    1    3    3    0    0 -0.62524756375E+01 -0.56374636091E+02 -0.25533943544E+01  0.56777749768E+02  0.00000000000E+00 0.  1.
</event>
<event>
 7    1  0.7459264E-005  0.8398922E+02  0.7818608E-02  0.1349611E+00
          2   -1    0    0  502    0  0.00000000000E+00  0.00000000000E+00  0.90679579375E+02  0.90679579375E+02  0.00000000000E+00 0. -1.
          1   -1    0    0  501    0 -0.00000000000E+00 -0.00000000000E+00 -0.60092407190E+03  0.60092407190E+03  0.00000000000E+00 0. -1.
         25    2    1    2    0    0  0.12075317043E+03 -0.54537487145E+02 -0.84198963274E+02  0.20067119137E+03  0.12499518374E+03 0.  0.
          2    1    1    2  501    0 -0.57083017267E+02  0.57853106722E+02 -0.41897511081E+03  0.42678518753E+03  0.00000000000E+00 0. -1.
          1    1    1    2  502    0 -0.63670153159E+02 -0.33156195779E+01 -0.70704184444E+01  0.64147272377E+02  0.00000000000E+00 0. -1.
         22    1    3    3    0    0 -0.64671550213E+01 -0.45292988804E+02 -0.51705965312E+02  0.69041913196E+02  0.00000000000E+00 0.  1.
         22    1    3    3    0    0  0.12722032545E+03 -0.92444983409E+01 -0.32492997962E+02  0.13162927818E+03  0.00000000000E+00 0.  1.
</event>
<event>
 7    1  0.7459264E-005  0.1526949E+03  0.7818608E-02  0.1384354E+00
          2   -1    0    0  502    0  0.00000000000E+00  0.00000000000E+00  0.53460157883E+02  0.53460157883E+02  0.00000000000E+00 0. -1.
          1   -1    0    0  501    0 -0.00000000000E+00 -0.00000000000E+00 -0.10926259699E+04  0.10926259699E+04  0.00000000000E+00 0. -1.
         25    2    1    2    0    0 -0.27206114933E+02 -0.13404316097E+03 -0.35449061461E+03  0.39999538414E+03  0.12499987919E+03 0.  0.
          2    1    1    2  501    0  0.16949111580E+02  0.15822639186E+03 -0.69850630888E+03  0.71640346664E+03  0.00000000000E+00 0. -1.
          1    1    1    2  502    0  0.10257003353E+02 -0.24183230893E+02  0.13831111440E+02  0.29687277037E+02  0.00000000000E+00 0. -1.
         22    1    3    3    0    0  0.18859951253E+02 -0.64708326146E+02 -0.48903135928E+02  0.83272936405E+02  0.00000000000E+00 0. -1.
         22    1    3    3    0    0 -0.46066066187E+02 -0.69334834821E+02 -0.30558747868E+03  0.31672244774E+03  0.00000000000E+00 0. -1.
</event>
<event>
 7    1  0.7459264E-005  0.4462544E+02  0.7818608E-02  0.1526793E+00
          2   -1    0    0  502    0  0.00000000000E+00  0.00000000000E+00  0.54160429817E+03  0.54160429817E+03  0.00000000000E+00 0. -1.
          1   -1    0    0  501    0 -0.00000000000E+00 -0.00000000000E+00 -0.78056208399E+03  0.78056208399E+03  0.00000000000E+00 0. -1.
         25    2    1    2    0    0 -0.31760240657E+01 -0.50365788626E+02  0.22700296768E+03  0.26401127577E+03  0.12499922642E+03 0.  0.
          2    1    1    2  501    0  0.29794185250E+02  0.33240327276E+02 -0.76055578982E+03  0.76186463513E+03  0.00000000000E+00 0. -1.
          1    1    1    2  502    0 -0.26618161184E+02  0.17125461351E+02  0.29459503632E+03  0.29629047126E+03  0.00000000000E+00 0. -1.
         22    1    3    3    0    0  0.16457146793E+02 -0.54832739142E+02  0.23535137404E+03  0.24221423622E+03  0.00000000000E+00 0. -1.
         22    1    3    3    0    0 -0.19633170858E+02  0.44669505152E+01 -0.83484063568E+01  0.21797039559E+02  0.00000000000E+00 0. -1.
</event>
<event>
 7    1  0.7459264E-005  0.1181089E+03  0.7818608E-02  0.1246877E+00
          2   -1    0    0  502    0  0.00000000000E+00  0.00000000000E+00  0.97517682019E+03  0.97517682019E+03  0.00000000000E+00 0. -1.
          1   -1    0    0  501    0 -0.00000000000E+00 -0.00000000000E+00 -0.40439366141E+03  0.40439366141E+03  0.00000000000E+00 0. -1.
         25    2    1    2    0    0 -0.87510886324E+01 -0.13770422803E+03 -0.17088783509E+03  0.25271847865E+03  0.12499976520E+03 0.  0.
          2    1    1    2  501    0  0.99908791252E+02  0.61590060517E+02 -0.17049547945E+03  0.20698746492E+03  0.00000000000E+00 0. -1.
          1    1    1    2  502    0 -0.91157702620E+02  0.76114167511E+02  0.91216647332E+03  0.91986453801E+03  0.00000000000E+00 0. -1.
         22    1    3    3    0    0 -0.63861534716E+02 -0.81903577919E+02 -0.12234739599E+03  0.16048481859E+03  0.00000000000E+00 0.  1.
         22    1    3    3    0    0  0.55110446084E+02 -0.55800650109E+02 -0.48540439102E+02  0.92233660061E+02  0.00000000000E+00 0.  1.
</event>
<event>
 7    1  0.7459264E-005  0.1173858E+03  0.7818608E-02  0.1320721E+00
          2   -1    0    0  502    0  0.00000000000E+00  0.00000000000E+00  0.16744061709E+03  0.16744061709E+03  0.00000000000E+00 0. -1.
          1   -1    0    0  501    0 -0.00000000000E+00 -0.00000000000E+00 -0.11251319659E+04  0.11251319659E+04  0.00000000000E+00 0. -1.
         25    2    1    2    0    0  0.13368703155E+03  0.41100599631E+02 -0.99756033713E+02  0.21245593741E+03  0.12499910953E+03 0.  0.
          2    1    1    2  501    0 -0.19578248488E+02 -0.55339222492E+02 -0.93810234570E+03  0.93993709809E+03  0.00000000000E+00 0. -1.
          1    1    1    2  502    0 -0.11410878307E+03  0.14238622862E+02  0.80167030570E+02  0.14017954752E+03  0.00000000000E+00 0. -1.
         22    1    3    3    0    0  0.12316148952E+03  0.68750328292E+02 -0.11232478969E+03  0.18031144867E+03  0.00000000000E+00 0.  1.
         22    1    3    3    0    0  0.10525542033E+02 -0.27649728661E+02  0.12568755974E+02  0.32144488748E+02  0.00000000000E+00 0.  1.
</event>
<event>
 7    1  0.7459264E-005  0.7484164E+03  0.7818608E-02  0.1169854E+00
          2   -1    0    0  502    0  0.00000000000E+00  0.00000000000E+00  0.27722079736E+04  0.27722079736E+04  0.00000000000E+00 0. -1.
          1   -1    0    0  501    0 -0.00000000000E+00 -0.00000000000E+00 -0.56182107815E+03  0.56182107815E+03  0.00000000000E+00 0. -1.
         25    2    1    2    0    0 -0.57423770036E+03 -0.45683531019E+03  0.12493611475E+03  0.75477121575E+03  0.12499247258E+03 0.  0.
          2    1    1    2  501    0  0.61647091423E+03  0.45894493254E+03  0.35205409135E+03  0.84534544562E+03  0.00000000000E+00 0. -1.
          1    1    1    2  502    0 -0.42233213867E+02 -0.21096223528E+01  0.17333966894E+04  0.17339123904E+04  0.00000000000E+00 0. -1.
         22    1    3    3    0    0 -0.37653496903E+03 -0.37156966254E+03  0.84754040164E+02  0.53574792986E+03  0.00000000000E+00 0. -1.
         22    1    3    3    0    0 -0.19770273133E+03 -0.85265647653E+02  0.40182074583E+02  0.21902328589E+03  0.00000000000E+00 0. -1.
</event>
<event>
 7    1  0.7459264E-005  0.2208132E+03  0.7818608E-02  0.1183336E+00
          2   -1    0    0  502    0  0.00000000000E+00  0.00000000000E+00  0.68827262284E+03  0.68827262284E+03  0.00000000000E+00 0. -1.
          1   -1    0    0  501    0 -0.00000000000E+00 -0.00000000000E+00 -0.27667246296E+04  0.27667246296E+04  0.00000000000E+00 0. -1.
         25    2    1    2    0    0  0.28100704613E+03  0.14032099555E+03  0.86920115994E+00  0.33805660731E+03  0.12500628972E+03 0.  0.
          2    1    1    2  501    0 -0.12304509590E+03 -0.17794674389E+01 -0.25753287177E+04  0.25782671053E+04  0.00000000000E+00 0. -1.
          1    1    1    2  502    0 -0.15796195023E+03 -0.13854152811E+03  0.49600750979E+03  0.53867353982E+03  0.00000000000E+00 0. -1.
         22    1    3    3    0    0  0.73065654645E+02 -0.16676550099E+02 -0.17148084037E+02  0.76881428174E+02  0.00000000000E+00 0. -1.
         22    1    3    3    0    0  0.20794139148E+03  0.15699754565E+03  0.18017285197E+02  0.26117517914E+03  0.00000000000E+00 0. -1.
</event>
<event>
 7    1  0.7459264E-005  0.1310370E+03  0.7818608E-02  0.1272532E+00
          2   -1    0    0  502    0  0.00000000000E+00  0.00000000000E+00  0.30202305280E+04  0.30202305280E+04  0.00000000000E+00 0. -1.
          1   -1    0    0  501    0 -0.00000000000E+00 -0.00000000000E+00 -0.38449984129E+02  0.38449984129E+02  0.00000000000E+00 0. -1.
         25    2    1    2    0    0 -0.79328952446E+02 -0.72328971278E+01  0.73616361644E+03  0.75093762820E+03  0.12500021509E+03 0.  0.
          2    1    1    2  501    0  0.13447494038E+03 -0.53724827222E+02  0.14298811772E+03  0.20350790761E+03  0.00000000000E+00 0. -1.
          1    1    1    2  502    0 -0.55145987938E+02  0.60957724350E+02  0.21026288097E+04  0.21042349763E+04  0.00000000000E+00 0. -1.
         22    1    3    3    0    0 -0.20542048122E+02  0.55837053046E+02  0.37051498705E+03  0.37526138606E+03  0.00000000000E+00 0.  1.
         22    1    3    3    0    0 -0.58786904324E+02 -0.63069950174E+02  0.36564862939E+03  0.37567624214E+03  0.00000000000E+00 0.  1.
</event>
<event>
 7    1  0.7459264E-005  0.5623963E+02  0.7818608E-02  0.1460968E+00
          2   -1    0    0  502    0  0.00000000000E+00  0.00000000000E+00  0.17187648333E+04  0.17187648333E+04  0.00000000000E+00 0. -1.
          1   -1    0    0  501    0 -0.00000000000E+00 -0.00000000000E+00 -0.26971119615E+02  0.26971119615E+02  0.00000000000E+00 0. -1.
         25    2    1    2    0    0 -0.35738665719E+02 -0.73163244401E+01  0.76089133424E+03  0.77195433510E+03  0.12500836822E+03 0.  0.
          2    1    1    2  501    0 -0.35725578832E+01 -0.39477542993E+02 -0.12202329672E+01  0.39657641623E+02  0.00000000000E+00 0. -1.
          1    1    1    2  502    0  0.39311223602E+02  0.46793867433E+02  0.93212261244E+03  0.93412397622E+03  0.00000000000E+00 0. -1.
         22    1    3    3    0    0 -0.72821571776E+02 -0.37199474288E+02  0.43772631438E+03  0.44529889794E+03  0.00000000000E+00 0.  1.
         22    1    3    3    0    0  0.37082906057E+02  0.29883149848E+02  0.32316501986E+03  0.32665543716E+03  0.00000000000E+00 0.  1.
</event>
<event>
 7    1  0.7459264E-005  0.1081823E+03  0.7818608E-02  0.1375082E+00
          2   -1    0    0  502    0  0.00000000000E+00  0.00000000000E+00  0.27462850573E+03  0.27462850573E+03  0.00000000000E+00 0. -1.
          1   -1    0    0  501    0 -0.00000000000E+00 -0.00000000000E+00 -0.92563082885E+03  0.92563082885E+03  0.00000000000E+00 0. -1.
         25    2    1    2    0    0 -0.46247034783E+02  0.72542084313E+02  0.15894572835E+02  0.15257778889E+03  0.12500480789E+03 0.  0.
          2    1    1    2  501    0  0.24972183495E+02 -0.10640404539E+03 -0.85165783803E+03  0.85864224442E+03  0.00000000000E+00 0. -1.
          1    1    1    2  502    0  0.21274851289E+02  0.33861961079E+02  0.18476094208E+03  0.18903930127E+03  0.00000000000E+00 0. -1.
         22    1    3    3    0    0 -0.22364264843E+02 -0.86021737015E+01  0.54547732331E+02  0.59578627349E+02  0.00000000000E+00 0.  1.
         22    1    3    3    0    0 -0.23882769940E+02  0.81144258014E+02 -0.38653159496E+02  0.92999161543E+02  0.00000000000E+00 0.  1.
</event>
<event>
 7    1  0.7459264E-005  0.1835244E+03  0.7818608E-02  0.1310595E+00
          2   -1    0    0  502    0  0.00000000000E+00  0.00000000000E+00  0.12144440884E+04  0.12144440884E+04  0.00000000000E+00 0. -1.
          1   -1    0    0  501    0 -0.00000000000E+00 -0.00000000000E+00 -0.63648825695E+03  0.63648825695E+03  0.00000000000E+00 0. -1.
         25    2    1    2    0    0  0.18490927183E+03 -0.12009908037E+03  0.65444014161E+03  0.70180650997E+03  0.12500100226E+03 0.  0.
          2    1    1    2  501    0 -0.14463286503E+03  0.11178251340E+03 -0.59834648176E+03  0.62564567303E+03  0.00000000000E+00 0. -1.
          1    1    1    2  502    0 -0.40276406805E+02  0.83165669732E+01  0.52186217157E+03  0.52348016232E+03  0.00000000000E+00 0. -1.
         22    1    3    3    0    0  0.87554012535E+02 -0.47515577195E+02  0.13161199844E+03  0.16506105937E+03  0.00000000000E+00 0. -1.
         22    1    3    3    0    0  0.97355259299E+02 -0.72583503175E+02  0.52282814317E+03  0.53674545060E+03  0.00000000000E+00 0. -1.
</event>
<event>
 7    1  0.7459264E-005  0.5605023E+02  0.7818608E-02  0.1473461E+00
          2   -1    0    0  502    0  0.00000000000E+00  0.00000000000E+00  0.20329361045E+04  0.20329361045E+04  0.00000000000E+00 0. -1.
          1   -1    0    0  501    0 -0.00000000000E+00 -0.00000000000E+00 -0.26022857169E+02  0.26022857169E+02  0.00000000000E+00 0. -1.
         25    2    1    2    0    0 -0.45218613854E+01 -0.20951695786E+02  0.80635492332E+03  0.81626762816E+03  0.12500063049E+03 0.  0.
          2    1    1    2  501    0  0.14409639447E+02  0.55937022527E+02  0.19341803531E+02  0.60915462421E+02  0.00000000000E+00 0. -1.
          1    1    1    2  502    0 -0.98877780614E+01 -0.34985326740E+02  0.11812165205E+04  0.11817758711E+04  0.00000000000E+00 0. -1.
         22    1    3    3    0    0 -0.13956742322E+02  0.50789019757E+02  0.27388937057E+03  0.27890805384E+03  0.00000000000E+00 0. -1.
         22    1    3    3    0    0  0.94348809363E+01 -0.71740715543E+02  0.53246555275E+03  0.53735957432E+03  0.00000000000E+00 0. -1.
</event>
<event>
 7    1  0.7459264E-005  0.1694552E+03  0.7818608E-02  0.1296082E+00
          2   -1    0    0  502    0  0.00000000000E+00  0.00000000000E+00  0.21512703901E+04  0.21512703901E+04  0.00000000000E+00 0. -1.
          1   -1    0    0  501    0 -0.00000000000E+00 -0.00000000000E+00 -0.19002105453E+04  0.19002105453E+04  0.00000000000E+00 0. -1.
         25    2    1    2    0    0 -0.39070206775E+02 -0.20644757660E+03  0.36146333175E+02  0.24714135465E+03  0.12500083533E+03 0.  0.
          2    1    1    2  501    0 -0.17092002196E+02  0.47924145761E+02 -0.17908325219E+04  0.17915551853E+04  0.00000000000E+00 0. -1.
          1    1    1    2  502    0  0.56162208971E+02  0.15852343084E+03  0.20057460335E+04  0.20127843955E+04  0.00000000000E+00 0. -1.
         22    1    3    3    0    0 -0.68593366322E+02 -0.18053890299E+03  0.58691611077E+02  0.20185155587E+03  0.00000000000E+00 0. -1.
         22    1    3    3    0    0  0.29523159546E+02 -0.25908673611E+02 -0.22545277901E+02  0.45289798780E+02  0.00000000000E+00 0. -1.
</event>
<event>
 7    1  0.7459264E-005  0.3799776E+02  0.7818608E-02  0.1564579E+00
          2   -1    0    0  502    0  0.00000000000E+00  0.00000000000E+00  0.27712200501E+04  0.27712200501E+04  0.00000000000E+00 0. -1.
          1   -1    0    0  501    0 -0.00000000000E+00 -0.00000000000E+00 -0.24135234286E+02  0.24135234286E+02  0.00000000000E+00 0. -1.
         25    2    1    2    0    0  0.37690471117E+02  0.14748012730E+01  0.10101334802E+04  0.10185368796E+04  0.12499992247E+03 0.  0.
          2    1    1    2  501    0 -0.25884957814E+02 -0.28094523202E+02 -0.13964464492E+01  0.38226735901E+02  0.00000000000E+00 0. -1.
          1    1    1    2  502    0 -0.11805513303E+02  0.26619721929E+02  0.17383477821E+04  0.17385916689E+04  0.00000000000E+00 0. -1.
         22    1    3    3    0    0 -0.92423022434E+01  0.50249455864E+02  0.65640300861E+03  0.65838843981E+03  0.00000000000E+00 0. -1.
         22    1    3    3    0    0  0.46932773360E+02 -0.48774654591E+02  0.35373047160E+03  0.36014843979E+03  0.00000000000E+00 0. -1.
</event>
<event>
 7    1  0.7459264E-005  0.7089583E+03  0.7818608E-02  0.1036298E+00
          2   -1    0    0  502    0  0.00000000000E+00  0.00000000000E+00  0.29084111253E+04  0.29084111253E+04  0.00000000000E+00 0. -1.
          1   -1    0    0  501    0 -0.00000000000E+00 -0.00000000000E+00 -0.96819015773E+03  0.96819015773E+03  0.00000000000E+00 0. -1.
         25    2    1    2    0    0 -0.72266206242E+03 -0.36175882759E+03  0.19627390399E+04  0.21262859079E+04  0.12504926048E+03 0.  0.
          2    1    1    2  501    0  0.15599544646E+03  0.19744248282E+03 -0.76305562598E+03  0.80347495398E+03  0.00000000000E+00 0. -1.
          1    1    1    2  502    0  0.56666661596E+03  0.16431634478E+03  0.74053755368E+03  0.94684042120E+03  0.00000000000E+00 0. -1.
         22    1    3    3    0    0 -0.69244311419E+03 -0.32053849261E+03  0.17827386962E+04  0.19391698354E+04  0.00000000000E+00 0. -1.
         22    1    3    3    0    0 -0.30218948229E+02 -0.41220334980E+02  0.18000034374E+03  0.18711607252E+03  0.00000000000E+00 0. -1.
</event>
<event>
 7    1  0.7459264E-005  0.8817064E+03  0.7818608E-02  0.1052193E+00
          2   -1    0    0  502    0  0.00000000000E+00  0.00000000000E+00  0.39220012633E+04  0.39220012633E+04  0.00000000000E+00 0. -1.
          1   -1    0    0  501    0 -0.00000000000E+00 -0.00000000000E+00 -0.23029592334E+04  0.23029592334E+04  0.00000000000E+00 0. -1.
         25    2    1    2    0    0  0.44347078579E+03 -0.86322415308E+03  0.18986157638E+04  0.21359280929E+04  0.12499889191E+03 0.  0.
          2    1    1    2  501    0 -0.32424267697E+02  0.15756501723E+03 -0.20935413880E+04  0.20997127448E+04  0.00000000000E+00 0. -1.
          1    1    1    2  502    0 -0.41104651809E+03  0.70565913585E+03  0.18139676540E+04  0.19893196590E+04  0.00000000000E+00 0. -1.
         22    1    3    3    0    0  0.49263932103E+02 -0.34373704804E+02  0.99625414490E+02  0.11633447383E+03  0.00000000000E+00 0.  1.
         22    1    3    3    0    0  0.39420685369E+03 -0.82885044828E+03  0.17989903493E+04  0.20195936190E+04  0.00000000000E+00 0.  1.
</event>
<event>
 7    1  0.7459264E-005  0.1495734E+03  0.7818608E-02  0.1398347E+00
          2   -1    0    0  502    0  0.00000000000E+00  0.00000000000E+00  0.20264200098E+03  0.20264200098E+03  0.00000000000E+00 0. -1.
          1   -1    0    0  501    0 -0.00000000000E+00 -0.00000000000E+00 -0.14462993859E+04  0.14462993859E+04  0.00000000000E+00 0. -1.
         25    2    1    2    0    0 -0.12466744443E+03  0.11235473188E+03 -0.12253524492E+04  0.12430970548E+04  0.12504441352E+03 0.  0.
          2    1    1    2  501    0  0.48791170837E+01 -0.23468360750E+02 -0.18246738153E+03  0.18403509194E+03  0.00000000000E+00 0. -1.
          1    1    1    2  502    0  0.11978832734E+03 -0.88886371134E+02  0.16416244591E+03  0.22180924009E+03  0.00000000000E+00 0. -1.
         22    1    3    3    0    0 -0.57639776726E+02 -0.14491663087E+02 -0.23461526722E+03  0.24202618820E+03  0.00000000000E+00 0.  1.
         22    1    3    3    0    0 -0.67027667703E+02  0.12684639497E+03 -0.99073718202E+03  0.10010708666E+04  0.00000000000E+00 0.  1.
</event>
<event>
 7    1  0.7459264E-005  0.3634065E+03  0.7818608E-02  0.1075803E+00
          2   -1    0    0  502    0  0.00000000000E+00  0.00000000000E+00  0.57611488961E+03  0.57611488961E+03  0.00000000000E+00 0. -1.
          1   -1    0    0  501    0 -0.00000000000E+00 -0.00000000000E+00 -0.73266096168E+03  0.73266096168E+03  0.00000000000E+00 0. -1.
         25    2    1    2    0    0  0.53120525838E+03 -0.21475325216E+02 -0.34551960346E+03  0.64625792732E+03  0.12500118447E+03 0.  0.
          2    1    1    2  501    0 -0.22599765624E+03  0.16730871301E+03  0.13643380585E+02  0.28151960484E+03  0.00000000000E+00 0. -1.
          1    1    1    2  502    0 -0.30520760214E+03 -0.14583338779E+03  0.17533015081E+03  0.38099831914E+03  0.00000000000E+00 0. -1.
         22    1    3    3    0    0  0.93876936888E+02 -0.29592883528E+02 -0.18576400158E+02  0.10016836166E+03  0.00000000000E+00 0. -1.
         22    1    3    3    0    0  0.43732832149E+03  0.81175583117E+01 -0.32694320330E+03  0.54608956566E+03  0.00000000000E+00 0. -1.
</event>
<event>
 7    1  0.7459264E-005  0.1433021E+03  0.7818608E-02  0.1224477E+00
          2   -1    0    0  502    0  0.00000000000E+00  0.00000000000E+00  0.12386174338E+04  0.12386174338E+04  0.00000000000E+00 0. -1.
          1   -1    0    0  501    0 -0.00000000000E+00 -0.00000000000E+00 -0.11460659979E+04  0.11460659979E+04  0.00000000000E+00 0. -1.
         25    2    1    2    0    0 -0.25047706343E+03 -0.53170580960E+01  0.25716713992E+03  0.38016608194E+03  0.12499712633E+03 0.  0.
          2    1    1    2  501    0  0.13501860511E+03  0.43604316669E+02 -0.10758672700E+04  0.10851828154E+04  0.00000000000E+00 0. -1.
          1    1    1    2  502    0  0.11545845832E+03 -0.38287258573E+02  0.91125156593E+03  0.91933453442E+03  0.00000000000E+00 0. -1.
         22    1    3    3    0    0 -0.55992894280E+02 -0.15773898720E+02  0.14306328040E+03  0.15443808562E+03  0.00000000000E+00 0.  1.
         22    1    3    3    0    0 -0.19448416915E+03  0.10456840624E+02  0.11410385952E+03  0.22572799632E+03  0.00000000000E+00 0.  1.
</event>
<event>
 7    1  0.7459264E-005  0.1023744E+03  0.7818608E-02  0.1339233E+00
          2   -1    0    0  502    0  0.00000000000E+00  0.00000000000E+00  0.48305551063E+03  0.48305551063E+03  0.00000000000E+00 0. -1.
          1   -1    0    0  501    0 -0.00000000000E+00 -0.00000000000E+00 -0.20430907909E+03  0.20430907909E+03  0.00000000000E+00 0. -1.
         25    2    1    2    0    0  0.92226546558E+02 -0.93395557890E+02 -0.99934559305E+02  0.20696982159E+03  0.12498449817E+03 0.  0.
          2    1    1    2  501    0 -0.37807404133E+02  0.75802797944E+02 -0.11996360455E+02  0.85553355560E+02  0.00000000000E+00 0. -1.
          1    1    1    2  502    0 -0.54419142425E+02  0.17592759946E+02  0.39067735130E+03  0.39484141257E+03  0.00000000000E+00 0. -1.
         22    1    3    3    0    0 -0.23412718694E+02 -0.81659165553E+01 -0.48344883634E+02  0.54332912341E+02  0.00000000000E+00 0. -1.
         22    1    3    3    0    0  0.11563926525E+03 -0.85229641335E+02 -0.51589675671E+02  0.15263690925E+03  0.00000000000E+00 0. -1.
</event>
<event>
 7    1  0.7459264E-005  0.1156437E+03  0.7818608E-02  0.1453660E+00
          2   -1    0    0  502    0  0.00000000000E+00  0.00000000000E+00  0.52872418214E+03  0.52872418214E+03  0.00000000000E+00 0. -1.
          1   -1    0    0  501    0 -0.00000000000E+00 -0.00000000000E+00 -0.10541080956E+04  0.10541080956E+04  0.00000000000E+00 0. -1.
         25    2    1    2    0    0 -0.80784570927E+02 -0.71905473992E+02  0.27640532077E+03  0.32205830721E+03  0.12500043121E+03 0.  0.
          2    1    1    2  501    0  0.18501510836E+01 -0.20247846508E+02 -0.10151341604E+04  0.10153377576E+04  0.00000000000E+00 0. -1.
          1    1    1    2  502    0  0.78934419843E+02  0.92153320500E+02  0.21334492616E+03  0.24543621296E+03  0.00000000000E+00 0. -1.
         22    1    3    3    0    0  0.13713178292E+02 -0.53547938814E+02  0.16908109598E+03  0.17788718343E+03  0.00000000000E+00 0. -1.
         22    1    3    3    0    0 -0.94497749219E+02 -0.18357535178E+02  0.10732422479E+03  0.14417112378E+03  0.00000000000E+00 0. -1.
</event>
<event>
 7    1  0.7459264E-005  0.2830124E+03  0.7818608E-02  0.1340166E+00
          2   -1    0    0  502    0  0.00000000000E+00  0.00000000000E+00  0.10575978741E+04  0.10575978741E+04  0.00000000000E+00 0. -1.
          1   -1    0    0  501    0 -0.00000000000E+00 -0.00000000000E+00 -0.21659985573E+04  0.21659985573E+04  0.00000000000E+00 0. -1.
         25    2    1    2    0    0  0.19918601048E+03 -0.19801978709E+03 -0.16276268664E+04  0.16564056167E+04  0.12499379234E+03 0.  0.
          2    1    1    2  501    0  0.15451637170E+02  0.13505048876E+02 -0.50457071611E+03  0.50498786816E+03  0.00000000000E+00 0. -1.
          1    1    1    2  502    0 -0.21463764765E+03  0.18451473821E+03  0.10237968993E+04  0.10622029465E+04  0.00000000000E+00 0. -1.
         22    1    3    3    0    0  0.76902104046E+02 -0.14166947335E+03 -0.65706801066E+03  0.67655195212E+03  0.00000000000E+00 0.  1.
         22    1    3    3    0    0  0.12228390643E+03 -0.56350313737E+02 -0.97055885572E+03  0.97985366461E+03  0.00000000000E+00 0.  1.
</event>
<event>
 7    1  0.7459264E-005  0.2909280E+03  0.7818608E-02  0.1219718E+00
          2   -1    0    0  502    0  0.00000000000E+00  0.00000000000E+00  0.12717321545E+04  0.12717321545E+04  0.00000000000E+00 0. -1.
          1   -1    0    0  501    0 -0.00000000000E+00 -0.00000000000E+00 -0.13788231657E+04  0.13788231657E+04  0.00000000000E+00 0. -1.
         25    2    1    2    0    0  0.31293371350E+03  0.95209183674E+02  0.65616618638E+03  0.74375691507E+03  0.12501194689E+03 0.  0.
          2    1    1    2  501    0 -0.62641521339E+02 -0.64733660454E+01 -0.13033923680E+04  0.13049128437E+04  0.00000000000E+00 0. -1.
          1    1    1    2  502    0 -0.25029219216E+03 -0.88735817629E+02  0.54013517042E+03  0.60188556147E+03  0.00000000000E+00 0. -1.
         22    1    3    3    0    0  0.25525229105E+03  0.90502990700E+02  0.61715818493E+03  0.67396494615E+03  0.00000000000E+00 0. -1.
         22    1    3    3    0    0  0.57681422455E+02  0.47061929741E+01  0.39008001446E+02  0.69791968918E+02  0.00000000000E+00 0. -1.
</event>
<event>
 7    1  0.7459264E-005  0.2998597E+03  0.7818608E-02  0.1321410E+00
          2   -1    0    0  502    0  0.00000000000E+00  0.00000000000E+00  0.98687817417E+03  0.98687817417E+03  0.00000000000E+00 0. -1.
          1   -1    0    0  501    0 -0.00000000000E+00 -0.00000000000E+00 -0.14548169870E+04  0.14548169870E+04  0.00000000000E+00 0. -1.
         25    2    1    2    0    0 -0.46137180090E+02  0.29650796414E+03 -0.10045494126E+04  0.10558362733E+04  0.12500040636E+03 0.  0.
          2    1    1    2  501    0  0.68539359756E+02 -0.29206421906E+03 -0.37147510602E+03  0.47748602732E+03  0.00000000000E+00 0. -1.
          1    1    1    2  502    0 -0.22402179666E+02 -0.44437450775E+01  0.90808570582E+03  0.90837286047E+03  0.00000000000E+00 0. -1.
         22    1    3    3    0    0  0.25978452336E+02  0.97985940100E+02 -0.20269464565E+03  0.22663019176E+03  0.00000000000E+00 0.  1.
         22    1    3    3    0    0 -0.72115632426E+02  0.19852202404E+03 -0.80185476693E+03  0.82920608158E+03  0.00000000000E+00 0.  1.
</event>
<event>
 7    1  0.7459264E-005  0.5069474E+03  0.7818608E-02  0.1173335E+00
          2   -1    0    0  502    0  0.00000000000E+00  0.00000000000E+00  0.13535402332E+04  0.13535402332E+04  0.00000000000E+00 0. -1.
          1   -1    0    0  501    0 -0.00000000000E+00 -0.00000000000E+00 -0.55644910483E+03  0.55644910483E+03  0.00000000000E+00 0. -1.
         25    2    1    2    0    0  0.42556484726E+03  0.34580197491E+03  0.34226957933E+03  0.65837261141E+03  0.12498634104E+03 0.  0.
          2    1    1    2  501    0 -0.43306205454E+02 -0.41524555824E+02 -0.32548745630E+03  0.33097099628E+03  0.00000000000E+00 0. -1.
          1    1    1    2  502    0 -0.38225864180E+03 -0.30427741909E+03  0.78030900533E+03  0.92064573035E+03  0.00000000000E+00 0. -1.
         22    1    3    3    0    0  0.40583084193E+03  0.30242166649E+03  0.34177731220E+03  0.61071209892E+03  0.00000000000E+00 0.  1.
         22    1    3    3    0    0  0.19734005323E+02  0.43380308419E+02  0.49226713693E+00  0.47660512498E+02  0.00000000000E+00 0.  1.
</event>
<event>
 7    1  0.1070509E-004  0.1598602E+04  0.7818608E-02  0.1100929E+00
          2   -1    0    0  502    0  0.00000000000E+00  0.00000000000E+00  0.26237397114E+04  0.26237397114E+04  0.00000000000E+00 0. -1.
          1   -1    0    0  501    0 -0.00000000000E+00 -0.00000000000E+00 -0.14920280129E+04  0.14920280129E+04  0.00000000000E+00 0. -1.
         25    2    1    2    0    0 -0.14857483863E+04 -0.59180502861E+03  0.76157500095E+03  0.17757539501E+04  0.12499659981E+03 0.  0.
          2    1    1    2  501    0  0.15013427036E+04  0.54873147182E+03 -0.33515363935E+03  0.16332373079E+04  0.00000000000E+00 0. -1.
          1    1    1    2  502    0 -0.15594317251E+02  0.43073556793E+02  0.70529033685E+03  0.70677646627E+03  0.00000000000E+00 0. -1.
         22    1    3    3    0    0 -0.43848099514E+03 -0.13591717506E+03  0.26718278546E+03  0.53115506439E+03  0.00000000000E+00 0. -1.
         22    1    3    3    0    0 -0.10472673912E+04 -0.45588785354E+03  0.49439221548E+03  0.12445988857E+04  0.00000000000E+00 0. -1.
</event>
<event>
 7    1  0.7459264E-005  0.2491148E+03  0.7818608E-02  0.1286002E+00
          2   -1    0    0  502    0  0.00000000000E+00  0.00000000000E+00  0.56381173091E+03  0.56381173091E+03  0.00000000000E+00 0. -1.
          1   -1    0    0  501    0 -0.00000000000E+00 -0.00000000000E+00 -0.19563304030E+04  0.19563304030E+04  0.00000000000E+00 0. -1.
         25    2    1    2    0    0  0.34968687606E+02 -0.20917983251E+03 -0.11546750853E+04  0.11806268854E+04  0.12500511385E+03 0.  0.
          2    1    1    2  501    0  0.91746927923E+01 -0.36907916276E+02 -0.75980976935E+03  0.76076097091E+03  0.00000000000E+00 0. -1.
          1    1    1    2  502    0 -0.44143380398E+02  0.24608774879E+03  0.52196618254E+03  0.57875427761E+03  0.00000000000E+00 0. -1.
         22    1    3    3    0    0  0.22628944962E+02 -0.11107335430E+03 -0.30799325974E+03  0.32819080918E+03  0.00000000000E+00 0.  1.
         22    1    3    3    0    0  0.12339742644E+02 -0.98106478213E+02 -0.84668182557E+03  0.85243607623E+03  0.00000000000E+00 0.  1.
</event>
<event>
 7    1  0.7459264E-005  0.1623079E+03  0.7818608E-02  0.1299426E+00
          2   -1    0    0  502    0  0.00000000000E+00  0.00000000000E+00  0.18719275675E+04  0.18719275675E+04  0.00000000000E+00 0. -1.
          1   -1    0    0  501    0 -0.00000000000E+00 -0.00000000000E+00 -0.96144278295E+02  0.96144278295E+02  0.00000000000E+00 0. -1.
         25    2    1    2    0    0 -0.20900734053E+03 -0.34390310178E+01  0.25385540830E+03  0.35180020424E+03  0.12499968022E+03 0.  0.
          2    1    1    2  501    0  0.50924484891E+02 -0.76989610619E+01 -0.27755752914E+02  0.58506059367E+02  0.00000000000E+00 0. -1.
          1    1    1    2  502    0  0.15808285564E+03  0.11137992080E+02  0.15496836339E+04  0.15577655822E+04  0.00000000000E+00 0. -1.
         22    1    3    3    0    0 -0.48906019139E+02  0.20882205078E+02  0.30587344503E+01  0.53265570994E+02  0.00000000000E+00 0. -1.
         22    1    3    3    0    0 -0.16010132139E+03 -0.24321236096E+02  0.25079667385E+03  0.29853463325E+03  0.00000000000E+00 0. -1.
</event>
<event>
 7    1  0.7459264E-005  0.1225123E+04  0.7818608E-02  0.1095879E+00
          2   -1    0    0  502    0  0.00000000000E+00  0.00000000000E+00  0.39267993958E+04  0.39267993958E+04  0.00000000000E+00 0. -1.
          1   -1    0    0  501    0 -0.00000000000E+00 -0.00000000000E+00 -0.37178480855E+04  0.37178480855E+04  0.00000000000E+00 0. -1.
         25    2    1    2    0    0 -0.10035090915E+04 -0.73340738974E+03 -0.19537469560E+04  0.23189803084E+04  0.12500242653E+03 0.  0.
          2    1    1    2  501    0  0.51972718078E+02 -0.37063204154E+02 -0.14806866899E+04  0.14820620494E+04  0.00000000000E+00 0. -1.
          1    1    1    2  502    0  0.95153637344E+03  0.77047059389E+03  0.36433849563E+04  0.38436051235E+04  0.00000000000E+00 0. -1.
         22    1    3    3    0    0 -0.61400388187E+03 -0.37592610894E+03 -0.11614919958E+04  0.13665229096E+04  0.00000000000E+00 0.  1.
         22    1    3    3    0    0 -0.38950520964E+03 -0.35748128080E+03 -0.79225496023E+03  0.95245739877E+03  0.00000000000E+00 0.  1.
</event>
<event>
 7    1  0.7459264E-005  0.1037937E+04  0.7818608E-02  0.1106396E+00
          2   -1    0    0  502    0  0.00000000000E+00  0.00000000000E+00  0.14481585093E+04  0.14481585093E+04  0.00000000000E+00 0. -1.
          1   -1    0    0  501    0 -0.00000000000E+00 -0.00000000000E+00 -0.13660780143E+04  0.13660780143E+04  0.00000000000E+00 0. -1.
         25    2    1    2    0    0 -0.69069117558E+03  0.72503390867E+03  0.14364096789E+03  0.10193059723E+04  0.12499387488E+03 0.  0.
          2    1    1    2  501    0 -0.55270046545E+02  0.35622927604E+02 -0.59834921594E+03  0.60195145588E+03  0.00000000000E+00 0. -1.
          1    1    1    2  502    0  0.74596122213E+03 -0.76065683628E+03  0.53678874311E+03  0.11929790955E+04  0.00000000000E+00 0. -1.
         22    1    3    3    0    0 -0.27526535564E+03  0.21003227228E+03  0.73217782210E+02  0.35390028969E+03  0.00000000000E+00 0.  1.
         22    1    3    3    0    0 -0.41542581995E+03  0.51500163639E+03  0.70423185680E+02  0.66540568261E+03  0.00000000000E+00 0.  1.
</event>
<event>
 7    1  0.7459264E-005  0.5198385E+03  0.7818608E-02  0.1163041E+00
          2   -1    0    0  502    0  0.00000000000E+00  0.00000000000E+00  0.28462598251E+04  0.28462598251E+04  0.00000000000E+00 0. -1.
          1   -1    0    0  501    0 -0.00000000000E+00 -0.00000000000E+00 -0.45912753279E+03  0.45912753279E+03  0.00000000000E+00 0. -1.
         25    2    1    2    0    0  0.25872129650E+03  0.45583982059E+03  0.24122606483E+04  0.24717099873E+04  0.12498869860E+03 0.  0.
          2    1    1    2  501    0  0.38464440207E+02 -0.53441692271E+02 -0.26915163929E+03  0.27708867275E+03  0.00000000000E+00 0. -1.
          1    1    1    2  502    0 -0.29718573671E+03 -0.40239812832E+03  0.24402328337E+03  0.55658869788E+03  0.00000000000E+00 0. -1.
         22    1    3    3    0    0  0.18516554307E+03  0.20309830680E+03  0.11657889614E+04  0.11977475123E+04  0.00000000000E+00 0. -1.
         22    1    3    3    0    0  0.73555753433E+02  0.25274151379E+03  0.12464716869E+04  0.12739624751E+04  0.00000000000E+00 0. -1.
</event>
<event>
 7    1  0.7640440E-005  0.4485347E+03  0.7818608E-02  0.1208779E+00
          2   -1    0    0  502    0  0.00000000000E+00  0.00000000000E+00  0.27404010192E+04  0.27404010192E+04  0.00000000000E+00 0. -1.
          1   -1    0    0  501    0 -0.00000000000E+00 -0.00000000000E+00 -0.79653585088E+03  0.79653585088E+03  0.00000000000E+00 0. -1.
         25    2    1    2    0    0  0.40918311916E+03 -0.14677232933E+03 -0.30576352056E+02  0.45335596450E+03  0.12499510225E+03 0.  0.
          2    1    1    2  501    0 -0.41250727163E+03  0.19252070213E+03 -0.46089964985E+03  0.64780780879E+03  0.00000000000E+00 0. -1.
          1    1    1    2  502    0  0.33241524709E+01 -0.45748372798E+02  0.24353411702E+04  0.24357730967E+04  0.00000000000E+00 0. -1.
         22    1    3    3    0    0  0.24424757917E+03 -0.15044380445E+03 -0.29505081178E+02  0.28837608784E+03  0.00000000000E+00 0.  1.
         22    1    3    3    0    0  0.16493553999E+03  0.36714751129E+01 -0.10712708782E+01  0.16497987666E+03  0.00000000000E+00 0.  1.
</event>
<event>
 7    1  0.7459264E-005  0.8167350E+02  0.7818608E-02  0.1333977E+00
          2   -1    0    0  502    0  0.00000000000E+00  0.00000000000E+00  0.97437502786E+03  0.97437502786E+03  0.00000000000E+00 0. -1.
          1   -1    0    0  501    0 -0.00000000000E+00 -0.00000000000E+00 -0.15149034956E+04  0.15149034956E+04  0.00000000000E+00 0. -1.
         25    2    1    2    0    0  0.83054114662E+02 -0.47798389662E+02 -0.15714310821E+01  0.15751133270E+03  0.12499871406E+03 0.  0.
          2    1    1    2  501    0 -0.15495365097E+02  0.80473968372E+02 -0.14326183229E+04  0.14349604263E+04  0.00000000000E+00 0. -1.
          1    1    1    2  502    0 -0.67558749565E+02 -0.32675578709E+02  0.89366128629E+03  0.89680676442E+03  0.00000000000E+00 0. -1.
         22    1    3    3    0    0 -0.21734348237E+02  0.16012760216E+02  0.19132100038E+02  0.33088179685E+02  0.00000000000E+00 0.  1.
         22    1    3    3    0    0  0.10478846290E+03 -0.63811149879E+02 -0.20703531120E+02  0.12442315302E+03  0.00000000000E+00 0.  1.
</event>
<event>
 7    1  0.7459264E-005  0.9136826E+03  0.7818608E-02  0.1211425E+00
          2   -1    0    0  502    0  0.00000000000E+00  0.00000000000E+00  0.36296050969E+04  0.36296050969E+04  0.00000000000E+00 0. -1.
          1   -1    0    0  501    0 -0.00000000000E+00 -0.00000000000E+00 -0.16924852853E+04  0.16924852853E+04  0.00000000000E+00 0. -1.
         25    2    1    2    0    0 -0.12490865163E+03 -0.89912188683E+03  0.25052083361E+04  0.26675316827E+04  0.12503652386E+03 0.  0.
          2    1    1    2  501    0 -0.89625025952E+01 -0.19971580589E+02 -0.14044956535E+04  0.14046662348E+04  0.00000000000E+00 0. -1.
          1    1    1    2  502    0  0.13387115422E+03  0.91909346742E+03  0.83640712908E+03  0.12498924647E+04  0.00000000000E+00 0. -1.
         22    1    3    3    0    0 -0.83866590912E+02 -0.32255810127E+03  0.10542689201E+04  0.11056944830E+04  0.00000000000E+00 0. -1.
         22    1    3    3    0    0 -0.41042060716E+02 -0.57656378557E+03  0.14509394160E+04  0.15618371997E+04  0.00000000000E+00 0. -1.
</event>
<event>
 7    1  0.7459264E-005  0.9835711E+02  0.7818608E-02  0.1298470E+00
          2   -1    0    0  502    0  0.00000000000E+00  0.00000000000E+00  0.12583890723E+04  0.12583890723E+04  0.00000000000E+00 0. -1.
          1   -1    0    0  501    0 -0.00000000000E+00 -0.00000000000E+00 -0.15178250215E+03  0.15178250215E+03  0.00000000000E+00 0. -1.
         25    2    1    2    0    0  0.71232690405E+02  0.64164784742E+02  0.22158311884E+03  0.27187463627E+03  0.12500209401E+03 0.  0.
          2    1    1    2  501    0 -0.76995506461E+02  0.37732088877E+02 -0.10920474752E+03  0.13884414077E+03  0.00000000000E+00 0. -1.
          1    1    1    2  502    0  0.57628160559E+01 -0.10189687362E+03  0.99422819887E+03  0.99945279745E+03  0.00000000000E+00 0. -1.
         22    1    3    3    0    0  0.80715945970E+01 -0.18411329858E+02 -0.65719820980E+01  0.21149909106E+02  0.00000000000E+00 0.  1.
         22    1    3    3    0    0  0.63161095808E+02  0.82576114600E+02  0.22815510094E+03  0.25072472717E+03  0.00000000000E+00 0.  1.
</event>
<event>
 7    1  0.7459264E-005  0.4233433E+02  0.7818608E-02  0.1537923E+00
          2   -1    0    0  502    0  0.00000000000E+00  0.00000000000E+00  0.20824206116E+02  0.20824206116E+02  0.00000000000E+00 0. -1.
          1   -1    0    0  501    0 -0.00000000000E+00 -0.00000000000E+00 -0.20123217350E+04  0.20123217350E+04  0.00000000000E+00 0. -1.
         25    2    1    2    0    0  0.49853565601E+02 -0.50502630686E+02 -0.53029823390E+03  0.54943334726E+03  0.12499957000E+03 0.  0.
          2    1    1    2  501    0 -0.24426575617E+02  0.19103420936E+02 -0.14354859704E+04  0.14358208696E+04  0.00000000000E+00 0. -1.
          1    1    1    2  502    0 -0.25426989984E+02  0.31399209750E+02 -0.25713324571E+02  0.47891724264E+02  0.00000000000E+00 0. -1.
         22    1    3    3    0    0  0.48330871424E+01  0.39696618847E+02 -0.10517668699E+03  0.11252251226E+03  0.00000000000E+00 0. -1.
         22    1    3    3    0    0  0.45020478459E+02 -0.90199249533E+02 -0.42512154690E+03  0.43691083500E+03  0.00000000000E+00 0. -1.
</event>
<event>
 7    1  0.7459264E-005  0.2538655E+03  0.7818608E-02  0.1169745E+00
          2   -1    0    0  502    0  0.00000000000E+00  0.00000000000E+00  0.27299435943E+03  0.27299435943E+03  0.00000000000E+00 0. -1.
          1   -1    0    0  501    0 -0.00000000000E+00 -0.00000000000E+00 -0.28903828271E+04  0.28903828271E+04  0.00000000000E+00 0. -1.
         25    2    1    2    0    0  0.42196347988E+02 -0.29657383236E+03 -0.14730125134E+02  0.32492713221E+03  0.12499637930E+03 0.  0.
          2    1    1    2  501    0  0.77098173178E+02  0.98159058989E+02 -0.26039408427E+04  0.26069306170E+04  0.00000000000E+00 0. -1.
          1    1    1    2  502    0 -0.11929452117E+03  0.19841477337E+03  0.12825001797E+01  0.23151943737E+03  0.00000000000E+00 0. -1.
         22    1    3    3    0    0 -0.37432923365E+02 -0.38879585342E+02  0.65769339757E+01  0.54370046612E+02  0.00000000000E+00 0.  1.
         22    1    3    3    0    0  0.79629271353E+02 -0.25769424702E+03 -0.21307059109E+02  0.27055708560E+03  0.00000000000E+00 0.  1.
</event>
<event>
 7    1  0.7459264E-005  0.1364573E+03  0.7818608E-02  0.1235159E+00
          2   -1    0    0  502    0  0.00000000000E+00  0.00000000000E+00  0.14859483616E+03  0.14859483616E+03  0.00000000000E+00 0. -1.
          1   -1    0    0  501    0 -0.00000000000E+00 -0.00000000000E+00 -0.10559653435E+04  0.10559653435E+04  0.00000000000E+00 0. -1.
         25    2    1    2    0    0  0.42982264232E+01 -0.22781659169E+03 -0.51338524178E+02  0.26491496834E+03  0.12500168873E+03 0.  0.
          2    1    1    2  501    0  0.45065185446E+02  0.12461557353E+03 -0.80245266231E+03  0.81332047027E+03  0.00000000000E+00 0. -1.
          1    1    1    2  502    0 -0.49363411869E+02  0.10320101817E+03 -0.53579320852E+02  0.12632474106E+03  0.00000000000E+00 0. -1.
         22    1    3    3    0    0  0.22257249694E+01  0.49069330491E+01 -0.30811115673E+02  0.31278693908E+02  0.00000000000E+00 0.  1.
         22    1    3    3    0    0  0.20725014538E+01 -0.23272352474E+03 -0.20527408506E+02  0.23363627443E+03  0.00000000000E+00 0.  1.
</event>
<event>
 7    1  0.7459264E-005  0.4604969E+03  0.7818608E-02  0.1181076E+00
          2   -1    0    0  502    0  0.00000000000E+00  0.00000000000E+00  0.44860957055E+03  0.44860957055E+03  0.00000000000E+00 0. -1.
          1   -1    0    0  501    0 -0.00000000000E+00 -0.00000000000E+00 -0.17006119255E+04  0.17006119255E+04  0.00000000000E+00 0. -1.
         25    2    1    2    0    0 -0.36844618455E+03  0.28724780006E+03 -0.27176389001E+03  0.55474738659E+03  0.12500064586E+03 0.  0.
          2    1    1    2  501    0  0.46050237076E+02  0.39268750238E+02 -0.11146824397E+04  0.11163241467E+04  0.00000000000E+00 0. -1.
          1    1    1    2  502    0  0.32239594747E+03 -0.32651655030E+03  0.13444397475E+03  0.47814996279E+03  0.00000000000E+00 0. -1.
         22    1    3    3    0    0 -0.16489026577E+03  0.19480242102E+03 -0.10563914950E+03  0.27621805315E+03  0.00000000000E+00 0.  1.
         22    1    3    3    0    0 -0.20355591878E+03  0.92445379047E+02 -0.16612474051E+03  0.27852933344E+03  0.00000000000E+00 0.  1.
</event>
<event>
 7    1  0.7459264E-005  0.1255928E+03  0.7818608E-02  0.1294459E+00
          2   -1    0    0  502    0  0.00000000000E+00  0.00000000000E+00  0.33419075873E+03  0.33419075873E+03  0.00000000000E+00 0. -1.
          1   -1    0    0  501    0 -0.00000000000E+00 -0.00000000000E+00 -0.49908234168E+03  0.49908234168E+03  0.00000000000E+00 0. -1.
         25    2    1    2    0    0 -0.16974753510E+03 -0.49621751960E+02  0.98629006447E+02  0.23797061459E+03  0.12500315418E+03 0.  0.
          2    1    1    2  501    0  0.69689967864E+02 -0.68683819707E+00 -0.40720592560E+03  0.41312689239E+03  0.00000000000E+00 0. -1.
          1    1    1    2  502    0  0.10005756724E+03  0.50308590157E+02  0.14368533620E+03  0.18217559344E+03  0.00000000000E+00 0. -1.
         22    1    3    3    0    0 -0.20503558669E+02  0.23229664298E+00 -0.28896103558E+02  0.35432113692E+02  0.00000000000E+00 0. -1.
         22    1    3    3    0    0 -0.14924397643E+03 -0.49854048603E+02  0.12752511000E+03  0.20253850089E+03  0.00000000000E+00 0. -1.
</event>
<event>
 7    1  0.7459264E-005  0.3540935E+03  0.7818608E-02  0.1217573E+00
          2   -1    0    0  502    0  0.00000000000E+00  0.00000000000E+00  0.24252358759E+04  0.24252358759E+04  0.00000000000E+00 0. -1.
          1   -1    0    0  501    0 -0.00000000000E+00 -0.00000000000E+00 -0.16830889672E+03  0.16830889672E+03  0.00000000000E+00 0. -1.
         25    2    1    2    0    0 -0.23904604306E+03 -0.28258715582E+03  0.57098909993E+03  0.69184502860E+03  0.12498991970E+03 0.  0.
          2    1    1    2  501    0  0.25818396727E+03  0.23324648418E+03  0.17433900893E+03  0.38917473373E+03  0.00000000000E+00 0. -1.
          1    1    1    2  502    0 -0.19137924213E+02  0.49340671641E+02  0.15115988704E+04  0.15125250103E+04  0.00000000000E+00 0. -1.
         22    1    3    3    0    0 -0.42942422042E+02 -0.11776751993E+03  0.12201447642E+03  0.17493076578E+03  0.00000000000E+00 0.  1.
         22    1    3    3    0    0 -0.19610362102E+03 -0.16481963589E+03  0.44897462350E+03  0.51691426282E+03  0.00000000000E+00 0.  1.
</event>
<event>
 7    1  0.7459264E-005  0.8293620E+02  0.7818608E-02  0.1328637E+00
          2   -1    0    0  502    0  0.00000000000E+00  0.00000000000E+00  0.94310305211E+03  0.94310305211E+03  0.00000000000E+00 0. -1.
          1   -1    0    0  501    0 -0.00000000000E+00 -0.00000000000E+00 -0.17231194382E+03  0.17231194382E+03  0.00000000000E+00 0. -1.
         25    2    1    2    0    0  0.95260977694E+01 -0.28329082995E+01  0.46031909418E+03  0.47709172957E+03  0.12499631214E+03 0.  0.
          2    1    1    2  501    0 -0.77419239647E+02 -0.34436506582E+02 -0.14951820138E+03  0.17185838413E+03  0.00000000000E+00 0. -1.
          1    1    1    2  502    0  0.67893141878E+02  0.37269414881E+02  0.45999021549E+03  0.46646488222E+03  0.00000000000E+00 0. -1.
         22    1    3    3    0    0  0.82667831018E+01 -0.56788509818E+02  0.12611418060E+03  0.13855706803E+03  0.00000000000E+00 0. -1.
         22    1    3    3    0    0  0.12593146675E+01  0.53955601518E+02  0.33420491357E+03  0.33853466154E+03  0.00000000000E+00 0. -1.
</event>
<event>
 7    1  0.7459264E-005  0.2092469E+03  0.7818608E-02  0.1211210E+00
          2   -1    0    0  502    0  0.00000000000E+00  0.00000000000E+00  0.37162596295E+04  0.37162596295E+04  0.00000000000E+00 0. -1.
          1   -1    0    0  501    0 -0.00000000000E+00 -0.00000000000E+00 -0.31497756222E+02  0.31497756222E+02  0.00000000000E+00 0. -1.
         25    2    1    2    0    0  0.23243623389E+03 -0.80019183395E+02  0.14950208974E+04  0.15202441234E+04  0.12500015486E+03 0.  0.
          2    1    1    2  501    0 -0.32921311067E+02  0.89970066846E+02  0.14980766764E+03  0.17782227907E+03  0.00000000000E+00 0. -1.
          1    1    1    2  502    0 -0.19951492283E+03 -0.99508834507E+01  0.20399333083E+04  0.20496909832E+04  0.00000000000E+00 0. -1.
         22    1    3    3    0    0  0.21375804666E+01  0.23011912323E+02  0.10513107812E+03  0.10764135333E+03  0.00000000000E+00 0. -1.
         22    1    3    3    0    0  0.23029865343E+03 -0.10303109572E+03  0.13898898193E+04  0.14126027701E+04  0.00000000000E+00 0. -1.
</event>
<event>
 7    1  0.7459264E-005  0.6826171E+03  0.7818608E-02  0.1049945E+00
          2   -1    0    0  502    0  0.00000000000E+00  0.00000000000E+00  0.24780284019E+04  0.24780284019E+04  0.00000000000E+00 0. -1.
          1   -1    0    0  501    0 -0.00000000000E+00 -0.00000000000E+00 -0.51476426779E+03  0.51476426779E+03  0.00000000000E+00 0. -1.
         25    2    1    2    0    0 -0.42641718982E+03 -0.56316470756E+03  0.20085664912E+03  0.74495256080E+03  0.12499926689E+03 0.  0.
          2    1    1    2  501    0  0.55154714120E+03  0.38889406676E+03  0.24905295342E+03  0.71935402810E+03  0.00000000000E+00 0. -1.
          1    1    1    2  502    0 -0.12512995138E+03  0.17427064080E+03  0.15133545316E+04  0.15284860808E+04  0.00000000000E+00 0. -1.
         22    1    3    3    0    0 -0.14265147526E+03 -0.11639346893E+03  0.86732437570E+02  0.20351756369E+03  0.00000000000E+00 0. -1.
         22    1    3    3    0    0 -0.28376571456E+03 -0.44677123864E+03  0.11412421155E+03  0.54143499711E+03  0.00000000000E+00 0. -1.
</event>
<event>
 7    1  0.7459264E-005  0.7576325E+02  0.7818608E-02  0.1394803E+00
          2   -1    0    0  502    0  0.00000000000E+00  0.00000000000E+00  0.85881248245E+03  0.85881248245E+03  0.00000000000E+00 0. -1.
          1   -1    0    0  501    0 -0.00000000000E+00 -0.00000000000E+00 -0.34340349968E+03  0.34340349968E+03  0.00000000000E+00 0. -1.
         25    2    1    2    0    0  0.32451082542E+02 -0.45632815240E+02 -0.11360150741E+03  0.17794824501E+03  0.12499939532E+03 0.  0.
          2    1    1    2  501    0  0.41136834259E+02  0.26021182760E+02 -0.19284400046E+03  0.19889230653E+03  0.00000000000E+00 0. -1.
          1    1    1    2  502    0 -0.73587916801E+02  0.19611632480E+02  0.82185449064E+03  0.82537543059E+03  0.00000000000E+00 0. -1.
         22    1    3    3    0    0  0.75760188975E+02 -0.51392632441E+02 -0.63184126026E+02  0.11123417948E+03  0.00000000000E+00 0.  1.
         22    1    3    3    0    0 -0.43309106433E+02  0.57598172007E+01 -0.50417381380E+02  0.66714065529E+02  0.00000000000E+00 0.  1.
</event>
<event>
 7    1  0.7459264E-005  0.1686937E+03  0.7818608E-02  0.1394777E+00
          2   -1    0    0  502    0  0.00000000000E+00  0.00000000000E+00  0.25014504625E+04  0.25014504625E+04  0.00000000000E+00 0. -1.
          1   -1    0    0  501    0 -0.00000000000E+00 -0.00000000000E+00 -0.18965628085E+03  0.18965628085E+03  0.00000000000E+00 0. -1.
         25    2    1    2    0    0  0.46672458552E+02  0.14032451988E+03  0.79913862626E+02  0.20947712945E+03  0.12500061223E+03 0.  0.
          2    1    1    2  501    0  0.50615056790E+01  0.21271957825E+02 -0.12083821027E+03  0.12280060298E+03  0.00000000000E+00 0. -1.
          1    1    1    2  502    0 -0.51733964231E+02 -0.16159647771E+03  0.23527185293E+04  0.23588290110E+04  0.00000000000E+00 0. -1.
         22    1    3    3    0    0  0.81676736216E+02  0.11719454785E+03  0.33137707921E+02  0.14664160041E+03  0.00000000000E+00 0. -1.
         22    1    3    3    0    0 -0.35004277664E+02  0.23129972030E+02  0.46776154705E+02  0.62835529041E+02  0.00000000000E+00 0. -1.
</event>
<event>
 7    1  0.7459264E-005  0.1931301E+03  0.7818608E-02  0.1367329E+00
          2   -1    0    0  502    0  0.00000000000E+00  0.00000000000E+00  0.12210899340E+04  0.12210899340E+04  0.00000000000E+00 0. -1.
          1   -1    0    0  501    0 -0.00000000000E+00 -0.00000000000E+00 -0.68369679851E+03  0.68369679851E+03  0.00000000000E+00 0. -1.
         25    2    1    2    0    0  0.76935809204E+02 -0.17390796875E+03 -0.23854723345E+03  0.32968830551E+03  0.12500598334E+03 0.  0.
          2    1    1    2  501    0 -0.56781889593E+02  0.18672250697E+03 -0.37561682087E+03  0.42329360226E+03  0.00000000000E+00 0. -1.
          1    1    1    2  502    0 -0.20153919611E+02 -0.12814538218E+02  0.11515571898E+04  0.11518048247E+04  0.00000000000E+00 0. -1.
         22    1    3    3    0    0  0.62324548564E+02 -0.19117521886E+03 -0.19241438254E+03  0.27830847682E+03  0.00000000000E+00 0.  1.
         22    1    3    3    0    0  0.14611260641E+02  0.17267250107E+02 -0.46132850911E+02  0.51379828697E+02  0.00000000000E+00 0.  1.
</event>
<event>
 7    1  0.7459264E-005  0.3643063E+03  0.7818608E-02  0.1210068E+00
          2   -1    0    0  502    0  0.00000000000E+00  0.00000000000E+00  0.18893549607E+04  0.18893549607E+04  0.00000000000E+00 0. -1.
          1   -1    0    0  501    0 -0.00000000000E+00 -0.00000000000E+00 -0.12653375611E+03  0.12653375611E+03  0.00000000000E+00 0. -1.
         25    2    1    2    0    0 -0.38066453052E+03  0.10875698388E+03  0.59592353541E+03  0.72628099970E+03  0.12500265650E+03 0.  0.
          2    1    1    2  501    0  0.33084901381E+03 -0.83835614379E+02  0.42252801589E+03  0.54315688746E+03  0.00000000000E+00 0. -1.
          1    1    1    2  502    0  0.49815516713E+02 -0.24921369504E+02  0.74436965324E+03  0.74645082961E+03  0.00000000000E+00 0. -1.
         22    1    3    3    0    0 -0.35004432195E+03  0.86538524774E+02  0.58447641196E+03  0.68675513812E+03  0.00000000000E+00 0. -1.
         22    1    3    3    0    0 -0.30620208573E+02  0.22218459109E+02  0.11447123446E+02  0.39525861577E+02  0.00000000000E+00 0. -1.
</event>
<event>
 7    1  0.7459264E-005  0.2743767E+03  0.7818608E-02  0.1211081E+00
          2   -1    0    0  502    0  0.00000000000E+00  0.00000000000E+00  0.23782900136E+04  0.23782900136E+04  0.00000000000E+00 0. -1.
          1   -1    0    0  501    0 -0.00000000000E+00 -0.00000000000E+00 -0.37574819256E+03  0.37574819256E+03  0.00000000000E+00 0. -1.
         25    2    1    2    0    0 -0.11330684947E+03 -0.29704692253E+03  0.12507735087E+04  0.12965873748E+04  0.12501653542E+03 0.  0.
          2    1    1    2  501    0  0.43236291442E+02  0.59021370600E+02 -0.33490814365E+03  0.34280659820E+03  0.00000000000E+00 0. -1.
          1    1    1    2  502    0  0.70070558029E+02  0.23802555193E+03  0.10866764560E+04  0.11146442331E+04  0.00000000000E+00 0. -1.
         22    1    3    3    0    0  0.21134124502E+02 -0.85459405889E+02  0.25602827280E+03  0.27074053584E+03  0.00000000000E+00 0. -1.
         22    1    3    3    0    0 -0.13444097397E+03 -0.21158751664E+03  0.99474523588E+03  0.10258468390E+04  0.00000000000E+00 0. -1.
</event>
<event>
 7    1  0.7459264E-005  0.7480678E+02  0.7818608E-02  0.1380861E+00
          2   -1    0    0  502    0  0.00000000000E+00  0.00000000000E+00  0.29625526826E+04  0.29625526826E+04  0.00000000000E+00 0. -1.
          1   -1    0    0  501    0 -0.00000000000E+00 -0.00000000000E+00 -0.67350274978E+03  0.67350274978E+03  0.00000000000E+00 0. -1.
         25    2    1    2    0    0 -0.10542076596E+03 -0.66482503219E+02  0.12542535296E+02  0.17696336546E+03  0.12500102557E+03 0.  0.
          2    1    1    2  501    0  0.53639365049E+02  0.12872768558E+02 -0.58952023622E+03  0.59209543028E+03  0.00000000000E+00 0. -1.
          1    1    1    2  502    0  0.51781400913E+02  0.53609734662E+02  0.28660276337E+04  0.28669966366E+04  0.00000000000E+00 0. -1.
         22    1    3    3    0    0  0.26686917414E+02 -0.94092027945E+01  0.16952987506E+02  0.32986791958E+02  0.00000000000E+00 0. -1.
         22    1    3    3    0    0 -0.13210768338E+03 -0.57073300425E+02 -0.44104522101E+01  0.14397657350E+03  0.00000000000E+00 0. -1.
</event>
<event>
 7    1  0.7459264E-005  0.3161099E+03  0.7818608E-02  0.1110714E+00
          2   -1    0    0  502    0  0.00000000000E+00  0.00000000000E+00  0.14228028996E+04  0.14228028996E+04  0.00000000000E+00 0. -1.
          1   -1    0    0  501    0 -0.00000000000E+00 -0.00000000000E+00 -0.16449796536E+04  0.16449796536E+04  0.00000000000E+00 0. -1.
         25    2    1    2    0    0  0.20621328337E+03  0.40335864579E+03 -0.40323921012E+03  0.61922594781E+03  0.12496718966E+03 0.  0.
          2    1    1    2  501    0 -0.18247274258E+03 -0.91933073922E+02 -0.11057058829E+04  0.11244258497E+04  0.00000000000E+00 0. -1.
          1    1    1    2  502    0 -0.23740540791E+02 -0.31142557187E+03  0.12867683390E+04  0.13241307558E+04  0.00000000000E+00 0. -1.
         22    1    3    3    0    0  0.17654086863E+03  0.21027249897E+03 -0.23239819398E+03  0.35970838562E+03  0.00000000000E+00 0. -1.
         22    1    3    3    0    0  0.29672414743E+02  0.19308614682E+03 -0.17084101613E+03  0.25951756219E+03  0.00000000000E+00 0. -1.
</event>
<event>
 7    1  0.7459264E-005  0.1828934E+03  0.7818608E-02  0.1279959E+00
          2   -1    0    0  502    0  0.00000000000E+00  0.00000000000E+00  0.24018493760E+04  0.24018493760E+04  0.00000000000E+00 0. -1.
          1   -1    0    0  501    0 -0.00000000000E+00 -0.00000000000E+00 -0.66919106712E+03  0.66919106712E+03  0.00000000000E+00 0. -1.
         25    2    1    2    0    0  0.18297540704E+03 -0.14381790083E+03  0.17187957211E+04  0.17389780433E+04  0.12498926314E+03 0.  0.
          2    1    1    2  501    0 -0.13059634360E+03  0.12753340982E+03 -0.64530035268E+03  0.67062114547E+03  0.00000000000E+00 0. -1.
          1    1    1    2  502    0 -0.52379063434E+02  0.16284491016E+02  0.65916294043E+03  0.66144125436E+03  0.00000000000E+00 0. -1.
         22    1    3    3    0    0  0.13121113830E+03 -0.23787910094E+02  0.84357431533E+03  0.85404909283E+03  0.00000000000E+00 0.  1.
         22    1    3    3    0    0  0.51764268733E+02 -0.12002999074E+03  0.87522140577E+03  0.88492895043E+03  0.00000000000E+00 0.  1.
</event>
<event>
 7    1  0.1174019E-004  0.1098060E+03  0.7818608E-02  0.1285388E+00
          2   -1    0    0  502    0  0.00000000000E+00  0.00000000000E+00  0.16879720419E+04  0.16879720419E+04  0.00000000000E+00 0. -1.
          1   -1    0    0  501    0 -0.00000000000E+00 -0.00000000000E+00 -0.23676322895E+04  0.23676322895E+04  0.00000000000E+00 0. -1.
         25    2    1    2    0    0  0.80878763717E+02 -0.17116513682E+03 -0.60864576200E+02  0.23487849110E+03  0.12499812184E+03 0.  0.
          2    1    1    2  501    0 -0.13381897301E+02  0.85743512495E+02 -0.22170600210E+04  0.22187577970E+04  0.00000000000E+00 0. -1.
          1    1    1    2  502    0 -0.67496866417E+02  0.85421624322E+02  0.15982643495E+04  0.16019680433E+04  0.00000000000E+00 0. -1.
         22    1    3    3    0    0  0.28250546683E+02 -0.31557112697E+02 -0.73831507663E+02  0.85117778833E+02  0.00000000000E+00 0. -1.
         22    1    3    3    0    0  0.52628217034E+02 -0.13960802412E+03  0.12966931463E+02  0.14976071227E+03  0.00000000000E+00 0. -1.
</event>
<event>
 7    1  0.7459264E-005  0.8409494E+03  0.7818608E-02  0.1105868E+00
          2   -1    0    0  502    0  0.00000000000E+00  0.00000000000E+00  0.42411251828E+04  0.42411251828E+04  0.00000000000E+00 0. -1.
          1   -1    0    0  501    0 -0.00000000000E+00 -0.00000000000E+00 -0.32917723808E+03  0.32917723808E+03  0.00000000000E+00 0. -1.
         25    2    1    2    0    0  0.84525685947E+03  0.17548838320E+03  0.50598224694E+03  0.10084137964E+04  0.12500007739E+03 0.  0.
          2    1    1    2  501    0 -0.76795771646E+03 -0.14900477425E+03  0.19140913552E+04  0.20677783230E+04  0.00000000000E+00 0. -1.
          1    1    1    2  502    0 -0.77299143014E+02 -0.26483608953E+02  0.14918743426E+04  0.14941103015E+04  0.00000000000E+00 0. -1.
         22    1    3    3    0    0 -0.25869046826E+01 -0.86066619572E+00  0.10176482776E+02  0.10535351149E+02  0.00000000000E+00 0.  1.
         22    1    3    3    0    0  0.84784376415E+03  0.17634904940E+03  0.49580576416E+03  0.99787844521E+03  0.00000000000E+00 0.  1.
</event>
<event>
 7    1  0.7459264E-005  0.6104564E+03  0.7818608E-02  0.1102089E+00
          2   -1    0    0  502    0  0.00000000000E+00  0.00000000000E+00  0.37207968118E+04  0.37207968118E+04  0.00000000000E+00 0. -1.
          1   -1    0    0  501    0 -0.00000000000E+00 -0.00000000000E+00 -0.17607413101E+03  0.17607413101E+03  0.00000000000E+00 0. -1.
         25    2    1    2    0    0 -0.63384965395E+03 -0.21021996746E+03  0.10633873774E+04  0.12618937611E+04  0.12500132501E+03 0.  0.
          2    1    1    2  501    0  0.51585207447E+03  0.21668993692E+03  0.97595011888E+03  0.11249606775E+04  0.00000000000E+00 0. -1.
          1    1    1    2  502    0  0.11799757948E+03 -0.64699694593E+01  0.15053851845E+04  0.15100165042E+04  0.00000000000E+00 0. -1.
         22    1    3    3    0    0 -0.53366132391E+03 -0.17197897922E+03  0.96654907727E+03  0.11174024775E+04  0.00000000000E+00 0. -1.
         22    1    3    3    0    0 -0.10018833004E+03 -0.38240988242E+02  0.96838300178E+02  0.14449128361E+03  0.00000000000E+00 0. -1.
</event>
<event>
 7    1  0.7459264E-005  0.9514930E+02  0.7818608E-02  0.1362534E+00
          2   -1    0    0  502    0  0.00000000000E+00  0.00000000000E+00  0.13306922351E+04  0.13306922351E+04  0.00000000000E+00 0. -1.
          1   -1    0    0  501    0 -0.00000000000E+00 -0.00000000000E+00 -0.33176582206E+03  0.33176582206E+03  0.00000000000E+00 0. -1.
         25    2    1    2    0    0  0.74285326129E+02  0.38468592224E+02 -0.16874437175E+03  0.22604683119E+03  0.12499745849E+03 0.  0.
          2    1    1    2  501    0 -0.25555503595E+02  0.43503619770E+02 -0.12781879920E+03  0.13741649874E+03  0.00000000000E+00 0. -1.
          1    1    1    2  502    0 -0.48729822534E+02 -0.81972211994E+02  0.12954895840E+04  0.12989947272E+04  0.00000000000E+00 0. -1.
         22    1    3    3    0    0  0.99999108181E+02  0.21134264010E+02 -0.73528901251E+02  0.12590861000E+03  0.00000000000E+00 0.  1.
         22    1    3    3    0    0 -0.25713782052E+02  0.17334328214E+02 -0.95215470497E+02  0.10013822119E+03  0.00000000000E+00 0.  1.
</event>
<event>
 7    1  0.7459264E-005  0.4463725E+03  0.7818608E-02  0.1133437E+00
          2   -1    0    0  502    0  0.00000000000E+00  0.00000000000E+00  0.17208209756E+04  0.17208209756E+04  0.00000000000E+00 0. -1.
          1   -1    0    0  501    0 -0.00000000000E+00 -0.00000000000E+00 -0.37801780393E+03  0.37801780393E+03  0.00000000000E+00 0. -1.
         25    2    1    2    0    0 -0.23066665924E+03  0.26238146509E+03  0.12546177770E+04  0.13083354134E+04  0.12499858680E+03 0.  0.
          2    1    1    2  501    0  0.29489171976E+03 -0.35047717324E+03 -0.18682580670E+03  0.49467085763E+03  0.00000000000E+00 0. -1.
          1    1    1    2  502    0 -0.64225060522E+02  0.88095708143E+02  0.27501120139E+03  0.29583250849E+03  0.00000000000E+00 0. -1.
         22    1    3    3    0    0 -0.10808273505E+03  0.11831791337E+03  0.36184592868E+03  0.39574421328E+03  0.00000000000E+00 0.  1.
         22    1    3    3    0    0 -0.12258392419E+03  0.14406355172E+03  0.89277184827E+03  0.91259120008E+03  0.00000000000E+00 0.  1.
</event>
<event>
 7    1  0.7459264E-005  0.1219771E+03  0.7818608E-02  0.1244991E+00
          2   -1    0    0  502    0  0.00000000000E+00  0.00000000000E+00  0.18453450482E+03  0.18453450482E+03  0.00000000000E+00 0. -1.
          1   -1    0    0  501    0 -0.00000000000E+00 -0.00000000000E+00 -0.47427676063E+03  0.47427676063E+03  0.00000000000E+00 0. -1.
         25    2    1    2    0    0 -0.12689681816E+03  0.24307099607E+02 -0.34661500695E+03  0.39046040559E+03  0.12499491085E+03 0.  0.
          2    1    1    2  501    0  0.65621153775E+02 -0.12259124074E+03 -0.60796527335E+00  0.13905077400E+03  0.00000000000E+00 0. -1.
          1    1    1    2  502    0  0.61275664385E+02  0.98284141135E+02  0.57480716412E+02  0.12930008586E+03  0.00000000000E+00 0. -1.
         22    1    3    3    0    0  0.19904750778E+01  0.80406025611E+01  0.87773269797E+01  0.12068750950E+02  0.00000000000E+00 0.  1.
         22    1    3    3    0    0 -0.12888729324E+03  0.16266497046E+02 -0.35539233393E+03  0.37839165464E+03  0.00000000000E+00 0.  1.
</event>
<event>
 7    1  0.7459264E-005  0.1554591E+03  0.7818608E-02  0.1276443E+00
          2   -1    0    0  502    0  0.00000000000E+00  0.00000000000E+00  0.88831866989E+02  0.88831866989E+02  0.00000000000E+00 0. -1.
          1   -1    0    0  501    0 -0.00000000000E+00 -0.00000000000E+00 -0.67081137064E+03  0.67081137064E+03  0.00000000000E+00 0. -1.
         25    2    1    2    0    0 -0.33731117356E+02 -0.12459564090E+03 -0.29755085577E+03  0.34759668396E+03  0.12500032369E+03 0.  0.
          2    1    1    2  501    0  0.87201542967E+02  0.16452538647E+03 -0.29048026365E+03  0.34503839708E+03  0.00000000000E+00 0. -1.
          1    1    1    2  502    0 -0.53470425611E+02 -0.39929745570E+02  0.60516157627E+01  0.67008156590E+02  0.00000000000E+00 0. -1.
         22    1    3    3    0    0  0.97018286396E+01  0.23242711690E+02 -0.34089182062E+02  0.42384212383E+02  0.00000000000E+00 0.  1.
         22    1    3    3    0    0 -0.43432945996E+02 -0.14783835259E+03 -0.26346167370E+03  0.30521247158E+03  0.00000000000E+00 0.  1.
</event>
<event>
 7    1  0.7459264E-005  0.1854669E+03  0.7818608E-02  0.1346945E+00
          2   -1    0    0  502    0  0.00000000000E+00  0.00000000000E+00  0.14085422782E+04  0.14085422782E+04  0.00000000000E+00 0. -1.
          1   -1    0    0  501    0 -0.00000000000E+00 -0.00000000000E+00 -0.49821091179E+02  0.49821091179E+02  0.00000000000E+00 0. -1.
         25    2    1    2    0    0 -0.16756562774E+03 -0.94004203392E+02  0.86876709337E+03  0.89849701527E+03  0.12500237627E+03 0.  0.
          2    1    1    2  501    0  0.25273111187E+02 -0.15289926871E+02 -0.79761030568E+01  0.30596245403E+02  0.00000000000E+00 0. -1.
          1    1    1    2  502    0  0.14229251655E+03  0.10929413026E+03  0.49793019673E+03  0.52927010873E+03  0.00000000000E+00 0. -1.
         22    1    3    3    0    0  0.25786895480E+01 -0.35641179449E+02  0.29600062594E+03  0.29814981783E+03  0.00000000000E+00 0. -1.
         22    1    3    3    0    0 -0.17014431729E+03 -0.58363023943E+02  0.57276646742E+03  0.60034719744E+03  0.00000000000E+00 0. -1.
</event>
<event>
 7    1  0.7459264E-005  0.1893773E+03  0.7818608E-02  0.1198406E+00
          2   -1    0    0  502    0  0.00000000000E+00  0.00000000000E+00  0.18834883822E+04  0.18834883822E+04  0.00000000000E+00 0. -1.
          1   -1    0    0  501    0 -0.00000000000E+00 -0.00000000000E+00 -0.44579026346E+03  0.44579026346E+03  0.00000000000E+00 0. -1.
         25    2    1    2    0    0  0.35485986476E+02  0.22720037854E+03 -0.11042809060E+03  0.28407570979E+03  0.12500151381E+03 0.  0.
          2    1    1    2  501    0 -0.10933815505E+03 -0.53008071021E+02 -0.22835704494E+03  0.25867281982E+03  0.00000000000E+00 0. -1.
          1    1    1    2  502    0  0.73852168572E+02 -0.17419230752E+03  0.17764832543E+04  0.17865301160E+04  0.00000000000E+00 0. -1.
         22    1    3    3    0    0  0.13680654109E+02  0.15115618875E+03 -0.13300752597E+03  0.20180771952E+03  0.00000000000E+00 0. -1.
         22    1    3    3    0    0  0.21805332367E+02  0.76044189788E+02  0.22579435375E+02  0.82267990263E+02  0.00000000000E+00 0. -1.
</event>
<event>
 7    1  0.7459264E-005  0.1671866E+04  0.7818608E-02  0.1153732E+00
          2   -1    0    0  502    0  0.00000000000E+00  0.00000000000E+00  0.26584766122E+04  0.26584766122E+04  0.00000000000E+00 0. -1.
          1   -1    0    0  501    0 -0.00000000000E+00 -0.00000000000E+00 -0.13799718899E+04  0.13799718899E+04  0.00000000000E+00 0. -1.
         25    2    1    2    0    0  0.15596028811E+04  0.60068587656E+03  0.14293739781E+04  0.22027074533E+04  0.12500194474E+03 0.  0.
          2    1    1    2  501    0 -0.65067244108E+01  0.21876210153E+02 -0.16087242406E+03  0.16248336178E+03  0.00000000000E+00 0. -1.
          1    1    1    2  502    0 -0.15530961567E+04 -0.62256208672E+03  0.10003168255E+02  0.16732576870E+04  0.00000000000E+00 0. -1.
         22    1    3    3    0    0  0.13007681108E+04  0.54626612138E+03  0.12255337773E+04  0.18687796534E+04  0.00000000000E+00 0. -1.
         22    1    3    3    0    0  0.25883477034E+03  0.54419755181E+02  0.20384020077E+03  0.33392779989E+03  0.00000000000E+00 0. -1.
</event>
<event>
 7    1  0.7459264E-005  0.3818160E+03  0.7818608E-02  0.1297369E+00
          2   -1    0    0  502    0  0.00000000000E+00  0.00000000000E+00  0.28053382382E+03  0.28053382382E+03  0.00000000000E+00 0. -1.
          1   -1    0    0  501    0 -0.00000000000E+00 -0.00000000000E+00 -0.10538587641E+04  0.10538587641E+04  0.00000000000E+00 0. -1.
         25    2    1    2    0    0  0.35016435452E+03  0.17437837838E+03  0.21541042084E+02  0.41123342583E+03  0.12500407992E+03 0.  0.
          2    1    1    2  501    0 -0.34828336581E+03 -0.15214388066E+03 -0.81098923109E+03  0.89562972052E+03  0.00000000000E+00 0. -1.
          1    1    1    2  502    0 -0.18809887101E+01 -0.22234497723E+02  0.16123248689E+02  0.27529441618E+02  0.00000000000E+00 0. -1.
         22    1    3    3    0    0  0.29142814505E+03  0.12704428998E+03 -0.30820444232E+02  0.31940650451E+03  0.00000000000E+00 0.  1.
         22    1    3    3    0    0  0.58736209476E+02  0.47334088407E+02  0.52361486316E+02  0.91826921315E+02  0.00000000000E+00 0.  1.
</event>
<event>
 7    1  0.7459264E-005  0.2369920E+03  0.7818608E-02  0.1254763E+00
          2   -1    0    0  502    0  0.00000000000E+00  0.00000000000E+00  0.26911370312E+04  0.26911370312E+04  0.00000000000E+00 0. -1.
          1   -1    0    0  501    0 -0.00000000000E+00 -0.00000000000E+00 -0.17148629979E+04  0.17148629979E+04  0.00000000000E+00 0. -1.
         25    2    1    2    0    0  0.18474221972E+03 -0.20524018343E+03  0.37558873540E+03  0.48264521912E+03  0.12500515484E+03 0.  0.
          2    1    1    2  501    0 -0.52287309462E+02  0.13755598288E+02 -0.16549007119E+04  0.16557836651E+04  0.00000000000E+00 0. -1.
          1    1    1    2  502    0 -0.13245491026E+03  0.19148458514E+03  0.22555860098E+04  0.22675711449E+04  0.00000000000E+00 0. -1.
         22    1    3    3    0    0  0.13539328703E+03 -0.16152387072E+03  0.18313570422E+03  0.27921316077E+03  0.00000000000E+00 0.  1.
         22    1    3    3    0    0  0.49348932692E+02 -0.43716312712E+02  0.19245303118E+03  0.20343205835E+03  0.00000000000E+00 0.  1.
</event>
<event>
 7    1  0.7459264E-005  0.1263015E+03  0.7818608E-02  0.1247303E+00
          2   -1    0    0  502    0  0.00000000000E+00  0.00000000000E+00  0.35583181030E+03  0.35583181030E+03  0.00000000000E+00 0. -1.
          1   -1    0    0  501    0 -0.00000000000E+00 -0.00000000000E+00 -0.39547270743E+03  0.39547270743E+03  0.00000000000E+00 0. -1.
         25    2    1    2    0    0  0.21413900334E+03  0.72657391647E+02 -0.11112457700E+03  0.28126363667E+03  0.12500380949E+03 0.  0.
          2    1    1    2  501    0 -0.96865604137E+02 -0.50600248991E+02 -0.16918538594E+03  0.20141257478E+03  0.00000000000E+00 0. -1.
          1    1    1    2  502    0 -0.11727339920E+03 -0.22057142656E+02  0.24066906581E+03  0.26862830629E+03  0.00000000000E+00 0. -1.
         22    1    3    3    0    0  0.63248825518E+02  0.20730636248E+01 -0.94665071073E+02  0.11386916704E+03  0.00000000000E+00 0.  1.
         22    1    3    3    0    0  0.15089017782E+03  0.70584328022E+02 -0.16459505923E+02  0.16739446962E+03  0.00000000000E+00 0.  1.
</event>
<event>
 7    1  0.7459264E-005  0.2428458E+03  0.7818608E-02  0.1162978E+00
          2   -1    0    0  502    0  0.00000000000E+00  0.00000000000E+00  0.11772929339E+04  0.11772929339E+04  0.00000000000E+00 0. -1.
          1   -1    0    0  501    0 -0.00000000000E+00 -0.00000000000E+00 -0.26606652128E+04  0.26606652128E+04  0.00000000000E+00 0. -1.
         25    2    1    2    0    0  0.35639480371E+03  0.10360672943E+03 -0.48951910139E+03  0.62690195389E+03  0.12500199466E+03 0.  0.
          2    1    1    2  501    0 -0.21796608878E+03 -0.76534586841E+02 -0.20915827815E+04  0.21043016159E+04  0.00000000000E+00 0. -1.
          1    1    1    2  502    0 -0.13842871493E+03 -0.27072142594E+02  0.10977296040E+04  0.11067545769E+04  0.00000000000E+00 0. -1.
         22    1    3    3    0    0  0.28977161787E+03  0.13211427158E+03 -0.38365277787E+03  0.49860929117E+03  0.00000000000E+00 0.  1.
         22    1    3    3    0    0  0.66623185840E+02 -0.28507542148E+02 -0.10586632352E+03  0.12829266271E+03  0.00000000000E+00 0.  1.
</event>
<event>
 7    1  0.7459264E-005  0.2794477E+03  0.7818608E-02  0.1169859E+00
          2   -1    0    0  502    0  0.00000000000E+00  0.00000000000E+00  0.10813208822E+03  0.10813208822E+03  0.00000000000E+00 0. -1.
          1   -1    0    0  501    0 -0.00000000000E+00 -0.00000000000E+00 -0.26017553038E+04  0.26017553038E+04  0.00000000000E+00 0. -1.
         25    2    1    2    0    0  0.37682418294E+02  0.30593844645E+03 -0.85980110138E+03  0.92190044941E+03  0.12499682799E+03 0.  0.
          2    1    1    2  501    0 -0.10640482395E+03 -0.38756659123E+02 -0.14546067652E+04  0.14590081928E+04  0.00000000000E+00 0. -1.
          1    1    1    2  502    0  0.68722405660E+02 -0.26718178733E+03 -0.17921534893E+03  0.32897874979E+03  0.00000000000E+00 0. -1.
         22    1    3    3    0    0  0.26685474486E+02  0.28356057744E+03 -0.63780352109E+03  0.69850701295E+03  0.00000000000E+00 0.  1.
         22    1    3    3    0    0  0.10996943808E+02  0.22377869009E+02 -0.22199758029E+03  0.22339343645E+03  0.00000000000E+00 0.  1.
</event>
<event>
 7    1  0.7459264E-005  0.1938075E+03  0.7818608E-02  0.1247505E+00
          2   -1    0    0  502    0  0.00000000000E+00  0.00000000000E+00  0.30580317075E+04  0.30580317075E+04  0.00000000000E+00 0. -1.
          1   -1    0    0  501    0 -0.00000000000E+00 -0.00000000000E+00 -0.53112593043E+02  0.53112593043E+02  0.00000000000E+00 0. -1.
         25    2    1    2    0    0 -0.15226233278E+03  0.79653807641E+02  0.10927842694E+04  0.11132522524E+04  0.12499828448E+03 0.  0.
          2    1    1    2  501    0  0.13467670250E+03 -0.14851935384E+03  0.19630679104E+03  0.28059253174E+03  0.00000000000E+00 0. -1.
          1    1    1    2  502    0  0.17585630288E+02  0.68865546199E+02  0.17158280540E+04  0.17172995163E+04  0.00000000000E+00 0. -1.
         22    1    3    3    0    0 -0.74751624208E+02  0.85479380163E+02  0.39037445623E+03  0.40655472674E+03  0.00000000000E+00 0. -1.
         22    1    3    3    0    0 -0.77510708576E+02 -0.58255725220E+01  0.70240981315E+03  0.70669752571E+03  0.00000000000E+00 0. -1.
</event>
<event>
 7    1  0.7459264E-005  0.7624519E+02  0.7818608E-02  0.1380873E+00
          2   -1    0    0  502    0  0.00000000000E+00  0.00000000000E+00  0.51195229824E+03  0.51195229824E+03  0.00000000000E+00 0. -1.
          1   -1    0    0  501    0 -0.00000000000E+00 -0.00000000000E+00 -0.30284039448E+04  0.30284039448E+04  0.00000000000E+00 0. -1.
         25    2    1    2    0    0 -0.12280444752E+03  0.19311028759E+02  0.93681239826E+02  0.19963684101E+03  0.12499938172E+03 0.  0.
          2    1    1    2  501    0  0.75738276541E+02  0.73977805248E+01 -0.29729323009E+04  0.29739060979E+04  0.00000000000E+00 0. -1.
          1    1    1    2  502    0  0.47066170979E+02 -0.26708809283E+02  0.36279941447E+03  0.36681330412E+03  0.00000000000E+00 0. -1.
         22    1    3    3    0    0 -0.65993601649E+02 -0.48213173078E+02  0.71637729549E+02  0.10868132228E+03  0.00000000000E+00 0. -1.
         22    1    3    3    0    0 -0.56810845870E+02  0.67524201837E+02  0.22043510278E+02  0.90955518731E+02  0.00000000000E+00 0. -1.
</event>
<event>
 7    1  0.7459264E-005  0.5807163E+02  0.7818608E-02  0.1458246E+00
          2   -1    0    0  502    0  0.00000000000E+00  0.00000000000E+00  0.41619973608E+03  0.41619973608E+03  0.00000000000E+00 0. -1.
          1   -1    0    0  501    0 -0.00000000000E+00 -0.00000000000E+00 -0.19091269375E+03  0.19091269375E+03  0.00000000000E+00 0. -1.
         25    2    1    2    0    0  0.36220594352E+01  0.27651103045E+02  0.19606777618E+03  0.23419152086E+03  0.12500157108E+03 0.  0.
          2    1    1    2  501    0  0.30891848571E+01  0.39033241547E+02 -0.16389495369E+03  0.16850724867E+03  0.00000000000E+00 0. -1.
          1    1    1    2  502    0 -0.67112442924E+01 -0.66684344592E+02  0.19311421984E+03  0.20441366030E+03  0.00000000000E+00 0. -1.
         22    1    3    3    0    0 -0.44010593385E+02  0.46414485518E+02  0.55829870293E+02  0.84901184992E+02  0.00000000000E+00 0.  1.
         22    1    3    3    0    0  0.47632652820E+02 -0.18763382473E+02  0.14023790589E+03  0.14929033587E+03  0.00000000000E+00 0.  1.
</event>
<event>
 7    1  0.7459264E-005  0.1965962E+03  0.7818608E-02  0.1362119E+00
          2   -1    0    0  502    0  0.00000000000E+00  0.00000000000E+00  0.12575819381E+04  0.12575819381E+04  0.00000000000E+00 0. -1.
          1   -1    0    0  501    0 -0.00000000000E+00 -0.00000000000E+00 -0.55506149460E+03  0.55506149460E+03  0.00000000000E+00 0. -1.
         25    2    1    2    0    0 -0.20316037327E+03  0.48471854012E+02 -0.16392202363E+03  0.29346043592E+03  0.12499975889E+03 0.  0.
          2    1    1    2  501    0  0.18173913164E+03 -0.60370565738E+02 -0.29813817327E+03  0.35434458870E+03  0.00000000000E+00 0. -1.
          1    1    1    2  502    0  0.21421241630E+02  0.11898711726E+02  0.11645806404E+04  0.11648384081E+04  0.00000000000E+00 0. -1.
         22    1    3    3    0    0  0.14099574134E+02  0.16947782761E+02 -0.54662831522E+01  0.22713555044E+02  0.00000000000E+00 0. -1.
         22    1    3    3    0    0 -0.21725994740E+03  0.31524071251E+02 -0.15845574048E+03  0.27074688088E+03  0.00000000000E+00 0. -1.
</event>
<event>
 7    1  0.7459264E-005  0.7163832E+03  0.7818608E-02  0.1089616E+00
          2   -1    0    0  502    0  0.00000000000E+00  0.00000000000E+00  0.14693302979E+04  0.14693302979E+04  0.00000000000E+00 0. -1.
          1   -1    0    0  501    0 -0.00000000000E+00 -0.00000000000E+00 -0.19902501810E+04  0.19902501810E+04  0.00000000000E+00 0. -1.
         25    2    1    2    0    0  0.78611908568E+03 -0.20239966546E+03 -0.17030763435E+03  0.83879582000E+03  0.12499958353E+03 0.  0.
          2    1    1    2  501    0 -0.67205292026E+03  0.17014574945E+03 -0.14013120125E+04  0.15634193488E+04  0.00000000000E+00 0. -1.
          1    1    1    2  502    0 -0.11406616542E+03  0.32253916006E+02  0.10506997638E+04  0.10573653100E+04  0.00000000000E+00 0. -1.
         22    1    3    3    0    0  0.42809036227E+03 -0.17365508758E+03 -0.10433287582E+03  0.47360616200E+03  0.00000000000E+00 0. -1.
         22    1    3    3    0    0  0.35802872341E+03 -0.28744577878E+02 -0.65974758535E+02  0.36518965800E+03  0.00000000000E+00 0. -1.
</event>
<event>
 7    1  0.7459264E-005  0.6224197E+03  0.7818608E-02  0.1180265E+00
          2   -1    0    0  502    0  0.00000000000E+00  0.00000000000E+00  0.18394095311E+04  0.18394095311E+04  0.00000000000E+00 0. -1.
          1   -1    0    0  501    0 -0.00000000000E+00 -0.00000000000E+00 -0.58086321239E+03  0.58086321239E+03  0.00000000000E+00 0. -1.
         25    2    1    2    0    0  0.61536257816E+03  0.14650682673E+02  0.15470627439E+04  0.16697046008E+04  0.12499830148E+03 0.  0.
          2    1    1    2  501    0 -0.62286095061E+03  0.29907878444E+02 -0.20641524517E+03  0.65685424443E+03  0.00000000000E+00 0. -1.
          1    1    1    2  502    0  0.74983724549E+01 -0.44558561117E+02 -0.82101180030E+02  0.93713898225E+02  0.00000000000E+00 0. -1.
         22    1    3    3    0    0  0.40571772566E+03 -0.18945164343E+02  0.87013852037E+03  0.96026394121E+03  0.00000000000E+00 0. -1.
         22    1    3    3    0    0  0.20964485250E+03  0.33595847017E+02  0.67692422351E+03  0.70944065960E+03  0.00000000000E+00 0. -1.
</event>
<event>
 7    1  0.7459264E-005  0.1259783E+03  0.7818608E-02  0.1306740E+00
          2   -1    0    0  502    0  0.00000000000E+00  0.00000000000E+00  0.22664347302E+04  0.22664347302E+04  0.00000000000E+00 0. -1.
          1   -1    0    0  501    0 -0.00000000000E+00 -0.00000000000E+00 -0.21832278031E+03  0.21832278031E+03  0.00000000000E+00 0. -1.
         25    2    1    2    0    0  0.77836386083E+01  0.80880879726E+02  0.45049701412E+03  0.47452524221E+03  0.12499737608E+03 0.  0.
          2    1    1    2  501    0  0.38435660124E+02 -0.12228053839E+03 -0.18580762814E+03  0.22573060208E+03  0.00000000000E+00 0. -1.
          1    1    1    2  502    0 -0.46219298732E+02  0.41399658662E+02  0.17834225639E+04  0.17845016662E+04  0.00000000000E+00 0. -1.
         22    1    3    3    0    0  0.65050458511E+02  0.56082117151E+02  0.28466153630E+03  0.29733643615E+03  0.00000000000E+00 0.  1.
         22    1    3    3    0    0 -0.57266819902E+02  0.24798762575E+02  0.16583547782E+03  0.17718880605E+03  0.00000000000E+00 0.  1.
</event>
<event>
 7    1  0.7459264E-005  0.4095994E+03  0.7818608E-02  0.1188894E+00
          2   -1    0    0  502    0  0.00000000000E+00  0.00000000000E+00  0.52203819703E+03  0.52203819703E+03  0.00000000000E+00 0. -1.
          1   -1    0    0  501    0 -0.00000000000E+00 -0.00000000000E+00 -0.96399377704E+03  0.96399377704E+03  0.00000000000E+00 0. -1.
         25    2    1    2    0    0 -0.28954600733E+02 -0.39548084702E+03 -0.41483515147E+03  0.58732936343E+03  0.12499643590E+03 0.  0.
          2    1    1    2  501    0  0.87307567346E+02  0.41748572187E+03 -0.36116330236E+03  0.55888806595E+03  0.00000000000E+00 0. -1.
          1    1    1    2  502    0 -0.58352966613E+02 -0.22004874848E+02  0.33404287383E+03  0.33981454469E+03  0.00000000000E+00 0. -1.
         22    1    3    3    0    0 -0.10680824226E+01 -0.34294198759E+03 -0.39828946331E+03  0.52558999633E+03  0.00000000000E+00 0.  1.
         22    1    3    3    0    0 -0.27886518311E+02 -0.52538859433E+02 -0.16545688157E+02  0.61739367105E+02  0.00000000000E+00 0.  1.
</event>
<event>
 7    1  0.7459264E-005  0.1484015E+03  0.7818608E-02  0.1404808E+00
          2   -1    0    0  502    0  0.00000000000E+00  0.00000000000E+00  0.13615105661E+04  0.13615105661E+04  0.00000000000E+00 0. -1.
          1   -1    0    0  501    0 -0.00000000000E+00 -0.00000000000E+00 -0.92788332218E+02  0.92788332218E+02  0.00000000000E+00 0. -1.
         25    2    1    2    0    0 -0.15119865144E+03  0.62997472968E+02  0.55389736434E+03  0.59097896765E+03  0.12499654469E+03 0.  0.
          2    1    1    2  501    0  0.15834954122E+02 -0.16622018320E+02 -0.65799830405E+02  0.69689704738E+02  0.00000000000E+00 0. -1.
          1    1    1    2  502    0  0.13536369732E+03 -0.46375454648E+02  0.78062469999E+03  0.79363022597E+03  0.00000000000E+00 0. -1.
         22    1    3    3    0    0 -0.10467589874E+03 -0.50594577378E+01  0.42686741419E+03  0.43954343493E+03  0.00000000000E+00 0. -1.
         22    1    3    3    0    0 -0.46522752702E+02  0.68056930706E+02  0.12702995014E+03  0.15143553272E+03  0.00000000000E+00 0. -1.
</event>
<event>
 7    1  0.7459264E-005  0.1788885E+03  0.7818608E-02  0.1212647E+00
          2   -1    0    0  502    0  0.00000000000E+00  0.00000000000E+00  0.14828857569E+04  0.14828857569E+04  0.00000000000E+00 0. -1.
          1   -1    0    0  501    0 -0.00000000000E+00 -0.00000000000E+00 -0.91350006901E+02  0.91350006901E+02  0.00000000000E+00 0. -1.
         25    2    1    2    0    0 -0.24295896227E+03 -0.12559188015E+02  0.40123205373E+03  0.48559223759E+03  0.12500347883E+03 0.  0.
          2    1    1    2  501    0  0.90448379713E+02 -0.63237113093E+02  0.31412502744E+02  0.11474575022E+03  0.00000000000E+00 0. -1.
          1    1    1    2  502    0  0.15251058256E+03  0.75796301109E+02  0.95889119348E+03  0.97389777595E+03  0.00000000000E+00 0. -1.
         22    1    3    3    0    0 -0.25228744077E+03 -0.17476473790E+01  0.34396874591E+03  0.42657532185E+03  0.00000000000E+00 0. -1.
         22    1    3    3    0    0  0.93284785022E+01 -0.10811540636E+02  0.57263307817E+02  0.59016915747E+02  0.00000000000E+00 0. -1.
</event>
<event>
 7    1  0.7459264E-005  0.1425464E+04  0.7818608E-02  0.1129582E+00
          2   -1    0    0  502    0  0.00000000000E+00  0.00000000000E+00  0.17963465770E+04  0.17963465770E+04  0.00000000000E+00 0. -1.
          1   -1    0    0  501    0 -0.00000000000E+00 -0.00000000000E+00 -0.20610903397E+04  0.20610903397E+04  0.00000000000E+00 0. -1.
         25    2    1    2    0    0 -0.14284544036E+04 -0.25968176446E+03 -0.80549110491E+03  0.16650398153E+04  0.12500025757E+03 0.  0.
          2    1    1    2  501    0  0.35571474064E+02 -0.39448187483E+01 -0.45729835194E+03  0.45869671249E+03  0.00000000000E+00 0. -1.
          1    1    1    2  502    0  0.13928829296E+04  0.26362658320E+03  0.99804569417E+03  0.17337003889E+04  0.00000000000E+00 0. -1.
         22    1    3    3    0    0 -0.28500969440E+03 -0.23578067350E+01 -0.14733847945E+03  0.32084998470E+03  0.00000000000E+00 0. -1.
         22    1    3    3    0    0 -0.11434447092E+04 -0.25732395772E+03 -0.65815262546E+03  0.13441898306E+04  0.00000000000E+00 0. -1.
</event>
<event>
 7    1  0.7459264E-005  0.1878756E+03  0.7818608E-02  0.1242315E+00
          2   -1    0    0  502    0  0.00000000000E+00  0.00000000000E+00  0.22049252154E+04  0.22049252154E+04  0.00000000000E+00 0. -1.
          1   -1    0    0  501    0 -0.00000000000E+00 -0.00000000000E+00 -0.34134880698E+03  0.34134880698E+03  0.00000000000E+00 0. -1.
         25    2    1    2    0    0  0.19063347262E+03  0.68744219000E+02  0.15031663915E+03  0.28157777238E+03  0.12499624540E+03 0.  0.
          2    1    1    2  501    0 -0.18745965110E+03  0.84457872303E+01 -0.24293931911E+03  0.30697225425E+03  0.00000000000E+00 0. -1.
          1    1    1    2  502    0 -0.31738215181E+01 -0.77190006231E+02  0.19561990884E+04  0.19577239958E+04  0.00000000000E+00 0. -1.
         22    1    3    3    0    0  0.64170460793E+02  0.51104940973E+02  0.12788571885E+03  0.15193524974E+03  0.00000000000E+00 0.  1.
         22    1    3    3    0    0  0.12646301182E+03  0.17639278028E+02  0.22430920305E+02  0.12964252263E+03  0.00000000000E+00 0.  1.
</event>
<event>
 7    1  0.7459264E-005  0.1915548E+03  0.7818608E-02  0.1362626E+00
          2   -1    0    0  502    0  0.00000000000E+00  0.00000000000E+00  0.42074517339E+03  0.42074517339E+03  0.00000000000E+00 0. -1.
          1   -1    0    0  501    0 -0.00000000000E+00 -0.00000000000E+00 -0.15017020521E+04  0.15017020521E+04  0.00000000000E+00 0. -1.
         25    2    1    2    0    0 -0.36147180025E+02 -0.20398822710E+03 -0.10101543889E+03  0.26219557606E+03  0.12499834317E+03 0.  0.
          2    1    1    2  501    0  0.15612484702E+02  0.18965440360E+03 -0.13127657619E+04  0.13264865201E+04  0.00000000000E+00 0. -1.
          1    1    1    2  502    0  0.20534695323E+02  0.14333823498E+02  0.33282432204E+03  0.33376512932E+03  0.00000000000E+00 0. -1.
         22    1    3    3    0    0  0.32021258978E+02 -0.22311627551E+02  0.76876603494E+01  0.39777755996E+02  0.00000000000E+00 0. -1.
         22    1    3    3    0    0 -0.68168439002E+02 -0.18167659955E+03 -0.10870309924E+03  0.22241782007E+03  0.00000000000E+00 0. -1.
</event>
<event>
 7    1  0.7459264E-005  0.4470384E+03  0.7818608E-02  0.1047178E+00
          2   -1    0    0  502    0  0.00000000000E+00  0.00000000000E+00  0.12962931695E+04  0.12962931695E+04  0.00000000000E+00 0. -1.
          1   -1    0    0  501    0 -0.00000000000E+00 -0.00000000000E+00 -0.97444414073E+03  0.97444414073E+03  0.00000000000E+00 0. -1.
         25    2    1    2    0    0 -0.43982676496E+03 -0.16648458676E+03  0.54916142481E+03  0.73372523862E+03  0.12493900308E+03 0.  0.
          2    1    1    2  501    0  0.21446112070E+03 -0.26489796862E+03 -0.74939111409E+03  0.82325667197E+03  0.00000000000E+00 0. -1.
          1    1    1    2  502    0  0.22536564426E+03  0.43138255538E+03  0.52207871807E+03  0.71375539967E+03  0.00000000000E+00 0. -1.
         22    1    3    3    0    0 -0.38115214433E+03 -0.18684710727E+03  0.47864369209E+03  0.63975665890E+03  0.00000000000E+00 0.  1.
         22    1    3    3    0    0 -0.58674620625E+02  0.20362520518E+02  0.70517732721E+02  0.93968579724E+02  0.00000000000E+00 0.  1.
</event>
<event>
 7    1  0.7459264E-005  0.8870100E+02  0.7818608E-02  0.1377397E+00
          2   -1    0    0  502    0  0.00000000000E+00  0.00000000000E+00  0.10479296010E+04  0.10479296010E+04  0.00000000000E+00 0. -1.
          1   -1    0    0  501    0 -0.00000000000E+00 -0.00000000000E+00 -0.11608347306E+03  0.11608347306E+03  0.00000000000E+00 0. -1.
         25    2    1    2    0    0 -0.77861204322E+02  0.10705782840E+03  0.19997951339E+03  0.27044694995E+03  0.12500400473E+03 0.  0.
          2    1    1    2  501    0  0.48473657380E+02 -0.69287226672E+02 -0.57815279753E+02  0.10243545193E+03  0.00000000000E+00 0. -1.
          1    1    1    2  502    0  0.29387546943E+02 -0.37770601729E+02  0.78968189433E+03  0.79113067220E+03  0.00000000000E+00 0. -1.
         22    1    3    3    0    0 -0.85723612112E+02  0.85549781734E+02  0.21232096875E+03  0.24443301045E+03  0.00000000000E+00 0.  1.
         22    1    3    3    0    0  0.78624077893E+01  0.21508046666E+02 -0.12341455359E+02  0.26013939495E+02  0.00000000000E+00 0.  1.
</event>
<event>
 7    1  0.7459264E-005  0.3487858E+03  0.7818608E-02  0.1098593E+00
          2   -1    0    0  502    0  0.00000000000E+00  0.00000000000E+00  0.47584701666E+04  0.47584701666E+04  0.00000000000E+00 0. -1.
          1   -1    0    0  501    0 -0.00000000000E+00 -0.00000000000E+00 -0.31080232389E+03  0.31080232389E+03  0.00000000000E+00 0. -1.
         25    2    1    2    0    0  0.19679254697E+03 -0.20187721668E+03  0.28382237775E+03  0.41912080242E+03  0.12500155097E+03 0.  0.
          2    1    1    2  501    0 -0.83036547611E+02  0.38599564604E+03 -0.78277940998E+02  0.40251104711E+03  0.00000000000E+00 0. -1.
          1    1    1    2  502    0 -0.11375599936E+03 -0.18411842936E+03  0.42421234060E+04  0.42476406410E+04  0.00000000000E+00 0. -1.
         22    1    3    3    0    0  0.94779845413E+02 -0.18086715834E+03  0.18458231065E+03  0.27525765651E+03  0.00000000000E+00 0.  1.
         22    1    3    3    0    0  0.10201270156E+03 -0.21010058342E+02  0.99240067106E+02  0.14386314591E+03  0.00000000000E+00 0.  1.
</event>
<event>
 7    1  0.7459264E-005  0.1110622E+03  0.7818608E-02  0.1393135E+00
          2   -1    0    0  502    0  0.00000000000E+00  0.00000000000E+00  0.11733614478E+04  0.11733614478E+04  0.00000000000E+00 0. -1.
          1   -1    0    0  501    0 -0.00000000000E+00 -0.00000000000E+00 -0.37362679845E+03  0.37362679845E+03  0.00000000000E+00 0. -1.
         25    2    1    2    0    0 -0.65594642943E+02  0.12408290227E+03  0.83063279411E+02  0.20548273704E+03  0.12499769206E+03 0.  0.
          2    1    1    2  501    0  0.38110663593E+01 -0.33434141978E+02 -0.30857620792E+03  0.31040560912E+03  0.00000000000E+00 0. -1.
          1    1    1    2  502    0  0.61783576584E+02 -0.90648760287E+02  0.10252475778E+04  0.10310999001E+04  0.00000000000E+00 0. -1.
         22    1    3    3    0    0 -0.13445451933E+01  0.92282702635E+02  0.95403444083E+02  0.13273930145E+03  0.00000000000E+00 0. -1.
         22    1    3    3    0    0 -0.64250097750E+02  0.31800199631E+02 -0.12340164672E+02  0.72743435591E+02  0.00000000000E+00 0. -1.
</event>
<event>
 7    1  0.7459264E-005  0.9809281E+02  0.7818608E-02  0.1409111E+00
          2   -1    0    0  502    0  0.00000000000E+00  0.00000000000E+00  0.37250128527E+04  0.37250128527E+04  0.00000000000E+00 0. -1.
          1   -1    0    0  501    0 -0.00000000000E+00 -0.00000000000E+00 -0.34627892535E+03  0.34627892535E+03  0.00000000000E+00 0. -1.
         25    2    1    2    0    0 -0.10653132805E+02 -0.10049013146E+03  0.70863455619E+03  0.72663595587E+03  0.12500048952E+03 0.  0.
          2    1    1    2  501    0  0.33231365719E+02  0.48229971427E+01 -0.33563701914E+03  0.33731260514E+03  0.00000000000E+00 0. -1.
          1    1    1    2  502    0 -0.22578232914E+02  0.95667134322E+02  0.30057363903E+04  0.30073432171E+04  0.00000000000E+00 0. -1.
         22    1    3    3    0    0  0.23979517563E+02  0.19366635835E+02  0.22795857818E+03  0.23003303505E+03  0.00000000000E+00 0.  1.
         22    1    3    3    0    0 -0.34632650368E+02 -0.11985676730E+03  0.48067597801E+03  0.49660292082E+03  0.00000000000E+00 0.  1.
</event>
<event>
 7    1  0.7459264E-005  0.2042598E+03  0.7818608E-02  0.1304505E+00
          2   -1    0    0  502    0  0.00000000000E+00  0.00000000000E+00  0.10022802906E+04  0.10022802906E+04  0.00000000000E+00 0. -1.
          1   -1    0    0  501    0 -0.00000000000E+00 -0.00000000000E+00 -0.18143962182E+04  0.18143962182E+04  0.00000000000E+00 0. -1.
         25    2    1    2    0    0 -0.51223645922E+01  0.23106197748E+03  0.37622739397E+03  0.45890054539E+03  0.12500712992E+03 0.  0.
          2    1    1    2  501    0 -0.10033454750E+02 -0.37748332489E+02 -0.17567604799E+04  0.17571946365E+04  0.00000000000E+00 0. -1.
          1    1    1    2  502    0  0.15155819342E+02 -0.19331364499E+03  0.56841715842E+03  0.60058132687E+03  0.00000000000E+00 0. -1.
         22    1    3    3    0    0 -0.49638303706E+02  0.12631332966E+03  0.13137049445E+03  0.18888415831E+03  0.00000000000E+00 0.  1.
         22    1    3    3    0    0  0.44515939114E+02  0.10474864782E+03  0.24485689951E+03  0.27001638708E+03  0.00000000000E+00 0.  1.
</event>
<event>
 7    1  0.7459264E-005  0.2248120E+03  0.7818608E-02  0.1281784E+00
          2   -1    0    0  502    0  0.00000000000E+00  0.00000000000E+00  0.17099838641E+04  0.17099838641E+04  0.00000000000E+00 0. -1.
          1   -1    0    0  501    0 -0.00000000000E+00 -0.00000000000E+00 -0.60335025109E+02  0.60335025109E+02  0.00000000000E+00 0. -1.
         25    2    1    2    0    0  0.21140485542E+03  0.76768080717E+02  0.35639236064E+03  0.43957454728E+03  0.12499966712E+03 0.  0.
          2    1    1    2  501    0 -0.22466820224E+03 -0.34964392890E+02  0.70288305832E+03  0.73874413943E+03  0.00000000000E+00 0. -1.
          1    1    1    2  502    0  0.13263346812E+02 -0.41803687827E+02  0.59037342000E+03  0.59200020247E+03  0.00000000000E+00 0. -1.
         22    1    3    3    0    0  0.22732866809E+03  0.63727485391E+02  0.33553097514E+03  0.41026887648E+03  0.00000000000E+00 0.  1.
         22    1    3    3    0    0 -0.15923812662E+02  0.13040595326E+02  0.20861385501E+02  0.29305670803E+02  0.00000000000E+00 0.  1.
</event>
<event>
 7    1  0.7459264E-005  0.1118117E+03  0.7818608E-02  0.1343128E+00
          2   -1    0    0  502    0  0.00000000000E+00  0.00000000000E+00  0.79282514062E+03  0.79282514062E+03  0.00000000000E+00 0. -1.
          1   -1    0    0  501    0 -0.00000000000E+00 -0.00000000000E+00 -0.24187270790E+03  0.24187270790E+03  0.00000000000E+00 0. -1.
         25    2    1    2    0    0 -0.13110474536E+03 -0.57677056706E+02  0.10606103542E+03  0.21769249798E+03  0.12500393319E+03 0.  0.
          2    1    1    2  501    0  0.10855096359E+03  0.12346798540E+02 -0.16888647029E+03  0.20114272291E+03  0.00000000000E+00 0. -1.
          1    1    1    2  502    0  0.22553781773E+02  0.45330258166E+02  0.61377786759E+03  0.61586262763E+03  0.00000000000E+00 0. -1.
         22    1    3    3    0    0 -0.44913202494E+01  0.30519986998E+02  0.71476122933E+00  0.30856967569E+02  0.00000000000E+00 0.  1.
         22    1    3    3    0    0 -0.12661342511E+03 -0.88197043704E+02  0.10534627419E+03  0.18683553041E+03  0.00000000000E+00 0.  1.
</event>
<event>
 7    1  0.7459264E-005  0.2093899E+03  0.7818608E-02  0.1211719E+00
          2   -1    0    0  502    0  0.00000000000E+00  0.00000000000E+00  0.12461891966E+04  0.12461891966E+04  0.00000000000E+00 0. -1.
          1   -1    0    0  501    0 -0.00000000000E+00 -0.00000000000E+00 -0.46480901455E+03  0.46480901455E+03  0.00000000000E+00 0. -1.
         25    2    1    2    0    0  0.12384386363E+03  0.20063170596E+03 -0.63724796908E+02  0.27436466770E+03  0.12499894859E+03 0.  0.
          2    1    1    2  501    0 -0.16887874673E+03 -0.11673378509E+03 -0.25783876277E+03  0.32958706781E+03  0.00000000000E+00 0. -1.
          1    1    1    2  502    0  0.45034883101E+02 -0.83897920866E+02  0.11029437417E+04  0.11070464756E+04  0.00000000000E+00 0. -1.
         22    1    3    3    0    0 -0.11817144030E+02  0.72394895384E+02 -0.46598957101E+02  0.86902983686E+02  0.00000000000E+00 0.  1.
         22    1    3    3    0    0  0.13566100766E+03  0.12823681057E+03 -0.17125839807E+02  0.18746168402E+03  0.00000000000E+00 0.  1.
</event>
<event>
 7    1  0.7459264E-005  0.3255296E+03  0.7818608E-02  0.1138139E+00
          2   -1    0    0  502    0  0.00000000000E+00  0.00000000000E+00  0.87643168413E+03  0.87643168413E+03  0.00000000000E+00 0. -1.
          1   -1    0    0  501    0 -0.00000000000E+00 -0.00000000000E+00 -0.88656334406E+03  0.88656334406E+03  0.00000000000E+00 0. -1.
         25    2    1    2    0    0 -0.11589567812E+03 -0.43557348814E+03  0.86629861568E+02  0.47569522309E+03  0.12500056231E+03 0.  0.
          2    1    1    2  501    0  0.87707300777E+02  0.29722637941E+03 -0.64798785134E+03  0.71827873887E+03  0.00000000000E+00 0. -1.
          1    1    1    2  502    0  0.28188377346E+02  0.13834710873E+03  0.55122632984E+03  0.56902106623E+03  0.00000000000E+00 0. -1.
         22    1    3    3    0    0  0.13506686345E+02 -0.78923452588E+02 -0.18130340772E+02  0.82097814836E+02  0.00000000000E+00 0. -1.
         22    1    3    3    0    0 -0.12940236447E+03 -0.35665003555E+03  0.10476020234E+03  0.39359740825E+03  0.00000000000E+00 0. -1.
</event>
<event>
 7    1  0.7459264E-005  0.4935300E+03  0.7818608E-02  0.1216443E+00
          2   -1    0    0  502    0  0.00000000000E+00  0.00000000000E+00  0.12473315800E+04  0.12473315800E+04  0.00000000000E+00 0. -1.
          1   -1    0    0  501    0 -0.00000000000E+00 -0.00000000000E+00 -0.74366505349E+03  0.74366505349E+03  0.00000000000E+00 0. -1.
         25    2    1    2    0    0 -0.14331302069E+03  0.48269329017E+03  0.88402319575E+03  0.10250144894E+04  0.12500503431E+03 0.  0.
          2    1    1    2  501    0  0.21900019249E+02 -0.31574092313E+02 -0.48558722409E+03  0.48710521076E+03  0.00000000000E+00 0. -1.
          1    1    1    2  502    0  0.12141300144E+03 -0.45111919786E+03  0.10523055484E+03  0.47887693332E+03  0.00000000000E+00 0. -1.
         22    1    3    3    0    0 -0.57252846392E+02  0.13615538426E+03  0.16012483083E+03  0.21784429883E+03  0.00000000000E+00 0.  1.
         22    1    3    3    0    0 -0.86060174297E+02  0.34653790591E+03  0.72389836492E+03  0.80717019058E+03  0.00000000000E+00 0.  1.
</event>
<event>
 7    1  0.7459264E-005  0.2420993E+03  0.7818608E-02  0.1323203E+00
          2   -1    0    0  502    0  0.00000000000E+00  0.00000000000E+00  0.17144540167E+04  0.17144540167E+04  0.00000000000E+00 0. -1.
          1   -1    0    0  501    0 -0.00000000000E+00 -0.00000000000E+00 -0.88298297948E+02  0.88298297948E+02  0.00000000000E+00 0. -1.
         25    2    1    2    0    0 -0.37406789492E+02  0.25500174352E+03  0.38163305596E+03  0.47717201864E+03  0.12499675546E+03 0.  0.
          2    1    1    2  501    0  0.29806629828E+02 -0.22821957621E+03  0.28807382008E+03  0.36872637004E+03  0.00000000000E+00 0. -1.
          1    1    1    2  502    0  0.76001596647E+01 -0.26782167309E+02  0.95644884269E+03  0.95685392594E+03  0.00000000000E+00 0. -1.
         22    1    3    3    0    0  0.26966636548E+02  0.19913551912E+03  0.25863417178E+03  0.32752677642E+03  0.00000000000E+00 0.  1.
         22    1    3    3    0    0 -0.64373426040E+02  0.55866224400E+02  0.12299888418E+03  0.14964524222E+03  0.00000000000E+00 0.  1.
</event>
<event>
 7    1  0.7581958E-005  0.5497145E+03  0.7818608E-02  0.1166591E+00
          2   -1    0    0  502    0  0.00000000000E+00  0.00000000000E+00  0.26735116482E+04  0.26735116482E+04  0.00000000000E+00 0. -1.
          1   -1    0    0  501    0 -0.00000000000E+00 -0.00000000000E+00 -0.17651998305E+04  0.17651998305E+04  0.00000000000E+00 0. -1.
         25    2    1    2    0    0  0.14323789736E+01 -0.56908785406E+03 -0.11832540027E+04  0.13189302993E+04  0.12499624859E+03 0.  0.
          2    1    1    2  501    0  0.19222005258E+02  0.51300406301E+03 -0.38550193238E+03  0.64199251867E+03  0.00000000000E+00 0. -1.
          1    1    1    2  502    0 -0.20654384232E+02  0.56083791051E+02  0.24770677528E+04  0.24777886607E+04  0.00000000000E+00 0. -1.
         22    1    3    3    0    0 -0.33838413361E+02 -0.40111291779E+02 -0.11018398240E+03  0.12204287740E+03  0.00000000000E+00 0. -1.
         22    1    3    3    0    0  0.35270792335E+02 -0.52897656228E+03 -0.10730700203E+04  0.11968874219E+04  0.00000000000E+00 0. -1.
</event>
<event>
 7    1  0.7459264E-005  0.5183646E+03  0.7818608E-02  0.1189992E+00
          2   -1    0    0  502    0  0.00000000000E+00  0.00000000000E+00  0.86582584876E+03  0.86582584876E+03  0.00000000000E+00 0. -1.
          1   -1    0    0  501    0 -0.00000000000E+00 -0.00000000000E+00 -0.11551723875E+04  0.11551723875E+04  0.00000000000E+00 0. -1.
         25    2    1    2    0    0 -0.83906290481E+02  0.53983359546E+03 -0.12692089813E+03  0.57462538541E+03  0.12499937119E+03 0.  0.
          2    1    1    2  501    0  0.48689374893E+02 -0.50621974342E+03 -0.72285879567E+03  0.88382912507E+03  0.00000000000E+00 0. -1.
          1    1    1    2  502    0  0.35216915588E+02 -0.33613852045E+02  0.56043315503E+03  0.56254372581E+03  0.00000000000E+00 0. -1.
         22    1    3    3    0    0  0.12448954911E+02  0.25981631684E+03 -0.94395233992E+02  0.27671276656E+03  0.00000000000E+00 0.  1.
         22    1    3    3    0    0 -0.96355245393E+02  0.28001727862E+03 -0.32525664142E+02  0.29791261885E+03  0.00000000000E+00 0.  1.
</event>
<event>
 7    1  0.7459264E-005  0.2098943E+03  0.7818608E-02  0.1264049E+00
          2   -1    0    0  502    0  0.00000000000E+00  0.00000000000E+00  0.10857644442E+04  0.10857644442E+04  0.00000000000E+00 0. -1.
          1   -1    0    0  501    0 -0.00000000000E+00 -0.00000000000E+00 -0.12680077998E+04  0.12680077998E+04  0.00000000000E+00 0. -1.
         25    2    1    2    0    0 -0.17939528748E+03  0.95498534926E+02 -0.81122917812E+03  0.84558700183E+03  0.12498783496E+03 0.  0.
          2    1    1    2  501    0  0.16771662671E+03 -0.14997861062E+03 -0.41001534787E+03  0.46769117589E+03  0.00000000000E+00 0. -1.
          1    1    1    2  502    0  0.11678660770E+02  0.54480075691E+02  0.10390011704E+04  0.10404940662E+04  0.00000000000E+00 0. -1.
         22    1    3    3    0    0 -0.73421616416E+02 -0.46839894077E+01 -0.13433611668E+03  0.15316287330E+03  0.00000000000E+00 0. -1.
         22    1    3    3    0    0 -0.10597367106E+03  0.10018252433E+03 -0.67689306143E+03  0.69242412852E+03  0.00000000000E+00 0. -1.
</event>
<event>
 7    1  0.7459264E-005  0.4653971E+03  0.7818608E-02  0.1127573E+00
          2   -1    0    0  502    0  0.00000000000E+00  0.00000000000E+00  0.12524925943E+04  0.12524925943E+04  0.00000000000E+00 0. -1.
          1   -1    0    0  501    0 -0.00000000000E+00 -0.00000000000E+00 -0.23052589807E+04  0.23052589807E+04  0.00000000000E+00 0. -1.
         25    2    1    2    0    0 -0.45361640871E+03 -0.62624114901E+02 -0.10849563029E+03  0.48691540303E+03  0.12500272754E+03 0.  0.
          2    1    1    2  501    0  0.18230641918E+02 -0.11087625851E+03 -0.19542136716E+04  0.19574414360E+04  0.00000000000E+00 0. -1.
          1    1    1    2  502    0  0.43538576680E+03  0.17350037341E+03  0.10099429155E+04  0.11133947360E+04  0.00000000000E+00 0. -1.
         22    1    3    3    0    0 -0.86312457150E+02 -0.60885541326E+02 -0.70770988285E+01  0.10586299981E+03  0.00000000000E+00 0.  1.
         22    1    3    3    0    0 -0.36730395156E+03 -0.17385735750E+01 -0.10141853146E+03  0.38105240322E+03  0.00000000000E+00 0.  1.
</event>
<event>
 7    1  0.7459264E-005  0.6669560E+03  0.7818608E-02  0.1180274E+00
          2   -1    0    0  502    0  0.00000000000E+00  0.00000000000E+00  0.86591260164E+03  0.86591260164E+03  0.00000000000E+00 0. -1.
          1   -1    0    0  501    0 -0.00000000000E+00 -0.00000000000E+00 -0.10610141037E+04  0.10610141037E+04  0.00000000000E+00 0. -1.
         25    2    1    2    0    0  0.22640388116E+03 -0.61853335760E+03 -0.12242515585E+02  0.67053463143E+03  0.12499832355E+03 0.  0.
          2    1    1    2  501    0 -0.19220290723E+03  0.64319267469E+03 -0.56164769911E+03  0.87526391005E+03  0.00000000000E+00 0. -1.
          1    1    1    2  502    0 -0.34200973928E+02 -0.24659317094E+02  0.37878871259E+03  0.38112816390E+03  0.00000000000E+00 0. -1.
         22    1    3    3    0    0  0.21173754035E+03 -0.55263309447E+03 -0.48698807893E+02  0.59380779465E+03  0.00000000000E+00 0. -1.
         22    1    3    3    0    0  0.14666340816E+02 -0.65900263125E+02  0.36456292309E+02  0.76726836777E+02  0.00000000000E+00 0. -1.
</event>
<event>
 7    1  0.7459264E-005  0.6321166E+03  0.7818608E-02  0.1010684E+00
          2   -1    0    0  502    0  0.00000000000E+00  0.00000000000E+00  0.19281378245E+04  0.19281378245E+04  0.00000000000E+00 0. -1.
          1   -1    0    0  501    0 -0.00000000000E+00 -0.00000000000E+00 -0.49290903400E+03  0.49290903400E+03  0.00000000000E+00 0. -1.
         25    2    1    2    0    0  0.51838252453E+03  0.51668662018E+03  0.15480028401E+03  0.75846817146E+03  0.12500133588E+03 0.  0.
          2    1    1    2  501    0 -0.40180796074E+03  0.10286634438E+03  0.37408530359E+03  0.55854358512E+03  0.00000000000E+00 0. -1.
          1    1    1    2  502    0 -0.11657456379E+03 -0.61955296456E+03  0.90634320288E+03  0.11040351019E+04  0.00000000000E+00 0. -1.
         22    1    3    3    0    0  0.37481936093E+03  0.44141930344E+03  0.10209028344E+03  0.58801613987E+03  0.00000000000E+00 0. -1.
         22    1    3    3    0    0  0.14356316360E+03  0.75267316747E+02  0.52710000571E+02  0.17045203159E+03  0.00000000000E+00 0. -1.
</event>
<event>
 7    1  0.7459264E-005  0.4084390E+03  0.7818608E-02  0.1213423E+00
          2   -1    0    0  502    0  0.00000000000E+00  0.00000000000E+00  0.14367220023E+04  0.14367220023E+04  0.00000000000E+00 0. -1.
          1   -1    0    0  501    0 -0.00000000000E+00 -0.00000000000E+00 -0.15457655813E+04  0.15457655813E+04  0.00000000000E+00 0. -1.
         25    2    1    2    0    0  0.33154952440E+03 -0.27478145103E+03  0.45472418164E+03  0.63861483419E+03  0.12499956846E+03 0.  0.
          2    1    1    2  501    0 -0.28609717906E+03  0.29002240415E+03 -0.14246008451E+04  0.14817058273E+04  0.00000000000E+00 0. -1.
          1    1    1    2  502    0 -0.45452345339E+02 -0.15240953121E+02  0.86083308449E+03  0.86216692218E+03  0.00000000000E+00 0. -1.
         22    1    3    3    0    0  0.50496390971E+02 -0.32988088208E+02  0.12606329699E+02  0.61619956290E+02  0.00000000000E+00 0. -1.
         22    1    3    3    0    0  0.28105313343E+03 -0.24179336282E+03  0.44211785194E+03  0.57699487790E+03  0.00000000000E+00 0. -1.
</event>
<event>
 7    1  0.7459264E-005  0.6760953E+03  0.7818608E-02  0.1103654E+00
          2   -1    0    0  502    0  0.00000000000E+00  0.00000000000E+00  0.68555203002E+03  0.68555203002E+03  0.00000000000E+00 0. -1.
          1   -1    0    0  501    0 -0.00000000000E+00 -0.00000000000E+00 -0.19299742756E+04  0.19299742756E+04  0.00000000000E+00 0. -1.
         25    2    1    2    0    0  0.43595760465E+03 -0.45586303632E+03 -0.55693299745E+03  0.85068798167E+03  0.12500215026E+03 0.  0.
          2    1    1    2  501    0 -0.43488842650E+03  0.56042592007E+03 -0.11167621713E+04  0.13230128128E+04  0.00000000000E+00 0. -1.
          1    1    1    2  502    0 -0.10691781479E+01 -0.10456288375E+03  0.42927292317E+03  0.44182551122E+03  0.00000000000E+00 0. -1.
         22    1    3    3    0    0  0.21163462368E+03 -0.27058771282E+03 -0.36991979199E+03  0.50482430288E+03  0.00000000000E+00 0. -1.
         22    1    3    3    0    0  0.22432298097E+03 -0.18527532350E+03 -0.18701320546E+03  0.34586367879E+03  0.00000000000E+00 0. -1.
</event>
<event>
 7    1  0.7459264E-005  0.2473449E+03  0.7818608E-02  0.1325584E+00
          2   -1    0    0  502    0  0.00000000000E+00  0.00000000000E+00  0.36221240800E+03  0.36221240800E+03  0.00000000000E+00 0. -1.
          1   -1    0    0  501    0 -0.00000000000E+00 -0.00000000000E+00 -0.52251704156E+03  0.52251704156E+03  0.00000000000E+00 0. -1.
         25    2    1    2    0    0  0.18481708418E+03 -0.15142164786E+03  0.13933734432E+01  0.26965343077E+03  0.12500064476E+03 0.  0.
          2    1    1    2  501    0 -0.20821308101E+03  0.13859865874E+03 -0.34706207906E+03  0.42780177890E+03  0.00000000000E+00 0. -1.
          1    1    1    2  502    0  0.23395996831E+02  0.12822989121E+02  0.18536407205E+03  0.18727423989E+03  0.00000000000E+00 0. -1.
         22    1    3    3    0    0  0.10448271991E+02  0.19032998418E+02  0.13401671125E+02  0.25515215173E+02  0.00000000000E+00 0.  1.
         22    1    3    3    0    0  0.17436881219E+03 -0.17045464628E+03 -0.12008297682E+02  0.24413821560E+03  0.00000000000E+00 0.  1.
</event>
<event>
 7    1  0.7459264E-005  0.1500036E+03  0.7818608E-02  0.1256038E+00
          2   -1    0    0  502    0  0.00000000000E+00  0.00000000000E+00  0.11599278790E+04  0.11599278790E+04  0.00000000000E+00 0. -1.
          1   -1    0    0  501    0 -0.00000000000E+00 -0.00000000000E+00 -0.29883948568E+04  0.29883948568E+04  0.00000000000E+00 0. -1.
         25    2    1    2    0    0  0.56663918968E+02 -0.74146303875E+02  0.27149100870E+03  0.31312498020E+03  0.12502564270E+03 0.  0.
          2    1    1    2  501    0  0.22421582865E+02 -0.81314089283E+02 -0.29582045808E+04  0.29594068747E+04  0.00000000000E+00 0. -1.
          1    1    1    2  502    0 -0.79085501833E+02  0.15546039316E+03  0.85824659430E+03  0.87579088090E+03  0.00000000000E+00 0. -1.
         22    1    3    3    0    0  0.35194595130E+02 -0.27633041208E+02  0.89502340608E+01  0.45632786267E+02  0.00000000000E+00 0. -1.
         22    1    3    3    0    0  0.21469323838E+02 -0.46513262666E+02  0.26254077464E+03  0.26749219394E+03  0.00000000000E+00 0. -1.
</event>
<event>
 7    1  0.7459264E-005  0.1917545E+03  0.7818608E-02  0.1204920E+00
          2   -1    0    0  502    0  0.00000000000E+00  0.00000000000E+00  0.11607900299E+04  0.11607900299E+04  0.00000000000E+00 0. -1.
          1   -1    0    0  501    0 -0.00000000000E+00 -0.00000000000E+00 -0.38263983791E+03  0.38263983791E+03  0.00000000000E+00 0. -1.
         25    2    1    2    0    0 -0.10163779569E+03 -0.27927234153E+03  0.96222589843E+03  0.10147996259E+04  0.12496527074E+03 0.  0.
          2    1    1    2  501    0  0.43105723896E+02  0.18398322953E+03 -0.30822566704E+03  0.36153975439E+03  0.00000000000E+00 0. -1.
          1    1    1    2  502    0  0.58532071791E+02  0.95289111997E+02  0.12414996055E+03  0.16709048746E+03  0.00000000000E+00 0. -1.
         22    1    3    3    0    0 -0.11664773618E+03 -0.27831830610E+03  0.85861973055E+03  0.91010747472E+03  0.00000000000E+00 0.  1.
         22    1    3    3    0    0  0.15009940494E+02 -0.95403543097E+00  0.10360616789E+03  0.10469215119E+03  0.00000000000E+00 0.  1.
</event>
<event>
 7    1  0.7459264E-005  0.2800908E+03  0.7818608E-02  0.1260858E+00
          2   -1    0    0  502    0  0.00000000000E+00  0.00000000000E+00  0.36686848911E+03  0.36686848911E+03  0.00000000000E+00 0. -1.
          1   -1    0    0  501    0 -0.00000000000E+00 -0.00000000000E+00 -0.38704000515E+03  0.38704000515E+03  0.00000000000E+00 0. -1.
         25    2    1    2    0    0  0.25955374145E+03  0.14565778534E+03 -0.87627459338E+02  0.33449185046E+03  0.12498756446E+03 0.  0.
          2    1    1    2  501    0 -0.24450650767E+03 -0.10529296327E+03 -0.70086780938E+02  0.27528566485E+03  0.00000000000E+00 0. -1.
          1    1    1    2  502    0 -0.15047233773E+02 -0.40364822065E+02  0.13754272424E+03  0.14413097896E+03  0.00000000000E+00 0. -1.
         22    1    3    3    0    0  0.14637477858E+03  0.63281689250E+02 -0.10861516692E+03  0.19294403977E+03  0.00000000000E+00 0. -1.
         22    1    3    3    0    0  0.11317896287E+03  0.82376096086E+02  0.20987707583E+02  0.14154781069E+03  0.00000000000E+00 0. -1.
</event>
<event>
 7    1  0.7459264E-005  0.3480998E+03  0.7818608E-02  0.1202973E+00
          2   -1    0    0  502    0  0.00000000000E+00  0.00000000000E+00  0.37927178874E+04  0.37927178874E+04  0.00000000000E+00 0. -1.
          1   -1    0    0  501    0 -0.00000000000E+00 -0.00000000000E+00 -0.25399067726E+04  0.25399067726E+04  0.00000000000E+00 0. -1.
         25    2    1    2    0    0  0.17707872378E+02  0.36947420090E+03 -0.12860243849E+04  0.13439897744E+04  0.12500016546E+03 0.  0.
          2    1    1    2  501    0  0.32189970306E+02 -0.33116039917E+03 -0.12020359572E+04  0.12472344794E+04  0.00000000000E+00 0. -1.
          1    1    1    2  502    0 -0.49897842684E+02 -0.38313801726E+02  0.37408714569E+04  0.37414004062E+04  0.00000000000E+00 0. -1.
         22    1    3    3    0    0  0.70890105188E+02  0.21268559131E+03 -0.77906200382E+03  0.81067760149E+03  0.00000000000E+00 0.  1.
         22    1    3    3    0    0 -0.53182232810E+02  0.15678860959E+03 -0.50696238105E+03  0.53331217292E+03  0.00000000000E+00 0.  1.
</event>
<event>
 7    1  0.7459264E-005  0.1924761E+03  0.7818608E-02  0.1243720E+00
          2   -1    0    0  502    0  0.00000000000E+00  0.00000000000E+00  0.21226690313E+04  0.21226690313E+04  0.00000000000E+00 0. -1.
          1   -1    0    0  501    0 -0.00000000000E+00 -0.00000000000E+00 -0.78638586480E+03  0.78638586480E+03  0.00000000000E+00 0. -1.
         25    2    1    2    0    0 -0.15752696485E+03 -0.86875316787E+02 -0.57475351479E+03  0.61508396207E+03  0.12499844924E+03 0.  0.
          2    1    1    2  501    0  0.23132609475E+03  0.77882576606E+02 -0.11271554668E+03  0.26885358899E+03  0.00000000000E+00 0. -1.
          1    1    1    2  502    0 -0.73799129899E+02  0.89927401812E+01  0.20237522280E+04  0.20251173451E+04  0.00000000000E+00 0. -1.
         22    1    3    3    0    0 -0.29234321895E+02 -0.61720327039E+02 -0.33609389632E+03  0.34296231788E+03  0.00000000000E+00 0. -1.
         22    1    3    3    0    0 -0.12829264296E+03 -0.25154989749E+02 -0.23865961847E+03  0.27212164419E+03  0.00000000000E+00 0. -1.
</event>
<event>
 7    1  0.7459264E-005  0.2253761E+03  0.7818608E-02  0.1316040E+00
          2   -1    0    0  502    0  0.00000000000E+00  0.00000000000E+00  0.86535806994E+02  0.86535806994E+02  0.00000000000E+00 0. -1.
          1   -1    0    0  501    0 -0.00000000000E+00 -0.00000000000E+00 -0.20609683465E+04  0.20609683465E+04  0.00000000000E+00 0. -1.
         25    2    1    2    0    0  0.19794092174E+03 -0.14853726625E+03 -0.56802955518E+03  0.63207990992E+03  0.12499403588E+03 0.  0.
          2    1    1    2  501    0 -0.18219302905E+02  0.26164239859E+02 -0.12430775588E+04  0.12434863600E+04  0.00000000000E+00 0. -1.
          1    1    1    2  502    0 -0.17972161884E+03  0.12237302639E+03 -0.16332542551E+03  0.27193788351E+03  0.00000000000E+00 0. -1.
         22    1    3    3    0    0  0.52317238326E+01  0.18981341006E+02 -0.23520537459E+02  0.30673733438E+02  0.00000000000E+00 0. -1.
         22    1    3    3    0    0  0.19270919791E+03 -0.16751860726E+03 -0.54450901772E+03  0.60140617649E+03  0.00000000000E+00 0. -1.
</event>
<event>
 7    1  0.7459264E-005  0.3265502E+03  0.7818608E-02  0.1163488E+00
          2   -1    0    0  502    0  0.00000000000E+00  0.00000000000E+00  0.10783206888E+04  0.10783206888E+04  0.00000000000E+00 0. -1.
          1   -1    0    0  501    0 -0.00000000000E+00 -0.00000000000E+00 -0.92805713740E+03  0.92805713740E+03  0.00000000000E+00 0. -1.
         25    2    1    2    0    0  0.75093803442E+02  0.35825681452E+03  0.17080856040E+03  0.42283473365E+03  0.12500649269E+03 0.  0.
          2    1    1    2  501    0 -0.15062989581E+03 -0.28636739437E+03 -0.76563082834E+03  0.83119565409E+03  0.00000000000E+00 0. -1.
          1    1    1    2  502    0  0.75536092370E+02 -0.71889420148E+02  0.74508581934E+03  0.75234743846E+03  0.00000000000E+00 0. -1.
         22    1    3    3    0    0  0.51291808475E+02  0.71225113114E+02  0.85300040371E+02  0.12239266008E+03  0.00000000000E+00 0.  1.
         22    1    3    3    0    0  0.23801994966E+02  0.28703170140E+03  0.85508520026E+02  0.30044207357E+03  0.00000000000E+00 0.  1.
</event>
<event>
 7    1  0.7459264E-005  0.4415947E+03  0.7818608E-02  0.1282312E+00
          2   -1    0    0  502    0  0.00000000000E+00  0.00000000000E+00  0.12421340215E+04  0.12421340215E+04  0.00000000000E+00 0. -1.
          1   -1    0    0  501    0 -0.00000000000E+00 -0.00000000000E+00 -0.65576196966E+03  0.65576196966E+03  0.00000000000E+00 0. -1.
         25    2    1    2    0    0 -0.32848823192E+03 -0.32035752259E+03  0.17169981201E+03  0.50560829134E+03  0.12500183212E+03 0.  0.
          2    1    1    2  501    0  0.31290092715E+03  0.30452778929E+03 -0.39111940711E+03  0.58618986283E+03  0.00000000000E+00 0. -1.
          1    1    1    2  502    0  0.15587304768E+02  0.15829733299E+02  0.80579164696E+03  0.80609783701E+03  0.00000000000E+00 0. -1.
         22    1    3    3    0    0 -0.47860735622E+02 -0.55037661967E+02  0.80818509889E+02  0.10886425396E+03  0.00000000000E+00 0.  1.
         22    1    3    3    0    0 -0.28062749630E+03 -0.26531986062E+03  0.90881302124E+02  0.39674403738E+03  0.00000000000E+00 0.  1.
</event>
<event>
 7    1  0.7459264E-005  0.1753874E+03  0.7818608E-02  0.1239191E+00
          2   -1    0    0  502    0  0.00000000000E+00  0.00000000000E+00  0.74557613688E+03  0.74557613688E+03  0.00000000000E+00 0. -1.
          1   -1    0    0  501    0 -0.00000000000E+00 -0.00000000000E+00 -0.56915880594E+03  0.56915880594E+03  0.00000000000E+00 0. -1.
         25    2    1    2    0    0  0.16266091030E+03 -0.11125730123E+03 -0.84184366302E+02  0.24808809056E+03  0.12499573724E+03 0.  0.
          2    1    1    2  501    0 -0.86898667901E+02  0.15071159910E+03 -0.38128649468E+03  0.41909993511E+03  0.00000000000E+00 0. -1.
          1    1    1    2  502    0 -0.75762242403E+02 -0.39454297870E+02  0.64188819192E+03  0.64754691716E+03  0.00000000000E+00 0. -1.
         22    1    3    3    0    0  0.15460878630E+03 -0.10319992306E+03 -0.24698025243E+02  0.18752091449E+03  0.00000000000E+00 0.  1.
         22    1    3    3    0    0  0.80521240014E+01 -0.80573781752E+01 -0.59486341059E+02  0.60567176066E+02  0.00000000000E+00 0.  1.
</event>
<event>
 7    1  0.7459264E-005  0.2798008E+03  0.7818608E-02  0.1303700E+00
          2   -1    0    0  502    0  0.00000000000E+00  0.00000000000E+00  0.15612618686E+04  0.15612618686E+04  0.00000000000E+00 0. -1.
          1   -1    0    0  501    0 -0.00000000000E+00 -0.00000000000E+00 -0.16165119910E+03  0.16165119910E+03  0.00000000000E+00 0. -1.
         25    2    1    2    0    0 -0.16292063971E+03  0.22650354034E+03  0.27583578583E+03  0.41177030501E+03  0.12498965840E+03 0.  0.
          2    1    1    2  501    0 -0.23192706965E+02 -0.16947284329E+02 -0.74857261706E+02  0.80179309878E+02  0.00000000000E+00 0. -1.
          1    1    1    2  502    0  0.18611334668E+03 -0.20955625601E+03  0.11986321454E+04  0.12309634528E+04  0.00000000000E+00 0. -1.
         22    1    3    3    0    0 -0.16640305169E+03  0.19892981277E+03  0.18987270721E+03  0.32142602720E+03  0.00000000000E+00 0. -1.
         22    1    3    3    0    0  0.34824119740E+01  0.27573727571E+02  0.85963078627E+02  0.90344277806E+02  0.00000000000E+00 0. -1.
</event>
<event>
 7    1  0.7459264E-005  0.2743791E+03  0.7818608E-02  0.1214806E+00
          2   -1    0    0  502    0  0.00000000000E+00  0.00000000000E+00  0.52119857666E+03  0.52119857666E+03  0.00000000000E+00 0. -1.
          1   -1    0    0  501    0 -0.00000000000E+00 -0.00000000000E+00 -0.60125000455E+03  0.60125000455E+03  0.00000000000E+00 0. -1.
         25    2    1    2    0    0  0.89729282774E+02 -0.29360995730E+03  0.21104861527E+03  0.39296875762E+03  0.12499910099E+03 0.  0.
          2    1    1    2  501    0  0.17733921093E+02  0.68051158484E+02 -0.43533988778E+03  0.44098329902E+03  0.00000000000E+00 0. -1.
          1    1    1    2  502    0 -0.10746320387E+03  0.22555879882E+03  0.14423984462E+03  0.28849652456E+03  0.00000000000E+00 0. -1.
         22    1    3    3    0    0 -0.21607365292E+02 -0.22148820860E+02  0.48542084777E+02  0.57565462691E+02  0.00000000000E+00 0.  1.
         22    1    3    3    0    0  0.11133664807E+03 -0.27146113644E+03  0.16250653049E+03  0.33540329493E+03  0.00000000000E+00 0.  1.
</event>
<event>
 7    1  0.7459264E-005  0.2337857E+03  0.7818608E-02  0.1211399E+00
          2   -1    0    0  502    0  0.00000000000E+00  0.00000000000E+00  0.28665736935E+03  0.28665736935E+03  0.00000000000E+00 0. -1.
          1   -1    0    0  501    0 -0.00000000000E+00 -0.00000000000E+00 -0.98165966417E+03  0.98165966417E+03  0.00000000000E+00 0. -1.
         25    2    1    2    0    0  0.81480353487E+02 -0.24603625558E+03  0.16193615947E+03  0.33018473258E+03  0.12500300325E+03 0.  0.
          2    1    1    2  501    0 -0.22202418759E+02  0.82645147711E+02 -0.69603840379E+03  0.70127927916E+03  0.00000000000E+00 0. -1.
          1    1    1    2  502    0 -0.59277934728E+02  0.16339110787E+03 -0.16090005050E+03  0.23685302178E+03  0.00000000000E+00 0. -1.
         22    1    3    3    0    0  0.14321073920E+02 -0.20497133601E+03  0.13942678296E+03  0.24831063117E+03  0.00000000000E+00 0.  1.
         22    1    3    3    0    0  0.67159279567E+02 -0.41064919569E+02  0.22509376501E+02  0.81874101410E+02  0.00000000000E+00 0.  1.
</event>
<event>
 7    1  0.7459264E-005  0.4475837E+03  0.7818608E-02  0.1097090E+00
          2   -1    0    0  502    0  0.00000000000E+00  0.00000000000E+00  0.18498369080E+04  0.18498369080E+04  0.00000000000E+00 0. -1.
          1   -1    0    0  501    0 -0.00000000000E+00 -0.00000000000E+00 -0.10872570748E+04  0.10872570748E+04  0.00000000000E+00 0. -1.
         25    2    1    2    0    0 -0.22925151067E+03 -0.32356250960E+03 -0.33190428250E+03  0.53200956205E+03  0.12499907443E+03 0.  0.
          2    1    1    2  501    0  0.40081209139E+03  0.31146194567E+03 -0.55184600088E+03  0.74979522864E+03  0.00000000000E+00 0. -1.
          1    1    1    2  502    0 -0.17156058073E+03  0.12100563922E+02  0.16463301166E+04  0.16552891920E+04  0.00000000000E+00 0. -1.
         22    1    3    3    0    0 -0.18826734138E+03 -0.26799856525E+03 -0.32696493684E+03  0.46278925304E+03  0.00000000000E+00 0. -1.
         22    1    3    3    0    0 -0.40984169286E+02 -0.55563944349E+02 -0.49393456600E+01  0.69220309008E+02  0.00000000000E+00 0. -1.
</event>
<event>
 7    1  0.7459264E-005  0.8177837E+03  0.7818608E-02  0.1193339E+00
          2   -1    0    0  502    0  0.00000000000E+00  0.00000000000E+00  0.20824072547E+03  0.20824072547E+03  0.00000000000E+00 0. -1.
          1   -1    0    0  501    0 -0.00000000000E+00 -0.00000000000E+00 -0.45547597713E+04  0.45547597713E+04  0.00000000000E+00 0. -1.
         25    2    1    2    0    0 -0.60696226700E+03 -0.52925021233E+03 -0.30935547544E+04  0.31990959221E+04  0.12499887622E+03 0.  0.
          2    1    1    2  501    0  0.37811649426E+01 -0.29500695571E+02 -0.31575346697E+03  0.31715113140E+03  0.00000000000E+00 0. -1.
          1    1    1    2  502    0  0.60318110205E+03  0.55875090790E+03 -0.93721082441E+03  0.12467534433E+04  0.00000000000E+00 0. -1.
         22    1    3    3    0    0 -0.17641200047E+02 -0.49228730614E+02 -0.27055659156E+03  0.27556405625E+03  0.00000000000E+00 0.  1.
         22    1    3    3    0    0 -0.58932106695E+03 -0.48002148172E+03 -0.28229981629E+04  0.29235318658E+04  0.00000000000E+00 0.  1.
</event>
<event>
 7    1  0.7459264E-005  0.1082162E+03  0.7818608E-02  0.1383155E+00
          2   -1    0    0  502    0  0.00000000000E+00  0.00000000000E+00  0.10050146125E+04  0.10050146125E+04  0.00000000000E+00 0. -1.
          1   -1    0    0  501    0 -0.00000000000E+00 -0.00000000000E+00 -0.22092477083E+03  0.22092477083E+03  0.00000000000E+00 0. -1.
         25    2    1    2    0    0  0.85434186130E+02 -0.10769114837E+03 -0.14557540426E+03  0.23603626485E+03  0.12499814560E+03 0.  0.
          2    1    1    2  501    0 -0.35369303015E+02  0.12240105057E+02 -0.14105778696E+02  0.39997259408E+02  0.00000000000E+00 0. -1.
          1    1    1    2  502    0 -0.50064883115E+02  0.95451043317E+02  0.94377102457E+03  0.94990585902E+03  0.00000000000E+00 0. -1.
         22    1    3    3    0    0 -0.26361854200E+02 -0.14244163156E+02  0.14666438570E+00  0.29964396395E+02  0.00000000000E+00 0.  1.
         22    1    3    3    0    0  0.11179604033E+03 -0.93446985218E+02 -0.14572206864E+03  0.20607186846E+03  0.00000000000E+00 0.  1.
</event>
<event>
 7    1  0.7459264E-005  0.3118324E+03  0.7818608E-02  0.1263765E+00
          2   -1    0    0  502    0  0.00000000000E+00  0.00000000000E+00  0.69580961518E+03  0.69580961518E+03  0.00000000000E+00 0. -1.
          1   -1    0    0  501    0 -0.00000000000E+00 -0.00000000000E+00 -0.46460533110E+03  0.46460533110E+03  0.00000000000E+00 0. -1.
         25    2    1    2    0    0  0.67598799640E+01  0.30890216270E+03  0.35771815981E+03  0.48893159696E+03  0.12500233021E+03 0.  0.
          2    1    1    2  501    0 -0.36990382989E+02  0.67847641256E+01 -0.30517868078E+03  0.30748715203E+03  0.00000000000E+00 0. -1.
          1    1    1    2  502    0  0.30230503025E+02 -0.31568692682E+03  0.17866480506E+03  0.36399619730E+03  0.00000000000E+00 0. -1.
         22    1    3    3    0    0  0.64316424751E+02  0.17786684871E+03  0.18429611023E+03  0.26408005341E+03  0.00000000000E+00 0. -1.
         22    1    3    3    0    0 -0.57556544787E+02  0.13103531399E+03  0.17342204957E+03  0.22485154355E+03  0.00000000000E+00 0. -1.
</event>
<event>
 7    1  0.7459264E-005  0.4568944E+03  0.7818608E-02  0.1122669E+00
          2   -1    0    0  502    0  0.00000000000E+00  0.00000000000E+00  0.67281357577E+03  0.67281357577E+03  0.00000000000E+00 0. -1.
          1   -1    0    0  501    0 -0.00000000000E+00 -0.00000000000E+00 -0.49009348975E+03  0.49009348975E+03  0.00000000000E+00 0. -1.
         25    2    1    2    0    0 -0.42416830220E+03 -0.20308603921E+03  0.32845264809E+02  0.48771737239E+03  0.12500694379E+03 0.  0.
          2    1    1    2  501    0  0.78661995655E+02 -0.92762023025E+02 -0.98882375052E+02  0.15674892846E+03  0.00000000000E+00 0. -1.
          1    1    1    2  502    0  0.34550630654E+03  0.29584806224E+03  0.24875719626E+03  0.51844076468E+03  0.00000000000E+00 0. -1.
         22    1    3    3    0    0 -0.14935204098E+03 -0.22696896532E+02  0.48364543416E+02  0.15862001865E+03  0.00000000000E+00 0. -1.
         22    1    3    3    0    0 -0.27481626122E+03 -0.18038914268E+03 -0.15519278607E+02  0.32909735373E+03  0.00000000000E+00 0. -1.
</event>
<event>
 7    1  0.7459264E-005  0.1511777E+03  0.7818608E-02  0.1200750E+00
          2   -1    0    0  502    0  0.00000000000E+00  0.00000000000E+00  0.14103768884E+04  0.14103768884E+04  0.00000000000E+00 0. -1.
          1   -1    0    0  501    0 -0.00000000000E+00 -0.00000000000E+00 -0.10728873185E+03  0.10728873185E+03  0.00000000000E+00 0. -1.
         25    2    1    2    0    0  0.16670937421E+03  0.12898743158E+03  0.29825376468E+03  0.38602392678E+03  0.12501756254E+03 0.  0.
          2    1    1    2  501    0 -0.14703648878E+03  0.19963486269E+02  0.37960705769E+02  0.15316424190E+03  0.00000000000E+00 0. -1.
          1    1    1    2  502    0 -0.19672885433E+02 -0.14895091785E+03  0.96687368610E+03  0.97847745157E+03  0.00000000000E+00 0. -1.
         22    1    3    3    0    0  0.85088071215E+02  0.62091882507E+02  0.24737421552E+03  0.26886685225E+03  0.00000000000E+00 0.  1.
         22    1    3    3    0    0  0.81621302994E+02  0.66895549074E+02  0.50879549165E+02  0.11715707453E+03  0.00000000000E+00 0.  1.
</event>
<event>
 7    1  0.7459264E-005  0.6879070E+02  0.7818608E-02  0.1379523E+00
          2   -1    0    0  502    0  0.00000000000E+00  0.00000000000E+00  0.15070196154E+03  0.15070196154E+03  0.00000000000E+00 0. -1.
          1   -1    0    0  501    0 -0.00000000000E+00 -0.00000000000E+00 -0.22035860930E+03  0.22035860930E+03  0.00000000000E+00 0. -1.
         25    2    1    2    0    0  0.11840020058E+03  0.32478650115E+02 -0.59440814289E+02  0.18501396829E+03  0.12499395124E+03 0.  0.
          2    1    1    2  501    0 -0.55861126385E+02 -0.23607460282E+02 -0.74406100557E+02  0.95989819367E+02  0.00000000000E+00 0. -1.
          1    1    1    2  502    0 -0.62539074191E+02 -0.88711898325E+01  0.64190267091E+02  0.90056783192E+02  0.00000000000E+00 0. -1.
         22    1    3    3    0    0  0.56549458126E+02 -0.47373828530E+02 -0.31511359336E+02  0.80218991586E+02  0.00000000000E+00 0. -1.
         22    1    3    3    0    0  0.61850742450E+02  0.79852478645E+02 -0.27929454953E+02  0.10479497670E+03  0.00000000000E+00 0. -1.
</event>
<event>
 7    1  0.7459264E-005  0.6912325E+02  0.7818608E-02  0.1404019E+00
          2   -1    0    0  502    0  0.00000000000E+00  0.00000000000E+00  0.14349311394E+04  0.14349311394E+04  0.00000000000E+00 0. -1.
          1   -1    0    0  501    0 -0.00000000000E+00 -0.00000000000E+00 -0.29012662543E+02  0.29012662543E+02  0.00000000000E+00 0. -1.
         25    2    1    2    0    0  0.69099803233E+02 -0.13112019952E+02  0.48208737872E+03  0.50296599960E+03  0.12497939096E+03 0.  0.
          2    1    1    2  501    0 -0.44025047967E+02  0.55900218546E+02  0.52972240385E+02  0.88707933881E+02  0.00000000000E+00 0. -1.
          1    1    1    2  502    0 -0.25074755267E+02 -0.42788198594E+02  0.87085885777E+03  0.87226986847E+03  0.00000000000E+00 0. -1.
         22    1    3    3    0    0  0.94083854302E+01  0.37580904620E+02  0.47101319067E+02  0.60986690075E+02  0.00000000000E+00 0.  1.
         22    1    3    3    0    0  0.59691417803E+02 -0.50692924572E+02  0.43498605965E+03  0.44197930953E+03  0.00000000000E+00 0.  1.
</event>
<event>
 7    1  0.8744670E-005  0.1021284E+03  0.7818608E-02  0.1369876E+00
          2   -1    0    0  502    0  0.00000000000E+00  0.00000000000E+00  0.12572832497E+04  0.12572832497E+04  0.00000000000E+00 0. -1.
          1   -1    0    0  501    0 -0.00000000000E+00 -0.00000000000E+00 -0.28947640356E+04  0.28947640356E+04  0.00000000000E+00 0. -1.
         25    2    1    2    0    0 -0.10729775369E+02 -0.77298381223E+02 -0.25028341402E+03  0.29044404563E+03  0.12500315391E+03 0.  0.
          2    1    1    2  501    0  0.38841724892E+02 -0.21134991545E+02 -0.26220960072E+04  0.26224688441E+04  0.00000000000E+00 0. -1.
          1    1    1    2  502    0 -0.28111949523E+02  0.98433372768E+02  0.12348986353E+04  0.12391343955E+04  0.00000000000E+00 0. -1.
         22    1    3    3    0    0  0.33938764967E+02 -0.54124282381E+01 -0.10153648988E+02  0.35836165178E+02  0.00000000000E+00 0.  1.
         22    1    3    3    0    0 -0.44668540336E+02 -0.71885952985E+02 -0.24012976503E+03  0.25460788045E+03  0.00000000000E+00 0.  1.
</event>
<event>
 7    1  0.7459264E-005  0.1602772E+03  0.7818608E-02  0.1316394E+00
          2   -1    0    0  502    0  0.00000000000E+00  0.00000000000E+00  0.82702381069E+03  0.82702381069E+03  0.00000000000E+00 0. -1.
          1   -1    0    0  501    0 -0.00000000000E+00 -0.00000000000E+00 -0.10682420271E+04  0.10682420271E+04  0.00000000000E+00 0. -1.
         25    2    1    2    0    0  0.15106658621E+03  0.83914716918E+02  0.19620165738E+03  0.28979560067E+03  0.12499442638E+03 0.  0.
          2    1    1    2  501    0 -0.15517028174E+03 -0.39413564888E+02 -0.10143022462E+04  0.10268594315E+04  0.00000000000E+00 0. -1.
          1    1    1    2  502    0  0.41036955324E+01 -0.44501152029E+02  0.57688237238E+03  0.57861080564E+03  0.00000000000E+00 0. -1.
         22    1    3    3    0    0 -0.17871280255E+02 -0.91798024834E+01  0.14268109659E+02  0.24642045061E+02  0.00000000000E+00 0.  1.
         22    1    3    3    0    0  0.16893786646E+03  0.93094519401E+02  0.18193354772E+03  0.26515355561E+03  0.00000000000E+00 0.  1.
</event>
<event>
 7    1  0.7459264E-005  0.3662625E+03  0.7818608E-02  0.1245007E+00
          2   -1    0    0  502    0  0.00000000000E+00  0.00000000000E+00  0.18040972013E+04  0.18040972013E+04  0.00000000000E+00 0. -1.
          1   -1    0    0  501    0 -0.00000000000E+00 -0.00000000000E+00 -0.10949782786E+03  0.10949782786E+03  0.00000000000E+00 0. -1.
         25    2    1    2    0    0  0.31429436370E+03  0.21888647487E+03  0.66482301327E+03  0.77737149171E+03  0.12499824490E+03 0.  0.
          2    1    1    2  501    0 -0.27574905922E+03 -0.22014063048E+03  0.54079289921E+03  0.64572161237E+03  0.00000000000E+00 0. -1.
          1    1    1    2  502    0 -0.38545304482E+02  0.12541556165E+01  0.48898346101E+03  0.49050192512E+03  0.00000000000E+00 0. -1.
         22    1    3    3    0    0 -0.97243585023E+01  0.11617995396E+02  0.10728449235E+02  0.18564498062E+02  0.00000000000E+00 0. -1.
         22    1    3    3    0    0  0.32401872220E+03  0.20726847947E+03  0.65409456403E+03  0.75880699365E+03  0.00000000000E+00 0. -1.
</event>
<event>
 7    1  0.7459264E-005  0.6288027E+03  0.7818608E-02  0.1025445E+00
          2   -1    0    0  502    0  0.00000000000E+00  0.00000000000E+00  0.11432508804E+04  0.11432508804E+04  0.00000000000E+00 0. -1.
          1   -1    0    0  501    0 -0.00000000000E+00 -0.00000000000E+00 -0.13374720997E+04  0.13374720997E+04  0.00000000000E+00 0. -1.
         25    2    1    2    0    0  0.54554722588E+03  0.54372623897E+03 -0.77074585712E+03  0.10967831598E+04  0.12499649909E+03 0.  0.
          2    1    1    2  501    0 -0.44352054967E+03 -0.22654790414E+03 -0.20175147586E+03  0.53734354826E+03  0.00000000000E+00 0. -1.
          1    1    1    2  502    0 -0.10202667621E+03 -0.31717833484E+03  0.77827611365E+03  0.84659627204E+03  0.00000000000E+00 0. -1.
         22    1    3    3    0    0  0.42594290550E+03  0.35792393060E+03 -0.59361273570E+03  0.81358034565E+03  0.00000000000E+00 0. -1.
         22    1    3    3    0    0  0.11960432038E+03  0.18580230838E+03 -0.17713312142E+03  0.28320281418E+03  0.00000000000E+00 0. -1.
</event>
<event>
 7    1  0.7459264E-005  0.2880873E+03  0.7818608E-02  0.1148299E+00
          2   -1    0    0  502    0  0.00000000000E+00  0.00000000000E+00  0.28506037550E+04  0.28506037550E+04  0.00000000000E+00 0. -1.
          1   -1    0    0  501    0 -0.00000000000E+00 -0.00000000000E+00 -0.50164999459E+03  0.50164999459E+03  0.00000000000E+00 0. -1.
         25    2    1    2    0    0 -0.32279145733E+03 -0.16881242198E+03 -0.13770978643E+03  0.40899927687E+03  0.12499785785E+03 0.  0.
          2    1    1    2  501    0  0.18172720533E+03  0.17586101293E+03 -0.15579419541E+03  0.29702475377E+03  0.00000000000E+00 0. -1.
          1    1    1    2  502    0  0.14106425200E+03 -0.70485909558E+01  0.26424577423E+04  0.26462297190E+04  0.00000000000E+00 0. -1.
         22    1    3    3    0    0  0.37114027357E+01 -0.13829191706E+02 -0.27744079830E+02  0.31221066913E+02  0.00000000000E+00 0. -1.
         22    1    3    3    0    0 -0.32650286006E+03 -0.15498323027E+03 -0.10996570660E+03  0.37777820996E+03  0.00000000000E+00 0. -1.
</event>
<event>
 7    1  0.7459264E-005  0.4758978E+03  0.7818608E-02  0.1206813E+00
          2   -1    0    0  502    0  0.00000000000E+00  0.00000000000E+00  0.16169953579E+03  0.16169953579E+03  0.00000000000E+00 0. -1.
          1   -1    0    0  501    0 -0.00000000000E+00 -0.00000000000E+00 -0.23380716271E+04  0.23380716271E+04  0.00000000000E+00 0. -1.
         25    2    1    2    0    0 -0.38185148439E+03  0.32503941391E+03 -0.90434301555E+03  0.10415953636E+04  0.12499373974E+03 0.  0.
          2    1    1    2  501    0  0.41974993201E+02 -0.13693696320E+02 -0.79002362274E+03  0.79125643243E+03  0.00000000000E+00 0. -1.
          1    1    1    2  502    0  0.33987649119E+03 -0.31134571760E+03 -0.48200545300E+03  0.66691936683E+03  0.00000000000E+00 0. -1.
         22    1    3    3    0    0 -0.23787708498E+03  0.17071614697E+03 -0.40749522909E+03  0.50177870832E+03  0.00000000000E+00 0. -1.
         22    1    3    3    0    0 -0.14397439941E+03  0.15432326694E+03 -0.49684778646E+03  0.53981665528E+03  0.00000000000E+00 0. -1.
</event>
<event>
 7    1  0.7459264E-005  0.1239566E+03  0.7818608E-02  0.1245266E+00
          2   -1    0    0  502    0  0.00000000000E+00  0.00000000000E+00  0.63038626286E+03  0.63038626286E+03  0.00000000000E+00 0. -1.
          1   -1    0    0  501    0 -0.00000000000E+00 -0.00000000000E+00 -0.36759756115E+03  0.36759756115E+03  0.00000000000E+00 0. -1.
         25    2    1    2    0    0  0.41680551574E+02  0.42221397476E+02 -0.84927017310E+02  0.16235273537E+03  0.12500359046E+03 0.  0.
          2    1    1    2  501    0 -0.78851349256E+02  0.81854271570E+02 -0.22305842994E+03  0.25034520211E+03  0.00000000000E+00 0. -1.
          1    1    1    2  502    0  0.37170797682E+02 -0.12407566905E+03  0.57077414896E+03  0.58528588653E+03  0.00000000000E+00 0. -1.
         22    1    3    3    0    0 -0.42571298710E+02  0.10187794712E+02 -0.94340222317E+01  0.44778425725E+02  0.00000000000E+00 0. -1.
         22    1    3    3    0    0  0.84251850284E+02  0.32033602764E+02 -0.75492995078E+02  0.11757430964E+03  0.00000000000E+00 0. -1.
</event>
<event>
 7    1  0.7459264E-005  0.1098321E+04  0.7818608E-02  0.1091474E+00
          2   -1    0    0  502    0  0.00000000000E+00  0.00000000000E+00  0.12815775334E+04  0.12815775334E+04  0.00000000000E+00 0. -1.
          1   -1    0    0  501    0 -0.00000000000E+00 -0.00000000000E+00 -0.15593325910E+04  0.15593325910E+04  0.00000000000E+00 0. -1.
         25    2    1    2    0    0  0.10919685052E+04 -0.41321467867E+02 -0.55191036972E+03  0.12305821519E+04  0.12499878492E+03 0.  0.
          2    1    1    2  501    0 -0.11012111296E+04  0.11619593460E+03 -0.20425550998E+03  0.11260052222E+04  0.00000000000E+00 0. -1.
          1    1    1    2  502    0  0.92426243537E+01 -0.74874466735E+02  0.47841082206E+03  0.48432275038E+03  0.00000000000E+00 0. -1.
         22    1    3    3    0    0  0.10878804500E+04 -0.43648497734E+02 -0.53513655493E+03  0.12131612413E+04  0.00000000000E+00 0.  1.
         22    1    3    3    0    0  0.40880551636E+01  0.23270298664E+01 -0.16773814787E+02  0.17420910583E+02  0.00000000000E+00 0.  1.
</event>
<event>
 7    1  0.7459264E-005  0.1131870E+03  0.7818608E-02  0.1286362E+00
          2   -1    0    0  502    0  0.00000000000E+00  0.00000000000E+00  0.19491185541E+04  0.19491185541E+04  0.00000000000E+00 0. -1.
          1   -1    0    0  501    0 -0.00000000000E+00 -0.00000000000E+00 -0.19477621114E+03  0.19477621114E+03  0.00000000000E+00 0. -1.
         25    2    1    2    0    0  0.92959517469E+02 -0.39260826457E+02 -0.70754886022E+01  0.16080847531E+03  0.12500567512E+03 0.  0.
          2    1    1    2  501    0 -0.56939530686E+02  0.11450342331E+03 -0.72681441658E+02  0.14709091089E+03  0.00000000000E+00 0. -1.
          1    1    1    2  502    0 -0.36019986782E+02 -0.75242596857E+02  0.18340992732E+04  0.18359953790E+04  0.00000000000E+00 0. -1.
         22    1    3    3    0    0  0.47063304715E+02 -0.59768471567E+02 -0.53003075738E+02  0.92717586692E+02  0.00000000000E+00 0. -1.
         22    1    3    3    0    0  0.45896212753E+02  0.20507645110E+02  0.45927587136E+02  0.68090888621E+02  0.00000000000E+00 0. -1.
</event>
<event>
 7    1  0.7459264E-005  0.8465960E+03  0.7818608E-02  0.1173429E+00
          2   -1    0    0  502    0  0.00000000000E+00  0.00000000000E+00  0.24911727045E+04  0.24911727045E+04  0.00000000000E+00 0. -1.
          1   -1    0    0  501    0 -0.00000000000E+00 -0.00000000000E+00 -0.11102525162E+04  0.11102525162E+04  0.00000000000E+00 0. -1.
         25    2    1    2    0    0  0.72756139800E+01  0.83454990675E+03  0.10017436156E+04  0.13098251300E+04  0.12500047347E+03 0.  0.
          2    1    1    2  501    0  0.28145154325E+02  0.22267246627E+02 -0.81810430604E+03  0.81889110115E+03  0.00000000000E+00 0. -1.
          1    1    1    2  502    0 -0.35420768305E+02 -0.85681715337E+03  0.11972808788E+04  0.14727089895E+04  0.00000000000E+00 0. -1.
         22    1    3    3    0    0  0.40063673132E+02  0.10668528106E+03  0.16180596181E+03  0.19790911141E+03  0.00000000000E+00 0.  1.
         22    1    3    3    0    0 -0.32788059152E+02  0.72786462568E+03  0.83993765381E+03  0.11119160186E+04  0.00000000000E+00 0.  1.
</event>
<event>
 7    1  0.7459264E-005  0.3304636E+03  0.7818608E-02  0.1312950E+00
          2   -1    0    0  502    0  0.00000000000E+00  0.00000000000E+00  0.21742357391E+03  0.21742357391E+03  0.00000000000E+00 0. -1.
          1   -1    0    0  501    0 -0.00000000000E+00 -0.00000000000E+00 -0.12147025686E+04  0.12147025686E+04  0.00000000000E+00 0. -1.
         25    2    1    2    0    0  0.22776802358E+03 -0.24404034743E+03 -0.15256742818E+03  0.38773009166E+03  0.12499536031E+03 0.  0.
          2    1    1    2  501    0 -0.24049352901E+03  0.22565706057E+03 -0.91395437271E+03  0.97163307986E+03  0.00000000000E+00 0. -1.
          1    1    1    2  502    0  0.12725505434E+02  0.18383286860E+02  0.69242806247E+02  0.72762970949E+02  0.00000000000E+00 0. -1.
         22    1    3    3    0    0  0.17121148445E+03 -0.21020745210E+03 -0.16943620865E+03  0.31970169554E+03  0.00000000000E+00 0.  1.
         22    1    3    3    0    0  0.56556539129E+02 -0.33832895325E+02  0.16868780470E+02  0.68028396122E+02  0.00000000000E+00 0.  1.
</event>
<event>
 7    1  0.7459264E-005  0.2422482E+03  0.7818608E-02  0.1138042E+00
          2   -1    0    0  502    0  0.00000000000E+00  0.00000000000E+00  0.11353793719E+04  0.11353793719E+04  0.00000000000E+00 0. -1.
          1   -1    0    0  501    0 -0.00000000000E+00 -0.00000000000E+00 -0.10566762093E+04  0.10566762093E+04  0.00000000000E+00 0. -1.
         25    2    1    2    0    0 -0.31954230615E+03 -0.22468193536E+03 -0.16743775936E+03  0.44300387685E+03  0.12501109610E+03 0.  0.
          2    1    1    2  501    0  0.13461862545E+03  0.18126703835E+03 -0.72508427034E+03  0.75942551485E+03  0.00000000000E+00 0. -1.
          1    1    1    2  502    0  0.18492368069E+03  0.43414897012E+02  0.97122519226E+03  0.98962618955E+03  0.00000000000E+00 0. -1.
         22    1    3    3    0    0 -0.99912710597E+02 -0.56655273941E+02 -0.11307652064E+03  0.16117899777E+03  0.00000000000E+00 0.  1.
         22    1    3    3    0    0 -0.21962959555E+03 -0.16802666142E+03 -0.54361238718E+02  0.28182487907E+03  0.00000000000E+00 0.  1.
</event>
<event>
 7    1  0.7459264E-005  0.5808688E+03  0.7818608E-02  0.1155651E+00
          2   -1    0    0  502    0  0.00000000000E+00  0.00000000000E+00  0.10054646327E+04  0.10054646327E+04  0.00000000000E+00 0. -1.
          1   -1    0    0  501    0 -0.00000000000E+00 -0.00000000000E+00 -0.12717854678E+04  0.12717854678E+04  0.00000000000E+00 0. -1.
         25    2    1    2    0    0 -0.62579425351E+03  0.10113113634E+03  0.49616904351E+03  0.81464996314E+03  0.12499955295E+03 0.  0.
          2    1    1    2  501    0  0.57087919221E+03 -0.67825354883E+02 -0.10342842844E+04  0.11833204603E+04  0.00000000000E+00 0. -1.
          1    1    1    2  502    0  0.54915061304E+02 -0.33305781459E+02  0.27179440578E+03  0.27927967711E+03  0.00000000000E+00 0. -1.
         22    1    3    3    0    0 -0.21804009254E+03  0.26734682536E+02  0.10028613059E+03  0.24148195211E+03  0.00000000000E+00 0.  1.
         22    1    3    3    0    0 -0.40775416097E+03  0.74396453806E+02  0.39588291292E+03  0.57316801103E+03  0.00000000000E+00 0.  1.
</event>
<event>
 7    1  0.7459264E-005  0.1134336E+03  0.7818608E-02  0.1304428E+00
          2   -1    0    0  502    0  0.00000000000E+00  0.00000000000E+00  0.84032835083E+03  0.84032835083E+03  0.00000000000E+00 0. -1.
          1   -1    0    0  501    0 -0.00000000000E+00 -0.00000000000E+00 -0.21145825470E+03  0.21145825470E+03  0.00000000000E+00 0. -1.
         25    2    1    2    0    0  0.75699327386E+01 -0.13239965369E+02 -0.65788678680E+02  0.14207737368E+03  0.12500091721E+03 0.  0.
          2    1    1    2  501    0 -0.86327501789E+02  0.94875950253E+02 -0.63487316654E+02  0.14312415197E+03  0.00000000000E+00 0. -1.
          1    1    1    2  502    0  0.78757569050E+02 -0.81635984884E+02  0.75814609145E+03  0.76658507988E+03  0.00000000000E+00 0. -1.
         22    1    3    3    0    0  0.21158929283E+02 -0.66939439914E+02 -0.41870750415E+02  0.81741963793E+02  0.00000000000E+00 0.  1.
         22    1    3    3    0    0 -0.13588996544E+02  0.53699474545E+02 -0.23917928264E+02  0.60335409884E+02  0.00000000000E+00 0.  1.
</event>
<event>
 7    1  0.7459264E-005  0.8745370E+02  0.7818608E-02  0.1437310E+00
          2   -1    0    0  502    0  0.00000000000E+00  0.00000000000E+00  0.29033237484E+03  0.29033237484E+03  0.00000000000E+00 0. -1.
          1   -1    0    0  501    0 -0.00000000000E+00 -0.00000000000E+00 -0.57979185082E+03  0.57979185082E+03  0.00000000000E+00 0. -1.
         25    2    1    2    0    0 -0.79427793844E+02 -0.61615453203E+02  0.20957927887E+01  0.16042049414E+03  0.12500041634E+03 0.  0.
          2    1    1    2  501    0  0.81202718902E+02  0.31316086495E+02 -0.49571661039E+03  0.50329865552E+03  0.00000000000E+00 0. -1.
          1    1    1    2  502    0 -0.17749250577E+01  0.30299366708E+02  0.20416134163E+03  0.20640507600E+03  0.00000000000E+00 0. -1.
         22    1    3    3    0    0  0.46398459039E+01 -0.40792966278E+02 -0.45753630155E+02  0.61473481601E+02  0.00000000000E+00 0. -1.
         22    1    3    3    0    0 -0.84067639748E+02 -0.20822486925E+02  0.47849422944E+02  0.98947012540E+02  0.00000000000E+00 0. -1.
</event>
<event>
 7    1  0.7459264E-005  0.1642427E+04  0.7818608E-02  0.1078778E+00
          2   -1    0    0  502    0  0.00000000000E+00  0.00000000000E+00  0.32432686737E+04  0.32432686737E+04  0.00000000000E+00 0. -1.
          1   -1    0    0  501    0 -0.00000000000E+00 -0.00000000000E+00 -0.14907126782E+04  0.14907126782E+04  0.00000000000E+00 0. -1.
         25    2    1    2    0    0  0.16491250995E+04  0.18145715312E+03  0.16439286208E+04  0.23389465754E+04  0.12501791834E+03 0.  0.
          2    1    1    2  501    0 -0.16330390982E+04 -0.12390220246E+03 -0.55462370479E+03  0.17290968469E+04  0.00000000000E+00 0. -1.
          1    1    1    2  502    0 -0.16086001309E+02 -0.57554950659E+02  0.66325107947E+03  0.66593792970E+03  0.00000000000E+00 0. -1.
         22    1    3    3    0    0  0.69004802120E+03  0.53299960585E+02  0.76687931525E+03  0.10330106686E+04  0.00000000000E+00 0.  1.
         22    1    3    3    0    0  0.95907707828E+03  0.12815719253E+03  0.87704930559E+03  0.13059359067E+04  0.00000000000E+00 0.  1.
</event>
<event>
 7    1  0.7459264E-005  0.7727774E+03  0.7818608E-02  0.1219921E+00
          2   -1    0    0  502    0  0.00000000000E+00  0.00000000000E+00  0.10678832235E+04  0.10678832235E+04  0.00000000000E+00 0. -1.
          1   -1    0    0  501    0 -0.00000000000E+00 -0.00000000000E+00 -0.18622472156E+04  0.18622472156E+04  0.00000000000E+00 0. -1.
         25    2    1    2    0    0  0.52496132950E+03  0.54777190252E+03  0.42921104534E+03  0.88061639926E+03  0.12499866617E+03 0.  0.
          2    1    1    2  501    0 -0.54860902046E+03 -0.54708259743E+03 -0.15443866014E+04  0.17278313576E+04  0.00000000000E+00 0. -1.
          1    1    1    2  502    0  0.23647690963E+02 -0.68930508892E+00  0.32081156396E+03  0.32168268216E+03  0.00000000000E+00 0. -1.
         22    1    3    3    0    0  0.68888211529E+02  0.76841766268E+02  0.12844742021E+02  0.10399629863E+03  0.00000000000E+00 0. -1.
         22    1    3    3    0    0  0.45607311797E+03  0.47093013625E+03  0.41636630332E+03  0.77662010063E+03  0.00000000000E+00 0. -1.
</event>
<event>
 7    1  0.7459264E-005  0.2628623E+03  0.7818608E-02  0.1315138E+00
          2   -1    0    0  502    0  0.00000000000E+00  0.00000000000E+00  0.27282967993E+04  0.27282967993E+04  0.00000000000E+00 0. -1.
          1   -1    0    0  501    0 -0.00000000000E+00 -0.00000000000E+00 -0.38116136660E+03  0.38116136660E+03  0.00000000000E+00 0. -1.
         25    2    1    2    0    0 -0.11973370983E+03  0.21162671768E+03  0.27407375970E+03  0.38712264572E+03  0.12500195265E+03 0.  0.
          2    1    1    2  501    0 -0.25411007429E+02  0.10666199909E+02 -0.31668783346E+03  0.31788468189E+03  0.00000000000E+00 0. -1.
          1    1    1    2  502    0  0.14514471726E+03 -0.22229291758E+03  0.23897495065E+04  0.24044508383E+04  0.00000000000E+00 0. -1.
         22    1    3    3    0    0  0.11912521724E+02  0.10005775242E+02  0.69318613200E+02  0.71042901461E+02  0.00000000000E+00 0. -1.
         22    1    3    3    0    0 -0.13164623156E+03  0.20162094243E+03  0.20475514650E+03  0.31607974425E+03  0.00000000000E+00 0. -1.
</event>
<event>
 7    1  0.7459264E-005  0.2472617E+03  0.7818608E-02  0.1198083E+00
          2   -1    0    0  502    0  0.00000000000E+00  0.00000000000E+00  0.16924326640E+04  0.16924326640E+04  0.00000000000E+00 0. -1.
          1   -1    0    0  501    0 -0.00000000000E+00 -0.00000000000E+00 -0.10564822130E+04  0.10564822130E+04  0.00000000000E+00 0. -1.
         25    2    1    2    0    0 -0.14936579373E+03 -0.26494214647E+03 -0.33991809536E+02  0.33058264795E+03  0.12499985080E+03 0.  0.
          2    1    1    2  501    0  0.16843922513E+03  0.17351855017E+03 -0.85601592483E+03  0.88951881564E+03  0.00000000000E+00 0. -1.
          1    1    1    2  502    0 -0.19073431396E+02  0.91423596303E+02  0.15259581853E+04  0.15288134135E+04  0.00000000000E+00 0. -1.
         22    1    3    3    0    0 -0.84040631107E+02 -0.43354422799E+02  0.11077836635E+02  0.95211092408E+02  0.00000000000E+00 0. -1.
         22    1    3    3    0    0 -0.65325162625E+02 -0.22158772367E+03 -0.45069646171E+02  0.23537155555E+03  0.00000000000E+00 0. -1.
</event>
<event>
 7    1  0.7459264E-005  0.5323419E+03  0.7818608E-02  0.1177736E+00
          2   -1    0    0  502    0  0.00000000000E+00  0.00000000000E+00  0.16602726037E+04  0.16602726037E+04  0.00000000000E+00 0. -1.
          1   -1    0    0  501    0 -0.00000000000E+00 -0.00000000000E+00 -0.92998349455E+03  0.92998349455E+03  0.00000000000E+00 0. -1.
         25    2    1    2    0    0 -0.53416561815E+03  0.79984987911E+02 -0.10050025083E+03  0.56343195970E+03  0.12499906756E+03 0.  0.
          2    1    1    2  501    0  0.32552192987E+01 -0.54259354005E+02 -0.54718994062E+03  0.54988317402E+03  0.00000000000E+00 0. -1.
          1    1    1    2  502    0  0.53091039885E+03 -0.25725633906E+02  0.13779793006E+04  0.14769409645E+04  0.00000000000E+00 0. -1.
         22    1    3    3    0    0 -0.49397067218E+03  0.53598660829E+02 -0.12063432186E+03  0.51130468512E+03  0.00000000000E+00 0.  1.
         22    1    3    3    0    0 -0.40194945965E+02  0.26386327082E+02  0.20134071034E+02  0.52127274573E+02  0.00000000000E+00 0.  1.
</event>
<event>
 7    1  0.7459264E-005  0.4231094E+03  0.7818608E-02  0.1161153E+00
          2   -1    0    0  502    0  0.00000000000E+00  0.00000000000E+00  0.29855761401E+04  0.29855761401E+04  0.00000000000E+00 0. -1.
          1   -1    0    0  501    0 -0.00000000000E+00 -0.00000000000E+00 -0.35678419749E+03  0.35678419749E+03  0.00000000000E+00 0. -1.
         25    2    1    2    0    0 -0.26975392810E+03 -0.36776989198E+03  0.17118438181E+04  0.17759661833E+04  0.12499900718E+03 0.  0.
          2    1    1    2  501    0  0.78948847908E+02  0.24586603616E+02 -0.28771025393E+03  0.29935699738E+03  0.00000000000E+00 0. -1.
          1    1    1    2  502    0  0.19080508019E+03  0.34318328837E+03  0.12046583785E+04  0.12670371569E+04  0.00000000000E+00 0. -1.
         22    1    3    3    0    0 -0.22867632256E+03 -0.33984125737E+03  0.13513574356E+04  0.14120736027E+04  0.00000000000E+00 0.  1.
         22    1    3    3    0    0 -0.41077605543E+02 -0.27928634612E+02  0.36048638243E+03  0.36389258061E+03  0.00000000000E+00 0.  1.
</event>
<event>
 7    1  0.7459264E-005  0.1057738E+04  0.7818608E-02  0.1049150E+00
          2   -1    0    0  502    0  0.00000000000E+00  0.00000000000E+00  0.87387659551E+03  0.87387659551E+03  0.00000000000E+00 0. -1.
          1   -1    0    0  501    0 -0.00000000000E+00 -0.00000000000E+00 -0.18484463757E+04  0.18484463757E+04  0.00000000000E+00 0. -1.
         25    2    1    2    0    0  0.49819158009E+03 -0.97454308006E+03  0.75159955458E+02  0.11041753050E+04  0.12500007925E+03 0.  0.
          2    1    1    2  501    0  0.37240934112E+02  0.13499319533E+03 -0.41330160604E+03  0.43638087437E+03  0.00000000000E+00 0. -1.
          1    1    1    2  502    0 -0.53543251420E+03  0.83954988473E+03 -0.63642812959E+03  0.11817667919E+04  0.00000000000E+00 0. -1.
         22    1    3    3    0    0  0.33374138359E+03 -0.71690403330E+03  0.60237116644E+01  0.79080401439E+03  0.00000000000E+00 0. -1.
         22    1    3    3    0    0  0.16445019650E+03 -0.25763904677E+03  0.69136243793E+02  0.31337129057E+03  0.00000000000E+00 0. -1.
</event>
<event>
 7    1  0.7459264E-005  0.5615491E+03  0.7818608E-02  0.1208819E+00
          2   -1    0    0  502    0  0.00000000000E+00  0.00000000000E+00  0.23653404779E+04  0.23653404779E+04  0.00000000000E+00 0. -1.
          1   -1    0    0  501    0 -0.00000000000E+00 -0.00000000000E+00 -0.80108488396E+03  0.80108488396E+03  0.00000000000E+00 0. -1.
         25    2    1    2    0    0  0.53245744602E+03  0.21443729957E+03 -0.34047079895E+03  0.67900094865E+03  0.12501054377E+03 0.  0.
          2    1    1    2  501    0 -0.51060413859E+03 -0.18505022932E+03 -0.37927762251E+02  0.54442509941E+03  0.00000000000E+00 0. -1.
          1    1    1    2  502    0 -0.21853307435E+02 -0.29387070249E+02  0.19426541551E+04  0.19429993138E+04  0.00000000000E+00 0. -1.
         22    1    3    3    0    0  0.51525162451E+03  0.17794993644E+03 -0.33037877842E+03  0.63741709552E+03  0.00000000000E+00 0. -1.
         22    1    3    3    0    0  0.17205821517E+02  0.36487363130E+02 -0.10092020532E+02  0.41583853125E+02  0.00000000000E+00 0. -1.
</event>
<event>
 7    1  0.7459264E-005  0.3370773E+03  0.7818608E-02  0.1139989E+00
          2   -1    0    0  502    0  0.00000000000E+00  0.00000000000E+00  0.12555394218E+04  0.12555394218E+04  0.00000000000E+00 0. -1.
          1   -1    0    0  501    0 -0.00000000000E+00 -0.00000000000E+00 -0.15096653629E+04  0.15096653629E+04  0.00000000000E+00 0. -1.
         25    2    1    2    0    0  0.18446852302E+02 -0.23610797723E+03 -0.12678428928E+03  0.29628819854E+03  0.12500070925E+03 0.  0.
          2    1    1    2  501    0 -0.53103980510E+00  0.36823810363E+03 -0.12680530105E+04  0.13204385713E+04  0.00000000000E+00 0. -1.
          1    1    1    2  502    0 -0.17915812497E+02 -0.13213012640E+03  0.11407113588E+04  0.11484780149E+04  0.00000000000E+00 0. -1.
         22    1    3    3    0    0  0.36115051797E+02 -0.20375365612E+03 -0.14739140978E+03  0.25405526373E+03  0.00000000000E+00 0.  1.
         22    1    3    3    0    0 -0.17668199495E+02 -0.32354321110E+02  0.20607120497E+02  0.42232934815E+02  0.00000000000E+00 0.  1.
</event>
<event>
 7    1  0.7459264E-005  0.8646854E+03  0.7818608E-02  0.1161235E+00
          2   -1    0    0  502    0  0.00000000000E+00  0.00000000000E+00  0.22541117141E+04  0.22541117141E+04  0.00000000000E+00 0. -1.
          1   -1    0    0  501    0 -0.00000000000E+00 -0.00000000000E+00 -0.15685684350E+04  0.15685684350E+04  0.00000000000E+00 0. -1.
         25    2    1    2    0    0 -0.53408213868E+03  0.71174796711E+03  0.50626736948E+03  0.10313881617E+04  0.12500396413E+03 0.  0.
          2    1    1    2  501    0  0.92012891426E+01 -0.39361485978E+02 -0.11831656629E+04  0.11838559778E+04  0.00000000000E+00 0. -1.
          1    1    1    2  502    0  0.52488084954E+03 -0.67238648114E+03  0.13624415726E+04  0.16074360096E+04  0.00000000000E+00 0. -1.
         22    1    3    3    0    0 -0.41599803293E+03  0.55661960934E+03  0.45218985031E+03  0.82906900415E+03  0.00000000000E+00 0.  1.
         22    1    3    3    0    0 -0.11808410575E+03  0.15512835777E+03  0.54077519169E+02  0.20231915751E+03  0.00000000000E+00 0.  1.
</event>
<event>
 7    1  0.7566543E-005  0.5506993E+03  0.7818608E-02  0.1191253E+00
          2   -1    0    0  502    0  0.00000000000E+00  0.00000000000E+00  0.14259513383E+04  0.14259513383E+04  0.00000000000E+00 0. -1.
          1   -1    0    0  501    0 -0.00000000000E+00 -0.00000000000E+00 -0.12293929362E+04  0.12293929362E+04  0.00000000000E+00 0. -1.
         25    2    1    2    0    0  0.40699488014E+03 -0.41289098489E+03 -0.48686410093E+03  0.76732362478E+03  0.12500037807E+03 0.  0.
          2    1    1    2  501    0 -0.45175386729E+02  0.12257549916E+01 -0.54291036449E+03  0.54478801557E+03  0.00000000000E+00 0. -1.
          1    1    1    2  502    0 -0.36181949341E+03  0.41166522989E+03  0.12263328675E+04  0.13432326341E+04  0.00000000000E+00 0. -1.
         22    1    3    3    0    0  0.86700220073E+02 -0.26492722032E+02 -0.63022758984E+02  0.11041132474E+03  0.00000000000E+00 0.  1.
         22    1    3    3    0    0  0.32029466006E+03 -0.38639826285E+03 -0.42384134194E+03  0.65691230004E+03  0.00000000000E+00 0.  1.
</event>
<event>
 7    1  0.7459264E-005  0.7200851E+02  0.7818608E-02  0.1377963E+00
          2   -1    0    0  502    0  0.00000000000E+00  0.00000000000E+00  0.71067418473E+03  0.71067418473E+03  0.00000000000E+00 0. -1.
          1   -1    0    0  501    0 -0.00000000000E+00 -0.00000000000E+00 -0.54034839717E+03  0.54034839717E+03  0.00000000000E+00 0. -1.
         25    2    1    2    0    0  0.12094207919E+03  0.40126123731E+02  0.11819739646E+03  0.21408711503E+03  0.12500230384E+03 0.  0.
          2    1    1    2  501    0 -0.70434143181E+02 -0.10259611787E+02 -0.48823475135E+03  0.49339578493E+03  0.00000000000E+00 0. -1.
          1    1    1    2  502    0 -0.50507936008E+02 -0.29866511944E+02  0.54036314244E+03  0.54353968194E+03  0.00000000000E+00 0. -1.
         22    1    3    3    0    0  0.11718220542E+02  0.33517939403E+02 -0.17648897601E+02  0.39651639828E+02  0.00000000000E+00 0.  1.
         22    1    3    3    0    0  0.10922385865E+03  0.66081843279E+01  0.13584629406E+03  0.17443547520E+03  0.00000000000E+00 0.  1.
</event>
<event>
 7    1  0.7459264E-005  0.4710858E+03  0.7818608E-02  0.1212900E+00
          2   -1    0    0  502    0  0.00000000000E+00  0.00000000000E+00  0.10810401070E+04  0.10810401070E+04  0.00000000000E+00 0. -1.
          1   -1    0    0  501    0 -0.00000000000E+00 -0.00000000000E+00 -0.13380722232E+04  0.13380722232E+04  0.00000000000E+00 0. -1.
         25    2    1    2    0    0 -0.66519020813E+01  0.44946123543E+03  0.93881398218E+03  0.10483592851E+04  0.12500339007E+03 0.  0.
          2    1    1    2  501    0 -0.29047987293E+02 -0.47119687115E+03 -0.12295464219E+04  0.13170628992E+04  0.00000000000E+00 0. -1.
          1    1    1    2  502    0  0.35699889374E+02  0.21735635720E+02  0.33700323442E+02  0.53690145851E+02  0.00000000000E+00 0. -1.
         22    1    3    3    0    0  0.16879289957E+02  0.43885875081E+03  0.90384779769E+03  0.10048993756E+04  0.00000000000E+00 0. -1.
         22    1    3    3    0    0 -0.23531192038E+02  0.10602484616E+02  0.34966184495E+02  0.43459909536E+02  0.00000000000E+00 0. -1.
</event>
<event>
 7    1  0.7459264E-005  0.3817223E+03  0.7818608E-02  0.1161794E+00
          2   -1    0    0  502    0  0.00000000000E+00  0.00000000000E+00  0.96856764301E+03  0.96856764301E+03  0.00000000000E+00 0. -1.
          1   -1    0    0  501    0 -0.00000000000E+00 -0.00000000000E+00 -0.51467763787E+03  0.51467763787E+03  0.00000000000E+00 0. -1.
         25    2    1    2    0    0 -0.26717437328E+03  0.36155953771E+03  0.27553485423E+03  0.54189554310E+03  0.12499551465E+03 0.  0.
          2    1    1    2  501    0  0.24535750052E+03 -0.27324073555E+03 -0.28769253147E+03  0.46650594347E+03  0.00000000000E+00 0. -1.
          1    1    1    2  502    0  0.21816872761E+02 -0.88318802161E+02  0.46604768237E+03  0.47484379431E+03  0.00000000000E+00 0. -1.
         22    1    3    3    0    0 -0.17562492627E+03  0.15957053788E+03  0.19082033226E+03  0.30449839161E+03  0.00000000000E+00 0.  1.
         22    1    3    3    0    0 -0.91549447010E+02  0.20198899984E+03  0.84714521969E+02  0.23739715149E+03  0.00000000000E+00 0.  1.
</event>
<event>
 7    1  0.7459264E-005  0.9593313E+03  0.7818608E-02  0.1076042E+00
          2   -1    0    0  502    0  0.00000000000E+00  0.00000000000E+00  0.21137627698E+04  0.21137627698E+04  0.00000000000E+00 0. -1.
          1   -1    0    0  501    0 -0.00000000000E+00 -0.00000000000E+00 -0.12553228388E+04  0.12553228388E+04  0.00000000000E+00 0. -1.
         25    2    1    2    0    0  0.89168252924E+03 -0.38716908902E+03 -0.76029974603E+03  0.12404341040E+04  0.12499370442E+03 0.  0.
          2    1    1    2  501    0 -0.87369082694E+03  0.28253058513E+03  0.58342757552E+03  0.10879094303E+04  0.00000000000E+00 0. -1.
          1    1    1    2  502    0 -0.17991702298E+02  0.10463850389E+03  0.10353121014E+04  0.10407420743E+04  0.00000000000E+00 0. -1.
         22    1    3    3    0    0  0.62659392265E+03 -0.30204149020E+03 -0.47843797470E+03  0.84424635109E+03  0.00000000000E+00 0.  1.
         22    1    3    3    0    0  0.26508860659E+03 -0.85127598818E+02 -0.28186177133E+03  0.39618775292E+03  0.00000000000E+00 0.  1.
</event>
<event>
 7    1  0.7459264E-005  0.6097566E+02  0.7818608E-02  0.1428964E+00
          2   -1    0    0  502    0  0.00000000000E+00  0.00000000000E+00  0.76835192266E+03  0.76835192266E+03  0.00000000000E+00 0. -1.
          1   -1    0    0  501    0 -0.00000000000E+00 -0.00000000000E+00 -0.36141267325E+03  0.36141267325E+03  0.00000000000E+00 0. -1.
         25    2    1    2    0    0  0.66946628247E+02 -0.66278049823E+02  0.35783208748E+02  0.16056156086E+03  0.12499978351E+03 0.  0.
          2    1    1    2  501    0 -0.10317629839E+02  0.45198407774E+02 -0.29585257878E+03  0.29946301595E+03  0.00000000000E+00 0. -1.
          1    1    1    2  502    0 -0.56628998408E+02  0.21079642049E+02  0.66700861944E+03  0.66974001910E+03  0.00000000000E+00 0. -1.
         22    1    3    3    0    0  0.50894913549E+02 -0.94391799946E+02 -0.63511034995E+01  0.10742644292E+03  0.00000000000E+00 0.  1.
         22    1    3    3    0    0  0.16051714698E+02  0.28113750123E+02  0.42134312247E+02  0.53135117947E+02  0.00000000000E+00 0.  1.
</event>
<event>
 7    1  0.7459264E-005  0.5886421E+03  0.7818608E-02  0.1081631E+00
          2   -1    0    0  502    0  0.00000000000E+00  0.00000000000E+00  0.10157985948E+04  0.10157985948E+04  0.00000000000E+00 0. -1.
          1   -1    0    0  501    0 -0.00000000000E+00 -0.00000000000E+00 -0.45898809517E+03  0.45898809517E+03  0.00000000000E+00 0. -1.
         25    2    1    2    0    0  0.34343796622E+03  0.39366687055E+03  0.12042542752E+03  0.55049556603E+03  0.12497937036E+03 0.  0.
          2    1    1    2  501    0  0.15963818654E+03  0.16225788875E+02  0.45707205252E+02  0.16684356577E+03  0.00000000000E+00 0. -1.
          1    1    1    2  502    0 -0.50307615276E+03 -0.40989265942E+03  0.39067786686E+03  0.75744755817E+03  0.00000000000E+00 0. -1.
         22    1    3    3    0    0  0.22668037027E+03  0.29417433451E+03  0.13779096648E+03  0.39611725511E+03  0.00000000000E+00 0.  1.
         22    1    3    3    0    0  0.11675759595E+03  0.99492536040E+02 -0.17365538964E+02  0.15437831092E+03  0.00000000000E+00 0.  1.
</event>
<event>
 7    1  0.7459264E-005  0.8559055E+03  0.7818608E-02  0.1005577E+00
          2   -1    0    0  502    0  0.00000000000E+00  0.00000000000E+00  0.49142442041E+04  0.49142442041E+04  0.00000000000E+00 0. -1.
          1   -1    0    0  501    0 -0.00000000000E+00 -0.00000000000E+00 -0.70032183213E+03  0.70032183213E+03  0.00000000000E+00 0. -1.
         25    2    1    2    0    0 -0.98144849369E+03 -0.51326775338E+03  0.14944423326E+04  0.18643137792E+04  0.12499219844E+03 0.  0.
          2    1    1    2  501    0  0.24747185244E+03  0.22065387418E+03 -0.40729408692E+03  0.52518465627E+03  0.00000000000E+00 0. -1.
          1    1    1    2  502    0  0.73397664125E+03  0.29261387919E+03  0.31267741263E+04  0.32250676007E+04  0.00000000000E+00 0. -1.
         22    1    3    3    0    0 -0.50661125544E+03 -0.32656707385E+03  0.75907427916E+03  0.96927538870E+03  0.00000000000E+00 0.  1.
         22    1    3    3    0    0 -0.47483723825E+03 -0.18670067953E+03  0.73536805341E+03  0.89503839054E+03  0.00000000000E+00 0.  1.
</event>
<event>
 7    1  0.7459264E-005  0.1506842E+03  0.7818608E-02  0.1397702E+00
          2   -1    0    0  502    0  0.00000000000E+00  0.00000000000E+00  0.20002704522E+02  0.20002704522E+02  0.00000000000E+00 0. -1.
          1   -1    0    0  501    0 -0.00000000000E+00 -0.00000000000E+00 -0.26931252251E+04  0.26931252251E+04  0.00000000000E+00 0. -1.
         25    2    1    2    0    0 -0.11092195049E+03 -0.12950178112E+03 -0.19788322114E+04  0.19900945211E+04  0.12499956743E+03 0.  0.
          2    1    1    2  501    0  0.17748482705E+02  0.16029728512E+02 -0.32125126300E+03  0.32214024091E+03  0.00000000000E+00 0. -1.
          1    1    1    2  502    0  0.93173467783E+02  0.11347205260E+03 -0.37303904623E+03  0.40089316761E+03  0.00000000000E+00 0. -1.
         22    1    3    3    0    0 -0.11105878231E+03 -0.13244960669E+03 -0.13215659812E+04  0.13328216663E+04  0.00000000000E+00 0. -1.
         22    1    3    3    0    0  0.13683182587E+00  0.29478255727E+01 -0.65726623017E+03  0.65727285485E+03  0.00000000000E+00 0. -1.
</event>
<event>
 7    1  0.7459264E-005  0.2655412E+03  0.7818608E-02  0.1199394E+00
          2   -1    0    0  502    0  0.00000000000E+00  0.00000000000E+00  0.51067026895E+03  0.51067026895E+03  0.00000000000E+00 0. -1.
          1   -1    0    0  501    0 -0.00000000000E+00 -0.00000000000E+00 -0.36268824542E+03  0.36268824542E+03  0.00000000000E+00 0. -1.
         25    2    1    2    0    0  0.26594812511E+03  0.99037399199E+01  0.21832646339E+03  0.36622311402E+03  0.12500574113E+03 0.  0.
          2    1    1    2  501    0 -0.10753026142E+02  0.85054479149E+02 -0.19096411498E+03  0.20932554838E+03  0.00000000000E+00 0. -1.
          1    1    1    2  502    0 -0.25519509897E+03 -0.94958219069E+02  0.12061967512E+03  0.29780985197E+03  0.00000000000E+00 0. -1.
         22    1    3    3    0    0  0.18718622377E+03  0.32871947308E+02  0.21081901786E+03  0.28383781563E+03  0.00000000000E+00 0.  1.
         22    1    3    3    0    0  0.78761901334E+02 -0.22968207388E+02  0.75074455258E+01  0.82385298390E+02  0.00000000000E+00 0.  1.
</event>
<event>
 7    1  0.7459264E-005  0.1069160E+03  0.7818608E-02  0.1372905E+00
          2   -1    0    0  502    0  0.00000000000E+00  0.00000000000E+00  0.11210233490E+04  0.11210233490E+04  0.00000000000E+00 0. -1.
          1   -1    0    0  501    0 -0.00000000000E+00 -0.00000000000E+00 -0.50311647350E+03  0.50311647350E+03  0.00000000000E+00 0. -1.
         25    2    1    2    0    0 -0.91970217411E+02 -0.70977614880E+02 -0.58020499400E+01  0.17072453487E+03  0.12496743703E+03 0.  0.
          2    1    1    2  501    0  0.55913518516E+02  0.90901933042E+02 -0.40757157485E+03  0.42131232074E+03  0.00000000000E+00 0. -1.
          1    1    1    2  502    0  0.36056698895E+02 -0.19924318162E+02  0.10312805002E+04  0.10321029669E+04  0.00000000000E+00 0. -1.
         22    1    3    3    0    0  0.92733013215E+01  0.27688413435E+02 -0.26531123768E+01  0.29320323348E+02  0.00000000000E+00 0. -1.
         22    1    3    3    0    0 -0.10124351873E+03 -0.98666028315E+02 -0.31489375632E+01  0.14140421152E+03  0.00000000000E+00 0. -1.
</event>
<event>
 7    1  0.7459264E-005  0.2000346E+03  0.7818608E-02  0.1213445E+00
          2   -1    0    0  502    0  0.00000000000E+00  0.00000000000E+00  0.19847653907E+04  0.19847653907E+04  0.00000000000E+00 0. -1.
          1   -1    0    0  501    0 -0.00000000000E+00 -0.00000000000E+00 -0.15763463259E+03  0.15763463259E+03  0.00000000000E+00 0. -1.
         25    2    1    2    0    0 -0.22537983922E+03  0.17428739483E+03  0.48256961089E+03  0.57416963280E+03  0.12500067979E+03 0.  0.
          2    1    1    2  501    0  0.85312556831E+02 -0.47946155232E+02 -0.82963892624E+02  0.12829681849E+03  0.00000000000E+00 0. -1.
          1    1    1    2  502    0  0.14006728239E+03 -0.12634123959E+03  0.14275250399E+04  0.14399335720E+04  0.00000000000E+00 0. -1.
         22    1    3    3    0    0 -0.19212818864E+03  0.17919533320E+03  0.46968813076E+03  0.53817390171E+03  0.00000000000E+00 0. -1.
         22    1    3    3    0    0 -0.33251650589E+02 -0.49079383723E+01  0.12881480132E+02  0.35995731085E+02  0.00000000000E+00 0. -1.
</event>
<event>
 7    1  0.7459264E-005  0.6290657E+03  0.7818608E-02  0.1082782E+00
          2   -1    0    0  502    0  0.00000000000E+00  0.00000000000E+00  0.44661737153E+03  0.44661737153E+03  0.00000000000E+00 0. -1.
          1   -1    0    0  501    0 -0.00000000000E+00 -0.00000000000E+00 -0.13660539551E+04  0.13660539551E+04  0.00000000000E+00 0. -1.
         25    2    1    2    0    0  0.53288887962E+03 -0.61297296361E+02 -0.61596869247E+03  0.82629913169E+03  0.12499963343E+03 0.  0.
          2    1    1    2  501    0  0.14193536119E+03  0.41394593436E+02 -0.27312337513E+03  0.31057291763E+03  0.00000000000E+00 0. -1.
          1    1    1    2  502    0 -0.67482424081E+03  0.19902702925E+02 -0.30344515980E+02  0.67579927732E+03  0.00000000000E+00 0. -1.
         22    1    3    3    0    0  0.15988410463E+03 -0.76890549056E+02 -0.20259844701E+03  0.26929763122E+03  0.00000000000E+00 0. -1.
         22    1    3    3    0    0  0.37300477499E+03  0.15593252695E+02 -0.41337024546E+03  0.55700150047E+03  0.00000000000E+00 0. -1.
</event>
<event>
 7    1  0.7459264E-005  0.3762899E+03  0.7818608E-02  0.1125059E+00
          2   -1    0    0  502    0  0.00000000000E+00  0.00000000000E+00  0.68414602512E+03  0.68414602512E+03  0.00000000000E+00 0. -1.
          1   -1    0    0  501    0 -0.00000000000E+00 -0.00000000000E+00 -0.10020857474E+04  0.10020857474E+04  0.00000000000E+00 0. -1.
         25    2    1    2    0    0  0.34177643316E+03  0.10340429460E+03 -0.71612746134E+03  0.80991600355E+03  0.12498725340E+03 0.  0.
          2    1    1    2  501    0 -0.48252293286E+03 -0.76153886369E+02  0.39558904165E+02  0.49009458479E+03  0.00000000000E+00 0. -1.
          1    1    1    2  502    0  0.14074649970E+03 -0.27250408231E+02  0.35862883487E+03  0.38622118420E+03  0.00000000000E+00 0. -1.
         22    1    3    3    0    0  0.25953602597E+03  0.12724060037E+03 -0.50145615360E+03  0.57879823181E+03  0.00000000000E+00 0. -1.
         22    1    3    3    0    0  0.82240407185E+02 -0.23836305773E+02 -0.21467130774E+03  0.23111777174E+03  0.00000000000E+00 0. -1.
</event>
<event>
 7    1  0.7459264E-005  0.1849055E+03  0.7818608E-02  0.1227458E+00
          2   -1    0    0  502    0  0.00000000000E+00  0.00000000000E+00  0.55211561286E+03  0.55211561286E+03  0.00000000000E+00 0. -1.
          1   -1    0    0  501    0 -0.00000000000E+00 -0.00000000000E+00 -0.97967901478E+03  0.97967901478E+03  0.00000000000E+00 0. -1.
         25    2    1    2    0    0 -0.86813427786E+02  0.25736212928E+03  0.23296558360E+03  0.37903853262E+03  0.12500163693E+03 0.  0.
          2    1    1    2  501    0  0.73152616320E+02 -0.16699336865E+03 -0.88857079345E+03  0.90708111293E+03  0.00000000000E+00 0. -1.
          1    1    1    2  502    0  0.13660811466E+02 -0.90368760627E+02  0.22804180793E+03  0.24567498210E+03  0.00000000000E+00 0. -1.
         22    1    3    3    0    0 -0.41832289558E+02  0.16838694782E+03  0.21737254550E+03  0.27812753942E+03  0.00000000000E+00 0.  1.
         22    1    3    3    0    0 -0.44981138227E+02  0.88975181460E+02  0.15593038107E+02  0.10091099320E+03  0.00000000000E+00 0.  1.
</event>
<event>
 7    1  0.7459264E-005  0.4596674E+03  0.7818608E-02  0.1222016E+00
          2   -1    0    0  502    0  0.00000000000E+00  0.00000000000E+00  0.12441788413E+04  0.12441788413E+04  0.00000000000E+00 0. -1.
          1   -1    0    0  501    0 -0.00000000000E+00 -0.00000000000E+00 -0.65846250411E+03  0.65846250411E+03  0.00000000000E+00 0. -1.
         25    2    1    2    0    0 -0.25783877876E+03 -0.41167387671E+03  0.43796137310E+02  0.50348904671E+03  0.12500760743E+03 0.  0.
          2    1    1    2  501    0  0.22882530779E+03  0.38574883764E+03 -0.31071784481E+03  0.54562694793E+03  0.00000000000E+00 0. -1.
          1    1    1    2  502    0  0.29013470965E+02  0.25925039070E+02  0.85263804465E+03  0.85352535073E+03  0.00000000000E+00 0. -1.
         22    1    3    3    0    0 -0.87317938450E+02 -0.21763432365E+03  0.67677850486E+02  0.24406845894E+03  0.00000000000E+00 0. -1.
         22    1    3    3    0    0 -0.17052084031E+03 -0.19403955306E+03 -0.23881713176E+02  0.25942058777E+03  0.00000000000E+00 0. -1.
</event>
<event>
 7    1  0.7459264E-005  0.8849394E+02  0.7818608E-02  0.1429223E+00
          2   -1    0    0  502    0  0.00000000000E+00  0.00000000000E+00  0.12264132084E+04  0.12264132084E+04  0.00000000000E+00 0. -1.
          1   -1    0    0  501    0 -0.00000000000E+00 -0.00000000000E+00 -0.25462770068E+03  0.25462770068E+03  0.00000000000E+00 0. -1.
         25    2    1    2    0    0 -0.15225381366E+02  0.88774098910E+02  0.71317260534E+02  0.16977593582E+03  0.12500025543E+03 0.  0.
          2    1    1    2  501    0 -0.29447459413E+02 -0.12218365706E+02 -0.20237231177E+03  0.20486823545E+03  0.00000000000E+00 0. -1.
          1    1    1    2  502    0  0.44672840779E+02 -0.76555733204E+02  0.11028405589E+04  0.11063967378E+04  0.00000000000E+00 0. -1.
         22    1    3    3    0    0  0.51550344140E+02  0.54069566358E+02  0.16060663880E+02  0.76412701244E+02  0.00000000000E+00 0. -1.
         22    1    3    3    0    0 -0.66775725506E+02  0.34704532552E+02  0.55256596654E+02  0.93363234575E+02  0.00000000000E+00 0. -1.
</event>
<event>
 7    1  0.7459264E-005  0.2247738E+03  0.7818608E-02  0.1209060E+00
          2   -1    0    0  502    0  0.00000000000E+00  0.00000000000E+00  0.60451375031E+03  0.60451375031E+03  0.00000000000E+00 0. -1.
          1   -1    0    0  501    0 -0.00000000000E+00 -0.00000000000E+00 -0.24613321538E+04  0.24613321538E+04  0.00000000000E+00 0. -1.
         25    2    1    2    0    0  0.11203718563E+03  0.95838458966E+02 -0.10317001554E+03  0.21910136977E+03  0.12499606773E+03 0.  0.
          2    1    1    2  501    0  0.80955661512E+02  0.42119263105E+02 -0.22734951515E+04  0.22753259228E+04  0.00000000000E+00 0. -1.
          1    1    1    2  502    0 -0.19299284714E+03 -0.13795772207E+03  0.51984676347E+03  0.57141861154E+03  0.00000000000E+00 0. -1.
         22    1    3    3    0    0  0.25086150552E+02  0.10268948371E+03 -0.49847513719E+02  0.11687266420E+03  0.00000000000E+00 0.  1.
         22    1    3    3    0    0  0.86951035080E+02 -0.68510247427E+01 -0.53322501822E+02  0.10222870557E+03  0.00000000000E+00 0.  1.
</event>
<event>
 7    1  0.7459264E-005  0.2194888E+03  0.7818608E-02  0.1221460E+00
          2   -1    0    0  502    0  0.00000000000E+00  0.00000000000E+00  0.83023792085E+02  0.83023792085E+02  0.00000000000E+00 0. -1.
          1   -1    0    0  501    0 -0.00000000000E+00 -0.00000000000E+00 -0.19655048795E+04  0.19655048795E+04  0.00000000000E+00 0. -1.
         25    2    1    2    0    0  0.87764036014E+02  0.20446656947E+03 -0.32375941043E+03  0.41225475609E+03  0.12499889611E+03 0.  0.
          2    1    1    2  501    0  0.68892378280E+02 -0.44401206545E+02 -0.12612711028E+04  0.12639313358E+04  0.00000000000E+00 0. -1.
          1    1    1    2  502    0 -0.15665641429E+03 -0.16006536293E+03 -0.29745057416E+03  0.37234257965E+03  0.00000000000E+00 0. -1.
         22    1    3    3    0    0  0.15585448765E+02  0.89985560454E+02 -0.43769172787E+02  0.10127214716E+03  0.00000000000E+00 0. -1.
         22    1    3    3    0    0  0.72178587249E+02  0.11448100902E+03 -0.27999023765E+03  0.31098260894E+03  0.00000000000E+00 0. -1.
</event>
<event>
 7    1  0.1685527E-004  0.1551459E+03  0.7818608E-02  0.1235473E+00
          2   -1    0    0  502    0  0.00000000000E+00  0.00000000000E+00  0.25120446756E+04  0.25120446756E+04  0.00000000000E+00 0. -1.
          1   -1    0    0  501    0 -0.00000000000E+00 -0.00000000000E+00 -0.22468139710E+04  0.22468139710E+04  0.00000000000E+00 0. -1.
         25    2    1    2    0    0  0.10570234876E+03  0.21594140932E+03 -0.64855821465E+03  0.70289164443E+03  0.12500090888E+03 0.  0.
          2    1    1    2  501    0 -0.84282932946E+02 -0.11795906114E+03 -0.15667289751E+04  0.15734222682E+04  0.00000000000E+00 0. -1.
          1    1    1    2  502    0 -0.21419415812E+02 -0.97982348174E+02  0.24805178943E+04  0.24825447339E+04  0.00000000000E+00 0. -1.
         22    1    3    3    0    0  0.10562733909E+03  0.87686058227E+02 -0.26482382455E+03  0.29829119602E+03  0.00000000000E+00 0. -1.
         22    1    3    3    0    0  0.75009671462E-01  0.12825535109E+03 -0.38373439010E+03  0.40460044841E+03  0.00000000000E+00 0. -1.
</event>
<event>
 7    1  0.7459264E-005  0.4374653E+03  0.7818608E-02  0.1233076E+00
          2   -1    0    0  502    0  0.00000000000E+00  0.00000000000E+00  0.11936304027E+04  0.11936304027E+04  0.00000000000E+00 0. -1.
          1   -1    0    0  501    0 -0.00000000000E+00 -0.00000000000E+00 -0.35290912877E+03  0.35290912877E+03  0.00000000000E+00 0. -1.
         25    2    1    2    0    0 -0.29412435613E+03 -0.31224844203E+03 -0.20248809414E+02  0.44726217537E+03  0.12500085124E+03 0.  0.
          2    1    1    2  501    0  0.29288291591E+03  0.34868216108E+03  0.31877267253E+03  0.55585579842E+03  0.00000000000E+00 0. -1.
          1    1    1    2  502    0  0.12414402187E+01 -0.36433719049E+02  0.54219741082E+03  0.54342155769E+03  0.00000000000E+00 0. -1.
         22    1    3    3    0    0 -0.26739204973E+03 -0.25132799270E+03  0.23370802299E+02  0.36770975316E+03  0.00000000000E+00 0.  1.
         22    1    3    3    0    0 -0.26732306402E+02 -0.60920449329E+02 -0.43619611713E+02  0.79552422201E+02  0.00000000000E+00 0.  1.
</event>
<event>
 7    1  0.7459264E-005  0.5369718E+03  0.7818608E-02  0.1047519E+00
          2   -1    0    0  502    0  0.00000000000E+00  0.00000000000E+00  0.39129290256E+04  0.39129290256E+04  0.00000000000E+00 0. -1.
          1   -1    0    0  501    0 -0.00000000000E+00 -0.00000000000E+00 -0.10376606165E+04  0.10376606165E+04  0.00000000000E+00 0. -1.
         25    2    1    2    0    0 -0.72444984624E+03 -0.16475963518E+03  0.51022264265E+03  0.90990422492E+03  0.12500094540E+03 0.  0.
          2    1    1    2  501    0  0.51576276214E+03 -0.25443577603E+02 -0.75125684433E+03  0.91161694181E+03  0.00000000000E+00 0. -1.
          1    1    1    2  502    0  0.20868708410E+03  0.19020321278E+03  0.31163026108E+04  0.31290684754E+04  0.00000000000E+00 0. -1.
         22    1    3    3    0    0 -0.30197290585E+03 -0.53879142372E+02  0.28393161850E+03  0.41798057590E+03  0.00000000000E+00 0.  1.
         22    1    3    3    0    0 -0.42247694039E+03 -0.11088049281E+03  0.22629102415E+03  0.49192364901E+03  0.00000000000E+00 0.  1.
</event>
<event>
 7    1  0.7459264E-005  0.2112883E+03  0.7818608E-02  0.1324461E+00
          2   -1    0    0  502    0  0.00000000000E+00  0.00000000000E+00  0.25696781568E+04  0.25696781568E+04  0.00000000000E+00 0. -1.
          1   -1    0    0  501    0 -0.00000000000E+00 -0.00000000000E+00 -0.14157350774E+04  0.14157350774E+04  0.00000000000E+00 0. -1.
         25    2    1    2    0    0 -0.42433399058E+02 -0.18846776221E+03  0.10160675267E+04  0.10417955396E+04  0.12499614677E+03 0.  0.
          2    1    1    2  501    0  0.51613408286E+01 -0.31119713330E+02 -0.13946424646E+04  0.13949991685E+04  0.00000000000E+00 0. -1.
          1    1    1    2  502    0  0.37272058229E+02  0.21958747554E+03  0.15325180173E+04  0.15486185261E+04  0.00000000000E+00 0. -1.
         22    1    3    3    0    0 -0.16210713725E+02 -0.15820841334E+03  0.95890789916E+03  0.97200671210E+03  0.00000000000E+00 0. -1.
         22    1    3    3    0    0 -0.26222685333E+02 -0.30259348866E+02  0.57159627555E+02  0.69788827487E+02  0.00000000000E+00 0. -1.
</event>
<event>
 7    1  0.7459264E-005  0.3767485E+03  0.7818608E-02  0.1248263E+00
          2   -1    0    0  502    0  0.00000000000E+00  0.00000000000E+00  0.14539856150E+04  0.14539856150E+04  0.00000000000E+00 0. -1.
          1   -1    0    0  501    0 -0.00000000000E+00 -0.00000000000E+00 -0.20770069711E+04  0.20770069711E+04  0.00000000000E+00 0. -1.
         25    2    1    2    0    0 -0.39199891506E+03 -0.51853826548E+02  0.20014188127E+03  0.46047203108E+03  0.12500300008E+03 0.  0.
          2    1    1    2  501    0  0.27268659211E+02 -0.23939714297E+02 -0.19157907020E+04  0.19161343125E+04  0.00000000000E+00 0. -1.
          1    1    1    2  502    0  0.36473025585E+03  0.75793540845E+02  0.10926274646E+04  0.11543862425E+04  0.00000000000E+00 0. -1.
         22    1    3    3    0    0 -0.31087464244E+03 -0.87726613888E+01  0.19783315034E+03  0.36858914562E+03  0.00000000000E+00 0.  1.
         22    1    3    3    0    0 -0.81124272625E+02 -0.43081165159E+02  0.23087309271E+01  0.91882885451E+02  0.00000000000E+00 0.  1.
</event>
<event>
 7    1  0.7459264E-005  0.1885540E+03  0.7818608E-02  0.1199097E+00
          2   -1    0    0  502    0  0.00000000000E+00  0.00000000000E+00  0.15042003874E+04  0.15042003874E+04  0.00000000000E+00 0. -1.
          1   -1    0    0  501    0 -0.00000000000E+00 -0.00000000000E+00 -0.54232979422E+03  0.54232979422E+03  0.00000000000E+00 0. -1.
         25    2    1    2    0    0 -0.63078386801E+02  0.29723627640E+03  0.71274573374E+03  0.78483355953E+03  0.12501579223E+03 0.  0.
          2    1    1    2  501    0  0.17158550324E+02 -0.18515150941E+03 -0.48407461808E+03  0.51855928606E+03  0.00000000000E+00 0. -1.
          1    1    1    2  502    0  0.45919836477E+02 -0.11208476699E+03  0.73319947755E+03  0.74313733607E+03  0.00000000000E+00 0. -1.
         22    1    3    3    0    0 -0.12110348877E+02  0.22549526147E+03  0.39362577962E+03  0.45380174953E+03  0.00000000000E+00 0. -1.
         22    1    3    3    0    0 -0.50968037924E+02  0.71741014937E+02  0.31911995412E+03  0.33103181000E+03  0.00000000000E+00 0. -1.
</event>
<event>
 7    1  0.7459264E-005  0.1087000E+03  0.7818608E-02  0.1290699E+00
          2   -1    0    0  502    0  0.00000000000E+00  0.00000000000E+00  0.18655078866E+04  0.18655078866E+04  0.00000000000E+00 0. -1.
          1   -1    0    0  501    0 -0.00000000000E+00 -0.00000000000E+00 -0.49421658442E+03  0.49421658442E+03  0.00000000000E+00 0. -1.
         25    2    1    2    0    0 -0.12173566087E+03  0.22907472336E+02  0.33925755923E+03  0.38218222921E+03  0.12499296545E+03 0.  0.
          2    1    1    2  501    0  0.53939176905E+02  0.63606555242E+02 -0.46704845385E+03  0.47443596714E+03  0.00000000000E+00 0. -1.
          1    1    1    2  502    0  0.67796483963E+02 -0.86514027578E+02  0.14990821968E+04  0.15031062746E+04  0.00000000000E+00 0. -1.
         22    1    3    3    0    0  0.16886036145E+02  0.18369482387E+02  0.12128300424E+03  0.12382303185E+03  0.00000000000E+00 0. -1.
         22    1    3    3    0    0 -0.13862169701E+03  0.45379899490E+01  0.21797455499E+03  0.25835919736E+03  0.00000000000E+00 0. -1.
</event>
<event>
 7    1  0.7459264E-005  0.1027891E+03  0.7818608E-02  0.1397982E+00
          2   -1    0    0  502    0  0.00000000000E+00  0.00000000000E+00  0.60349870556E+03  0.60349870556E+03  0.00000000000E+00 0. -1.
          1   -1    0    0  501    0 -0.00000000000E+00 -0.00000000000E+00 -0.11558139018E+04  0.11558139018E+04  0.00000000000E+00 0. -1.
         25    2    1    2    0    0  0.51973326445E+02  0.10426611979E+03 -0.98238760340E+03  0.99713500861E+03  0.12498068526E+03 0.  0.
          2    1    1    2  501    0 -0.45945850634E+02 -0.69808033116E+02 -0.15498196414E+03  0.17607836859E+03  0.00000000000E+00 0. -1.
          1    1    1    2  502    0 -0.60274758113E+01 -0.34458086675E+02  0.58505437131E+03  0.58609923015E+03  0.00000000000E+00 0. -1.
         22    1    3    3    0    0  0.61146012406E+02  0.12863210372E+03 -0.88204011902E+03  0.89346506619E+03  0.00000000000E+00 0.  1.
         22    1    3    3    0    0 -0.91726859604E+01 -0.24365983927E+02 -0.10034748438E+03  0.10366994242E+03  0.00000000000E+00 0.  1.
</event>
<event>
 7    1  0.7459264E-005  0.5690374E+03  0.7818608E-02  0.1096566E+00
          2   -1    0    0  502    0  0.00000000000E+00  0.00000000000E+00  0.17158702994E+04  0.17158702994E+04  0.00000000000E+00 0. -1.
          1   -1    0    0  501    0 -0.00000000000E+00 -0.00000000000E+00 -0.12752504573E+04  0.12752504573E+04  0.00000000000E+00 0. -1.
         25    2    1    2    0    0  0.63047241515E+03  0.26535607593E+03  0.65486158974E+02  0.69844283372E+03  0.12499856659E+03 0.  0.
          2    1    1    2  501    0 -0.12970829615E+03 -0.41570096687E+02 -0.89702873738E+03  0.90731079058E+03  0.00000000000E+00 0. -1.
          1    1    1    2  502    0 -0.50076411900E+03 -0.22378597924E+03  0.12721624205E+04  0.13853671324E+04  0.00000000000E+00 0. -1.
         22    1    3    3    0    0  0.32612403193E+03  0.20361676967E+03  0.25216759373E+02  0.38529541659E+03  0.00000000000E+00 0. -1.
         22    1    3    3    0    0  0.30434838322E+03  0.61739306261E+02  0.40269399602E+02  0.31314741712E+03  0.00000000000E+00 0. -1.
</event>
<event>
 7    1  0.7459264E-005  0.1815975E+04  0.7818608E-02  0.1070465E+00
          2   -1    0    0  502    0  0.00000000000E+00  0.00000000000E+00  0.31044444193E+04  0.31044444193E+04  0.00000000000E+00 0. -1.
          1   -1    0    0  501    0 -0.00000000000E+00 -0.00000000000E+00 -0.25393205968E+04  0.25393205968E+04  0.00000000000E+00 0. -1.
         25    2    1    2    0    0 -0.14216133017E+03 -0.18203627660E+04  0.35413432021E+03  0.18641262995E+04  0.12500120083E+03 0.  0.
          2    1    1    2  501    0  0.19954174505E+03  0.18011147351E+04 -0.13234797558E+04  0.22439763504E+04  0.00000000000E+00 0. -1.
          1    1    1    2  502    0 -0.57380414880E+02  0.19248030903E+02  0.15344692582E+04  0.15356623662E+04  0.00000000000E+00 0. -1.
         22    1    3    3    0    0 -0.30971715300E+02 -0.16619829573E+03  0.11251482209E+01  0.16906326215E+03  0.00000000000E+00 0. -1.
         22    1    3    3    0    0 -0.11118961487E+03 -0.16541644702E+04  0.35300917199E+03  0.16950630373E+04  0.00000000000E+00 0. -1.
</event>
<event>
 7    1  0.7459264E-005  0.2650845E+03  0.7818608E-02  0.1121718E+00
          2   -1    0    0  502    0  0.00000000000E+00  0.00000000000E+00  0.10136838576E+04  0.10136838576E+04  0.00000000000E+00 0. -1.
          1   -1    0    0  501    0 -0.00000000000E+00 -0.00000000000E+00 -0.88773303260E+03  0.88773303260E+03  0.00000000000E+00 0. -1.
         25    2    1    2    0    0  0.26840146573E+03  0.95648543005E+02 -0.16037071298E+03  0.35004522013E+03  0.12499959988E+03 0.  0.
          2    1    1    2  501    0 -0.25376598295E+03  0.11597494977E+03 -0.58845091507E+03  0.65124637620E+03  0.00000000000E+00 0. -1.
          1    1    1    2  502    0 -0.14635482782E+02 -0.21162349277E+03  0.87477245305E+03  0.90012529387E+03  0.00000000000E+00 0. -1.
         22    1    3    3    0    0  0.73930857843E+01  0.13619536577E+02  0.17761271718E+02  0.23571429041E+02  0.00000000000E+00 0. -1.
         22    1    3    3    0    0  0.26100837994E+03  0.82029006428E+02 -0.17813198470E+03  0.32647379109E+03  0.00000000000E+00 0. -1.
</event>
<event>
 7    1  0.7459264E-005  0.2148480E+03  0.7818608E-02  0.1161739E+00
          2   -1    0    0  502    0  0.00000000000E+00  0.00000000000E+00  0.13970471393E+04  0.13970471393E+04  0.00000000000E+00 0. -1.
          1   -1    0    0  501    0 -0.00000000000E+00 -0.00000000000E+00 -0.44269706720E+03  0.44269706720E+03  0.00000000000E+00 0. -1.
         25    2    1    2    0    0  0.27376689135E+03  0.12027107755E+03 -0.25644123228E+03  0.41328083105E+03  0.12500198721E+03 0.  0.
          2    1    1    2  501    0 -0.15197249895E+03  0.55346259568E+02 -0.32472166279E+02  0.16496451276E+03  0.00000000000E+00 0. -1.
          1    1    1    2  502    0 -0.12179439239E+03 -0.17561733712E+03  0.12432634707E+04  0.12614988627E+04  0.00000000000E+00 0. -1.
         22    1    3    3    0    0  0.62176649672E+01  0.15976344385E+02 -0.67250698608E+02  0.69401436590E+02  0.00000000000E+00 0. -1.
         22    1    3    3    0    0  0.26754922638E+03  0.10429473316E+03 -0.18919053367E+03  0.34387939446E+03  0.00000000000E+00 0. -1.
</event>
<event>
 7    1  0.7459264E-005  0.1447392E+04  0.7818608E-02  0.1175288E+00
          2   -1    0    0  502    0  0.00000000000E+00  0.00000000000E+00  0.35841901037E+04  0.35841901037E+04  0.00000000000E+00 0. -1.
          1   -1    0    0  501    0 -0.00000000000E+00 -0.00000000000E+00 -0.97535739853E+03  0.97535739853E+03  0.00000000000E+00 0. -1.
         25    2    1    2    0    0 -0.87307668587E+01  0.14529210015E+04  0.19467236616E+03  0.14712507341E+04  0.12500291917E+03 0.  0.
          2    1    1    2  501    0 -0.45137093338E+01 -0.14372041205E+04  0.11954287109E+04  0.18693918424E+04  0.00000000000E+00 0. -1.
          1    1    1    2  502    0  0.13244476192E+02 -0.15716880949E+02  0.12187316282E+04  0.12189049258E+04  0.00000000000E+00 0. -1.
         22    1    3    3    0    0 -0.30243934075E+02  0.24594314085E+03  0.70976313977E+02  0.25776027861E+03  0.00000000000E+00 0. -1.
         22    1    3    3    0    0  0.21513167216E+02  0.12069778606E+04  0.12369605219E+03  0.12134904555E+04  0.00000000000E+00 0. -1.
</event>
<event>
 7    1  0.7459264E-005  0.1634561E+03  0.7818608E-02  0.1246659E+00
          2   -1    0    0  502    0  0.00000000000E+00  0.00000000000E+00  0.12490923770E+04  0.12490923770E+04  0.00000000000E+00 0. -1.
          1   -1    0    0  501    0 -0.00000000000E+00 -0.00000000000E+00 -0.49766885669E+02  0.49766885669E+02  0.00000000000E+00 0. -1.
         25    2    1    2    0    0  0.13633890918E+03 -0.11993173900E+03  0.63859527532E+03  0.67557452957E+03  0.12500039669E+03 0.  0.
          2    1    1    2  501    0 -0.15778207448E+03  0.37689444844E+02  0.22767472635E+03  0.27955582322E+03  0.00000000000E+00 0. -1.
          1    1    1    2  502    0  0.21443165299E+02  0.82242294154E+02  0.33305548965E+03  0.34372890986E+03  0.00000000000E+00 0. -1.
         22    1    3    3    0    0  0.38284541606E+01 -0.28066865978E+02  0.16198236391E+02  0.32631103096E+02  0.00000000000E+00 0. -1.
         22    1    3    3    0    0  0.13251045502E+03 -0.91864873021E+02  0.62239703893E+03  0.64294342648E+03  0.00000000000E+00 0. -1.
</event>
<event>
 7    1  0.7459264E-005  0.2238831E+03  0.7818608E-02  0.1215878E+00
          2   -1    0    0  502    0  0.00000000000E+00  0.00000000000E+00  0.16198703881E+04  0.16198703881E+04  0.00000000000E+00 0. -1.
          1   -1    0    0  501    0 -0.00000000000E+00 -0.00000000000E+00 -0.10447549544E+04  0.10447549544E+04  0.00000000000E+00 0. -1.
         25    2    1    2    0    0 -0.13029338665E+03  0.18260772536E+03  0.93967140868E+03  0.97413051058E+03  0.12500378947E+03 0.  0.
          2    1    1    2  501    0  0.73899030989E+02  0.42428427187E+02 -0.10053720436E+04  0.10089768006E+04  0.00000000000E+00 0. -1.
          1    1    1    2  502    0  0.56394355664E+02 -0.22503615255E+03  0.64081606855E+03  0.68151803132E+03  0.00000000000E+00 0. -1.
         22    1    3    3    0    0 -0.14402612736E+03  0.14015244024E+03  0.63041473591E+03  0.66167134675E+03  0.00000000000E+00 0. -1.
         22    1    3    3    0    0  0.13732740711E+02  0.42455285118E+02  0.30925667278E+03  0.31245916383E+03  0.00000000000E+00 0. -1.
</event>
<event>
 7    1  0.7459264E-005  0.8565350E+02  0.7818608E-02  0.1466766E+00
          2   -1    0    0  502    0  0.00000000000E+00  0.00000000000E+00  0.18394105865E+04  0.18394105865E+04  0.00000000000E+00 0. -1.
          1   -1    0    0  501    0 -0.00000000000E+00 -0.00000000000E+00 -0.12770881246E+03  0.12770881246E+03  0.00000000000E+00 0. -1.
         25    2    1    2    0    0 -0.88032133291E+02  0.27676783180E+02 -0.28274724624E+02  0.15791770799E+03  0.12499152622E+03 0.  0.
          2    1    1    2  501    0  0.16231887929E+02  0.18959949614E+02 -0.28939001865E+02  0.38215438033E+02  0.00000000000E+00 0. -1.
          1    1    1    2  502    0  0.71800245363E+02 -0.46636732793E+02  0.17689155005E+04  0.17709862529E+04  0.00000000000E+00 0. -1.
         22    1    3    3    0    0 -0.42006529141E+02 -0.46917141242E+02  0.71506409927E+01  0.63379005194E+02  0.00000000000E+00 0. -1.
         22    1    3    3    0    0 -0.46025604150E+02  0.74593924422E+02 -0.35425365616E+02  0.94538702800E+02  0.00000000000E+00 0. -1.
</event>
<event>
 7    1  0.7459264E-005  0.1353984E+03  0.7818608E-02  0.1366986E+00
          2   -1    0    0  502    0  0.00000000000E+00  0.00000000000E+00  0.34626341562E+04  0.34626341562E+04  0.00000000000E+00 0. -1.
          1   -1    0    0  501    0 -0.00000000000E+00 -0.00000000000E+00 -0.29520476828E+03  0.29520476828E+03  0.00000000000E+00 0. -1.
         25    2    1    2    0    0 -0.73523396839E+02 -0.10932741234E+03  0.27926806432E+01  0.18163091344E+03  0.12499526664E+03 0.  0.
          2    1    1    2  501    0  0.28683771124E+02 -0.18557367942E+02 -0.20299549520E+03  0.20585020210E+03  0.00000000000E+00 0. -1.
          1    1    1    2  502    0  0.44839625715E+02  0.12788478028E+03  0.33676322025E+04  0.33703578089E+04  0.00000000000E+00 0. -1.
         22    1    3    3    0    0 -0.35581647557E+02 -0.72240328715E+02 -0.59264200476E+02  0.99984819817E+02  0.00000000000E+00 0. -1.
         22    1    3    3    0    0 -0.37941749283E+02 -0.37087083622E+02  0.62056881119E+02  0.81646093627E+02  0.00000000000E+00 0. -1.
</event>
<event>
 7    1  0.7459264E-005  0.1069027E+03  0.7818608E-02  0.1370547E+00
          2   -1    0    0  502    0  0.00000000000E+00  0.00000000000E+00  0.12542215522E+04  0.12542215522E+04  0.00000000000E+00 0. -1.
          1   -1    0    0  501    0 -0.00000000000E+00 -0.00000000000E+00 -0.26938722947E+03  0.26938722947E+03  0.00000000000E+00 0. -1.
         25    2    1    2    0    0  0.12181145654E+03  0.34246074750E+02  0.52347331628E+03  0.55286837898E+03  0.12501322744E+03 0.  0.
          2    1    1    2  501    0 -0.88365929843E+02 -0.59668581646E+02 -0.24287669033E+03  0.26525075664E+03  0.00000000000E+00 0. -1.
          1    1    1    2  502    0 -0.33445526696E+02  0.25422506896E+02  0.70423769673E+03  0.70548964600E+03  0.00000000000E+00 0. -1.
         22    1    3    3    0    0  0.14203696330E+02 -0.42214596965E+02  0.16334631144E+03  0.16930987759E+03  0.00000000000E+00 0.  1.
         22    1    3    3    0    0  0.10760776021E+03  0.76460671715E+02  0.36012700484E+03  0.38355850139E+03  0.00000000000E+00 0.  1.
</event>
<event>
 7    1  0.7459264E-005  0.3767515E+03  0.7818608E-02  0.1197138E+00
          2   -1    0    0  502    0  0.00000000000E+00  0.00000000000E+00  0.39783102784E+03  0.39783102784E+03  0.00000000000E+00 0. -1.
          1   -1    0    0  501    0 -0.00000000000E+00 -0.00000000000E+00 -0.27229032766E+04  0.27229032766E+04  0.00000000000E+00 0. -1.
         25    2    1    2    0    0 -0.37206468885E+03 -0.17669165957E+03 -0.10687248728E+04  0.11521502210E+04  0.12500081124E+03 0.  0.
          2    1    1    2  501    0  0.33787495980E+03  0.12505682928E+03 -0.15894519472E+04  0.16297718219E+04  0.00000000000E+00 0. -1.
          1    1    1    2  502    0  0.34189729055E+02  0.51634830288E+02  0.33310457117E+03  0.33881226159E+03  0.00000000000E+00 0. -1.
         22    1    3    3    0    0 -0.11437993404E+03 -0.83798178046E+02 -0.23375100808E+03  0.27339428987E+03  0.00000000000E+00 0. -1.
         22    1    3    3    0    0 -0.25768475481E+03 -0.92893481524E+02 -0.83497386472E+03  0.87875593115E+03  0.00000000000E+00 0. -1.
</event>
<event>
 7    1  0.7459264E-005  0.1965478E+03  0.7818608E-02  0.1258857E+00
          2   -1    0    0  502    0  0.00000000000E+00  0.00000000000E+00  0.51493744303E+03  0.51493744303E+03  0.00000000000E+00 0. -1.
          1   -1    0    0  501    0 -0.00000000000E+00 -0.00000000000E+00 -0.11481231820E+04  0.11481231820E+04  0.00000000000E+00 0. -1.
         25    2    1    2    0    0  0.16182411779E+03 -0.19068996106E+03 -0.22567253725E+01  0.27960476535E+03  0.12499610255E+03 0.  0.
          2    1    1    2  501    0 -0.43300969469E+02  0.45219566345E+02 -0.98274009288E+03  0.98473238664E+03  0.00000000000E+00 0. -1.
          1    1    1    2  502    0 -0.11852314832E+03  0.14547039472E+03  0.35181107930E+03  0.39872347302E+03  0.00000000000E+00 0. -1.
         22    1    3    3    0    0  0.95812926665E+02 -0.27665821576E+02  0.21809875815E+02  0.10208420682E+03  0.00000000000E+00 0.  1.
         22    1    3    3    0    0  0.66011191122E+02 -0.16302413948E+03 -0.24066601187E+02  0.17752055853E+03  0.00000000000E+00 0.  1.
</event>
<event>
 7    1  0.7459264E-005  0.1386914E+03  0.7818608E-02  0.1226320E+00
          2   -1    0    0  502    0  0.00000000000E+00  0.00000000000E+00  0.18325915763E+04  0.18325915763E+04  0.00000000000E+00 0. -1.
          1   -1    0    0  501    0 -0.00000000000E+00 -0.00000000000E+00 -0.13752710963E+03  0.13752710963E+03  0.00000000000E+00 0. -1.
         25    2    1    2    0    0 -0.13149695278E+03 -0.21312512025E+03  0.20205842807E+03  0.34520590559E+03  0.12500297368E+03 0.  0.
          2    1    1    2  501    0  0.37232489468E+02  0.11754248865E+03 -0.25686273480E+01  0.12332515055E+03  0.00000000000E+00 0. -1.
          1    1    1    2  502    0  0.94264463312E+02  0.95582631591E+02  0.14955746659E+04  0.15015876298E+04  0.00000000000E+00 0. -1.
         22    1    3    3    0    0 -0.11199867014E+03 -0.10446378816E+03  0.58132145760E+02  0.16381615159E+03  0.00000000000E+00 0.  1.
         22    1    3    3    0    0 -0.19498282638E+02 -0.10866133208E+03  0.14392628231E+03  0.18138975400E+03  0.00000000000E+00 0.  1.
</event>
<event>
 7    1  0.7459264E-005  0.1731722E+03  0.7818608E-02  0.1258796E+00
          2   -1    0    0  502    0  0.00000000000E+00  0.00000000000E+00  0.20868916549E+04  0.20868916549E+04  0.00000000000E+00 0. -1.
          1   -1    0    0  501    0 -0.00000000000E+00 -0.00000000000E+00 -0.74412879686E+03  0.74412879686E+03  0.00000000000E+00 0. -1.
         25    2    1    2    0    0  0.40289500158E+02  0.12147010882E+03 -0.20057741533E+03  0.26876565184E+03  0.12500177962E+03 0.  0.
          2    1    1    2  501    0 -0.67237292540E+02 -0.18726771045E+03 -0.48938439507E+03  0.52828698169E+03  0.00000000000E+00 0. -1.
          1    1    1    2  502    0  0.26947792383E+02  0.65797601632E+02  0.20327246685E+04  0.20339678183E+04  0.00000000000E+00 0. -1.
         22    1    3    3    0    0 -0.84310991507E+01 -0.23733063966E+02 -0.21406228082E+02  0.33054021825E+02  0.00000000000E+00 0. -1.
         22    1    3    3    0    0  0.48720599308E+02  0.14520317279E+03 -0.17917118725E+03  0.23571163002E+03  0.00000000000E+00 0. -1.
</event>
<event>
 7    1  0.7459264E-005  0.4554445E+03  0.7818608E-02  0.1151746E+00
          2   -1    0    0  502    0  0.00000000000E+00  0.00000000000E+00  0.13199685801E+04  0.13199685801E+04  0.00000000000E+00 0. -1.
          1   -1    0    0  501    0 -0.00000000000E+00 -0.00000000000E+00 -0.84782445836E+03  0.84782445836E+03  0.00000000000E+00 0. -1.
         25    2    1    2    0    0 -0.44999764724E+03 -0.67396326862E+02  0.49418511381E+03  0.68328939564E+03  0.12500129631E+03 0.  0.
          2    1    1    2  501    0  0.16471175759E+02 -0.84168671076E+02 -0.67819399365E+03  0.68359546360E+03  0.00000000000E+00 0. -1.
          1    1    1    2  502    0  0.43352647148E+03  0.15156499794E+03  0.65615300158E+03  0.80090817923E+03  0.00000000000E+00 0. -1.
         22    1    3    3    0    0 -0.44443647837E+03 -0.70039305296E+02  0.50148915009E+03  0.67373633957E+03  0.00000000000E+00 0.  1.
         22    1    3    3    0    0 -0.55611688677E+01  0.26429784341E+01 -0.73040362835E+01  0.95530560664E+01  0.00000000000E+00 0.  1.
</event>
<event>
 7    1  0.7459264E-005  0.2018461E+03  0.7818608E-02  0.1249690E+00
          2   -1    0    0  502    0  0.00000000000E+00  0.00000000000E+00  0.10549075642E+04  0.10549075642E+04  0.00000000000E+00 0. -1.
          1   -1    0    0  501    0 -0.00000000000E+00 -0.00000000000E+00 -0.32232590226E+03  0.32232590226E+03  0.00000000000E+00 0. -1.
         25    2    1    2    0    0  0.73233960419E+02  0.12126119300E+03  0.31662910142E+03  0.36870965829E+03  0.12500133745E+03 0.  0.
          2    1    1    2  501    0 -0.11166154972E+03 -0.17586264899E+03 -0.25781379016E+03  0.33145727235E+03  0.00000000000E+00 0. -1.
          1    1    1    2  502    0  0.38427589302E+02  0.54601455996E+02  0.67376635069E+03  0.67706653583E+03  0.00000000000E+00 0. -1.
         22    1    3    3    0    0  0.10830985432E+03  0.99786291244E+02  0.23561433791E+03  0.27785327907E+03  0.00000000000E+00 0.  1.
         22    1    3    3    0    0 -0.35075893899E+02  0.21474901755E+02  0.81014763512E+02  0.90856379220E+02  0.00000000000E+00 0.  1.
</event>
<event>
 7    1  0.7459264E-005  0.4537556E+03  0.7818608E-02  0.1059454E+00
          2   -1    0    0  502    0  0.00000000000E+00  0.00000000000E+00  0.18726064279E+04  0.18726064279E+04  0.00000000000E+00 0. -1.
          1   -1    0    0  501    0 -0.00000000000E+00 -0.00000000000E+00 -0.23078210140E+03  0.23078210140E+03  0.00000000000E+00 0. -1.
         25    2    1    2    0    0  0.12897077886E+03  0.61634066572E+03  0.63100841189E+03  0.90016990613E+03  0.12499986398E+03 0.  0.
          2    1    1    2  501    0 -0.73117477263E+02 -0.33976938740E+03  0.39684671999E+03  0.52751940368E+03  0.00000000000E+00 0. -1.
          1    1    1    2  502    0 -0.55853301602E+02 -0.27657127832E+03  0.61396919461E+03  0.67569921949E+03  0.00000000000E+00 0. -1.
         22    1    3    3    0    0  0.25126101454E+02  0.28463355447E+03  0.21220973400E+03  0.35592211579E+03  0.00000000000E+00 0. -1.
         22    1    3    3    0    0  0.10384467741E+03  0.33170711125E+03  0.41879867790E+03  0.54424779034E+03  0.00000000000E+00 0. -1.
</event>
<event>
 7    1  0.7459264E-005  0.1931377E+03  0.7818608E-02  0.1189220E+00
          2   -1    0    0  502    0  0.00000000000E+00  0.00000000000E+00  0.57860629541E+03  0.57860629541E+03  0.00000000000E+00 0. -1.
          1   -1    0    0  501    0 -0.00000000000E+00 -0.00000000000E+00 -0.23327747837E+04  0.23327747837E+04  0.00000000000E+00 0. -1.
         25    2    1    2    0    0  0.30462375882E+03 -0.51570032168E+02  0.60383678464E+02  0.33871311492E+03  0.12500113176E+03 0.  0.
          2    1    1    2  501    0 -0.19037414734E+03 -0.14108352296E+02 -0.21778535246E+04  0.21862038643E+04  0.00000000000E+00 0. -1.
          1    1    1    2  502    0 -0.11424961148E+03  0.65678384464E+02  0.36330135785E+03  0.38646409991E+03  0.00000000000E+00 0. -1.
         22    1    3    3    0    0  0.26349588149E+03  0.46064017881E+01  0.43925484455E+02  0.26717175503E+03  0.00000000000E+00 0. -1.
         22    1    3    3    0    0  0.41127877326E+02 -0.56176433956E+02  0.16458194009E+02  0.71541359893E+02  0.00000000000E+00 0. -1.
</event>
<event>
 7    1  0.7459264E-005  0.9081943E+02  0.7818608E-02  0.1316830E+00
          2   -1    0    0  502    0  0.00000000000E+00  0.00000000000E+00  0.21605687508E+04  0.21605687508E+04  0.00000000000E+00 0. -1.
          1   -1    0    0  501    0 -0.00000000000E+00 -0.00000000000E+00 -0.18265345721E+03  0.18265345721E+03  0.00000000000E+00 0. -1.
         25    2    1    2    0    0  0.49366432367E+02  0.14027314332E+03  0.26599790487E+03  0.32938349732E+03  0.12500001413E+03 0.  0.
          2    1    1    2  501    0  0.13995144704E+02 -0.77303532831E+02 -0.13958966414E+03  0.16017794666E+03  0.00000000000E+00 0. -1.
          1    1    1    2  502    0 -0.63361577072E+02 -0.62969610485E+02  0.18515070529E+04  0.18536607640E+04  0.00000000000E+00 0. -1.
         22    1    3    3    0    0 -0.41326186128E+02  0.43944713231E+02  0.10394714753E+03  0.12018319749E+03  0.00000000000E+00 0. -1.
         22    1    3    3    0    0  0.90692618496E+02  0.96328430084E+02  0.16205075735E+03  0.20920029983E+03  0.00000000000E+00 0. -1.
</event>
<event>
 7    1  0.7459264E-005  0.1617577E+03  0.7818608E-02  0.1267812E+00
          2   -1    0    0  502    0  0.00000000000E+00  0.00000000000E+00  0.29551876143E+03  0.29551876143E+03  0.00000000000E+00 0. -1.
          1   -1    0    0  501    0 -0.00000000000E+00 -0.00000000000E+00 -0.63181770080E+03  0.63181770080E+03  0.00000000000E+00 0. -1.
         25    2    1    2    0    0 -0.17645649353E+03  0.11910740663E+03  0.17386254497E+02  0.24749236304E+03  0.12500687779E+03 0.  0.
          2    1    1    2  501    0  0.66274713052E+02 -0.21574376199E+02 -0.48053727996E+03  0.48556551436E+03  0.00000000000E+00 0. -1.
          1    1    1    2  502    0  0.11018178048E+03 -0.97533030433E+02  0.12685208610E+03  0.19427858483E+03  0.00000000000E+00 0. -1.
         22    1    3    3    0    0 -0.11659270906E+03  0.58256534139E+01 -0.74703035471E+01  0.11697693567E+03  0.00000000000E+00 0.  1.
         22    1    3    3    0    0 -0.59863784466E+02  0.11328175322E+03  0.24856558044E+02  0.13051542737E+03  0.00000000000E+00 0.  1.
</event>
<event>
 7    1  0.7459264E-005  0.1498770E+03  0.7818608E-02  0.1212945E+00
          2   -1    0    0  502    0  0.00000000000E+00  0.00000000000E+00  0.15493527997E+04  0.15493527997E+04  0.00000000000E+00 0. -1.
          1   -1    0    0  501    0 -0.00000000000E+00 -0.00000000000E+00 -0.93885956600E+02  0.93885956600E+02  0.00000000000E+00 0. -1.
         25    2    1    2    0    0 -0.62389425549E+02  0.19405999096E+03  0.76751934148E+03  0.80390561648E+03  0.12500632046E+03 0.  0.
          2    1    1    2  501    0 -0.56199715075E+02 -0.13768248040E+03  0.10284577471E+02  0.14906591132E+03  0.00000000000E+00 0. -1.
          1    1    1    2  502    0  0.11858914062E+03 -0.56377510563E+02  0.67766292412E+03  0.69026722847E+03  0.00000000000E+00 0. -1.
         22    1    3    3    0    0 -0.93262242071E+02  0.10262260258E+03  0.52185011617E+03  0.53995998750E+03  0.00000000000E+00 0. -1.
         22    1    3    3    0    0  0.30872816523E+02  0.91437388382E+02  0.24566922531E+03  0.26394562898E+03  0.00000000000E+00 0. -1.
</event>
<event>
 7    1  0.7459264E-005  0.3589223E+03  0.7818608E-02  0.1212305E+00
          2   -1    0    0  502    0  0.00000000000E+00  0.00000000000E+00  0.87737501786E+03  0.87737501786E+03  0.00000000000E+00 0. -1.
          1   -1    0    0  501    0 -0.00000000000E+00 -0.00000000000E+00 -0.13207263313E+04  0.13207263313E+04  0.00000000000E+00 0. -1.
         25    2    1    2    0    0 -0.35807159097E+03 -0.68078114383E+02 -0.29585128161E+03  0.48579920811E+03  0.12499198316E+03 0.  0.
          2    1    1    2  501    0  0.19855453775E+02 -0.51511153361E+02 -0.88787790936E+03  0.88959250216E+03  0.00000000000E+00 0. -1.
          1    1    1    2  502    0  0.33821613719E+03  0.11958926774E+03  0.74037787752E+03  0.82270963890E+03  0.00000000000E+00 0. -1.
         22    1    3    3    0    0 -0.27347708969E+03 -0.44359581432E+02 -0.14874921018E+03  0.31445797585E+03  0.00000000000E+00 0. -1.
         22    1    3    3    0    0 -0.84594501278E+02 -0.23718532951E+02 -0.14710207143E+03  0.17134123225E+03  0.00000000000E+00 0. -1.
</event>
<event>
 7    1  0.7459264E-005  0.4461681E+03  0.7818608E-02  0.1134375E+00
          2   -1    0    0  502    0  0.00000000000E+00  0.00000000000E+00  0.15058451779E+04  0.15058451779E+04  0.00000000000E+00 0. -1.
          1   -1    0    0  501    0 -0.00000000000E+00 -0.00000000000E+00 -0.16460300634E+04  0.16460300634E+04  0.00000000000E+00 0. -1.
         25    2    1    2    0    0 -0.49269834961E+03 -0.50506580025E+02  0.53849768177E+03  0.74223042479E+03  0.12499468737E+03 0.  0.
          2    1    1    2  501    0  0.85410186177E+02 -0.65823119192E+02 -0.14902731660E+04  0.14941692314E+04  0.00000000000E+00 0. -1.
          1    1    1    2  502    0  0.40728816343E+03  0.11632969922E+03  0.81159059874E+03  0.91547558512E+03  0.00000000000E+00 0. -1.
         22    1    3    3    0    0 -0.32835027059E+03  0.26044719441E+02  0.33939785852E+03  0.47295151334E+03  0.00000000000E+00 0.  1.
         22    1    3    3    0    0 -0.16434807901E+03 -0.76551299466E+02  0.19909982326E+03  0.26927891144E+03  0.00000000000E+00 0.  1.
</event>
<event>
 7    1  0.7459264E-005  0.5527587E+02  0.7818608E-02  0.1440390E+00
          2   -1    0    0  502    0  0.00000000000E+00  0.00000000000E+00  0.24220460590E+02  0.24220460590E+02  0.00000000000E+00 0. -1.
          1   -1    0    0  501    0 -0.00000000000E+00 -0.00000000000E+00 -0.17289704594E+04  0.17289704594E+04  0.00000000000E+00 0. -1.
         25    2    1    2    0    0  0.10319454110E+02  0.87447454199E+02 -0.34756457337E+03  0.37970695417E+03  0.12499075968E+03 0.  0.
          2    1    1    2  501    0 -0.30509241083E+02 -0.45087469209E+02 -0.12920989286E+04  0.12932452725E+04  0.00000000000E+00 0. -1.
          1    1    1    2  502    0  0.20189786973E+02 -0.42359984990E+02 -0.65086496809E+02  0.80238693243E+02  0.00000000000E+00 0. -1.
         22    1    3    3    0    0 -0.39373793443E+02  0.91626313867E+02 -0.26629844901E+03  0.28435987929E+03  0.00000000000E+00 0. -1.
         22    1    3    3    0    0  0.49693247553E+02 -0.41788596672E+01 -0.81266124357E+02  0.95347074882E+02  0.00000000000E+00 0. -1.
</event>
<event>
 7    1  0.7459264E-005  0.3080502E+03  0.7818608E-02  0.1244512E+00
          2   -1    0    0  502    0  0.00000000000E+00  0.00000000000E+00  0.30101016568E+04  0.30101016568E+04  0.00000000000E+00 0. -1.
          1   -1    0    0  501    0 -0.00000000000E+00 -0.00000000000E+00 -0.49827528778E+03  0.49827528778E+03  0.00000000000E+00 0. -1.
         25    2    1    2    0    0  0.22080277747E+03  0.20119080946E+03  0.97136762390E+03  0.10239198811E+04  0.12500101550E+03 0.  0.
          2    1    1    2  501    0 -0.25638335497E+03 -0.17190531634E+03 -0.42123137263E+03  0.52222574791E+03  0.00000000000E+00 0. -1.
          1    1    1    2  502    0  0.35580577501E+02 -0.29285493122E+02  0.19616901177E+04  0.19622313155E+04  0.00000000000E+00 0. -1.
         22    1    3    3    0    0  0.79030643504E+02  0.31997062974E+02  0.44577050395E+03  0.45385129376E+03  0.00000000000E+00 0.  1.
         22    1    3    3    0    0  0.14177213397E+03  0.16919374648E+03  0.52559711995E+03  0.57006858738E+03  0.00000000000E+00 0.  1.
</event>
<event>
 7    1  0.7459264E-005  0.2420898E+03  0.7818608E-02  0.1325259E+00
          2   -1    0    0  502    0  0.00000000000E+00  0.00000000000E+00  0.34103304039E+03  0.34103304039E+03  0.00000000000E+00 0. -1.
          1   -1    0    0  501    0 -0.00000000000E+00 -0.00000000000E+00 -0.44881441868E+03  0.44881441868E+03  0.00000000000E+00 0. -1.
         25    2    1    2    0    0 -0.14978316680E+03  0.18997675269E+03  0.26378647021E+02  0.27358227753E+03  0.12500106376E+03 0.  0.
          2    1    1    2  501    0  0.12773053190E+03 -0.20613252508E+03 -0.27854543946E+03  0.36931459289E+03  0.00000000000E+00 0. -1.
          1    1    1    2  502    0  0.22052634896E+02  0.16155772385E+02  0.14438541414E+03  0.14695058865E+03  0.00000000000E+00 0. -1.
         22    1    3    3    0    0 -0.24646879439E+01 -0.17518856271E+02 -0.45424757377E+00  0.17697213130E+02  0.00000000000E+00 0. -1.
         22    1    3    3    0    0 -0.14731847886E+03  0.20749560897E+03  0.26832894595E+02  0.25588506440E+03  0.00000000000E+00 0. -1.
</event>
<event>
 7    1  0.7459264E-005  0.1531914E+03  0.7818608E-02  0.1292688E+00
          2   -1    0    0  502    0  0.00000000000E+00  0.00000000000E+00  0.71234466750E+03  0.71234466750E+03  0.00000000000E+00 0. -1.
          1   -1    0    0  501    0 -0.00000000000E+00 -0.00000000000E+00 -0.12958181464E+04  0.12958181464E+04  0.00000000000E+00 0. -1.
         25    2    1    2    0    0 -0.51628536707E+02 -0.15233861450E+03  0.52578168873E+03  0.56386603353E+03  0.12500384112E+03 0.  0.
          2    1    1    2  501    0  0.57798863878E+02  0.57818267171E+01 -0.12438568496E+04  0.12452124319E+04  0.00000000000E+00 0. -1.
          1    1    1    2  502    0 -0.61703271711E+01  0.14655678779E+03  0.13460168204E+03  0.19908434843E+03  0.00000000000E+00 0. -1.
         22    1    3    3    0    0 -0.62711466519E+02 -0.10546868859E+03  0.48644077259E+03  0.50167818125E+03  0.00000000000E+00 0.  1.
         22    1    3    3    0    0  0.11082929812E+02 -0.46869925913E+02  0.39340916140E+02  0.62187852279E+02  0.00000000000E+00 0.  1.
</event>
<event>
 7    1  0.7459264E-005  0.1517669E+03  0.7818608E-02  0.1260506E+00
          2   -1    0    0  502    0  0.00000000000E+00  0.00000000000E+00  0.11330988961E+04  0.11330988961E+04  0.00000000000E+00 0. -1.
          1   -1    0    0  501    0 -0.00000000000E+00 -0.00000000000E+00 -0.15877644464E+04  0.15877644464E+04  0.00000000000E+00 0. -1.
         25    2    1    2    0    0  0.87413707509E+02  0.20592563103E+03  0.29133239410E+03  0.38800305553E+03  0.12500114190E+03 0.  0.
          2    1    1    2  501    0 -0.82827383291E+02 -0.12627993605E+03 -0.15337056733E+04  0.15411229963E+04  0.00000000000E+00 0. -1.
          1    1    1    2  502    0 -0.45863242178E+01 -0.79645694985E+02  0.78770772891E+03  0.79173729057E+03  0.00000000000E+00 0. -1.
         22    1    3    3    0    0 -0.21832007807E+02  0.18133170233E+02  0.80124996633E+02  0.85002726504E+02  0.00000000000E+00 0.  1.
         22    1    3    3    0    0  0.10924571532E+03  0.18779246080E+03  0.21120739746E+03  0.30300032903E+03  0.00000000000E+00 0.  1.
</event>
<event>
 7    1  0.7459264E-005  0.1792385E+03  0.7818608E-02  0.1180311E+00
          2   -1    0    0  502    0  0.00000000000E+00  0.00000000000E+00  0.20726070498E+04  0.20726070498E+04  0.00000000000E+00 0. -1.
          1   -1    0    0  501    0 -0.00000000000E+00 -0.00000000000E+00 -0.21256791366E+04  0.21256791366E+04  0.00000000000E+00 0. -1.
         25    2    1    2    0    0 -0.18389528696E+03 -0.27584702303E+03 -0.13657105295E+04  0.14109217674E+04  0.12500370694E+03 0.  0.
          2    1    1    2  501    0  0.64002122597E+02  0.14317498048E+03 -0.72506396376E+03  0.74183090949E+03  0.00000000000E+00 0. -1.
          1    1    1    2  502    0  0.11989316436E+03  0.13267204255E+03  0.20377024063E+04  0.20455335095E+04  0.00000000000E+00 0. -1.
         22    1    3    3    0    0 -0.12015379433E+03 -0.84373778017E+02 -0.70293342025E+03  0.71810254283E+03  0.00000000000E+00 0. -1.
         22    1    3    3    0    0 -0.63741492629E+02 -0.19147324501E+03 -0.66277710921E+03  0.69281922457E+03  0.00000000000E+00 0. -1.
</event>
<event>
 7    1  0.7459264E-005  0.1539780E+03  0.7818608E-02  0.1259177E+00
          2   -1    0    0  502    0  0.00000000000E+00  0.00000000000E+00  0.14258905613E+03  0.14258905613E+03  0.00000000000E+00 0. -1.
          1   -1    0    0  501    0 -0.00000000000E+00 -0.00000000000E+00 -0.11420497418E+04  0.11420497418E+04  0.00000000000E+00 0. -1.
         25    2    1    2    0    0 -0.14458293839E+03  0.11117916920E+03 -0.63272753982E+03  0.67024903782E+03  0.12499839725E+03 0.  0.
          2    1    1    2  501    0 -0.51915410906E+01 -0.79496882440E+02 -0.43824130072E+03  0.44542355581E+03  0.00000000000E+00 0. -1.
          1    1    1    2  502    0  0.14977447948E+03 -0.31682286761E+02  0.71508154833E+02  0.16896620433E+03  0.00000000000E+00 0. -1.
         22    1    3    3    0    0 -0.93975012907E+01  0.56318307476E+02 -0.32140585626E+03  0.32643803275E+03  0.00000000000E+00 0. -1.
         22    1    3    3    0    0 -0.13518543710E+03  0.54860861724E+02 -0.31132168355E+03  0.34381100506E+03  0.00000000000E+00 0. -1.
</event>
<event>
 7    1  0.7459264E-005  0.7946073E+03  0.7818608E-02  0.1193541E+00
          2   -1    0    0  502    0  0.00000000000E+00  0.00000000000E+00  0.18074082101E+04  0.18074082101E+04  0.00000000000E+00 0. -1.
          1   -1    0    0  501    0 -0.00000000000E+00 -0.00000000000E+00 -0.46668175038E+03  0.46668175038E+03  0.00000000000E+00 0. -1.
         25    2    1    2    0    0 -0.30599424823E+03  0.73700508945E+03  0.91978787257E+03  0.12241084122E+04  0.12499076935E+03 0.  0.
          2    1    1    2  501    0  0.30336836220E+02  0.35288321760E+01 -0.99321870437E+02  0.10391155006E+03  0.00000000000E+00 0. -1.
          1    1    1    2  502    0  0.27565741201E+03 -0.74053392163E+03  0.52026045763E+03  0.94606999828E+03  0.00000000000E+00 0. -1.
         22    1    3    3    0    0 -0.85205115081E+02  0.19860907636E+03  0.33848127534E+03  0.40159065054E+03  0.00000000000E+00 0. -1.
         22    1    3    3    0    0 -0.22078913315E+03  0.53839601309E+03  0.58130659723E+03  0.82251776164E+03  0.00000000000E+00 0. -1.
</event>
<event>
 7    1  0.7459264E-005  0.7385938E+02  0.7818608E-02  0.1434521E+00
          2   -1    0    0  502    0  0.00000000000E+00  0.00000000000E+00  0.59654926459E+03  0.59654926459E+03  0.00000000000E+00 0. -1.
          1   -1    0    0  501    0 -0.00000000000E+00 -0.00000000000E+00 -0.19787388430E+04  0.19787388430E+04  0.00000000000E+00 0. -1.
         25    2    1    2    0    0  0.33841979681E+02 -0.43832038508E+02 -0.12388061745E+01  0.13672425983E+03  0.12500184557E+03 0.  0.
          2    1    1    2  501    0 -0.21260995991E+02 -0.29913097037E+02 -0.19069339974E+04  0.19072871031E+04  0.00000000000E+00 0. -1.
          1    1    1    2  502    0 -0.12580983691E+02  0.73745135545E+02  0.52598322520E+03  0.53127674460E+03  0.00000000000E+00 0. -1.
         22    1    3    3    0    0  0.10983916812E+02 -0.27180940985E+02  0.61376685790E+02  0.68018729332E+02  0.00000000000E+00 0.  1.
         22    1    3    3    0    0  0.22858062870E+02 -0.16651097523E+02 -0.62615491964E+02  0.68705530496E+02  0.00000000000E+00 0.  1.
</event>
<event>
 7    1  0.7459264E-005  0.2898638E+03  0.7818608E-02  0.1206851E+00
          2   -1    0    0  502    0  0.00000000000E+00  0.00000000000E+00  0.42032051162E+03  0.42032051162E+03  0.00000000000E+00 0. -1.
          1   -1    0    0  501    0 -0.00000000000E+00 -0.00000000000E+00 -0.10211893366E+04  0.10211893366E+04  0.00000000000E+00 0. -1.
         25    2    1    2    0    0  0.27975421589E+03  0.45188133393E+02 -0.86592575098E+03  0.91964967534E+03  0.12499492162E+03 0.  0.
          2    1    1    2  501    0 -0.13271231784E+02  0.71233888054E+02 -0.53844629772E+02  0.90275337472E+02  0.00000000000E+00 0. -1.
          1    1    1    2  502    0 -0.26648298410E+03 -0.11642202145E+03  0.31890155576E+03  0.43158483542E+03  0.00000000000E+00 0. -1.
         22    1    3    3    0    0  0.17465443532E+03  0.78430204355E+02 -0.64397769721E+03  0.67183535426E+03  0.00000000000E+00 0.  1.
         22    1    3    3    0    0  0.10509978057E+03 -0.33242070961E+02 -0.22194805377E+03  0.24781432108E+03  0.00000000000E+00 0.  1.
</event>
<event>
 7    1  0.7459264E-005  0.5177321E+03  0.7818608E-02  0.1253623E+00
          2   -1    0    0  502    0  0.00000000000E+00  0.00000000000E+00  0.18685085959E+04  0.18685085959E+04  0.00000000000E+00 0. -1.
          1   -1    0    0  501    0 -0.00000000000E+00 -0.00000000000E+00 -0.89588822936E+03  0.89588822936E+03  0.00000000000E+00 0. -1.
         25    2    1    2    0    0  0.45819154420E+03  0.26152326601E+03 -0.31107440911E+03  0.62508071462E+03  0.12499880778E+03 0.  0.
          2    1    1    2  501    0 -0.44913376866E+03 -0.23818913265E+03 -0.27664120832E+03  0.57877937351E+03  0.00000000000E+00 0. -1.
          1    1    1    2  502    0 -0.90577755360E+01 -0.23334133364E+02  0.15603359840E+04  0.15605367372E+04  0.00000000000E+00 0. -1.
         22    1    3    3    0    0  0.14864392196E+03  0.23054747362E+02 -0.10378351382E+03  0.18274997853E+03  0.00000000000E+00 0. -1.
         22    1    3    3    0    0  0.30954762224E+03  0.23846851865E+03 -0.20729089530E+03  0.44233073609E+03  0.00000000000E+00 0. -1.
</event>
<event>
 7    1  0.7459264E-005  0.3926675E+02  0.7818608E-02  0.1558940E+00
          2   -1    0    0  502    0  0.00000000000E+00  0.00000000000E+00  0.21859950647E+02  0.21859950647E+02  0.00000000000E+00 0. -1.
          1   -1    0    0  501    0 -0.00000000000E+00 -0.00000000000E+00 -0.63782642881E+03  0.63782642881E+03  0.00000000000E+00 0. -1.
         25    2    1    2    0    0  0.73836389878E+00 -0.54686646147E+02 -0.24921251482E+03  0.28411810463E+03  0.12500018156E+03 0.  0.
          2    1    1    2  501    0  0.19347636030E+02  0.33489583096E+02 -0.30283182500E+03  0.30529165961E+03  0.00000000000E+00 0. -1.
          1    1    1    2  502    0 -0.20085999929E+02  0.21197063052E+02 -0.63922138351E+02  0.70276615219E+02  0.00000000000E+00 0. -1.
         22    1    3    3    0    0  0.25645482969E+02  0.32639817473E+02 -0.11325929297E+03  0.12062634839E+03  0.00000000000E+00 0. -1.
         22    1    3    3    0    0 -0.24907119070E+02 -0.87326463621E+02 -0.13595322184E+03  0.16349175624E+03  0.00000000000E+00 0. -1.
</event>
<event>
 7    1  0.7459264E-005  0.1433052E+04  0.7818608E-02  0.1056870E+00
          2   -1    0    0  502    0  0.00000000000E+00  0.00000000000E+00  0.33656890626E+04  0.33656890626E+04  0.00000000000E+00 0. -1.
          1   -1    0    0  501    0 -0.00000000000E+00 -0.00000000000E+00 -0.12068833241E+04  0.12068833241E+04  0.00000000000E+00 0. -1.
         25    2    1    2    0    0  0.81342265804E+03 -0.11940316419E+04  0.82334610610E+03  0.16676006606E+04  0.12500068153E+03 0.  0.
          2    1    1    2  501    0  0.63332395465E+02  0.67611666228E+02 -0.54011538024E+03  0.54800269497E+03  0.00000000000E+00 0. -1.
          1    1    1    2  502    0 -0.87675505351E+03  0.11264199756E+04  0.18755750126E+04  0.23569690311E+04  0.00000000000E+00 0. -1.
         22    1    3    3    0    0  0.30997389348E+03 -0.55197802685E+03  0.39360401774E+03  0.74544461869E+03  0.00000000000E+00 0. -1.
         22    1    3    3    0    0  0.50344876456E+03 -0.64205361502E+03  0.42974208836E+03  0.92215604190E+03  0.00000000000E+00 0. -1.
</event>
<event>
 7    1  0.7965716E-005  0.6625691E+03  0.7818608E-02  0.1156824E+00
          2   -1    0    0  502    0  0.00000000000E+00  0.00000000000E+00  0.19013213648E+04  0.19013213648E+04  0.00000000000E+00 0. -1.
          1   -1    0    0  501    0 -0.00000000000E+00 -0.00000000000E+00 -0.12075976750E+04  0.12075976750E+04  0.00000000000E+00 0. -1.
         25    2    1    2    0    0 -0.65927757291E+03 -0.88908559861E+01 -0.49573194612E+03  0.83432669040E+03  0.12499959378E+03 0.  0.
          2    1    1    2  501    0  0.66465099643E+03  0.64168111407E+02 -0.33642362282E+03  0.74770271336E+03  0.00000000000E+00 0. -1.
          1    1    1    2  502    0 -0.53734235161E+01 -0.55277255421E+02  0.15258792587E+04  0.15268896360E+04  0.00000000000E+00 0. -1.
         22    1    3    3    0    0 -0.56884920989E+02 -0.25475673107E+02 -0.83503608832E+02  0.10420056067E+03  0.00000000000E+00 0. -1.
         22    1    3    3    0    0 -0.60239265192E+03  0.16584817121E+02 -0.41222833729E+03  0.73012612973E+03  0.00000000000E+00 0. -1.
</event>
<event>
 7    1  0.7459264E-005  0.1163967E+03  0.7818608E-02  0.1331044E+00
          2   -1    0    0  502    0  0.00000000000E+00  0.00000000000E+00  0.25632117310E+04  0.25632117310E+04  0.00000000000E+00 0. -1.
          1   -1    0    0  501    0 -0.00000000000E+00 -0.00000000000E+00 -0.70713981382E+02  0.70713981382E+02  0.00000000000E+00 0. -1.
         25    2    1    2    0    0 -0.14695212954E+02  0.11718108851E+03  0.32480957399E+03  0.36752384111E+03  0.12500063058E+03 0.  0.
          2    1    1    2  501    0 -0.39038350025E+02 -0.11153554245E+03  0.22204671589E+02  0.12023816966E+03  0.00000000000E+00 0. -1.
          1    1    1    2  502    0  0.53733562979E+02 -0.56455460614E+01  0.21454835040E+04  0.21461637016E+04  0.00000000000E+00 0. -1.
         22    1    3    3    0    0 -0.22342558934E+02  0.11698822845E+03  0.14541087713E+03  0.18796212044E+03  0.00000000000E+00 0. -1.
         22    1    3    3    0    0  0.76473459797E+01  0.19286006839E+00  0.17939869686E+03  0.17956172067E+03  0.00000000000E+00 0. -1.
</event>
<event>
 7    1  0.7459264E-005  0.2677633E+03  0.7818608E-02  0.1240980E+00
          2   -1    0    0  502    0  0.00000000000E+00  0.00000000000E+00  0.32998686804E+03  0.32998686804E+03  0.00000000000E+00 0. -1.
          1   -1    0    0  501    0 -0.00000000000E+00 -0.00000000000E+00 -0.21145584021E+04  0.21145584021E+04  0.00000000000E+00 0. -1.
         25    2    1    2    0    0 -0.17759650414E+03 -0.25781924337E+03 -0.12883151416E+04  0.13316888130E+04  0.12501163974E+03 0.  0.
          2    1    1    2  501    0  0.48785009040E+02  0.25274958936E+02 -0.74605223013E+03  0.74807267745E+03  0.00000000000E+00 0. -1.
          1    1    1    2  502    0  0.12881149510E+03  0.23254428443E+03  0.24979583760E+03  0.36478377976E+03  0.00000000000E+00 0. -1.
         22    1    3    3    0    0 -0.45926688948E+02 -0.12189330402E+03 -0.74640794844E+03  0.75768863250E+03  0.00000000000E+00 0.  1.
         22    1    3    3    0    0 -0.13166981519E+03 -0.13592593935E+03 -0.54190719311E+03  0.57400018046E+03  0.00000000000E+00 0.  1.
</event>
<event>
 7    1  0.7459264E-005  0.1193741E+03  0.7818608E-02  0.1304374E+00
          2   -1    0    0  502    0  0.00000000000E+00  0.00000000000E+00  0.29942901069E+02  0.29942901069E+02  0.00000000000E+00 0. -1.
          1   -1    0    0  501    0 -0.00000000000E+00 -0.00000000000E+00 -0.34319259829E+04  0.34319259829E+04  0.00000000000E+00 0. -1.
         25    2    1    2    0    0 -0.58170243615E+02  0.16071638866E+03 -0.94556995899E+03  0.96898976224E+03  0.12500030863E+03 0.  0.
          2    1    1    2  501    0 -0.47575998964E+00 -0.66912048791E+02 -0.23017540156E+04  0.23027264268E+04  0.00000000000E+00 0. -1.
          1    1    1    2  502    0  0.58646003605E+02 -0.93804339870E+02 -0.15465910729E+03  0.19015269492E+03  0.00000000000E+00 0. -1.
         22    1    3    3    0    0 -0.31493797868E+02  0.34889714934E+02 -0.57139075021E+03  0.57332062665E+03  0.00000000000E+00 0. -1.
         22    1    3    3    0    0 -0.26676445748E+02  0.12582667373E+03 -0.37417920877E+03  0.39566913559E+03  0.00000000000E+00 0. -1.
</event>
<event>
 7    1  0.7459264E-005  0.1442199E+03  0.7818608E-02  0.1253816E+00
          2   -1    0    0  502    0  0.00000000000E+00  0.00000000000E+00  0.75695697046E+03  0.75695697046E+03  0.00000000000E+00 0. -1.
          1   -1    0    0  501    0 -0.00000000000E+00 -0.00000000000E+00 -0.35394712199E+03  0.35394712199E+03  0.00000000000E+00 0. -1.
         25    2    1    2    0    0 -0.86787294853E+02 -0.63309660250E+02  0.16201060670E+02  0.16561279244E+03  0.12499990009E+03 0.  0.
          2    1    1    2  501    0  0.15686159424E+03  0.73377438626E+01 -0.25379062088E+03  0.29844443617E+03  0.00000000000E+00 0. -1.
          1    1    1    2  502    0 -0.70074299388E+02  0.55971916387E+02  0.64059940868E+03  0.64684686384E+03  0.00000000000E+00 0. -1.
         22    1    3    3    0    0 -0.84511723377E+02 -0.23021690114E+02 -0.40108472899E+02  0.96337527486E+02  0.00000000000E+00 0.  1.
         22    1    3    3    0    0 -0.22755714760E+01 -0.40287970136E+02  0.56309533569E+02  0.69275264950E+02  0.00000000000E+00 0.  1.
</event>
<event>
 7    1  0.7459264E-005  0.4635247E+03  0.7818608E-02  0.1260796E+00
          2   -1    0    0  502    0  0.00000000000E+00  0.00000000000E+00  0.91353773506E+03  0.91353773506E+03  0.00000000000E+00 0. -1.
          1   -1    0    0  501    0 -0.00000000000E+00 -0.00000000000E+00 -0.74979340022E+03  0.74979340022E+03  0.00000000000E+00 0. -1.
         25    2    1    2    0    0  0.47088768153E+03  0.70804872306E+01 -0.12280168053E+03  0.50248421757E+03  0.12499917699E+03 0.  0.
          2    1    1    2  501    0 -0.45876098210E+03  0.15970676107E+02 -0.31628584456E+03  0.55745263176E+03  0.00000000000E+00 0. -1.
          1    1    1    2  502    0 -0.12126699429E+02 -0.23051163338E+02  0.60283185993E+03  0.60339428595E+03  0.00000000000E+00 0. -1.
         22    1    3    3    0    0  0.15713387346E+03  0.26661705968E+02  0.13276628560E+02  0.15993176551E+03  0.00000000000E+00 0. -1.
         22    1    3    3    0    0  0.31375380807E+03 -0.19581218737E+02 -0.13607830909E+03  0.34255245205E+03  0.00000000000E+00 0. -1.
</event>
<event>
 7    1  0.7459264E-005  0.1271547E+03  0.7818608E-02  0.1299975E+00
          2   -1    0    0  502    0  0.00000000000E+00  0.00000000000E+00  0.14522208144E+04  0.14522208144E+04  0.00000000000E+00 0. -1.
          1   -1    0    0  501    0 -0.00000000000E+00 -0.00000000000E+00 -0.37332610324E+03  0.37332610324E+03  0.00000000000E+00 0. -1.
         25    2    1    2    0    0  0.14046533205E+03  0.47190952449E+02 -0.68224252837E+02  0.20551259048E+03  0.12499352252E+03 0.  0.
          2    1    1    2  501    0 -0.50090542757E+02  0.42064401821E+02 -0.22895253832E+03  0.23811287486E+03  0.00000000000E+00 0. -1.
          1    1    1    2  502    0 -0.90374789292E+02 -0.89255354270E+02  0.13760715023E+04  0.13819214523E+04  0.00000000000E+00 0. -1.
         22    1    3    3    0    0  0.98025763676E+02 -0.30862097611E+02 -0.52082677078E+02  0.11521338752E+03  0.00000000000E+00 0.  1.
         22    1    3    3    0    0  0.42439568372E+02  0.78053050059E+02 -0.16141575759E+02  0.90299202960E+02  0.00000000000E+00 0.  1.
</event>
<event>
 7    1  0.7459264E-005  0.9140491E+02  0.7818608E-02  0.1340720E+00
          2   -1    0    0  502    0  0.00000000000E+00  0.00000000000E+00  0.29477643825E+03  0.29477643825E+03  0.00000000000E+00 0. -1.
          1   -1    0    0  501    0 -0.00000000000E+00 -0.00000000000E+00 -0.14659370619E+03  0.14659370619E+03  0.00000000000E+00 0. -1.
         25    2    1    2    0    0 -0.91341481904E+02 -0.55801357198E+02 -0.72729826646E+02  0.17994993057E+03  0.12504116142E+03 0.  0.
          2    1    1    2  501    0  0.72177553013E+02 -0.44609420559E+01  0.85577314575E+02  0.11204006396E+03  0.00000000000E+00 0. -1.
          1    1    1    2  502    0  0.19163928891E+02  0.60262299254E+02  0.13533524412E+03  0.14938014990E+03  0.00000000000E+00 0. -1.
         22    1    3    3    0    0 -0.27591942399E+02 -0.79901034613E+02 -0.73162899252E+02  0.11179579797E+03  0.00000000000E+00 0.  1.
         22    1    3    3    0    0 -0.63749539505E+02  0.24099677415E+02  0.43307260674E+00  0.68154132600E+02  0.00000000000E+00 0.  1.
</event>
<event>
 7    1  0.7459264E-005  0.3531467E+03  0.7818608E-02  0.1112515E+00
          2   -1    0    0  502    0  0.00000000000E+00  0.00000000000E+00  0.14770726262E+04  0.14770726262E+04  0.00000000000E+00 0. -1.
          1   -1    0    0  501    0 -0.00000000000E+00 -0.00000000000E+00 -0.67218963645E+03  0.67218963645E+03  0.00000000000E+00 0. -1.
         25    2    1    2    0    0 -0.20783614888E+03 -0.42774192828E+03  0.60148626229E+03  0.77689721504E+03  0.12499814806E+03 0.  0.
          2    1    1    2  501    0  0.23689484890E+03  0.25135983022E+03 -0.52163417780E+03  0.62562220959E+03  0.00000000000E+00 0. -1.
          1    1    1    2  502    0 -0.29058700013E+02  0.17638209806E+03  0.72503090525E+03  0.74674283802E+03  0.00000000000E+00 0. -1.
         22    1    3    3    0    0 -0.15432030191E+03 -0.40365899936E+03  0.51366322953E+03  0.67127137338E+03  0.00000000000E+00 0.  1.
         22    1    3    3    0    0 -0.53515846974E+02 -0.24082928916E+02  0.87823032764E+02  0.10562584166E+03  0.00000000000E+00 0.  1.
</event>
<event>
 7    1  0.7459264E-005  0.2804987E+03  0.7818608E-02  0.1245604E+00
          2   -1    0    0  502    0  0.00000000000E+00  0.00000000000E+00  0.58778769599E+03  0.58778769599E+03  0.00000000000E+00 0. -1.
          1   -1    0    0  501    0 -0.00000000000E+00 -0.00000000000E+00 -0.68076450905E+03  0.68076450905E+03  0.00000000000E+00 0. -1.
         25    2    1    2    0    0 -0.32693790762E+03  0.10221157296E+02  0.36594915778E+03  0.50649451092E+03  0.12500014407E+03 0.  0.
          2    1    1    2  501    0  0.27688959748E+03 -0.11082591602E+02 -0.57354749095E+03  0.63698304326E+03  0.00000000000E+00 0. -1.
          1    1    1    2  502    0  0.50048310145E+02  0.86143430583E+00  0.11462152011E+03  0.12507465086E+03  0.00000000000E+00 0. -1.
         22    1    3    3    0    0 -0.13512705830E+03  0.66005550889E+02  0.15424648025E+03  0.21542523367E+03  0.00000000000E+00 0.  1.
         22    1    3    3    0    0 -0.19181084933E+03 -0.55784393593E+02  0.21170267753E+03  0.29106927725E+03  0.00000000000E+00 0.  1.
</event>
<event>
 7    1  0.7459264E-005  0.2131742E+03  0.7818608E-02  0.1268381E+00
          2   -1    0    0  502    0  0.00000000000E+00  0.00000000000E+00  0.13056652322E+04  0.13056652322E+04  0.00000000000E+00 0. -1.
          1   -1    0    0  501    0 -0.00000000000E+00 -0.00000000000E+00 -0.38668675528E+03  0.38668675528E+03  0.00000000000E+00 0. -1.
         25    2    1    2    0    0 -0.48754110238E+02 -0.24616213284E+03  0.37221560327E+03  0.46598382524E+03  0.12499484451E+03 0.  0.
          2    1    1    2  501    0  0.70485390611E+02  0.19826547394E+03 -0.30633910228E+03  0.37164638305E+03  0.00000000000E+00 0. -1.
          1    1    1    2  502    0 -0.21731280373E+02  0.47896658897E+02  0.85310197598E+03  0.85472177923E+03  0.00000000000E+00 0. -1.
         22    1    3    3    0    0 -0.66009340823E+02 -0.87940455173E+02  0.90476408717E+02  0.14239640890E+03  0.00000000000E+00 0. -1.
         22    1    3    3    0    0  0.17255230585E+02 -0.15822167767E+03  0.28173919456E+03  0.32358741634E+03  0.00000000000E+00 0. -1.
</event>
<event>
 7    1  0.7459264E-005  0.1383860E+03  0.7818608E-02  0.1216988E+00
          2   -1    0    0  502    0  0.00000000000E+00  0.00000000000E+00  0.33117224175E+03  0.33117224175E+03  0.00000000000E+00 0. -1.
          1   -1    0    0  501    0 -0.00000000000E+00 -0.00000000000E+00 -0.50528236535E+03  0.50528236535E+03  0.00000000000E+00 0. -1.
         25    2    1    2    0    0 -0.67147736705E+02  0.62723159253E+02  0.30919056670E+02  0.15819211249E+03  0.12500297252E+03 0.  0.
          2    1    1    2  501    0 -0.40432035479E+02 -0.14633855642E+03 -0.40713283745E+03  0.43451912492E+03  0.00000000000E+00 0. -1.
          1    1    1    2  502    0  0.10757977218E+03  0.83615397164E+02  0.20210365718E+03  0.24374336970E+03  0.00000000000E+00 0. -1.
         22    1    3    3    0    0  0.16088403794E+01  0.29688856158E+02  0.67377863099E+02  0.73646405093E+02  0.00000000000E+00 0. -1.
         22    1    3    3    0    0 -0.68756577084E+02  0.33034303095E+02 -0.36458806429E+02  0.84545707398E+02  0.00000000000E+00 0. -1.
</event>
<event>
 7    1  0.8498100E-005  0.4324395E+03  0.7818608E-02  0.1207204E+00
          2   -1    0    0  502    0  0.00000000000E+00  0.00000000000E+00  0.28345046981E+04  0.28345046981E+04  0.00000000000E+00 0. -1.
          1   -1    0    0  501    0 -0.00000000000E+00 -0.00000000000E+00 -0.16090466271E+04  0.16090466271E+04  0.00000000000E+00 0. -1.
         25    2    1    2    0    0  0.15073792368E+03 -0.35857667246E+03 -0.16141606333E+03  0.43929422388E+03  0.12500047186E+03 0.  0.
          2    1    1    2  501    0  0.32283838141E+02 -0.36040556861E+02 -0.12906860506E+04  0.12915926793E+04  0.00000000000E+00 0. -1.
          1    1    1    2  502    0 -0.18302176182E+03  0.39461722932E+03  0.26775601849E+04  0.27126644221E+04  0.00000000000E+00 0. -1.
         22    1    3    3    0    0  0.83785288464E+02 -0.11626975849E+03 -0.11479581458E+03  0.18362110540E+03  0.00000000000E+00 0. -1.
         22    1    3    3    0    0  0.66952635216E+02 -0.24230691397E+03 -0.46620248749E+02  0.25567311848E+03  0.00000000000E+00 0. -1.
</event>
<event>
 7    1  0.7459264E-005  0.2548327E+03  0.7818608E-02  0.1180993E+00
          2   -1    0    0  502    0  0.00000000000E+00  0.00000000000E+00  0.82708523669E+03  0.82708523669E+03  0.00000000000E+00 0. -1.
          1   -1    0    0  501    0 -0.00000000000E+00 -0.00000000000E+00 -0.18836529836E+04  0.18836529836E+04  0.00000000000E+00 0. -1.
         25    2    1    2    0    0  0.25759789558E+03  0.51806262388E+02  0.64799596499E+03  0.71032681042E+03  0.12499936931E+03 0.  0.
          2    1    1    2  501    0 -0.18063407671E+02 -0.10796476002E+03 -0.17472761734E+04  0.17507017742E+04  0.00000000000E+00 0. -1.
          1    1    1    2  502    0 -0.23953448791E+03  0.56158497636E+02  0.42712461531E+02  0.24970963563E+03  0.00000000000E+00 0. -1.
         22    1    3    3    0    0  0.21609790670E+03  0.17927686061E+02  0.38440338011E+03  0.44134529096E+03  0.00000000000E+00 0. -1.
         22    1    3    3    0    0  0.41499988884E+02  0.33878576327E+02  0.26359258488E+03  0.26898151947E+03  0.00000000000E+00 0. -1.
</event>
<event>
 7    1  0.7459264E-005  0.1979241E+03  0.7818608E-02  0.1187036E+00
          2   -1    0    0  502    0  0.00000000000E+00  0.00000000000E+00  0.16498236655E+04  0.16498236655E+04  0.00000000000E+00 0. -1.
          1   -1    0    0  501    0 -0.00000000000E+00 -0.00000000000E+00 -0.24974341594E+03  0.24974341594E+03  0.00000000000E+00 0. -1.
         25    2    1    2    0    0  0.24212345313E+03 -0.17869990349E+03  0.18120668327E+03  0.37285155584E+03  0.12499999425E+03 0.  0.
          2    1    1    2  501    0 -0.60906696186E+02  0.11682148372E+03 -0.11759751398E+03  0.17659575305E+03  0.00000000000E+00 0. -1.
          1    1    1    2  502    0 -0.18121675695E+03  0.61878419773E+02  0.13364710803E+04  0.13501197726E+04  0.00000000000E+00 0. -1.
         22    1    3    3    0    0  0.61820485603E+02 -0.11480931373E+03  0.44673600946E+02  0.13783570503E+03  0.00000000000E+00 0.  1.
         22    1    3    3    0    0  0.18030296753E+03 -0.63890589758E+02  0.13653308233E+03  0.23501585081E+03  0.00000000000E+00 0.  1.
</event>
<event>
 7    1  0.7459264E-005  0.1192821E+04  0.7818608E-02  0.1116358E+00
          2   -1    0    0  502    0  0.00000000000E+00  0.00000000000E+00  0.23927628039E+04  0.23927628039E+04  0.00000000000E+00 0. -1.
          1   -1    0    0  501    0 -0.00000000000E+00 -0.00000000000E+00 -0.87729415997E+03  0.87729415997E+03  0.00000000000E+00 0. -1.
         25    2    1    2    0    0 -0.21453241940E+02 -0.12052908393E+04 -0.12055775880E+03  0.12179267620E+04  0.12500070144E+03 0.  0.
          2    1    1    2  501    0  0.15874622665E+02  0.11551845000E+04  0.14215323870E+04  0.18317908069E+04  0.00000000000E+00 0. -1.
          1    1    1    2  502    0  0.55786192750E+01  0.50106339280E+02  0.21449401571E+03  0.22033939504E+03  0.00000000000E+00 0. -1.
         22    1    3    3    0    0 -0.60695593472E+01 -0.17331273211E+03  0.26424142618E+02  0.17542057455E+03  0.00000000000E+00 0. -1.
         22    1    3    3    0    0 -0.15383682593E+02 -0.10319781072E+04 -0.14698190142E+03  0.10425061874E+04  0.00000000000E+00 0. -1.
</event>
<event>
 7    1  0.7459264E-005  0.1125623E+04  0.7818608E-02  0.1187988E+00
          2   -1    0    0  502    0  0.00000000000E+00  0.00000000000E+00  0.99308031915E+03  0.99308031915E+03  0.00000000000E+00 0. -1.
          1   -1    0    0  501    0 -0.00000000000E+00 -0.00000000000E+00 -0.18313916519E+04  0.18313916519E+04  0.00000000000E+00 0. -1.
         25    2    1    2    0    0  0.95997304555E+03  0.59062800689E+03  0.29010215207E+03  0.11705436669E+04  0.12499410721E+03 0.  0.
          2    1    1    2  501    0 -0.16432615347E+02  0.15981333198E+02 -0.19018582946E+03  0.19156221858E+03  0.00000000000E+00 0. -1.
          1    1    1    2  502    0 -0.94354043020E+03 -0.60660934009E+03 -0.93822765536E+03  0.14623660856E+04  0.00000000000E+00 0. -1.
         22    1    3    3    0    0  0.37264323214E+03  0.17397845005E+03  0.14420919975E+03  0.43580703624E+03  0.00000000000E+00 0. -1.
         22    1    3    3    0    0  0.58732981341E+03  0.41664955685E+03  0.14589295232E+03  0.73473663069E+03  0.00000000000E+00 0. -1.
</event>
<event>
 7    1  0.7459264E-005  0.6384692E+02  0.7818608E-02  0.1412227E+00
          2   -1    0    0  502    0  0.00000000000E+00  0.00000000000E+00  0.75358012389E+03  0.75358012389E+03  0.00000000000E+00 0. -1.
          1   -1    0    0  501    0 -0.00000000000E+00 -0.00000000000E+00 -0.84933791141E+03  0.84933791141E+03  0.00000000000E+00 0. -1.
         25    2    1    2    0    0 -0.10606194885E+03 -0.13478054774E+02  0.98410321765E+02  0.19167384264E+03  0.12499390212E+03 0.  0.
          2    1    1    2  501    0  0.48929855040E+02 -0.11886049291E+02 -0.80030758622E+03  0.80189004324E+03  0.00000000000E+00 0. -1.
          1    1    1    2  502    0  0.57132093813E+02  0.25364104065E+02  0.60613947694E+03  0.60935414943E+03  0.00000000000E+00 0. -1.
         22    1    3    3    0    0  0.74273471518E+01  0.19874442404E+02 -0.16410107066E+02  0.26822575575E+02  0.00000000000E+00 0.  1.
         22    1    3    3    0    0 -0.11348929600E+03 -0.33352497178E+02  0.11482042883E+03  0.16485126706E+03  0.00000000000E+00 0.  1.
</event>
<event>
 7    1  0.7459264E-005  0.1320730E+03  0.7818608E-02  0.1366171E+00
          2   -1    0    0  502    0  0.00000000000E+00  0.00000000000E+00  0.25994838057E+04  0.25994838057E+04  0.00000000000E+00 0. -1.
          1   -1    0    0  501    0 -0.00000000000E+00 -0.00000000000E+00 -0.15729427732E+04  0.15729427732E+04  0.00000000000E+00 0. -1.
         25    2    1    2    0    0 -0.99698720306E+02 -0.10045936884E+03 -0.20691873382E+02  0.18996110845E+03  0.12500059792E+03 0.  0.
          2    1    1    2  501    0  0.66982202054E+02  0.11361374105E+03 -0.14645291932E+04  0.14704558665E+04  0.00000000000E+00 0. -1.
          1    1    1    2  502    0  0.32716518252E+02 -0.13154372204E+02  0.25117620991E+04  0.25120096040E+04  0.00000000000E+00 0. -1.
         22    1    3    3    0    0 -0.36232009793E+02 -0.45138029640E+02 -0.71216526634E+02  0.91771422127E+02  0.00000000000E+00 0. -1.
         22    1    3    3    0    0 -0.63466710512E+02 -0.55321339202E+02  0.50524653252E+02  0.98189686325E+02  0.00000000000E+00 0. -1.
</event>
<event>
 7    1  0.7459264E-005  0.2264493E+03  0.7818608E-02  0.1219408E+00
          2   -1    0    0  502    0  0.00000000000E+00  0.00000000000E+00  0.49801286187E+03  0.49801286187E+03  0.00000000000E+00 0. -1.
          1   -1    0    0  501    0 -0.00000000000E+00 -0.00000000000E+00 -0.26484025453E+04  0.26484025453E+04  0.00000000000E+00 0. -1.
         25    2    1    2    0    0 -0.47417749153E+02  0.25940783372E+03 -0.12327689945E+04  0.12668407027E+04  0.12500042029E+03 0.  0.
          2    1    1    2  501    0 -0.17656810484E+02 -0.21088965995E+03 -0.13870893921E+04  0.14031404753E+04  0.00000000000E+00 0. -1.
          1    1    1    2  502    0  0.65074559637E+02 -0.48518173772E+02  0.46946870318E+03  0.47643422921E+03  0.00000000000E+00 0. -1.
         22    1    3    3    0    0 -0.31429214157E+02  0.14261755131E+03 -0.40109981906E+03  0.42685902391E+03  0.00000000000E+00 0.  1.
         22    1    3    3    0    0 -0.15988534996E+02  0.11679028241E+03 -0.83166917543E+03  0.83998167878E+03  0.00000000000E+00 0.  1.
</event>
<event>
 7    1  0.7459264E-005  0.4488080E+03  0.7818608E-02  0.1221981E+00
          2   -1    0    0  502    0  0.00000000000E+00  0.00000000000E+00  0.23161824357E+04  0.23161824357E+04  0.00000000000E+00 0. -1.
          1   -1    0    0  501    0 -0.00000000000E+00 -0.00000000000E+00 -0.61262318181E+03  0.61262318181E+03  0.00000000000E+00 0. -1.
         25    2    1    2    0    0  0.71585092633E+02 -0.44703168453E+03 -0.37555136263E+03  0.60135264023E+03  0.12499767786E+03 0.  0.
          2    1    1    2  501    0 -0.10412915750E+03  0.42400782059E+03  0.26051943012E+03  0.50842490776E+03  0.00000000000E+00 0. -1.
          1    1    1    2  502    0  0.32544064864E+02  0.23023863945E+02  0.18185911864E+04  0.18190280695E+04  0.00000000000E+00 0. -1.
         22    1    3    3    0    0  0.47776539842E+02 -0.44072511095E+02 -0.66281827112E+02  0.92834608842E+02  0.00000000000E+00 0.  1.
         22    1    3    3    0    0  0.23808552790E+02 -0.40295917344E+03 -0.30926953552E+03  0.50851803138E+03  0.00000000000E+00 0.  1.
</event>
<event>
 7    1  0.7459264E-005  0.1893668E+03  0.7818608E-02  0.1301926E+00
          2   -1    0    0  502    0  0.00000000000E+00  0.00000000000E+00  0.14920274221E+04  0.14920274221E+04  0.00000000000E+00 0. -1.
          1   -1    0    0  501    0 -0.00000000000E+00 -0.00000000000E+00 -0.54156174257E+02  0.54156174257E+02  0.00000000000E+00 0. -1.
         25    2    1    2    0    0 -0.10775230656E+03  0.17063749465E+03  0.27225339771E+03  0.36121321627E+03  0.12500144355E+03 0.  0.
          2    1    1    2  501    0  0.94081859118E+02 -0.12972158157E+03  0.73886754282E+03  0.75604519096E+03  0.00000000000E+00 0. -1.
          1    1    1    2  502    0  0.13670447445E+02 -0.40915913086E+02  0.42675030730E+03  0.42892518911E+03  0.00000000000E+00 0. -1.
         22    1    3    3    0    0 -0.66875047161E+02  0.59517375445E+01  0.88701785183E+02  0.11124613165E+03  0.00000000000E+00 0. -1.
         22    1    3    3    0    0 -0.40877259402E+02  0.16468575711E+03  0.18355161252E+03  0.24996708462E+03  0.00000000000E+00 0. -1.
</event>
<event>
 7    1  0.7736267E-005  0.4172263E+03  0.7818608E-02  0.1245203E+00
          2   -1    0    0  502    0  0.00000000000E+00  0.00000000000E+00  0.19091185560E+04  0.19091185560E+04  0.00000000000E+00 0. -1.
          1   -1    0    0  501    0 -0.00000000000E+00 -0.00000000000E+00 -0.18564928046E+04  0.18564928046E+04  0.00000000000E+00 0. -1.
         25    2    1    2    0    0  0.24518930461E+03 -0.33789182887E+03 -0.20915532148E+03  0.48338198636E+03  0.12499405232E+03 0.  0.
          2    1    1    2  501    0  0.26409713117E+02  0.21075689398E+02 -0.14854613738E+04  0.14858456012E+04  0.00000000000E+00 0. -1.
          1    1    1    2  502    0 -0.27159901773E+03  0.31681613948E+03  0.17472424467E+04  0.17963837731E+04  0.00000000000E+00 0. -1.
         22    1    3    3    0    0  0.11365596242E+03 -0.23397683380E+03 -0.81205521113E+02  0.27250169396E+03  0.00000000000E+00 0. -1.
         22    1    3    3    0    0  0.13153334219E+03 -0.10391499507E+03 -0.12794980037E+03  0.21088029240E+03  0.00000000000E+00 0. -1.
</event>
<event>
 7    1  0.7459264E-005  0.4606116E+03  0.7818608E-02  0.1060329E+00
          2   -1    0    0  502    0  0.00000000000E+00  0.00000000000E+00  0.13876424106E+04  0.13876424106E+04  0.00000000000E+00 0. -1.
          1   -1    0    0  501    0 -0.00000000000E+00 -0.00000000000E+00 -0.51052647295E+03  0.51052647295E+03  0.00000000000E+00 0. -1.
         25    2    1    2    0    0 -0.28737881810E+02  0.52485935611E+03  0.84253089363E+03  0.10008926231E+04  0.12499810646E+03 0.  0.
          2    1    1    2  501    0 -0.20397546572E+03 -0.18380106146E+03 -0.26931686772E+03  0.38460420701E+03  0.00000000000E+00 0. -1.
          1    1    1    2  502    0  0.23271334753E+03 -0.34105829465E+03  0.30390191176E+03  0.51267205349E+03  0.00000000000E+00 0. -1.
         22    1    3    3    0    0 -0.77645520666E+01  0.13579714574E+03  0.12666657014E+03  0.18586439426E+03  0.00000000000E+00 0. -1.
         22    1    3    3    0    0 -0.20973329744E+02  0.38906221037E+03  0.71586432349E+03  0.81502822880E+03  0.00000000000E+00 0. -1.
</event>
<event>
 7    1  0.7459264E-005  0.1594822E+03  0.7818608E-02  0.1289416E+00
          2   -1    0    0  502    0  0.00000000000E+00  0.00000000000E+00  0.13223147500E+04  0.13223147500E+04  0.00000000000E+00 0. -1.
          1   -1    0    0  501    0 -0.00000000000E+00 -0.00000000000E+00 -0.17164906817E+03  0.17164906817E+03  0.00000000000E+00 0. -1.
         25    2    1    2    0    0 -0.13544498795E+03 -0.49761787533E+02  0.40611697078E+03  0.44875046759E+03  0.12499763177E+03 0.  0.
          2    1    1    2  501    0  0.16190911319E+03 -0.13192783007E+01 -0.10547899589E+03  0.19324109294E+03  0.00000000000E+00 0. -1.
          1    1    1    2  502    0 -0.26464125234E+02  0.51081065834E+02  0.85002770690E+03  0.85197225760E+03  0.00000000000E+00 0. -1.
         22    1    3    3    0    0 -0.10757065216E+03 -0.55846458892E+02  0.15867853764E+03  0.19967260825E+03  0.00000000000E+00 0.  1.
         22    1    3    3    0    0 -0.27874335794E+02  0.60846713582E+01  0.24743843314E+03  0.24907785935E+03  0.00000000000E+00 0.  1.
</event>
<event>
 7    1  0.7459264E-005  0.1879464E+03  0.7818608E-02  0.1169375E+00
          2   -1    0    0  502    0  0.00000000000E+00  0.00000000000E+00  0.16738054235E+04  0.16738054235E+04  0.00000000000E+00 0. -1.
          1   -1    0    0  501    0 -0.00000000000E+00 -0.00000000000E+00 -0.16363908004E+03  0.16363908004E+03  0.00000000000E+00 0. -1.
         25    2    1    2    0    0  0.14065564407E+03 -0.38929612907E+02  0.30970266525E+03  0.36446867057E+03  0.12498858348E+03 0.  0.
          2    1    1    2  501    0 -0.78332040074E+02  0.19635179736E+03 -0.44933523155E+02  0.21612255397E+03  0.00000000000E+00 0. -1.
          1    1    1    2  502    0 -0.62323603996E+02 -0.15742218446E+03  0.12453972014E+04  0.12568532790E+04  0.00000000000E+00 0. -1.
         22    1    3    3    0    0  0.81499411562E+02  0.30880607747E+02  0.84525867922E+02  0.12141000110E+03  0.00000000000E+00 0. -1.
         22    1    3    3    0    0  0.59156232507E+02 -0.69810220653E+02  0.22517679732E+03  0.24305866947E+03  0.00000000000E+00 0. -1.
</event>
<event>
 7    1  0.7459264E-005  0.1934054E+03  0.7818608E-02  0.1373716E+00
          2   -1    0    0  502    0  0.00000000000E+00  0.00000000000E+00  0.10901892148E+03  0.10901892148E+03  0.00000000000E+00 0. -1.
          1   -1    0    0  501    0 -0.00000000000E+00 -0.00000000000E+00 -0.15809916682E+04  0.15809916682E+04  0.00000000000E+00 0. -1.
         25    2    1    2    0    0  0.56860627903E+02 -0.19833136458E+03 -0.60977519542E+03  0.65575853912E+03  0.12500004598E+03 0.  0.
          2    1    1    2  501    0  0.11352438976E+02  0.19566721158E+02 -0.84149429466E+03  0.84179830268E+03  0.00000000000E+00 0. -1.
          1    1    1    2  502    0 -0.68213066879E+02  0.17876464342E+03 -0.20703256610E+02  0.19245374786E+03  0.00000000000E+00 0. -1.
         22    1    3    3    0    0  0.37305648107E+02 -0.20564781492E+03 -0.59368157227E+03  0.62939696886E+03  0.00000000000E+00 0.  1.
         22    1    3    3    0    0  0.19554979796E+02  0.73164503368E+01 -0.16093623157E+02  0.26361570262E+02  0.00000000000E+00 0.  1.
</event>
<event>
 7    1  0.7459264E-005  0.1803103E+03  0.7818608E-02  0.1211349E+00
          2   -1    0    0  502    0  0.00000000000E+00  0.00000000000E+00  0.18191857400E+04  0.18191857400E+04  0.00000000000E+00 0. -1.
          1   -1    0    0  501    0 -0.00000000000E+00 -0.00000000000E+00 -0.20259943398E+03  0.20259943398E+03  0.00000000000E+00 0. -1.
         25    2    1    2    0    0  0.82271435038E+01  0.28298802153E+03  0.85494882198E+03  0.90923733508E+03  0.12500054826E+03 0.  0.
          2    1    1    2  501    0  0.15420993086E+02 -0.17452177856E+03 -0.12738792691E+03  0.21661796357E+03  0.00000000000E+00 0. -1.
          1    1    1    2  502    0 -0.23648136590E+02 -0.10846624297E+03  0.88902541094E+03  0.89592987534E+03  0.00000000000E+00 0. -1.
         22    1    3    3    0    0 -0.23672280255E+02  0.66932680780E+01  0.13904388119E+03  0.14120332002E+03  0.00000000000E+00 0.  1.
         22    1    3    3    0    0  0.31899423759E+02  0.27629475346E+03  0.71590494080E+03  0.76803401505E+03  0.00000000000E+00 0.  1.
</event>
<event>
 7    1  0.7459264E-005  0.2849317E+03  0.7818608E-02  0.1111273E+00
          2   -1    0    0  502    0  0.00000000000E+00  0.00000000000E+00  0.32873777693E+03  0.32873777693E+03  0.00000000000E+00 0. -1.
          1   -1    0    0  501    0 -0.00000000000E+00 -0.00000000000E+00 -0.12521351184E+04  0.12521351184E+04  0.00000000000E+00 0. -1.
         25    2    1    2    0    0  0.42561780383E+03 -0.23244694885E+03 -0.55837645247E+02  0.50390978400E+03  0.12500051529E+03 0.  0.
          2    1    1    2  501    0 -0.21245089178E+03  0.16019999713E+03 -0.79829154425E+03  0.84146824665E+03  0.00000000000E+00 0. -1.
          1    1    1    2  502    0 -0.21316691205E+03  0.72246951724E+02 -0.69268152016E+02  0.23549486472E+03  0.00000000000E+00 0. -1.
         22    1    3    3    0    0  0.22236144212E+03 -0.79322301256E+02  0.23741415048E+02  0.23727682822E+03  0.00000000000E+00 0. -1.
         22    1    3    3    0    0  0.20325636170E+03 -0.15312464760E+03 -0.79579060296E+02  0.26663295579E+03  0.00000000000E+00 0. -1.
</event>
<event>
 7    1  0.7459264E-005  0.5424492E+03  0.7818608E-02  0.1210467E+00
          2   -1    0    0  502    0  0.00000000000E+00  0.00000000000E+00  0.22096513404E+04  0.22096513404E+04  0.00000000000E+00 0. -1.
          1   -1    0    0  501    0 -0.00000000000E+00 -0.00000000000E+00 -0.22097265619E+04  0.22097265619E+04  0.00000000000E+00 0. -1.
         25    2    1    2    0    0  0.51335438707E+03  0.15948122572E+03  0.72983854068E+03  0.91501660592E+03  0.12499642228E+03 0.  0.
          2    1    1    2  501    0 -0.52805502940E+03 -0.12525504929E+03 -0.20820974448E+04  0.21516646372E+04  0.00000000000E+00 0. -1.
          1    1    1    2  502    0  0.14700642336E+02 -0.34226176428E+02  0.13521836827E+04  0.13526966591E+04  0.00000000000E+00 0. -1.
         22    1    3    3    0    0  0.26364765122E+03  0.55755215617E+02  0.45931421309E+03  0.53253006902E+03  0.00000000000E+00 0. -1.
         22    1    3    3    0    0  0.24970673584E+03  0.10372601010E+03  0.27052432759E+03  0.38248653691E+03  0.00000000000E+00 0. -1.
</event>
<event>
 7    1  0.7459264E-005  0.9417380E+03  0.7818608E-02  0.1140069E+00
          2   -1    0    0  502    0  0.00000000000E+00  0.00000000000E+00  0.32154863285E+04  0.32154863285E+04  0.00000000000E+00 0. -1.
          1   -1    0    0  501    0 -0.00000000000E+00 -0.00000000000E+00 -0.22101120226E+04  0.22101120226E+04  0.00000000000E+00 0. -1.
         25    2    1    2    0    0  0.81388133237E+03  0.49382396845E+03  0.24854024093E+04  0.26644164377E+04  0.12499952736E+03 0.  0.
          2    1    1    2  501    0 -0.44637483055E+02 -0.16759838670E+02 -0.18003706543E+04  0.18010019128E+04  0.00000000000E+00 0. -1.
          1    1    1    2  502    0 -0.76924384932E+03 -0.47706412978E+03  0.32034255091E+03  0.96018000060E+03  0.00000000000E+00 0. -1.
         22    1    3    3    0    0  0.78760820284E+03  0.45259721015E+03  0.23977202473E+04  0.25640267745E+04  0.00000000000E+00 0.  1.
         22    1    3    3    0    0  0.26273129532E+02  0.41226758296E+02  0.87682162044E+02  0.10038966319E+03  0.00000000000E+00 0.  1.
</event>
<event>
 7    1  0.7459264E-005  0.1864584E+03  0.7818608E-02  0.1324250E+00
          2   -1    0    0  502    0  0.00000000000E+00  0.00000000000E+00  0.21172796524E+03  0.21172796524E+03  0.00000000000E+00 0. -1.
          1   -1    0    0  501    0 -0.00000000000E+00 -0.00000000000E+00 -0.35828567847E+03  0.35828567847E+03  0.00000000000E+00 0. -1.
         25    2    1    2    0    0  0.19913056014E+03 -0.11930249808E+02 -0.16745469663E+03  0.28889621334E+03  0.12499854326E+03 0.  0.
          2    1    1    2  501    0 -0.17105735042E+03  0.34166204970E+02 -0.66488684768E+02  0.18667804342E+03  0.00000000000E+00 0. -1.
          1    1    1    2  502    0 -0.28073209727E+02 -0.22235955162E+02  0.87385668164E+02  0.94439386946E+02  0.00000000000E+00 0. -1.
         22    1    3    3    0    0  0.94788901457E+02  0.44065339316E+02 -0.32748681321E+02  0.10954070520E+03  0.00000000000E+00 0.  1.
         22    1    3    3    0    0  0.10434165868E+03 -0.55995589125E+02 -0.13470601531E+03  0.17935550813E+03  0.00000000000E+00 0.  1.
</event>
<event>
 7    1  0.7459264E-005  0.3276052E+03  0.7818608E-02  0.1126236E+00
          2   -1    0    0  502    0  0.00000000000E+00  0.00000000000E+00  0.29445359761E+03  0.29445359761E+03  0.00000000000E+00 0. -1.
          1   -1    0    0  501    0 -0.00000000000E+00 -0.00000000000E+00 -0.14716936865E+04  0.14716936865E+04  0.00000000000E+00 0. -1.
         25    2    1    2    0    0  0.12253857237E+03  0.39910529153E+03 -0.67042192794E+03  0.79962403734E+03  0.12502921331E+03 0.  0.
          2    1    1    2  501    0 -0.13966245610E+03 -0.82644966065E+02 -0.61157145124E+03  0.63273646334E+03  0.00000000000E+00 0. -1.
          1    1    1    2  502    0  0.17123883729E+02 -0.31646032546E+03  0.10475329028E+03  0.33378678345E+03  0.00000000000E+00 0. -1.
         22    1    3    3    0    0  0.64916727603E+02  0.70856040597E+02 -0.98005654941E+02  0.13725840015E+03  0.00000000000E+00 0. -1.
         22    1    3    3    0    0  0.57621844771E+02  0.32824925093E+03 -0.57241627300E+03  0.66236563719E+03  0.00000000000E+00 0. -1.
</event>
<event>
 7    1  0.7459264E-005  0.9909955E+02  0.7818608E-02  0.1321961E+00
          2   -1    0    0  502    0  0.00000000000E+00  0.00000000000E+00  0.30140720805E+03  0.30140720805E+03  0.00000000000E+00 0. -1.
          1   -1    0    0  501    0 -0.00000000000E+00 -0.00000000000E+00 -0.14225781834E+04  0.14225781834E+04  0.00000000000E+00 0. -1.
         25    2    1    2    0    0 -0.12185619842E+03 -0.93438242973E+02 -0.50315637878E+03  0.54071281347E+03  0.12499746715E+03 0.  0.
          2    1    1    2  501    0  0.28478459529E+02  0.62594059737E+02 -0.89072366031E+03  0.89337432132E+03  0.00000000000E+00 0. -1.
          1    1    1    2  502    0  0.93377738888E+02  0.30844183236E+02  0.27270906375E+03  0.28989825665E+03  0.00000000000E+00 0. -1.
         22    1    3    3    0    0 -0.33899285302E+02 -0.87290633332E+02 -0.36498151169E+03  0.37680276019E+03  0.00000000000E+00 0.  1.
         22    1    3    3    0    0 -0.87956913115E+02 -0.61476096414E+01 -0.13817486709E+03  0.16391005328E+03  0.00000000000E+00 0.  1.
</event>
<event>
 7    1  0.7459264E-005  0.9142423E+03  0.7818608E-02  0.1122483E+00
          2   -1    0    0  502    0  0.00000000000E+00  0.00000000000E+00  0.10214220026E+04  0.10214220026E+04  0.00000000000E+00 0. -1.
          1   -1    0    0  501    0 -0.00000000000E+00 -0.00000000000E+00 -0.26138699843E+04  0.26138699843E+04  0.00000000000E+00 0. -1.
         25    2    1    2    0    0  0.82754375232E+03  0.27780167283E+03 -0.10190740967E+04  0.13476425055E+04  0.12500350618E+03 0.  0.
          2    1    1    2  501    0  0.35520027072E+02  0.49496776966E+02 -0.11809962180E+04  0.11825665606E+04  0.00000000000E+00 0. -1.
          1    1    1    2  502    0 -0.86306377939E+03 -0.32729844980E+03  0.60762233294E+03  0.11050829209E+04  0.00000000000E+00 0. -1.
         22    1    3    3    0    0  0.53392626414E+03  0.22063040804E+03 -0.60171338133E+03  0.83415467736E+03  0.00000000000E+00 0. -1.
         22    1    3    3    0    0  0.29361748818E+03  0.57171264793E+02 -0.41736071539E+03  0.51348782812E+03  0.00000000000E+00 0. -1.
</event>
<event>
 7    1  0.7459264E-005  0.1994877E+03  0.7818608E-02  0.1330725E+00
          2   -1    0    0  502    0  0.00000000000E+00  0.00000000000E+00  0.11495517883E+04  0.11495517883E+04  0.00000000000E+00 0. -1.
          1   -1    0    0  501    0 -0.00000000000E+00 -0.00000000000E+00 -0.13633129620E+04  0.13633129620E+04  0.00000000000E+00 0. -1.
         25    2    1    2    0    0  0.17872293053E+03  0.14270530781E+03  0.21517689813E+03  0.33798073960E+03  0.12499276812E+03 0.  0.
          2    1    1    2  501    0 -0.14932730904E+03 -0.13107389875E+03 -0.12940396749E+04  0.13092049849E+04  0.00000000000E+00 0. -1.
          1    1    1    2  502    0 -0.29395621485E+02 -0.11631409055E+02  0.86510160305E+03  0.86567902587E+03  0.00000000000E+00 0. -1.
         22    1    3    3    0    0  0.15234164319E+03  0.53716745681E+02  0.17084581831E+03  0.23512073208E+03  0.00000000000E+00 0.  1.
         22    1    3    3    0    0  0.26381287335E+02  0.88988562126E+02  0.44331079811E+02  0.10286000752E+03  0.00000000000E+00 0.  1.
</event>
<event>
 7    1  0.7459264E-005  0.1445921E+03  0.7818608E-02  0.1334442E+00
          2   -1    0    0  502    0  0.00000000000E+00  0.00000000000E+00  0.25340573778E+03  0.25340573778E+03  0.00000000000E+00 0. -1.
          1   -1    0    0  501    0 -0.00000000000E+00 -0.00000000000E+00 -0.33910518883E+03  0.33910518883E+03  0.00000000000E+00 0. -1.
         25    2    1    2    0    0 -0.97424773375E+02  0.11780864584E+03  0.16605805767E+03  0.25801360035E+03  0.12500110378E+03 0.  0.
          2    1    1    2  501    0  0.42174687603E+02 -0.19081688212E+01 -0.18505372324E+03  0.18980839251E+03  0.00000000000E+00 0. -1.
          1    1    1    2  502    0  0.55250085773E+02 -0.11590047702E+03 -0.66703785490E+02  0.14468893375E+03  0.00000000000E+00 0. -1.
         22    1    3    3    0    0 -0.81232418720E+01 -0.15582484189E+02 -0.96264517162E+01  0.20036702440E+02  0.00000000000E+00 0. -1.
         22    1    3    3    0    0 -0.89301531503E+02  0.13339113003E+03  0.17568450939E+03  0.23797689791E+03  0.00000000000E+00 0. -1.
</event>
<event>
 7    1  0.7459264E-005  0.1481779E+03  0.7818608E-02  0.1352985E+00
          2   -1    0    0  502    0  0.00000000000E+00  0.00000000000E+00  0.12471283918E+04  0.12471283918E+04  0.00000000000E+00 0. -1.
          1   -1    0    0  501    0 -0.00000000000E+00 -0.00000000000E+00 -0.18774840615E+03  0.18774840615E+03  0.00000000000E+00 0. -1.
         25    2    1    2    0    0  0.17412481863E+03  0.14587755287E+02  0.21659646262E+03  0.30507552195E+03  0.12499916563E+03 0.  0.
          2    1    1    2  501    0 -0.14453120583E+03  0.43138613641E+01 -0.10667913280E+03  0.17968949951E+03  0.00000000000E+00 0. -1.
          1    1    1    2  502    0 -0.29593612800E+02 -0.18901616652E+02  0.94946265578E+03  0.95011177645E+03  0.00000000000E+00 0. -1.
         22    1    3    3    0    0  0.25261677761E+00 -0.17043136400E+01  0.88454849069E+02  0.88471627226E+02  0.00000000000E+00 0.  1.
         22    1    3    3    0    0  0.17387220185E+03  0.16292068927E+02  0.12814161355E+03  0.21660389472E+03  0.00000000000E+00 0.  1.
</event>
<event>
 7    1  0.7459264E-005  0.1459003E+03  0.7818608E-02  0.1217607E+00
          2   -1    0    0  502    0  0.00000000000E+00  0.00000000000E+00  0.49606802077E+03  0.49606802077E+03  0.00000000000E+00 0. -1.
          1   -1    0    0  501    0 -0.00000000000E+00 -0.00000000000E+00 -0.39345265851E+03  0.39345265851E+03  0.00000000000E+00 0. -1.
         25    2    1    2    0    0 -0.44057089924E+02 -0.20426574964E+02  0.34987252866E+03  0.37469193818E+03  0.12499996035E+03 0.  0.
          2    1    1    2  501    0  0.13278153558E+03 -0.72380429186E+02 -0.32936576429E+03  0.36242470860E+03  0.00000000000E+00 0. -1.
          1    1    1    2  502    0 -0.88724445658E+02  0.92807004150E+02  0.82108597893E+02  0.15240403251E+03  0.00000000000E+00 0. -1.
         22    1    3    3    0    0 -0.27122751793E+02  0.25134640251E+02  0.21567627615E+02  0.42808367947E+02  0.00000000000E+00 0.  1.
         22    1    3    3    0    0 -0.16934338131E+02 -0.45561215215E+02  0.32830490104E+03  0.33188357023E+03  0.00000000000E+00 0.  1.
</event>
<event>
 7    1  0.7459264E-005  0.4408868E+03  0.7818608E-02  0.1194013E+00
          2   -1    0    0  502    0  0.00000000000E+00  0.00000000000E+00  0.66004649499E+03  0.66004649499E+03  0.00000000000E+00 0. -1.
          1   -1    0    0  501    0 -0.00000000000E+00 -0.00000000000E+00 -0.98778213167E+03  0.98778213167E+03  0.00000000000E+00 0. -1.
         25    2    1    2    0    0  0.28836285300E+03 -0.37770728406E+03  0.77554740298E+02  0.49744706568E+03  0.12499167168E+03 0.  0.
          2    1    1    2  501    0 -0.40329544508E+02  0.37043223025E+02 -0.65717022022E+03  0.65944777722E+03  0.00000000000E+00 0. -1.
          1    1    1    2  502    0 -0.24803330850E+03  0.34066406104E+03  0.25187984324E+03  0.49093378376E+03  0.00000000000E+00 0. -1.
         22    1    3    3    0    0  0.17212229690E+03 -0.23907636656E+03 -0.13520249510E+02  0.29490064646E+03  0.00000000000E+00 0. -1.
         22    1    3    3    0    0  0.11624055611E+03 -0.13863091750E+03  0.91074989808E+02  0.20254641922E+03  0.00000000000E+00 0. -1.
</event>
<event>
 7    1  0.7459264E-005  0.3337326E+03  0.7818608E-02  0.1187342E+00
          2   -1    0    0  502    0  0.00000000000E+00  0.00000000000E+00  0.47124535486E+03  0.47124535486E+03  0.00000000000E+00 0. -1.
          1   -1    0    0  501    0 -0.00000000000E+00 -0.00000000000E+00 -0.10011127622E+04  0.10011127622E+04  0.00000000000E+00 0. -1.
         25    2    1    2    0    0 -0.32670331940E+03  0.18175422563E+03 -0.54343685687E+03  0.67135538847E+03  0.12499913111E+03 0.  0.
          2    1    1    2  501    0  0.26809010369E+03 -0.13048972401E+03 -0.33231147012E+03  0.44646476338E+03  0.00000000000E+00 0. -1.
          1    1    1    2  502    0  0.58613215713E+02 -0.51264501620E+02  0.34588091966E+03  0.35453796520E+03  0.00000000000E+00 0. -1.
         22    1    3    3    0    0 -0.13406677297E+02  0.29533031279E+02 -0.94058388309E+01  0.33769938359E+02  0.00000000000E+00 0.  1.
         22    1    3    3    0    0 -0.31329664211E+03  0.15222119436E+03 -0.53403101804E+03  0.63758545011E+03  0.00000000000E+00 0.  1.
</event>
<event>
 7    1  0.7459264E-005  0.1612730E+03  0.7818608E-02  0.1188821E+00
          2   -1    0    0  502    0  0.00000000000E+00  0.00000000000E+00  0.86253563780E+03  0.86253563780E+03  0.00000000000E+00 0. -1.
          1   -1    0    0  501    0 -0.00000000000E+00 -0.00000000000E+00 -0.12670911607E+04  0.12670911607E+04  0.00000000000E+00 0. -1.
         25    2    1    2    0    0  0.22168701713E+01  0.13018952383E+03 -0.75704963350E+02  0.19573148618E+03  0.12500138630E+03 0.  0.
          2    1    1    2  501    0 -0.15262184091E+03 -0.71988657675E+02 -0.11168681123E+04  0.11295442326E+04  0.00000000000E+00 0. -1.
          1    1    1    2  502    0  0.15040497073E+03 -0.58200866157E+02  0.78801755273E+03  0.80435107972E+03  0.00000000000E+00 0. -1.
         22    1    3    3    0    0 -0.22738979250E+01  0.10690616849E+03  0.94400382632E+01  0.10734623326E+03  0.00000000000E+00 0.  1.
         22    1    3    3    0    0  0.44907680962E+01  0.23283355345E+02 -0.85145001613E+02  0.88385252921E+02  0.00000000000E+00 0.  1.
</event>
<event>
 7    1  0.7459264E-005  0.4360810E+03  0.7818608E-02  0.1181853E+00
          2   -1    0    0  502    0  0.00000000000E+00  0.00000000000E+00  0.11434943889E+04  0.11434943889E+04  0.00000000000E+00 0. -1.
          1   -1    0    0  501    0 -0.00000000000E+00 -0.00000000000E+00 -0.32397194771E+04  0.32397194771E+04  0.00000000000E+00 0. -1.
         25    2    1    2    0    0 -0.21951441138E+03 -0.41108828656E+03 -0.16429326781E+04  0.17123174130E+04  0.12499192651E+03 0.  0.
          2    1    1    2  501    0  0.22287823695E+03  0.34782337539E+03 -0.15338383346E+04  0.15884948365E+04  0.00000000000E+00 0. -1.
          1    1    1    2  502    0 -0.33638255680E+01  0.63264911166E+02  0.10805459245E+04  0.10824016164E+04  0.00000000000E+00 0. -1.
         22    1    3    3    0    0 -0.88538896383E+02 -0.21450210168E+03 -0.60828008404E+03  0.65104143374E+03  0.00000000000E+00 0. -1.
         22    1    3    3    0    0 -0.13097551500E+03 -0.19658618487E+03 -0.10346525941E+04  0.10612759792E+04  0.00000000000E+00 0. -1.
</event>
<event>
 7    1  0.7459264E-005  0.7231892E+02  0.7818608E-02  0.1379018E+00
          2   -1    0    0  502    0  0.00000000000E+00  0.00000000000E+00  0.19784889941E+04  0.19784889941E+04  0.00000000000E+00 0. -1.
          1   -1    0    0  501    0 -0.00000000000E+00 -0.00000000000E+00 -0.64131136779E+02  0.64131136779E+02  0.00000000000E+00 0. -1.
         25    2    1    2    0    0  0.41728761817E+02  0.12193774645E+03  0.22410006087E+03  0.28715165229E+03  0.12500052224E+03 0.  0.
          2    1    1    2  501    0 -0.20087355873E+02 -0.54329784218E+02 -0.55371639989E+01  0.58188379461E+02  0.00000000000E+00 0. -1.
          1    1    1    2  502    0 -0.21641405943E+02 -0.67607962228E+02  0.16957949605E+04  0.16972800992E+04  0.00000000000E+00 0. -1.
         22    1    3    3    0    0 -0.15118019549E+02  0.38978581858E+02  0.31604483389E+00  0.41808901481E+02  0.00000000000E+00 0.  1.
         22    1    3    3    0    0  0.56846781366E+02  0.82959164588E+02  0.22378401604E+03  0.24534275081E+03  0.00000000000E+00 0.  1.
</event>
<event>
 7    1  0.7459264E-005  0.3027179E+03  0.7818608E-02  0.1155777E+00
          2   -1    0    0  502    0  0.00000000000E+00  0.00000000000E+00  0.11755746537E+04  0.11755746537E+04  0.00000000000E+00 0. -1.
          1   -1    0    0  501    0 -0.00000000000E+00 -0.00000000000E+00 -0.37825960857E+03  0.37825960857E+03  0.00000000000E+00 0. -1.
         25    2    1    2    0    0  0.15375958499E+03  0.18340539584E+03  0.22815689755E+03  0.35349772095E+03  0.12500207846E+03 0.  0.
          2    1    1    2  501    0 -0.82016611351E+01  0.12278317845E+03 -0.26921656919E+03  0.29600766423E+03  0.00000000000E+00 0. -1.
          1    1    1    2  502    0 -0.14555792385E+03 -0.30618857429E+03  0.83837471675E+03  0.90432887707E+03  0.00000000000E+00 0. -1.
         22    1    3    3    0    0  0.94581316941E+02  0.30239650837E+02  0.12476817992E+03  0.15945896249E+03  0.00000000000E+00 0. -1.
         22    1    3    3    0    0  0.59178268047E+02  0.15316574501E+03  0.10338871763E+03  0.19403875846E+03  0.00000000000E+00 0. -1.
</event>
<event>
 7    1  0.7459264E-005  0.5516694E+03  0.7818608E-02  0.1081592E+00
          2   -1    0    0  502    0  0.00000000000E+00  0.00000000000E+00  0.17323767459E+04  0.17323767459E+04  0.00000000000E+00 0. -1.
          1   -1    0    0  501    0 -0.00000000000E+00 -0.00000000000E+00 -0.36306007507E+04  0.36306007507E+04  0.00000000000E+00 0. -1.
         25    2    1    2    0    0  0.49090642441E+03  0.17787158336E+03 -0.95324224015E+03  0.10940401221E+04  0.12500241048E+03 0.  0.
          2    1    1    2  501    0 -0.57171664073E+03 -0.26825053309E+02 -0.25709919031E+04  0.26339284096E+04  0.00000000000E+00 0. -1.
          1    1    1    2  502    0  0.80810216317E+02 -0.15104653005E+03  0.16260101384E+04  0.16350089649E+04  0.00000000000E+00 0. -1.
         22    1    3    3    0    0  0.12121462614E+03  0.45317197271E+02 -0.36023044264E+03  0.38276965105E+03  0.00000000000E+00 0.  1.
         22    1    3    3    0    0  0.36969179827E+03  0.13255438608E+03 -0.59301179751E+03  0.71127047103E+03  0.00000000000E+00 0.  1.
</event>
<event>
 7    1  0.7459264E-005  0.6628478E+02  0.7818608E-02  0.1404966E+00
          2   -1    0    0  502    0  0.00000000000E+00  0.00000000000E+00  0.17588069925E+04  0.17588069925E+04  0.00000000000E+00 0. -1.
          1   -1    0    0  501    0 -0.00000000000E+00 -0.00000000000E+00 -0.52232175960E+02  0.52232175960E+02  0.00000000000E+00 0. -1.
         25    2    1    2    0    0  0.10029727350E+03  0.45526945583E+02  0.29334985826E+03  0.33733919459E+03  0.12494537615E+03 0.  0.
          2    1    1    2  501    0 -0.35958026312E+02 -0.36636523234E+02 -0.71595718665E+01  0.51831206432E+02  0.00000000000E+00 0. -1.
          1    1    1    2  502    0 -0.64339247183E+02 -0.88904223491E+01  0.14203845301E+04  0.14218687674E+04  0.00000000000E+00 0. -1.
         22    1    3    3    0    0 -0.93185199905E+01  0.25821830192E+02  0.45732174124E+01  0.27830128401E+02  0.00000000000E+00 0.  1.
         22    1    3    3    0    0  0.10961579349E+03  0.19705115390E+02  0.28877664085E+03  0.30950906619E+03  0.00000000000E+00 0.  1.
</event>
<event>
 7    1  0.1101455E-004  0.3371427E+03  0.7818608E-02  0.1222263E+00
          2   -1    0    0  502    0  0.00000000000E+00  0.00000000000E+00  0.23290698189E+04  0.23290698189E+04  0.00000000000E+00 0. -1.
          1   -1    0    0  501    0 -0.00000000000E+00 -0.00000000000E+00 -0.76450063199E+03  0.76450063199E+03  0.00000000000E+00 0. -1.
         25    2    1    2    0    0  0.27226229748E+03  0.16959897224E+03 -0.42245487518E+03  0.54496170762E+03  0.12499828474E+03 0.  0.
          2    1    1    2  501    0 -0.30292107051E+03 -0.21272358872E+03 -0.15833687043E+03  0.40259541067E+03  0.00000000000E+00 0. -1.
          1    1    1    2  502    0  0.30658773025E+02  0.43124616483E+02  0.21453609325E+04  0.21460133326E+04  0.00000000000E+00 0. -1.
         22    1    3    3    0    0  0.13425325533E+03  0.15544442608E+03 -0.24468968183E+03  0.31946822465E+03  0.00000000000E+00 0. -1.
         22    1    3    3    0    0  0.13800904216E+03  0.14154546160E+02 -0.17776519335E+03  0.22549348297E+03  0.00000000000E+00 0. -1.
</event>
<event>
 7    1  0.7459264E-005  0.7677394E+02  0.7818608E-02  0.1349252E+00
          2   -1    0    0  502    0  0.00000000000E+00  0.00000000000E+00  0.61532492108E+03  0.61532492108E+03  0.00000000000E+00 0. -1.
          1   -1    0    0  501    0 -0.00000000000E+00 -0.00000000000E+00 -0.35374817812E+03  0.35374817812E+03  0.00000000000E+00 0. -1.
         25    2    1    2    0    0 -0.12516034735E+03  0.41346989848E+02 -0.20334239457E+03  0.27266890629E+03  0.12500206762E+03 0.  0.
          2    1    1    2  501    0  0.69170463531E+02  0.10500153469E+02 -0.10237667402E+03  0.12399915173E+03  0.00000000000E+00 0. -1.
          1    1    1    2  502    0  0.55989883819E+02 -0.51847143318E+02  0.56729581155E+03  0.57240504118E+03  0.00000000000E+00 0. -1.
         22    1    3    3    0    0 -0.11755235585E+03  0.23362570755E+02 -0.71858084708E+02  0.13974244314E+03  0.00000000000E+00 0. -1.
         22    1    3    3    0    0 -0.76079915039E+01  0.17984419093E+02 -0.13148430986E+03  0.13292646315E+03  0.00000000000E+00 0. -1.
</event>
<event>
 7    1  0.7459264E-005  0.9520489E+02  0.7818608E-02  0.1383137E+00
          2   -1    0    0  502    0  0.00000000000E+00  0.00000000000E+00  0.14743178556E+03  0.14743178556E+03  0.00000000000E+00 0. -1.
          1   -1    0    0  501    0 -0.00000000000E+00 -0.00000000000E+00 -0.32673459646E+04  0.32673459646E+04  0.00000000000E+00 0. -1.
         25    2    1    2    0    0 -0.14113187398E+02 -0.12728872442E+03 -0.49530913133E+02  0.18569249088E+03  0.12500715335E+03 0.  0.
          2    1    1    2  501    0  0.17394295896E+02  0.38830884033E+02 -0.31248579115E+04  0.31251475751E+04  0.00000000000E+00 0. -1.
          1    1    1    2  502    0 -0.32811084977E+01  0.88457840388E+02  0.54474645532E+02  0.10393768424E+03  0.00000000000E+00 0. -1.
         22    1    3    3    0    0 -0.10095155766E+02  0.13965383830E+02  0.21483769222E+02  0.27540814356E+02  0.00000000000E+00 0.  1.
         22    1    3    3    0    0 -0.40180316320E+01 -0.14125410825E+03 -0.71014682355E+02  0.15815167652E+03  0.00000000000E+00 0.  1.
</event>
<event>
 7    1  0.7459264E-005  0.1808360E+03  0.7818608E-02  0.1323609E+00
          2   -1    0    0  502    0  0.00000000000E+00  0.00000000000E+00  0.34413363179E+04  0.34413363179E+04  0.00000000000E+00 0. -1.
          1   -1    0    0  501    0 -0.00000000000E+00 -0.00000000000E+00 -0.12719295767E+03  0.12719295767E+03  0.00000000000E+00 0. -1.
         25    2    1    2    0    0  0.81208005215E+01  0.19212982248E+03  0.28420849742E+04  0.28513262649E+04  0.12503860304E+03 0.  0.
          2    1    1    2  501    0  0.30670182652E+01 -0.37010081199E+02 -0.10928165316E+03  0.11541937631E+03  0.00000000000E+00 0. -1.
          1    1    1    2  502    0 -0.11187818787E+02 -0.15511974128E+03  0.58134003918E+03  0.60178363436E+03  0.00000000000E+00 0. -1.
         22    1    3    3    0    0 -0.92012739020E+01  0.92845470150E+02  0.62237640445E+03  0.62933086178E+03  0.00000000000E+00 0. -1.
         22    1    3    3    0    0  0.17322074424E+02  0.99284352329E+02  0.22197085698E+04  0.22219954032E+04  0.00000000000E+00 0. -1.
</event>
<event>
 7    1  0.1091766E-004  0.1676882E+03  0.7818608E-02  0.1217227E+00
          2   -1    0    0  502    0  0.00000000000E+00  0.00000000000E+00  0.12193562116E+04  0.12193562116E+04  0.00000000000E+00 0. -1.
          1   -1    0    0  501    0 -0.00000000000E+00 -0.00000000000E+00 -0.12778808000E+04  0.12778808000E+04  0.00000000000E+00 0. -1.
         25    2    1    2    0    0  0.15933875309E+03 -0.54319032313E+02 -0.37096181726E+03  0.42611915843E+03  0.12500188724E+03 0.  0.
          2    1    1    2  501    0 -0.96814664382E+02  0.14743584699E+03 -0.86780996649E+03  0.88555324298E+03  0.00000000000E+00 0. -1.
          1    1    1    2  502    0 -0.62524088711E+02 -0.93116814676E+02  0.11802471954E+04  0.11855646102E+04  0.00000000000E+00 0. -1.
         22    1    3    3    0    0  0.69763549755E+01 -0.11907599510E+02  0.76663993465E+01  0.15787150907E+02  0.00000000000E+00 0. -1.
         22    1    3    3    0    0  0.15236239812E+03 -0.42411432804E+02 -0.37862821660E+03  0.41033200753E+03  0.00000000000E+00 0. -1.
</event>
<event>
 7    1  0.7459264E-005  0.3976724E+03  0.7818608E-02  0.1153114E+00
          2   -1    0    0  502    0  0.00000000000E+00  0.00000000000E+00  0.75015506199E+03  0.75015506199E+03  0.00000000000E+00 0. -1.
          1   -1    0    0  501    0 -0.00000000000E+00 -0.00000000000E+00 -0.49355346409E+03  0.49355346409E+03  0.00000000000E+00 0. -1.
         25    2    1    2    0    0  0.47595518885E+03  0.38477900561E+02 -0.19689352893E+03  0.53141879934E+03  0.12499995172E+03 0.  0.
          2    1    1    2  501    0 -0.93157622229E+02 -0.25757797306E+02 -0.24562802246E+02  0.99725312512E+02  0.00000000000E+00 0. -1.
          1    1    1    2  502    0 -0.38279756662E+03 -0.12720103255E+02  0.47805792907E+03  0.61256441423E+03  0.00000000000E+00 0. -1.
         22    1    3    3    0    0  0.45504416220E+03  0.17015758844E+02 -0.15730200764E+03  0.48176617483E+03  0.00000000000E+00 0.  1.
         22    1    3    3    0    0  0.20911026649E+02  0.21462141717E+02 -0.39591521285E+02  0.49652624505E+02  0.00000000000E+00 0.  1.
</event>
<event>
 7    1  0.7459264E-005  0.2820736E+03  0.7818608E-02  0.1279832E+00
          2   -1    0    0  502    0  0.00000000000E+00  0.00000000000E+00  0.16767794117E+04  0.16767794117E+04  0.00000000000E+00 0. -1.
          1   -1    0    0  501    0 -0.00000000000E+00 -0.00000000000E+00 -0.20770497785E+04  0.20770497785E+04  0.00000000000E+00 0. -1.
         25    2    1    2    0    0  0.30597559866E+03  0.54169159943E+02 -0.36006970503E+02  0.33686410332E+03  0.12500222923E+03 0.  0.
          2    1    1    2  501    0 -0.27230644035E+03 -0.65760464025E+02 -0.18800270422E+04  0.19007832374E+04  0.00000000000E+00 0. -1.
          1    1    1    2  502    0 -0.33669158307E+02  0.11591304082E+02  0.15157636459E+04  0.15161818496E+04  0.00000000000E+00 0. -1.
         22    1    3    3    0    0  0.18874201233E+03 -0.23327268803E+01 -0.71705679003E+02  0.20191754068E+03  0.00000000000E+00 0. -1.
         22    1    3    3    0    0  0.11723358633E+03  0.56501886823E+02  0.35698708500E+02  0.13494656263E+03  0.00000000000E+00 0. -1.
</event>
<event>
 7    1  0.7459264E-005  0.3700113E+03  0.7818608E-02  0.1147221E+00
          2   -1    0    0  502    0  0.00000000000E+00  0.00000000000E+00  0.41111021150E+03  0.41111021150E+03  0.00000000000E+00 0. -1.
          1   -1    0    0  501    0 -0.00000000000E+00 -0.00000000000E+00 -0.19234704447E+04  0.19234704447E+04  0.00000000000E+00 0. -1.
         25    2    1    2    0    0  0.24731461972E+03  0.40026496445E+03 -0.11849176560E+04  0.12810272504E+04  0.12499760679E+03 0.  0.
          2    1    1    2  501    0 -0.77756703716E+02 -0.79755175159E+02 -0.59347136432E+03  0.60383379601E+03  0.00000000000E+00 0. -1.
          1    1    1    2  502    0 -0.16955791601E+03 -0.32050978930E+03  0.26602878712E+03  0.44971960986E+03  0.00000000000E+00 0. -1.
         22    1    3    3    0    0  0.48048430454E+02  0.10633953107E+03 -0.17357087041E+03  0.20914969422E+03  0.00000000000E+00 0.  1.
         22    1    3    3    0    0  0.19926618927E+03  0.29392543338E+03 -0.10113467856E+04  0.10718775562E+04  0.00000000000E+00 0.  1.
</event>
<event>
 7    1  0.7459264E-005  0.2432328E+03  0.7818608E-02  0.1350570E+00
          2   -1    0    0  502    0  0.00000000000E+00  0.00000000000E+00  0.15537984706E+04  0.15537984706E+04  0.00000000000E+00 0. -1.
          1   -1    0    0  501    0 -0.00000000000E+00 -0.00000000000E+00 -0.16716493507E+03  0.16716493507E+03  0.00000000000E+00 0. -1.
         25    2    1    2    0    0 -0.11364524913E+03 -0.22917995211E+03  0.37941346832E+02  0.28723318392E+03  0.12499865218E+03 0.  0.
          2    1    1    2  501    0 -0.85924692642E+01  0.20074388524E+02 -0.28217068113E+02  0.35679329248E+02  0.00000000000E+00 0. -1.
          1    1    1    2  502    0  0.12223771840E+03  0.20910556359E+03  0.13769092568E+04  0.13980508925E+04  0.00000000000E+00 0. -1.
         22    1    3    3    0    0 -0.43465517721E+02 -0.25062364294E+02 -0.32971739784E+02  0.60037562901E+02  0.00000000000E+00 0.  1.
         22    1    3    3    0    0 -0.70179731412E+02 -0.20411758782E+03  0.70913086615E+02  0.22719562102E+03  0.00000000000E+00 0.  1.
</event>
<event>
 7    1  0.7459264E-005  0.4509541E+03  0.7818608E-02  0.1099819E+00
          2   -1    0    0  502    0  0.00000000000E+00  0.00000000000E+00  0.13268396947E+04  0.13268396947E+04  0.00000000000E+00 0. -1.
          1   -1    0    0  501    0 -0.00000000000E+00 -0.00000000000E+00 -0.13425428497E+04  0.13425428497E+04  0.00000000000E+00 0. -1.
         25    2    1    2    0    0  0.44280053354E+03 -0.34853569590E+03  0.26773117660E+03  0.63628166858E+03  0.12499974013E+03 0.  0.
          2    1    1    2  501    0 -0.72094032778E+02  0.14813489178E+03 -0.11010330659E+04  0.11132903071E+04  0.00000000000E+00 0. -1.
          1    1    1    2  502    0 -0.37070650076E+03  0.20040080412E+03  0.81759873433E+03  0.91981056875E+03  0.00000000000E+00 0. -1.
         22    1    3    3    0    0  0.19074090044E+03 -0.22512085233E+03  0.16010663603E+03  0.33570168923E+03  0.00000000000E+00 0. -1.
         22    1    3    3    0    0  0.25205963310E+03 -0.12341484357E+03  0.10762454057E+03  0.30057997935E+03  0.00000000000E+00 0. -1.
</event>
<event>
 7    1  0.7459264E-005  0.5442452E+03  0.7818608E-02  0.1100568E+00
          2   -1    0    0  502    0  0.00000000000E+00  0.00000000000E+00  0.11778404194E+04  0.11778404194E+04  0.00000000000E+00 0. -1.
          1   -1    0    0  501    0 -0.00000000000E+00 -0.00000000000E+00 -0.30441108898E+04  0.30441108898E+04  0.00000000000E+00 0. -1.
         25    2    1    2    0    0  0.36604066132E+02 -0.59453492159E+03 -0.20008926359E+04  0.20914126622E+04  0.12499580992E+03 0.  0.
          2    1    1    2  501    0  0.34505138833E+02  0.47956059690E+03 -0.93554750995E+03  0.10518641139E+04  0.00000000000E+00 0. -1.
          1    1    1    2  502    0 -0.71109204965E+02  0.11497432470E+03  0.10701696754E+04  0.10786745332E+04  0.00000000000E+00 0. -1.
         22    1    3    3    0    0  0.69005105886E+01  0.24070223289E+01 -0.80464451004E+01  0.10869962356E+02  0.00000000000E+00 0. -1.
         22    1    3    3    0    0  0.29703555544E+02 -0.59694194392E+03 -0.19928461908E+04  0.20805426998E+04  0.00000000000E+00 0. -1.
</event>
<event>
 7    1  0.7459264E-005  0.4180658E+03  0.7818608E-02  0.1144703E+00
          2   -1    0    0  502    0  0.00000000000E+00  0.00000000000E+00  0.12767956096E+04  0.12767956096E+04  0.00000000000E+00 0. -1.
          1   -1    0    0  501    0 -0.00000000000E+00 -0.00000000000E+00 -0.42560762544E+03  0.42560762544E+03  0.00000000000E+00 0. -1.
         25    2    1    2    0    0 -0.44694485502E+03  0.16378239582E+03  0.86233655832E+02  0.49964551677E+03  0.12500008967E+03 0.  0.
          2    1    1    2  501    0  0.34553128009E+03 -0.16978066609E+03 -0.43957553163E+02  0.38749142775E+03  0.00000000000E+00 0. -1.
          1    1    1    2  502    0  0.10141357493E+03  0.59982702686E+01  0.80891188151E+03  0.81526629053E+03  0.00000000000E+00 0. -1.
         22    1    3    3    0    0 -0.76448252054E+02  0.46144920670E+02  0.64801908286E+02  0.11033121165E+03  0.00000000000E+00 0.  1.
         22    1    3    3    0    0 -0.37049660297E+03  0.11763747515E+03  0.21431747546E+02  0.38931430513E+03  0.00000000000E+00 0.  1.
</event>
<event>
 7    1  0.7459264E-005  0.3774469E+02  0.7818608E-02  0.1538708E+00
          2   -1    0    0  502    0  0.00000000000E+00  0.00000000000E+00  0.85257154642E+03  0.85257154642E+03  0.00000000000E+00 0. -1.
          1   -1    0    0  501    0 -0.00000000000E+00 -0.00000000000E+00 -0.61252076688E+02  0.61252076688E+02  0.00000000000E+00 0. -1.
         25    2    1    2    0    0 -0.12951493869E+02  0.25408722410E+02  0.25174235295E+03  0.28251297153E+03  0.12500408972E+03 0.  0.
          2    1    1    2  501    0  0.38404506957E+02 -0.19675532728E+01 -0.37195909200E+02  0.53500589546E+02  0.00000000000E+00 0. -1.
          1    1    1    2  502    0 -0.25453013089E+02 -0.23441169138E+02  0.57677302598E+03  0.57781006203E+03  0.00000000000E+00 0. -1.
         22    1    3    3    0    0  0.44831718474E+02  0.45132461334E+02  0.95334144297E+02  0.11460986483E+03  0.00000000000E+00 0. -1.
         22    1    3    3    0    0 -0.57783212342E+02 -0.19723738923E+02  0.15640820866E+03  0.16790310670E+03  0.00000000000E+00 0. -1.
</event>
<event>
 7    1  0.7459264E-005  0.4126882E+02  0.7818608E-02  0.1552348E+00
          2   -1    0    0  502    0  0.00000000000E+00  0.00000000000E+00  0.17021224707E+04  0.17021224707E+04  0.00000000000E+00 0. -1.
          1   -1    0    0  501    0 -0.00000000000E+00 -0.00000000000E+00 -0.18955290221E+03  0.18955290221E+03  0.00000000000E+00 0. -1.
         25    2    1    2    0    0 -0.30665242718E+01  0.43110087716E+02  0.55554627735E+03  0.57108186944E+03  0.12503980203E+03 0.  0.
          2    1    1    2  501    0 -0.24248713541E+02 -0.33435230003E+02 -0.17925193637E+03  0.18394882823E+03  0.00000000000E+00 0. -1.
          1    1    1    2  502    0  0.27315237813E+02 -0.96748577134E+01  0.11362752275E+04  0.11366446752E+04  0.00000000000E+00 0. -1.
         22    1    3    3    0    0  0.17154500357E+02 -0.26286650646E+01  0.47132425375E+01  0.17983365028E+02  0.00000000000E+00 0. -1.
         22    1    3    3    0    0 -0.20221024628E+02  0.45738752781E+02  0.55083303481E+03  0.55309850441E+03  0.00000000000E+00 0. -1.
</event>
<event>
 7    1  0.7459264E-005  0.1649973E+03  0.7818608E-02  0.1227762E+00
          2   -1    0    0  502    0  0.00000000000E+00  0.00000000000E+00  0.40126153177E+03  0.40126153177E+03  0.00000000000E+00 0. -1.
          1   -1    0    0  501    0 -0.00000000000E+00 -0.00000000000E+00 -0.26981299500E+04  0.26981299500E+04  0.00000000000E+00 0. -1.
         25    2    1    2    0    0  0.16875732134E+03  0.18252056620E+03 -0.33031021216E+03  0.43188345073E+03  0.12500275264E+03 0.  0.
          2    1    1    2  501    0 -0.13601260809E+03 -0.85812187076E+02 -0.23067374922E+04  0.23123367011E+04  0.00000000000E+00 0. -1.
          1    1    1    2  502    0 -0.32744713252E+02 -0.96708379126E+02  0.34017928620E+03  0.35517132993E+03  0.00000000000E+00 0. -1.
         22    1    3    3    0    0  0.14796527914E+02  0.92835064097E+01  0.10015436624E+02  0.20135284958E+02  0.00000000000E+00 0. -1.
         22    1    3    3    0    0  0.15396079343E+03  0.17323705979E+03 -0.34032564878E+03  0.41174816577E+03  0.00000000000E+00 0. -1.
</event>
<event>
 7    1  0.7459264E-005  0.3338096E+03  0.7818608E-02  0.1158740E+00
          2   -1    0    0  502    0  0.00000000000E+00  0.00000000000E+00  0.19577015538E+04  0.19577015538E+04  0.00000000000E+00 0. -1.
          1   -1    0    0  501    0 -0.00000000000E+00 -0.00000000000E+00 -0.16785390958E+04  0.16785390958E+04  0.00000000000E+00 0. -1.
         25    2    1    2    0    0  0.22754013447E+03  0.34846843228E+03 -0.50780524835E+03  0.66835285181E+03  0.12499841273E+03 0.  0.
          2    1    1    2  501    0  0.10260669347E+01 -0.10778970300E+03 -0.10730684236E+04  0.10784690606E+04  0.00000000000E+00 0. -1.
          1    1    1    2  502    0 -0.22856620141E+03 -0.24067872928E+03  0.18600361301E+04  0.18894187372E+04  0.00000000000E+00 0. -1.
         22    1    3    3    0    0  0.24316548326E+03  0.33142494568E+03 -0.48652113230E+03  0.63692602321E+03  0.00000000000E+00 0.  1.
         22    1    3    3    0    0 -0.15625348785E+02  0.17043486595E+02 -0.21284116052E+02  0.31426828604E+02  0.00000000000E+00 0.  1.
</event>
<event>
 7    1  0.7459264E-005  0.3237070E+03  0.7818608E-02  0.1211598E+00
          2   -1    0    0  502    0  0.00000000000E+00  0.00000000000E+00  0.30797941628E+04  0.30797941628E+04  0.00000000000E+00 0. -1.
          1   -1    0    0  501    0 -0.00000000000E+00 -0.00000000000E+00 -0.90604933033E+03  0.90604933033E+03  0.00000000000E+00 0. -1.
         25    2    1    2    0    0  0.28202952055E+03 -0.85438555661E+02  0.48023672061E+03  0.57714235806E+03  0.12500238553E+03 0.  0.
          2    1    1    2  501    0  0.15236581976E+02 -0.59761325330E+02 -0.84574319215E+03  0.84798886579E+03  0.00000000000E+00 0. -1.
          1    1    1    2  502    0 -0.29726610253E+03  0.14519988099E+03  0.25392513040E+04  0.25607122693E+04  0.00000000000E+00 0. -1.
         22    1    3    3    0    0  0.27129057101E+03 -0.10874313624E+03  0.42019263572E+03  0.51184518627E+03  0.00000000000E+00 0.  1.
         22    1    3    3    0    0  0.10738949543E+02  0.23304580577E+02  0.60044084891E+02  0.65297171788E+02  0.00000000000E+00 0.  1.
</event>
<event>
 7    1  0.7459264E-005  0.2795868E+03  0.7818608E-02  0.1170765E+00
          2   -1    0    0  502    0  0.00000000000E+00  0.00000000000E+00  0.20434612352E+04  0.20434612352E+04  0.00000000000E+00 0. -1.
          1   -1    0    0  501    0 -0.00000000000E+00 -0.00000000000E+00 -0.52399278073E+03  0.52399278073E+03  0.00000000000E+00 0. -1.
         25    2    1    2    0    0  0.24715757614E+02 -0.32393122532E+03  0.39841690783E+02  0.35036353549E+03  0.12499975705E+03 0.  0.
          2    1    1    2  501    0 -0.10802643003E+03  0.24904553491E+03 -0.31678561625E+03  0.41718882381E+03  0.00000000000E+00 0. -1.
          1    1    1    2  502    0  0.83310672418E+02  0.74885690406E+02  0.17964123800E+04  0.17999016567E+04  0.00000000000E+00 0. -1.
         22    1    3    3    0    0  0.50318708098E+02 -0.26413569045E+03  0.71200049984E+02  0.27815298393E+03  0.00000000000E+00 0. -1.
         22    1    3    3    0    0 -0.25602950485E+02 -0.59795534872E+02 -0.31358359201E+02  0.72210551555E+02  0.00000000000E+00 0. -1.
</event>
<event>
 7    1  0.7459264E-005  0.1586537E+04  0.7818608E-02  0.1111626E+00
          2   -1    0    0  502    0  0.00000000000E+00  0.00000000000E+00  0.32206107956E+04  0.32206107956E+04  0.00000000000E+00 0. -1.
          1   -1    0    0  501    0 -0.00000000000E+00 -0.00000000000E+00 -0.22411330859E+04  0.22411330859E+04  0.00000000000E+00 0. -1.
         25    2    1    2    0    0  0.95242860030E+03  0.12624207793E+04  0.20489909873E+03  0.15995109745E+04  0.12500101699E+03 0.  0.
          2    1    1    2  501    0  0.35751445850E+02 -0.18472192466E+02 -0.12713115469E+04  0.12719482839E+04  0.00000000000E+00 0. -1.
          1    1    1    2  502    0 -0.98818004615E+03 -0.12439485868E+04  0.20458901578E+04  0.25902846230E+04  0.00000000000E+00 0. -1.
         22    1    3    3    0    0  0.57635904106E+03  0.82916597339E+03  0.17641211052E+03  0.10250986237E+04  0.00000000000E+00 0. -1.
         22    1    3    3    0    0  0.37606955924E+03  0.43325480590E+03  0.28486988207E+02  0.57441235077E+03  0.00000000000E+00 0. -1.
</event>
<event>
 7    1  0.7459264E-005  0.9760678E+03  0.7818608E-02  0.1200575E+00
          2   -1    0    0  502    0  0.00000000000E+00  0.00000000000E+00  0.15006643998E+04  0.15006643998E+04  0.00000000000E+00 0. -1.
          1   -1    0    0  501    0 -0.00000000000E+00 -0.00000000000E+00 -0.14187714817E+04  0.14187714817E+04  0.00000000000E+00 0. -1.
         25    2    1    2    0    0 -0.44140351268E+03 -0.88622765539E+03 -0.10878538102E+03  0.10038416668E+04  0.12500925810E+03 0.  0.
          2    1    1    2  501    0  0.42699313253E+03  0.86826797109E+03 -0.59085588008E+03  0.11337208986E+04  0.00000000000E+00 0. -1.
          1    1    1    2  502    0  0.14410380158E+02  0.17959684302E+02  0.78153417922E+03  0.78187331621E+03  0.00000000000E+00 0. -1.
         22    1    3    3    0    0 -0.43916469347E+03 -0.80890177512E+03 -0.10489197202E+03  0.92638546814E+03  0.00000000000E+00 0. -1.
         22    1    3    3    0    0 -0.22388192089E+01 -0.77325880269E+02 -0.38934089998E+01  0.77456198618E+02  0.00000000000E+00 0. -1.
</event>
<event>
 7    1  0.7459264E-005  0.5264909E+02  0.7818608E-02  0.1472701E+00
          2   -1    0    0  502    0  0.00000000000E+00  0.00000000000E+00  0.93543711547E+03  0.93543711547E+03  0.00000000000E+00 0. -1.
          1   -1    0    0  501    0 -0.00000000000E+00 -0.00000000000E+00 -0.31012644850E+02  0.31012644850E+02  0.00000000000E+00 0. -1.
         25    2    1    2    0    0 -0.85532285558E+00  0.52262844022E+02  0.25062816518E+03  0.28491006527E+03  0.12500852637E+03 0.  0.
          2    1    1    2  501    0 -0.36390709497E+02 -0.13786347498E+02  0.16949964803E+02  0.42445829263E+02  0.00000000000E+00 0. -1.
          1    1    1    2  502    0  0.37246032353E+02 -0.38476496524E+02  0.63684634063E+03  0.63909386578E+03  0.00000000000E+00 0. -1.
         22    1    3    3    0    0  0.36898113907E+02 -0.96718747702E+01  0.17882029135E+03  0.18284340997E+03  0.00000000000E+00 0. -1.
         22    1    3    3    0    0 -0.37753436762E+02  0.61934718792E+02  0.71807873834E+02  0.10206665530E+03  0.00000000000E+00 0. -1.
</event>
<event>
 7    1  0.7459264E-005  0.3072745E+03  0.7818608E-02  0.1171504E+00
          2   -1    0    0  502    0  0.00000000000E+00  0.00000000000E+00  0.13692211662E+04  0.13692211662E+04  0.00000000000E+00 0. -1.
          1   -1    0    0  501    0 -0.00000000000E+00 -0.00000000000E+00 -0.64989336972E+03  0.64989336972E+03  0.00000000000E+00 0. -1.
         25    2    1    2    0    0  0.36127734698E+03 -0.38280312872E+02  0.62235004782E+02  0.38920998059E+03  0.12499803748E+03 0.  0.
          2    1    1    2  501    0 -0.28055071834E+03  0.99095404284E+02 -0.43835946081E+03  0.52979960513E+03  0.00000000000E+00 0. -1.
          1    1    1    2  502    0 -0.80726628642E+02 -0.60815091411E+02  0.10954522525E+04  0.11001049502E+04  0.00000000000E+00 0. -1.
         22    1    3    3    0    0  0.14419955727E+03 -0.63582535512E+02 -0.12864227739E+02  0.15811938368E+03  0.00000000000E+00 0.  1.
         22    1    3    3    0    0  0.21707778971E+03  0.25302222639E+02  0.75099232521E+02  0.23109059691E+03  0.00000000000E+00 0.  1.
</event>
<event>
 7    1  0.7459264E-005  0.4247905E+02  0.7818608E-02  0.1497338E+00
          2   -1    0    0  502    0  0.00000000000E+00  0.00000000000E+00  0.32228584938E+04  0.32228584938E+04  0.00000000000E+00 0. -1.
          1   -1    0    0  501    0 -0.00000000000E+00 -0.00000000000E+00 -0.47120253382E+01  0.47120253382E+01  0.00000000000E+00 0. -1.
         25    2    1    2    0    0  0.30154807401E+02  0.21989588139E+02  0.20626452472E+04  0.20667663076E+04  0.12499880018E+03 0.  0.
          2    1    1    2  501    0 -0.41546231627E+02  0.16954582879E+02  0.22566648522E+03  0.23008457097E+03  0.00000000000E+00 0. -1.
          1    1    1    2  502    0  0.11391424225E+02 -0.38944171018E+02  0.92983473605E+03  0.93071964058E+03  0.00000000000E+00 0. -1.
         22    1    3    3    0    0 -0.32479871121E+02  0.44335979512E+02  0.13218584055E+04  0.13230004782E+04  0.00000000000E+00 0. -1.
         22    1    3    3    0    0  0.62634678522E+02 -0.22346391373E+02  0.74078684174E+03  0.74376582945E+03  0.00000000000E+00 0. -1.
</event>
<event>
 7    1  0.7459264E-005  0.1109623E+04  0.7818608E-02  0.1088030E+00
          2   -1    0    0  502    0  0.00000000000E+00  0.00000000000E+00  0.15716078476E+04  0.15716078476E+04  0.00000000000E+00 0. -1.
          1   -1    0    0  501    0 -0.00000000000E+00 -0.00000000000E+00 -0.19564193752E+04  0.19564193752E+04  0.00000000000E+00 0. -1.
         25    2    1    2    0    0 -0.93415286635E+03  0.53019890288E+03  0.44215004254E+03  0.11682778987E+04  0.12499653689E+03 0.  0.
          2    1    1    2  501    0 -0.64520728796E+02  0.44104517405E+02 -0.11583656039E+04  0.11609991409E+04  0.00000000000E+00 0. -1.
          1    1    1    2  502    0  0.99867359514E+03 -0.57430342029E+03  0.33140403375E+03  0.11987501832E+04  0.00000000000E+00 0. -1.
         22    1    3    3    0    0 -0.49232726461E+03  0.32807041112E+03  0.19335663983E+03  0.62241715938E+03  0.00000000000E+00 0. -1.
         22    1    3    3    0    0 -0.44182560174E+03  0.20212849177E+03  0.24879340271E+03  0.54586073935E+03  0.00000000000E+00 0. -1.
</event>
<event>
 7    1  0.7459264E-005  0.3604560E+03  0.7818608E-02  0.1096181E+00
          2   -1    0    0  502    0  0.00000000000E+00  0.00000000000E+00  0.15665422319E+04  0.15665422319E+04  0.00000000000E+00 0. -1.
          1   -1    0    0  501    0 -0.00000000000E+00 -0.00000000000E+00 -0.10016349839E+04  0.10016349839E+04  0.00000000000E+00 0. -1.
         25    2    1    2    0    0 -0.29484283970E+03 -0.22979629191E+03 -0.72701928925E+02  0.40081115710E+03  0.12500150916E+03 0.  0.
          2    1    1    2  501    0  0.18156953294E+03 -0.11719663600E+03 -0.72509918419E+03  0.75661838049E+03  0.00000000000E+00 0. -1.
          1    1    1    2  502    0  0.11327330676E+03  0.34699292790E+03  0.13627083612E+04  0.14107476782E+04  0.00000000000E+00 0. -1.
         22    1    3    3    0    0 -0.74882489511E+02 -0.10412959231E+02 -0.47146015497E+02  0.89098618017E+02  0.00000000000E+00 0.  1.
         22    1    3    3    0    0 -0.21996035019E+03 -0.21938333268E+03 -0.25555913427E+02  0.31171253908E+03  0.00000000000E+00 0.  1.
</event>
<event>
 7    1  0.7459264E-005  0.1252685E+04  0.7818608E-02  0.1092945E+00
          2   -1    0    0  502    0  0.00000000000E+00  0.00000000000E+00  0.12502632636E+04  0.12502632636E+04  0.00000000000E+00 0. -1.
          1   -1    0    0  501    0 -0.00000000000E+00 -0.00000000000E+00 -0.31193440596E+04  0.31193440596E+04  0.00000000000E+00 0. -1.
         25    2    1    2    0    0  0.14280508613E+02  0.12060231029E+04 -0.79029548153E+03  0.14473730217E+04  0.12500423251E+03 0.  0.
          2    1    1    2  501    0 -0.17955241359E+01  0.64853259160E+02 -0.15614014572E+04  0.15627487577E+04  0.00000000000E+00 0. -1.
          1    1    1    2  502    0 -0.12484984477E+02 -0.12708763621E+04  0.48261614278E+03  0.13594855438E+04  0.00000000000E+00 0. -1.
         22    1    3    3    0    0  0.19351445993E+02  0.27215234191E+03 -0.12127353022E+03  0.29857770312E+03  0.00000000000E+00 0.  1.
         22    1    3    3    0    0 -0.50709373805E+01  0.93387076100E+03 -0.66902195132E+03  0.11487953186E+04  0.00000000000E+00 0.  1.
</event>
<event>
 7    1  0.7459264E-005  0.3692946E+03  0.7818608E-02  0.1081550E+00
          2   -1    0    0  502    0  0.00000000000E+00  0.00000000000E+00  0.15345225898E+04  0.15345225898E+04  0.00000000000E+00 0. -1.
          1   -1    0    0  501    0 -0.00000000000E+00 -0.00000000000E+00 -0.94653067373E+03  0.94653067373E+03  0.00000000000E+00 0. -1.
         25    2    1    2    0    0  0.41875502362E+03  0.28893346469E+03 -0.39444708723E+03  0.65578291060E+03  0.12499761752E+03 0.  0.
          2    1    1    2  501    0 -0.31113108410E+03 -0.56604491739E+02 -0.34811206640E+03  0.47030695376E+03  0.00000000000E+00 0. -1.
          1    1    1    2  502    0 -0.10762393952E+03 -0.23232897295E+03  0.13305510697E+04  0.13549633991E+04  0.00000000000E+00 0. -1.
         22    1    3    3    0    0  0.46214647211E+02  0.75518011879E+02 -0.10802834300E+03  0.13967421604E+03  0.00000000000E+00 0.  1.
         22    1    3    3    0    0  0.37254037641E+03  0.21341545281E+03 -0.28641874423E+03  0.51610869456E+03  0.00000000000E+00 0.  1.
</event>
<event>
 7    1  0.7459264E-005  0.9074388E+02  0.7818608E-02  0.1318581E+00
          2   -1    0    0  502    0  0.00000000000E+00  0.00000000000E+00  0.55170387405E+03  0.55170387405E+03  0.00000000000E+00 0. -1.
          1   -1    0    0  501    0 -0.00000000000E+00 -0.00000000000E+00 -0.28715523924E+03  0.28715523924E+03  0.00000000000E+00 0. -1.
         25    2    1    2    0    0 -0.64933489314E+02 -0.10841452285E+03 -0.10181555695E+03  0.20484522505E+03  0.12500036716E+03 0.  0.
          2    1    1    2  501    0  0.75148736275E+02  0.18536176499E+02 -0.11808533081E+03  0.14119159945E+03  0.00000000000E+00 0. -1.
          1    1    1    2  502    0 -0.10215246961E+02  0.89878346356E+02  0.48444952257E+03  0.49282228879E+03  0.00000000000E+00 0. -1.
         22    1    3    3    0    0 -0.51142850613E+02 -0.10785152831E+03 -0.18973953783E+02  0.12086171540E+03  0.00000000000E+00 0.  1.
         22    1    3    3    0    0 -0.13790638701E+02 -0.56299454696E+00 -0.82841603163E+02  0.83983509650E+02  0.00000000000E+00 0.  1.
</event>
<event>
 7    1  0.7466045E-005  0.1569501E+04  0.7818608E-02  0.1110545E+00
          2   -1    0    0  502    0  0.00000000000E+00  0.00000000000E+00  0.14797105402E+04  0.14797105402E+04  0.00000000000E+00 0. -1.
          1   -1    0    0  501    0 -0.00000000000E+00 -0.00000000000E+00 -0.27489325807E+04  0.27489325807E+04  0.00000000000E+00 0. -1.
         25    2    1    2    0    0  0.78997943585E+03 -0.13691502751E+04 -0.98727114395E+03  0.18678777019E+04  0.12499125058E+03 0.  0.
          2    1    1    2  501    0 -0.80804147260E+03  0.13320750238E+04 -0.86111615897E+03  0.17801336831E+04  0.00000000000E+00 0. -1.
          1    1    1    2  502    0  0.18062036748E+02  0.37075251230E+02  0.57916526243E+03  0.58063173581E+03  0.00000000000E+00 0. -1.
         22    1    3    3    0    0  0.87949020933E+02 -0.24241533447E+03 -0.17217004152E+03  0.31006894051E+03  0.00000000000E+00 0. -1.
         22    1    3    3    0    0  0.70203041492E+03 -0.11267349406E+04 -0.81510110243E+03  0.15578087614E+04  0.00000000000E+00 0. -1.
</event>
<event>
 7    1  0.7459264E-005  0.1589435E+03  0.7818608E-02  0.1280432E+00
          2   -1    0    0  502    0  0.00000000000E+00  0.00000000000E+00  0.61835984400E+03  0.61835984400E+03  0.00000000000E+00 0. -1.
          1   -1    0    0  501    0 -0.00000000000E+00 -0.00000000000E+00 -0.58308671621E+03  0.58308671621E+03  0.00000000000E+00 0. -1.
         25    2    1    2    0    0  0.11651958321E+03 -0.74950689789E+02  0.37209693159E+03  0.41626372267E+03  0.12499976457E+03 0.  0.
          2    1    1    2  501    0  0.48080805292E+02 -0.40451814586E+02 -0.51363515006E+03  0.51746418284E+03  0.00000000000E+00 0. -1.
          1    1    1    2  502    0 -0.16460038850E+03  0.11540250437E+03  0.17681134627E+03  0.26771865471E+03  0.00000000000E+00 0. -1.
         22    1    3    3    0    0  0.43031815168E+02  0.79732357413E+01  0.23950497509E+03  0.24347061979E+03  0.00000000000E+00 0.  1.
         22    1    3    3    0    0  0.73487768039E+02 -0.82923925530E+02  0.13259195649E+03  0.17279310288E+03  0.00000000000E+00 0.  1.
</event>
<event>
 7    1  0.7459264E-005  0.5877222E+02  0.7818608E-02  0.1467254E+00
          2   -1    0    0  502    0  0.00000000000E+00  0.00000000000E+00  0.29315376860E+04  0.29315376860E+04  0.00000000000E+00 0. -1.
          1   -1    0    0  501    0 -0.00000000000E+00 -0.00000000000E+00 -0.18442281065E+03  0.18442281065E+03  0.00000000000E+00 0. -1.
         25    2    1    2    0    0 -0.45750587539E+01 -0.63768049045E+02  0.62402610734E+03  0.63962501112E+03  0.12499710780E+03 0.  0.
          2    1    1    2  501    0  0.36316633077E+02  0.46265292461E+02 -0.17157970962E+03  0.18138073734E+03  0.00000000000E+00 0. -1.
          1    1    1    2  502    0 -0.31741574323E+02  0.17502756584E+02  0.22946684776E+04  0.22949547482E+04  0.00000000000E+00 0. -1.
         22    1    3    3    0    0 -0.57120472321E+02 -0.56238020502E+01  0.34749671464E+03  0.35220497185E+03  0.00000000000E+00 0.  1.
         22    1    3    3    0    0  0.52545413567E+02 -0.58144246995E+02  0.27652939270E+03  0.28742003927E+03  0.00000000000E+00 0.  1.
</event>
<event>
 7    1  0.7459264E-005  0.1519481E+03  0.7818608E-02  0.1255569E+00
          2   -1    0    0  502    0  0.00000000000E+00  0.00000000000E+00  0.25036220539E+03  0.25036220539E+03  0.00000000000E+00 0. -1.
          1   -1    0    0  501    0 -0.00000000000E+00 -0.00000000000E+00 -0.14432360519E+04  0.14432360519E+04  0.00000000000E+00 0. -1.
         25    2    1    2    0    0  0.20086712049E+03 -0.49430425449E+02  0.39922249354E+02  0.24497127283E+03  0.12500468578E+03 0.  0.
          2    1    1    2  501    0 -0.69440053509E+02  0.46653560799E+02 -0.12988271903E+04  0.13015185539E+04  0.00000000000E+00 0. -1.
          1    1    1    2  502    0 -0.13142706698E+03  0.27768646499E+01  0.66031094465E+02  0.14710843058E+03  0.00000000000E+00 0. -1.
         22    1    3    3    0    0  0.15995499418E+03 -0.73182352840E+01 -0.19656123640E+02  0.16132426949E+03  0.00000000000E+00 0.  1.
         22    1    3    3    0    0  0.40912126306E+02 -0.42112190165E+02  0.59578372994E+02  0.83647003341E+02  0.00000000000E+00 0.  1.
</event>
<event>
 7    1  0.7459264E-005  0.1268934E+03  0.7818608E-02  0.1379671E+00
          2   -1    0    0  502    0  0.00000000000E+00  0.00000000000E+00  0.23208133193E+03  0.23208133193E+03  0.00000000000E+00 0. -1.
          1   -1    0    0  501    0 -0.00000000000E+00 -0.00000000000E+00 -0.94771624750E+03  0.94771624750E+03  0.00000000000E+00 0. -1.
         25    2    1    2    0    0  0.12683131082E+03  0.78951547128E+02 -0.33799427179E+02  0.19770554526E+03  0.12500221259E+03 0.  0.
          2    1    1    2  501    0 -0.15161210145E+02 -0.29127072123E+02 -0.80667435427E+03  0.80734240719E+03  0.00000000000E+00 0. -1.
          1    1    1    2  502    0 -0.11167010067E+03 -0.49824475006E+02  0.12483886588E+03  0.17474962697E+03  0.00000000000E+00 0. -1.
         22    1    3    3    0    0  0.47281950455E+02  0.43047430241E+02  0.46536357346E+02  0.79084111200E+02  0.00000000000E+00 0. -1.
         22    1    3    3    0    0  0.79549360361E+02  0.35904116887E+02 -0.80335784526E+02  0.11862143406E+03  0.00000000000E+00 0. -1.
</event>
<event>
 7    1  0.7459264E-005  0.1441072E+03  0.7818608E-02  0.1291315E+00
          2   -1    0    0  502    0  0.00000000000E+00  0.00000000000E+00  0.28774229325E+04  0.28774229325E+04  0.00000000000E+00 0. -1.
          1   -1    0    0  501    0 -0.00000000000E+00 -0.00000000000E+00 -0.25679994116E+03  0.25679994116E+03  0.00000000000E+00 0. -1.
         25    2    1    2    0    0  0.17782433587E+01  0.10379746770E+03  0.30862386252E+03  0.34878637025E+03  0.12500466832E+03 0.  0.
          2    1    1    2  501    0  0.50216785490E+02 -0.13856060633E+03 -0.21335446379E+03  0.25930849270E+03  0.00000000000E+00 0. -1.
          1    1    1    2  502    0 -0.51995028848E+02  0.34763138623E+02  0.25253535927E+04  0.25261280108E+04  0.00000000000E+00 0. -1.
         22    1    3    3    0    0  0.61524072284E+02  0.41187899514E+02  0.16916209905E+03  0.18465500343E+03  0.00000000000E+00 0. -1.
         22    1    3    3    0    0 -0.59745828925E+02  0.62609568190E+02  0.13946176348E+03  0.16413136682E+03  0.00000000000E+00 0. -1.
</event>
<event>
 7    1  0.7459264E-005  0.8727227E+02  0.7818608E-02  0.1395404E+00
          2   -1    0    0  502    0  0.00000000000E+00  0.00000000000E+00  0.15050869999E+04  0.15050869999E+04  0.00000000000E+00 0. -1.
          1   -1    0    0  501    0 -0.00000000000E+00 -0.00000000000E+00 -0.64661255080E+03  0.64661255080E+03  0.00000000000E+00 0. -1.
         25    2    1    2    0    0 -0.93025941398E+01  0.51124079891E+02  0.17511717449E+03  0.22134210067E+03  0.12500436361E+03 0.  0.
          2    1    1    2  501    0 -0.12743764308E+02 -0.86937167031E+02 -0.62006364598E+03  0.62625825313E+03  0.00000000000E+00 0. -1.
          1    1    1    2  502    0  0.22046358448E+02  0.35813087141E+02  0.13034209206E+04  0.13040991969E+04  0.00000000000E+00 0. -1.
         22    1    3    3    0    0 -0.37904680966E+02  0.55319239764E+02  0.30158453645E+02  0.73529010965E+02  0.00000000000E+00 0. -1.
         22    1    3    3    0    0  0.28602086827E+02 -0.41951598738E+01  0.14495872085E+03  0.14781308970E+03  0.00000000000E+00 0. -1.
</event>
<event>
 7    1  0.7459264E-005  0.2020442E+03  0.7818608E-02  0.1351266E+00
          2   -1    0    0  502    0  0.00000000000E+00  0.00000000000E+00  0.11690501035E+04  0.11690501035E+04  0.00000000000E+00 0. -1.
          1   -1    0    0  501    0 -0.00000000000E+00 -0.00000000000E+00 -0.44711560446E+03  0.44711560446E+03  0.00000000000E+00 0. -1.
         25    2    1    2    0    0 -0.17582507560E+03  0.83617869589E+02  0.41564353334E+03  0.47570070028E+03  0.12500081645E+03 0.  0.
          2    1    1    2  501    0  0.13691153371E+01  0.26096299070E+02 -0.40197576110E+03  0.40282428404E+03  0.00000000000E+00 0. -1.
          1    1    1    2  502    0  0.17445596026E+03 -0.10971416866E+03  0.70826672678E+03  0.73764072361E+03  0.00000000000E+00 0. -1.
         22    1    3    3    0    0 -0.15262507327E+03  0.43380259458E+02  0.20095448574E+03  0.25604485005E+03  0.00000000000E+00 0.  1.
         22    1    3    3    0    0 -0.23200002333E+02  0.40237610131E+02  0.21468904761E+03  0.21965585023E+03  0.00000000000E+00 0.  1.
</event>
<event>
 7    1  0.7459264E-005  0.2138525E+03  0.7818608E-02  0.1183924E+00
          2   -1    0    0  502    0  0.00000000000E+00  0.00000000000E+00  0.86185363585E+03  0.86185363585E+03  0.00000000000E+00 0. -1.
          1   -1    0    0  501    0 -0.00000000000E+00 -0.00000000000E+00 -0.59871935224E+03  0.59871935224E+03  0.00000000000E+00 0. -1.
         25    2    1    2    0    0 -0.20023818707E+03 -0.26419991969E+03  0.21821060591E+03  0.41609834897E+03  0.12500015345E+03 0.  0.
          2    1    1    2  501    0  0.13201593421E+03  0.15799200319E+03 -0.47062866183E+03  0.51369350521E+03  0.00000000000E+00 0. -1.
          1    1    1    2  502    0  0.68222252863E+02  0.10620791649E+03  0.51555233953E+03  0.53078113391E+03  0.00000000000E+00 0. -1.
         22    1    3    3    0    0 -0.52124074760E+02 -0.10348511079E+01  0.27584088295E+02  0.58981963459E+02  0.00000000000E+00 0.  1.
         22    1    3    3    0    0 -0.14811411231E+03 -0.26316506858E+03  0.19062651761E+03  0.35711638552E+03  0.00000000000E+00 0.  1.
</event>
<event>
 7    1  0.7459264E-005  0.1512582E+03  0.7818608E-02  0.1265078E+00
          2   -1    0    0  502    0  0.00000000000E+00  0.00000000000E+00  0.74358147684E+03  0.74358147684E+03  0.00000000000E+00 0. -1.
          1   -1    0    0  501    0 -0.00000000000E+00 -0.00000000000E+00 -0.19376127599E+03  0.19376127599E+03  0.00000000000E+00 0. -1.
         25    2    1    2    0    0 -0.17112673405E+03 -0.70856065746E+01  0.53059760203E+03  0.57139779889E+03  0.12500825720E+03 0.  0.
          2    1    1    2  501    0  0.51937953823E+02 -0.56227079237E+02 -0.13857163855E+03  0.15830708922E+03  0.00000000000E+00 0. -1.
          1    1    1    2  502    0  0.11918878022E+03  0.63312685812E+02  0.15779423737E+03  0.20763786472E+03  0.00000000000E+00 0. -1.
         22    1    3    3    0    0 -0.23279228572E+02  0.45154321875E+02  0.18578342498E+03  0.19260404010E+03  0.00000000000E+00 0.  1.
         22    1    3    3    0    0 -0.14784750547E+03 -0.52239928450E+02  0.34481417705E+03  0.37879375879E+03  0.00000000000E+00 0.  1.
</event>
<event>
 7    1  0.7459264E-005  0.3430664E+03  0.7818608E-02  0.1250003E+00
          2   -1    0    0  502    0  0.00000000000E+00  0.00000000000E+00  0.30350017384E+04  0.30350017384E+04  0.00000000000E+00 0. -1.
          1   -1    0    0  501    0 -0.00000000000E+00 -0.00000000000E+00 -0.40882055335E+03  0.40882055335E+03  0.00000000000E+00 0. -1.
         25    2    1    2    0    0  0.25754154482E+03 -0.19434281071E+03 -0.11430817503E+03  0.36440003959E+03  0.12499701831E+03 0.  0.
          2    1    1    2  501    0  0.36106880100E+02  0.15162202042E+02 -0.15688472630E+03  0.16169853589E+03  0.00000000000E+00 0. -1.
          1    1    1    2  502    0 -0.29364842492E+03  0.17918060867E+03  0.28973740864E+04  0.29177237163E+04  0.00000000000E+00 0. -1.
         22    1    3    3    0    0  0.13861313376E+03 -0.17528678981E+03 -0.93164053536E+02  0.24211278447E+03  0.00000000000E+00 0.  1.
         22    1    3    3    0    0  0.11892841107E+03 -0.19056020906E+02 -0.21144121497E+02  0.12228725512E+03  0.00000000000E+00 0.  1.
</event>
<event>
 7    1  0.7459264E-005  0.1437971E+03  0.7818608E-02  0.1338084E+00
          2   -1    0    0  502    0  0.00000000000E+00  0.00000000000E+00  0.13434282053E+03  0.13434282053E+03  0.00000000000E+00 0. -1.
          1   -1    0    0  501    0 -0.00000000000E+00 -0.00000000000E+00 -0.13891365066E+04  0.13891365066E+04  0.00000000000E+00 0. -1.
         25    2    1    2    0    0  0.17572954204E+02  0.15283920091E+03 -0.10517702621E+04  0.10702870520E+04  0.12500023733E+03 0.  0.
          2    1    1    2  501    0 -0.39645170111E+02 -0.10935014522E+02 -0.28491901288E+03  0.28787177346E+03  0.00000000000E+00 0. -1.
          1    1    1    2  502    0  0.22072215906E+02 -0.14190418639E+03  0.81895588839E+02  0.16532050176E+03  0.00000000000E+00 0. -1.
         22    1    3    3    0    0  0.63343181621E+01 -0.22030381158E+02 -0.13126806257E+03  0.13325451411E+03  0.00000000000E+00 0.  1.
         22    1    3    3    0    0  0.11238636042E+02  0.17486958207E+03 -0.92050219951E+03  0.93703253784E+03  0.00000000000E+00 0.  1.
</event>
<event>
 7    1  0.7459264E-005  0.1040899E+03  0.7818608E-02  0.1339396E+00
          2   -1    0    0  502    0  0.00000000000E+00  0.00000000000E+00  0.57187049968E+03  0.57187049968E+03  0.00000000000E+00 0. -1.
          1   -1    0    0  501    0 -0.00000000000E+00 -0.00000000000E+00 -0.12657064475E+04  0.12657064475E+04  0.00000000000E+00 0. -1.
         25    2    1    2    0    0  0.11655568982E+03 -0.59346416321E+02 -0.22976773720E+03  0.29244579977E+03  0.12499642709E+03 0.  0.
          2    1    1    2  501    0 -0.64349483731E+02  0.80073374385E+02 -0.10005033786E+04  0.10057631987E+04  0.00000000000E+00 0. -1.
          1    1    1    2  502    0 -0.52206206089E+02 -0.20726958064E+02  0.53643516792E+03  0.53936794874E+03  0.00000000000E+00 0. -1.
         22    1    3    3    0    0  0.33932589568E+02  0.34172933483E+02 -0.10724852519E+03  0.11756468931E+03  0.00000000000E+00 0. -1.
         22    1    3    3    0    0  0.82623100253E+02 -0.93519349804E+02 -0.12251921201E+03  0.17488111046E+03  0.00000000000E+00 0. -1.
</event>
<event>
 7    1  0.7459264E-005  0.2020358E+03  0.7818608E-02  0.1168972E+00
          2   -1    0    0  502    0  0.00000000000E+00  0.00000000000E+00  0.96083285779E+02  0.96083285779E+02  0.00000000000E+00 0. -1.
          1   -1    0    0  501    0 -0.00000000000E+00 -0.00000000000E+00 -0.18331345584E+04  0.18331345584E+04  0.00000000000E+00 0. -1.
         25    2    1    2    0    0  0.14371993007E+03  0.84821817772E+02 -0.13384570458E+04  0.13546004995E+04  0.12500036287E+03 0.  0.
          2    1    1    2  501    0 -0.17744287880E+03  0.11437962943E+03 -0.22088277177E+03  0.30554520734E+03  0.00000000000E+00 0. -1.
          1    1    1    2  502    0  0.33722948730E+02 -0.19920144720E+03 -0.17771145506E+03  0.26907213735E+03  0.00000000000E+00 0. -1.
         22    1    3    3    0    0  0.99485451171E+02  0.24927290836E+02 -0.11004383440E+04  0.11052073443E+04  0.00000000000E+00 0.  1.
         22    1    3    3    0    0  0.44234478903E+02  0.59894526935E+02 -0.23801870176E+03  0.24939315521E+03  0.00000000000E+00 0.  1.
</event>
<event>
 7    1  0.7459264E-005  0.4627999E+03  0.7818608E-02  0.1201009E+00
          2   -1    0    0  502    0  0.00000000000E+00  0.00000000000E+00  0.27231087673E+04  0.27231087673E+04  0.00000000000E+00 0. -1.
          1   -1    0    0  501    0 -0.00000000000E+00 -0.00000000000E+00 -0.66436177252E+03  0.66436177252E+03  0.00000000000E+00 0. -1.
         25    2    1    2    0    0 -0.17175635844E+03 -0.39989177207E+03  0.10170215730E+04  0.11132714905E+04  0.12500742197E+03 0.  0.
          2    1    1    2  501    0  0.14694693407E+03  0.44137419873E+03 -0.52801900547E+03  0.70371063291E+03  0.00000000000E+00 0. -1.
          1    1    1    2  502    0  0.24809424365E+02 -0.41482426653E+02  0.15697444272E+04  0.15704884164E+04  0.00000000000E+00 0. -1.
         22    1    3    3    0    0 -0.18261898454E+03 -0.30405587326E+03  0.75805536376E+03  0.83692747720E+03  0.00000000000E+00 0. -1.
         22    1    3    3    0    0  0.10862626100E+02 -0.95835898817E+02  0.25896620927E+03  0.27634401331E+03  0.00000000000E+00 0. -1.
</event>
<event>
 7    1  0.7459264E-005  0.7977448E+03  0.7818608E-02  0.1170949E+00
          2   -1    0    0  502    0  0.00000000000E+00  0.00000000000E+00  0.28605786669E+04  0.28605786669E+04  0.00000000000E+00 0. -1.
          1   -1    0    0  501    0 -0.00000000000E+00 -0.00000000000E+00 -0.42630317906E+03  0.42630317906E+03  0.00000000000E+00 0. -1.
         25    2    1    2    0    0 -0.75601354891E+03 -0.33177600380E+03  0.69440200220E+03  0.10860253175E+04  0.12500018741E+03 0.  0.
          2    1    1    2  501    0  0.34515221358E+02  0.18536176273E+02 -0.14936645107E+03  0.15441899832E+03  0.00000000000E+00 0. -1.
          1    1    1    2  502    0  0.72149832755E+03  0.31323982752E+03  0.18892399367E+04  0.20464375301E+04  0.00000000000E+00 0. -1.
         22    1    3    3    0    0 -0.30042572320E+03 -0.19012680557E+03  0.33737748869E+03  0.49012996973E+03  0.00000000000E+00 0. -1.
         22    1    3    3    0    0 -0.45558782571E+03 -0.14164919823E+03  0.35702451351E+03  0.59589534781E+03  0.00000000000E+00 0. -1.
</event>
<event>
 7    1  0.7459264E-005  0.6460256E+03  0.7818608E-02  0.1084892E+00
          2   -1    0    0  502    0  0.00000000000E+00  0.00000000000E+00  0.24126328069E+04  0.24126328069E+04  0.00000000000E+00 0. -1.
          1   -1    0    0  501    0 -0.00000000000E+00 -0.00000000000E+00 -0.41574396446E+03  0.41574396446E+03  0.00000000000E+00 0. -1.
         25    2    1    2    0    0 -0.71315019708E+03 -0.17610261948E+03  0.86717460594E+03  0.11433352775E+04  0.12501369328E+03 0.  0.
          2    1    1    2  501    0  0.61126550633E+03  0.80139626997E+02  0.74954707441E+02  0.62103630104E+03  0.00000000000E+00 0. -1.
          1    1    1    2  502    0  0.10188469075E+03  0.95962992485E+02  0.10547595291E+04  0.10640051928E+04  0.00000000000E+00 0. -1.
         22    1    3    3    0    0 -0.42988467740E+03 -0.12549158483E+03  0.61466515927E+03  0.76050130293E+03  0.00000000000E+00 0. -1.
         22    1    3    3    0    0 -0.28326551968E+03 -0.50611034656E+02  0.25250944667E+03  0.38283397462E+03  0.00000000000E+00 0. -1.
</event>
<event>
 7    1  0.7459264E-005  0.2832768E+03  0.7818608E-02  0.1210714E+00
          2   -1    0    0  502    0  0.00000000000E+00  0.00000000000E+00  0.83767457560E+03  0.83767457560E+03  0.00000000000E+00 0. -1.
          1   -1    0    0  501    0 -0.00000000000E+00 -0.00000000000E+00 -0.31467289108E+03  0.31467289108E+03  0.00000000000E+00 0. -1.
         25    2    1    2    0    0  0.31597277477E+03  0.74103044574E+01  0.52421163801E+03  0.62475579622E+03  0.12501302523E+03 0.  0.
          2    1    1    2  501    0 -0.71042587598E+02  0.37757188742E+01 -0.19978850146E+03  0.21207722796E+03  0.00000000000E+00 0. -1.
          1    1    1    2  502    0 -0.24493018717E+03 -0.11186023332E+02  0.19857854797E+03  0.31551444249E+03  0.00000000000E+00 0. -1.
         22    1    3    3    0    0  0.93370924628E+02 -0.26194068300E+02  0.26081981884E+03  0.27826468816E+03  0.00000000000E+00 0.  1.
         22    1    3    3    0    0  0.22260185014E+03  0.33604372757E+02  0.26339181918E+03  0.34649110806E+03  0.00000000000E+00 0.  1.
</event>
<event>
 7    1  0.7459264E-005  0.1936442E+03  0.7818608E-02  0.1334995E+00
          2   -1    0    0  502    0  0.00000000000E+00  0.00000000000E+00  0.15990582572E+03  0.15990582572E+03  0.00000000000E+00 0. -1.
          1   -1    0    0  501    0 -0.00000000000E+00 -0.00000000000E+00 -0.11438284838E+04  0.11438284838E+04  0.00000000000E+00 0. -1.
         25    2    1    2    0    0 -0.19188042912E+03  0.94839451666E+02 -0.41733947723E+03  0.48539832362E+03  0.12500669040E+03 0.  0.
          2    1    1    2  501    0  0.30651677476E+02  0.66838659031E+01 -0.61973694489E+03  0.62053048294E+03  0.00000000000E+00 0. -1.
          1    1    1    2  502    0  0.16122875164E+03 -0.10152331757E+03  0.53153764047E+02  0.19780550295E+03  0.00000000000E+00 0. -1.
         22    1    3    3    0    0 -0.34716129881E+02  0.40243839688E+02 -0.22450067446E+03  0.23070615323E+03  0.00000000000E+00 0.  1.
         22    1    3    3    0    0 -0.15716429923E+03  0.54595611977E+02 -0.19283880277E+03  0.25469217039E+03  0.00000000000E+00 0.  1.
</event>
<event>
 7    1  0.7459264E-005  0.6588587E+03  0.7818608E-02  0.1182870E+00
          2   -1    0    0  502    0  0.00000000000E+00  0.00000000000E+00  0.63869926433E+03  0.63869926433E+03  0.00000000000E+00 0. -1.
          1   -1    0    0  501    0 -0.00000000000E+00 -0.00000000000E+00 -0.22810479500E+04  0.22810479500E+04  0.00000000000E+00 0. -1.
         25    2    1    2    0    0 -0.33849729186E+03 -0.55749206791E+03 -0.12501279465E+04  0.14155641049E+04  0.12499611934E+03 0.  0.
          2    1    1    2  501    0  0.37944035212E+03  0.55097967677E+03 -0.82909773696E+03  0.10653434387E+04  0.00000000000E+00 0. -1.
          1    1    1    2  502    0 -0.40943060263E+02  0.65123911432E+01  0.43687699781E+03  0.43883967076E+03  0.00000000000E+00 0. -1.
         22    1    3    3    0    0 -0.27774023701E+03 -0.47095873835E+03 -0.11313663448E+04  0.12565554419E+04  0.00000000000E+00 0.  1.
         22    1    3    3    0    0 -0.60757054844E+02 -0.86533329567E+02 -0.11876160174E+03  0.15900866293E+03  0.00000000000E+00 0.  1.
</event>
<event>
 7    1  0.7459264E-005  0.6351794E+03  0.7818608E-02  0.1103612E+00
          2   -1    0    0  502    0  0.00000000000E+00  0.00000000000E+00  0.74302799090E+03  0.74302799090E+03  0.00000000000E+00 0. -1.
          1   -1    0    0  501    0 -0.00000000000E+00 -0.00000000000E+00 -0.13750006485E+04  0.13750006485E+04  0.00000000000E+00 0. -1.
         25    2    1    2    0    0  0.63182949950E+03 -0.14869483150E+03 -0.27297493678E+03  0.71516305067E+03  0.12499681431E+03 0.  0.
          2    1    1    2  501    0 -0.58064648627E+03  0.24760117740E+03 -0.75926741580E+03  0.98739237072E+03  0.00000000000E+00 0. -1.
          1    1    1    2  502    0 -0.51183013226E+02 -0.98906345905E+02  0.40026969501E+03  0.41547321797E+03  0.00000000000E+00 0. -1.
         22    1    3    3    0    0  0.27325336431E+03 -0.30704143065E+02 -0.17223870137E+03  0.32446311926E+03  0.00000000000E+00 0. -1.
         22    1    3    3    0    0  0.35857613519E+03 -0.11799068843E+03 -0.10073623541E+03  0.39069993142E+03  0.00000000000E+00 0. -1.
</event>
<event>
 7    1  0.7459264E-005  0.1532770E+03  0.7818608E-02  0.1201222E+00
          2   -1    0    0  502    0  0.00000000000E+00  0.00000000000E+00  0.15821723071E+04  0.15821723071E+04  0.00000000000E+00 0. -1.
          1   -1    0    0  501    0 -0.00000000000E+00 -0.00000000000E+00 -0.46335141490E+03  0.46335141490E+03  0.00000000000E+00 0. -1.
         25    2    1    2    0    0  0.83771461637E+01  0.12438324245E+03 -0.61755791597E+02  0.18702664795E+03  0.12499528657E+03 0.  0.
          2    1    1    2  501    0 -0.13997745083E+03 -0.40092078612E+02 -0.31907320337E+03  0.35072606208E+03  0.00000000000E+00 0. -1.
          1    1    1    2  502    0  0.13160030467E+03 -0.84291163839E+02  0.14996498872E+04  0.15077710120E+04  0.00000000000E+00 0. -1.
         22    1    3    3    0    0 -0.34443814297E+02  0.96110562565E+02 -0.82913871990E+02  0.13152310348E+03  0.00000000000E+00 0. -1.
         22    1    3    3    0    0  0.42820960461E+02  0.28272679886E+02  0.21158080393E+02  0.55503544469E+02  0.00000000000E+00 0. -1.
</event>
<event>
 7    1  0.7459264E-005  0.5003772E+03  0.7818608E-02  0.1132496E+00
          2   -1    0    0  502    0  0.00000000000E+00  0.00000000000E+00  0.18174928762E+04  0.18174928762E+04  0.00000000000E+00 0. -1.
          1   -1    0    0  501    0 -0.00000000000E+00 -0.00000000000E+00 -0.33644218744E+03  0.33644218744E+03  0.00000000000E+00 0. -1.
         25    2    1    2    0    0  0.10838122239E+03  0.55436983798E+03  0.41152698297E+03  0.70996563216E+03  0.12499733803E+03 0.  0.
          2    1    1    2  501    0 -0.87865999542E+02 -0.45815419859E+03  0.10984515834E+03  0.47926158033E+03  0.00000000000E+00 0. -1.
          1    1    1    2  502    0 -0.20515222852E+02 -0.96215639381E+02  0.95967854746E+03  0.96470785115E+03  0.00000000000E+00 0. -1.
         22    1    3    3    0    0  0.10228533056E+03  0.56016432927E+03  0.40081729850E+03  0.69634824005E+03  0.00000000000E+00 0. -1.
         22    1    3    3    0    0  0.60958918345E+01 -0.57944912972E+01  0.10709684467E+02  0.13617392116E+02  0.00000000000E+00 0. -1.
</event>
<event>
 7    1  0.7459264E-005  0.7058983E+02  0.7818608E-02  0.1428882E+00
          2   -1    0    0  502    0  0.00000000000E+00  0.00000000000E+00  0.13173908960E+04  0.13173908960E+04  0.00000000000E+00 0. -1.
          1   -1    0    0  501    0 -0.00000000000E+00 -0.00000000000E+00 -0.18800616381E+04  0.18800616381E+04  0.00000000000E+00 0. -1.
         25    2    1    2    0    0  0.44154373467E+02  0.93967025595E+02 -0.18720288286E+03  0.24788875590E+03  0.12499802141E+03 0.  0.
          2    1    1    2  501    0 -0.31604046967E+02 -0.24635919755E+02 -0.16613097517E+04  0.16617929580E+04  0.00000000000E+00 0. -1.
          1    1    1    2  502    0 -0.12550326501E+02 -0.69331105840E+02  0.12858418924E+04  0.12877708201E+04  0.00000000000E+00 0. -1.
         22    1    3    3    0    0 -0.36816856989E+02  0.64302172177E+02 -0.10679922799E+03  0.12998586617E+03  0.00000000000E+00 0. -1.
         22    1    3    3    0    0  0.80971230456E+02  0.29664853418E+02 -0.80403654871E+02  0.11790288973E+03  0.00000000000E+00 0. -1.
</event>
<event>
 7    1  0.7459264E-005  0.6680823E+03  0.7818608E-02  0.1103066E+00
          2   -1    0    0  502    0  0.00000000000E+00  0.00000000000E+00  0.76031817014E+03  0.76031817014E+03  0.00000000000E+00 0. -1.
          1   -1    0    0  501    0 -0.00000000000E+00 -0.00000000000E+00 -0.14289730977E+04  0.14289730977E+04  0.00000000000E+00 0. -1.
         25    2    1    2    0    0  0.19132017157E+03  0.59107460279E+03 -0.44459503772E+03  0.77412079282E+03  0.12500264079E+03 0.  0.
          2    1    1    2  501    0 -0.27337965297E+03 -0.65916214424E+03 -0.65657718115E+03  0.96970344016E+03  0.00000000000E+00 0. -1.
          1    1    1    2  502    0  0.82059481399E+02  0.68087541451E+02  0.43251729135E+03  0.44546703481E+03  0.00000000000E+00 0. -1.
         22    1    3    3    0    0  0.10834996087E+03  0.23738383146E+03 -0.25276749036E+03  0.36329354748E+03  0.00000000000E+00 0.  1.
         22    1    3    3    0    0  0.82970210700E+02  0.35369077133E+03 -0.19182754735E+03  0.41082724534E+03  0.00000000000E+00 0.  1.
</event>
<event>
 7    1  0.7459264E-005  0.2392292E+03  0.7818608E-02  0.1250285E+00
          2   -1    0    0  502    0  0.00000000000E+00  0.00000000000E+00  0.73725432476E+03  0.73725432476E+03  0.00000000000E+00 0. -1.
          1   -1    0    0  501    0 -0.00000000000E+00 -0.00000000000E+00 -0.20451995093E+04  0.20451995093E+04  0.00000000000E+00 0. -1.
         25    2    1    2    0    0  0.36674915711E+02 -0.21768386383E+03 -0.60627493045E+02  0.26082947055E+03  0.12500002313E+03 0.  0.
          2    1    1    2  501    0  0.55602994462E+02 -0.66626461398E+01 -0.18609449043E+04  0.18617873188E+04  0.00000000000E+00 0. -1.
          1    1    1    2  502    0 -0.92277910173E+02  0.22434650997E+03  0.61362721278E+03  0.65983704466E+03  0.00000000000E+00 0. -1.
         22    1    3    3    0    0  0.30766736382E+02 -0.13283379051E+03  0.26684345538E+02  0.13893690030E+03  0.00000000000E+00 0. -1.
         22    1    3    3    0    0  0.59081793291E+01 -0.84850073320E+02 -0.87311838583E+02  0.12189257025E+03  0.00000000000E+00 0. -1.
</event>
<event>
 7    1  0.7459264E-005  0.1141867E+04  0.7818608E-02  0.1081827E+00
          2   -1    0    0  502    0  0.00000000000E+00  0.00000000000E+00  0.14395063103E+04  0.14395063103E+04  0.00000000000E+00 0. -1.
          1   -1    0    0  501    0 -0.00000000000E+00 -0.00000000000E+00 -0.39314271414E+04  0.39314271414E+04  0.00000000000E+00 0. -1.
         25    2    1    2    0    0  0.84031755016E+01 -0.11598748315E+04  0.20603061973E+03  0.11846746645E+04  0.12500082536E+03 0.  0.
          2    1    1    2  501    0 -0.74918225208E+02  0.34550142425E+02 -0.30142954632E+04  0.30154242807E+04  0.00000000000E+00 0. -1.
          1    1    1    2  502    0  0.66515049706E+02  0.11253246890E+04  0.31634401245E+03  0.11708345066E+04  0.00000000000E+00 0. -1.
         22    1    3    3    0    0 -0.25157407241E+02 -0.62445045580E+02 -0.12651042492E+01  0.67334087543E+02  0.00000000000E+00 0. -1.
         22    1    3    3    0    0  0.33560582742E+02 -0.10974297859E+04  0.20729572398E+03  0.11173405769E+04  0.00000000000E+00 0. -1.
</event>
<event>
 7    1  0.7459264E-005  0.8368858E+02  0.7818608E-02  0.1329985E+00
          2   -1    0    0  502    0  0.00000000000E+00  0.00000000000E+00  0.33182035433E+03  0.33182035433E+03  0.00000000000E+00 0. -1.
          1   -1    0    0  501    0 -0.00000000000E+00 -0.00000000000E+00 -0.35970529392E+03  0.35970529392E+03  0.00000000000E+00 0. -1.
         25    2    1    2    0    0  0.85634474075E+02  0.12852699451E+03  0.25356994933E+03  0.32214176901E+03  0.12500059466E+03 0.  0.
          2    1    1    2  501    0 -0.58813929012E+02 -0.57579400721E+02 -0.28175973912E+03  0.29353537473E+03  0.00000000000E+00 0. -1.
          1    1    1    2  502    0 -0.26820545063E+02 -0.70947593794E+02  0.30485020271E+00  0.75848504509E+02  0.00000000000E+00 0. -1.
         22    1    3    3    0    0  0.72127327033E+02  0.13588014431E+03  0.26257437956E+03  0.30432066924E+03  0.00000000000E+00 0.  1.
         22    1    3    3    0    0  0.13507147042E+02 -0.73531497946E+01 -0.90044302337E+01  0.17821099768E+02  0.00000000000E+00 0.  1.
</event>
<event>
 7    1  0.7459264E-005  0.9135109E+02  0.7818608E-02  0.1431614E+00
          2   -1    0    0  502    0  0.00000000000E+00  0.00000000000E+00  0.93517344853E+02  0.93517344853E+02  0.00000000000E+00 0. -1.
          1   -1    0    0  501    0 -0.00000000000E+00 -0.00000000000E+00 -0.87229443077E+03  0.87229443077E+03  0.00000000000E+00 0. -1.
         25    2    1    2    0    0  0.40674487945E+01  0.10775792766E+03 -0.27362040122E+03  0.31956372163E+03  0.12499813241E+03 0.  0.
          2    1    1    2  501    0  0.18374476185E+02 -0.87355093656E+02 -0.56879206611E+03  0.57575424291E+03  0.00000000000E+00 0. -1.
          1    1    1    2  502    0 -0.22441924980E+02 -0.20402834007E+02  0.63635381413E+02  0.70493811075E+02  0.00000000000E+00 0. -1.
         22    1    3    3    0    0 -0.30242994453E+02  0.85974269415E+02 -0.78589749888E+02  0.12034351874E+03  0.00000000000E+00 0.  1.
         22    1    3    3    0    0  0.34310443248E+02  0.21783658247E+02 -0.19503065133E+03  0.19922020290E+03  0.00000000000E+00 0.  1.
</event>
<event>
 7    1  0.7459264E-005  0.1973051E+03  0.7818608E-02  0.1218475E+00
          2   -1    0    0  502    0  0.00000000000E+00  0.00000000000E+00  0.97988691146E+03  0.97988691146E+03  0.00000000000E+00 0. -1.
          1   -1    0    0  501    0 -0.00000000000E+00 -0.00000000000E+00 -0.13468253243E+04  0.13468253243E+04  0.00000000000E+00 0. -1.
         25    2    1    2    0    0  0.85783174743E+02  0.24820608698E+03 -0.23181262869E+03  0.37192404003E+03  0.12500152820E+03 0.  0.
          2    1    1    2  501    0 -0.10778786745E+03 -0.15673615536E+03 -0.10338242269E+04  0.10511788520E+04  0.00000000000E+00 0. -1.
          1    1    1    2  502    0  0.22004692703E+02 -0.91469931615E+02  0.89869844280E+03  0.90360934368E+03  0.00000000000E+00 0. -1.
         22    1    3    3    0    0  0.38287824807E+02  0.19760975473E+03 -0.22545996490E+03  0.30223793353E+03  0.00000000000E+00 0. -1.
         22    1    3    3    0    0  0.47495349935E+02  0.50596332248E+02 -0.63526637944E+01  0.69686106504E+02  0.00000000000E+00 0. -1.
</event>
<event>
 7    1  0.7459264E-005  0.5724930E+03  0.7818608E-02  0.1185295E+00
          2   -1    0    0  502    0  0.00000000000E+00  0.00000000000E+00  0.21606763963E+04  0.21606763963E+04  0.00000000000E+00 0. -1.
          1   -1    0    0  501    0 -0.00000000000E+00 -0.00000000000E+00 -0.40960939890E+03  0.40960939890E+03  0.00000000000E+00 0. -1.
         25    2    1    2    0    0  0.87291923067E+02 -0.57329302761E+03  0.16175267885E+04  0.17228768502E+04  0.12500781645E+03 0.  0.
          2    1    1    2  501    0  0.30911035976E+02  0.34655720206E+02 -0.19839719654E+03  0.20375956096E+03  0.00000000000E+00 0. -1.
          1    1    1    2  502    0 -0.11820295904E+03  0.53863730740E+03  0.33193740551E+03  0.64364938408E+03  0.00000000000E+00 0. -1.
         22    1    3    3    0    0  0.46801324317E+02 -0.62054939457E+02  0.27357252600E+03  0.28439955424E+03  0.00000000000E+00 0.  1.
         22    1    3    3    0    0  0.40490598751E+02 -0.51123808815E+03  0.13439542625E+04  0.14384772959E+04  0.00000000000E+00 0.  1.
</event>
<event>
 7    1  0.7459264E-005  0.1223500E+03  0.7818608E-02  0.1334008E+00
          2   -1    0    0  502    0  0.00000000000E+00  0.00000000000E+00  0.29475619524E+03  0.29475619524E+03  0.00000000000E+00 0. -1.
          1   -1    0    0  501    0 -0.00000000000E+00 -0.00000000000E+00 -0.54426427601E+03  0.54426427601E+03  0.00000000000E+00 0. -1.
         25    2    1    2    0    0  0.11371335578E+03 -0.68510169848E+02 -0.45211697000E+03  0.48749708557E+03  0.12497713078E+03 0.  0.
          2    1    1    2  501    0 -0.65408815903E+02  0.81735521224E+02 -0.33692037301E+02  0.10997346046E+03  0.00000000000E+00 0. -1.
          1    1    1    2  502    0 -0.48304539877E+02 -0.13225351377E+02  0.23630092653E+03  0.24154992522E+03  0.00000000000E+00 0. -1.
         22    1    3    3    0    0  0.15436333607E+02 -0.14687501895E+02 -0.28794150307E+03  0.28872878675E+03  0.00000000000E+00 0. -1.
         22    1    3    3    0    0  0.98277022172E+02 -0.53822667952E+02 -0.16417546693E+03  0.19876829882E+03  0.00000000000E+00 0. -1.
</event>
<event>
 7    1  0.7459264E-005  0.5140360E+03  0.7818608E-02  0.1187175E+00
          2   -1    0    0  502    0  0.00000000000E+00  0.00000000000E+00  0.11593047948E+04  0.11593047948E+04  0.00000000000E+00 0. -1.
          1   -1    0    0  501    0 -0.00000000000E+00 -0.00000000000E+00 -0.20891466581E+04  0.20891466581E+04  0.00000000000E+00 0. -1.
         25    2    1    2    0    0  0.82947158743E+02 -0.52039083056E+03  0.85934457135E+01  0.54165146993E+03  0.12500247956E+03 0.  0.
          2    1    1    2  501    0 -0.12759417445E+03  0.49647430644E+03 -0.17858039706E+04  0.18579189519E+04  0.00000000000E+00 0. -1.
          1    1    1    2  502    0  0.44647015710E+02  0.23916524121E+02  0.84736866162E+03  0.84888103102E+03  0.00000000000E+00 0. -1.
         22    1    3    3    0    0 -0.17838542502E+02 -0.90592624046E+01  0.43011982875E+01  0.20464216101E+02  0.00000000000E+00 0.  1.
         22    1    3    3    0    0  0.10078570125E+03 -0.51133156816E+03  0.42922474259E+01  0.52118725383E+03  0.00000000000E+00 0.  1.
</event>
<event>
 7    1  0.7459264E-005  0.5842383E+02  0.7818608E-02  0.1462154E+00
          2   -1    0    0  502    0  0.00000000000E+00  0.00000000000E+00  0.21025696466E+04  0.21025696466E+04  0.00000000000E+00 0. -1.
          1   -1    0    0  501    0 -0.00000000000E+00 -0.00000000000E+00 -0.30872510622E+02  0.30872510622E+02  0.00000000000E+00 0. -1.
         25    2    1    2    0    0 -0.45419365978E+02  0.10763223013E+02  0.48281490319E+03  0.50091297209E+03  0.12499923635E+03 0.  0.
          2    1    1    2  501    0 -0.83409682694E+01 -0.36899539594E+02 -0.44362737812E+01  0.38089740075E+02  0.00000000000E+00 0. -1.
          1    1    1    2  502    0  0.53760334247E+02  0.26136316581E+02  0.15933185066E+04  0.15944394451E+04  0.00000000000E+00 0. -1.
         22    1    3    3    0    0 -0.74328310679E+02 -0.31373335992E+02  0.25595064408E+03  0.26836489372E+03  0.00000000000E+00 0.  1.
         22    1    3    3    0    0  0.28908944701E+02  0.42136559005E+02  0.22686425911E+03  0.23254807836E+03  0.00000000000E+00 0.  1.
</event>
<event>
 7    1  0.7459264E-005  0.4244019E+03  0.7818608E-02  0.1127429E+00
          2   -1    0    0  502    0  0.00000000000E+00  0.00000000000E+00  0.11102303603E+04  0.11102303603E+04  0.00000000000E+00 0. -1.
          1   -1    0    0  501    0 -0.00000000000E+00 -0.00000000000E+00 -0.71770036370E+03  0.71770036370E+03  0.00000000000E+00 0. -1.
         25    2    1    2    0    0  0.32934621284E+03 -0.35445477113E+02 -0.43109789711E+02  0.35666344393E+03  0.12500019401E+03 0.  0.
          2    1    1    2  501    0  0.12021629603E+03  0.28016771602E+02 -0.45614256600E+03  0.47254940254E+03  0.00000000000E+00 0. -1.
          1    1    1    2  502    0 -0.44956250888E+03  0.74287055105E+01  0.89178235235E+03  0.99871787759E+03  0.00000000000E+00 0. -1.
         22    1    3    3    0    0  0.32340987421E+03 -0.37301986501E+02 -0.12888772511E+02  0.32580900139E+03  0.00000000000E+00 0.  1.
         22    1    3    3    0    0  0.59363386376E+01  0.18565093884E+01 -0.30221017200E+02  0.30854442535E+02  0.00000000000E+00 0.  1.
</event>
<event>
 7    1  0.7459264E-005  0.4222170E+03  0.7818608E-02  0.1116720E+00
          2   -1    0    0  502    0  0.00000000000E+00  0.00000000000E+00  0.71035897904E+03  0.71035897904E+03  0.00000000000E+00 0. -1.
          1   -1    0    0  501    0 -0.00000000000E+00 -0.00000000000E+00 -0.19375796154E+04  0.19375796154E+04  0.00000000000E+00 0. -1.
         25    2    1    2    0    0  0.29447119214E+03  0.29742077029E+03  0.37379709978E+03  0.57491081281E+03  0.12500309309E+03 0.  0.
          2    1    1    2  501    0 -0.98023298547E+02  0.10244003935E+03 -0.16208843274E+04  0.16270736098E+04  0.00000000000E+00 0. -1.
          1    1    1    2  502    0 -0.19644789359E+03 -0.39986080965E+03  0.19866591243E+02  0.44595417190E+03  0.00000000000E+00 0. -1.
         22    1    3    3    0    0  0.71146050387E+02  0.15808278030E+03  0.13951234284E+03  0.22252105455E+03  0.00000000000E+00 0. -1.
         22    1    3    3    0    0  0.22332514175E+03  0.13933799000E+03  0.23428475694E+03  0.35238975826E+03  0.00000000000E+00 0. -1.
</event>
<event>
 7    1  0.7459264E-005  0.3384455E+03  0.7818608E-02  0.1266135E+00
          2   -1    0    0  502    0  0.00000000000E+00  0.00000000000E+00  0.40807069935E+03  0.40807069935E+03  0.00000000000E+00 0. -1.
          1   -1    0    0  501    0 -0.00000000000E+00 -0.00000000000E+00 -0.60561418009E+03  0.60561418009E+03  0.00000000000E+00 0. -1.
         25    2    1    2    0    0 -0.75015504024E+01  0.34144808701E+03 -0.42119453506E+03  0.55648120427E+03  0.12499369971E+03 0.  0.
          2    1    1    2  501    0 -0.23538226494E+02 -0.32792199037E+03  0.12301843537E+03  0.35102765605E+03  0.00000000000E+00 0. -1.
          1    1    1    2  502    0  0.31039776896E+02 -0.13526096642E+02  0.10063261894E+03  0.10617601911E+03  0.00000000000E+00 0. -1.
         22    1    3    3    0    0 -0.42361383818E+01  0.82755692716E+02 -0.19857990324E+03  0.21517534133E+03  0.00000000000E+00 0.  1.
         22    1    3    3    0    0 -0.32654120206E+01  0.25869239429E+03 -0.22261463182E+03  0.34130586294E+03  0.00000000000E+00 0.  1.
</event>
<event>
 7    1  0.7459264E-005  0.1522519E+04  0.7818608E-02  0.1067262E+00
          2   -1    0    0  502    0  0.00000000000E+00  0.00000000000E+00  0.31252542933E+04  0.31252542933E+04  0.00000000000E+00 0. -1.
          1   -1    0    0  501    0 -0.00000000000E+00 -0.00000000000E+00 -0.25757653452E+04  0.25757653452E+04  0.00000000000E+00 0. -1.
         25    2    1    2    0    0 -0.12753085736E+04  0.82714934086E+03  0.31365254419E+03  0.15571106432E+04  0.12501058603E+03 0.  0.
          2    1    1    2  501    0  0.13178738706E+04 -0.76486474301E+03 -0.16561172188E+04  0.22504519226E+04  0.00000000000E+00 0. -1.
          1    1    1    2  502    0 -0.42565296962E+02 -0.62284597850E+02  0.18919536227E+04  0.18934570727E+04  0.00000000000E+00 0. -1.
         22    1    3    3    0    0 -0.36980135068E+03  0.17971899498E+03  0.61190785892E+02  0.41568770538E+03  0.00000000000E+00 0. -1.
         22    1    3    3    0    0 -0.90550722291E+03  0.64743034588E+03  0.25246175830E+03  0.11414229378E+04  0.00000000000E+00 0. -1.
</event>
<event>
 7    1  0.7459264E-005  0.3487930E+03  0.7818608E-02  0.1083097E+00
          2   -1    0    0  502    0  0.00000000000E+00  0.00000000000E+00  0.38242315606E+03  0.38242315606E+03  0.00000000000E+00 0. -1.
          1   -1    0    0  501    0 -0.00000000000E+00 -0.00000000000E+00 -0.21654096608E+04  0.21654096608E+04  0.00000000000E+00 0. -1.
         25    2    1    2    0    0 -0.55529392087E+03  0.11835819720E+02 -0.28884722234E+03  0.63839501414E+03  0.12499620409E+03 0.  0.
          2    1    1    2  501    0  0.25933981384E+03 -0.57010342090E+02 -0.15766821704E+04  0.15988852318E+04  0.00000000000E+00 0. -1.
          1    1    1    2  502    0  0.29595410703E+03  0.45174522370E+02  0.82542887978E+02  0.31055257090E+03  0.00000000000E+00 0. -1.
         22    1    3    3    0    0 -0.14118303603E+02  0.19445304600E+01  0.12446954788E+02  0.18921796395E+02  0.00000000000E+00 0.  1.
         22    1    3    3    0    0 -0.54117561727E+03  0.98912892604E+01 -0.30129417713E+03  0.61947321774E+03  0.00000000000E+00 0.  1.
</event>
<event>
 7    1  0.7459264E-005  0.3618053E+03  0.7818608E-02  0.1249594E+00
          2   -1    0    0  502    0  0.00000000000E+00  0.00000000000E+00  0.14312882474E+04  0.14312882474E+04  0.00000000000E+00 0. -1.
          1   -1    0    0  501    0 -0.00000000000E+00 -0.00000000000E+00 -0.26235991101E+03  0.26235991101E+03  0.00000000000E+00 0. -1.
         25    2    1    2    0    0 -0.26276807744E+03  0.25970431077E+03  0.30454120258E+02  0.39121044068E+03  0.12499905560E+03 0.  0.
          2    1    1    2  501    0 -0.17837667546E+02 -0.32741193261E+02 -0.48861970158E+02  0.61462673610E+02  0.00000000000E+00 0. -1.
          1    1    1    2  502    0  0.28060574499E+03 -0.22696311751E+03  0.11873361862E+04  0.12409750441E+04  0.00000000000E+00 0. -1.
         22    1    3    3    0    0 -0.14690567706E+03  0.21852974491E+03 -0.45717250342E+01  0.26335798456E+03  0.00000000000E+00 0.  1.
         22    1    3    3    0    0 -0.11586240039E+03  0.41174565860E+02  0.35025845292E+02  0.12785245612E+03  0.00000000000E+00 0.  1.
</event>
<event>
 7    1  0.7459264E-005  0.2433039E+03  0.7818608E-02  0.1313025E+00
          2   -1    0    0  502    0  0.00000000000E+00  0.00000000000E+00  0.11859551906E+04  0.11859551906E+04  0.00000000000E+00 0. -1.
          1   -1    0    0  501    0 -0.00000000000E+00 -0.00000000000E+00 -0.93108442136E+03  0.93108442136E+03  0.00000000000E+00 0. -1.
         25    2    1    2    0    0  0.22012148072E+03 -0.96540130957E+02 -0.63706304649E+03  0.69227738096E+03  0.12500073529E+03 0.  0.
          2    1    1    2  501    0 -0.23975207339E+03  0.73397835906E+02 -0.20716347873E+03  0.32524606982E+03  0.00000000000E+00 0. -1.
          1    1    1    2  502    0  0.19630592678E+02  0.23142295050E+02  0.10990972945E+04  0.10995161612E+04  0.00000000000E+00 0. -1.
         22    1    3    3    0    0 -0.14510571790E+02 -0.18082794380E+02 -0.45581509111E+02  0.51139203348E+02  0.00000000000E+00 0. -1.
         22    1    3    3    0    0  0.23463205251E+03 -0.78457336577E+02 -0.59148153738E+03  0.64113817761E+03  0.00000000000E+00 0. -1.
</event>
<event>
 7    1  0.7459264E-005  0.3716588E+03  0.7818608E-02  0.1210151E+00
          2   -1    0    0  502    0  0.00000000000E+00  0.00000000000E+00  0.10614360076E+04  0.10614360076E+04  0.00000000000E+00 0. -1.
          1   -1    0    0  501    0 -0.00000000000E+00 -0.00000000000E+00 -0.20432098331E+04  0.20432098331E+04  0.00000000000E+00 0. -1.
         25    2    1    2    0    0 -0.33913821076E+03  0.11257644561E+03 -0.17914433241E+03  0.41881436606E+03  0.12499839709E+03 0.  0.
          2    1    1    2  501    0  0.33529818079E+03 -0.16699218097E+03 -0.17233030563E+04  0.17635432182E+04  0.00000000000E+00 0. -1.
          1    1    1    2  502    0  0.38400299670E+01  0.54415735353E+02  0.92067356324E+03  0.92228825653E+03  0.00000000000E+00 0. -1.
         22    1    3    3    0    0  0.14050426634E+01  0.27511178875E+02 -0.12144443469E+02  0.30105258928E+02  0.00000000000E+00 0.  1.
         22    1    3    3    0    0 -0.34054325343E+03  0.85065266738E+02 -0.16699988894E+03  0.38870910713E+03  0.00000000000E+00 0.  1.
</event>
<event>
 7    1  0.7459264E-005  0.5438597E+03  0.7818608E-02  0.1261302E+00
          2   -1    0    0  502    0  0.00000000000E+00  0.00000000000E+00  0.10199190151E+04  0.10199190151E+04  0.00000000000E+00 0. -1.
          1   -1    0    0  501    0 -0.00000000000E+00 -0.00000000000E+00 -0.11435816600E+04  0.11435816600E+04  0.00000000000E+00 0. -1.
         25    2    1    2    0    0 -0.31033628903E+03 -0.46257754220E+03 -0.40328200301E+03  0.69896191284E+03  0.12499914725E+03 0.  0.
          2    1    1    2  501    0  0.21733266932E+02  0.39485911218E+01 -0.50802061498E+03  0.50850061112E+03  0.00000000000E+00 0. -1.
          1    1    1    2  502    0  0.28860302210E+03  0.45862895108E+03  0.78763997313E+03  0.95603815112E+03  0.00000000000E+00 0. -1.
         22    1    3    3    0    0 -0.28088135043E+03 -0.33983611228E+03 -0.34551107713E+03  0.56014357146E+03  0.00000000000E+00 0.  1.
         22    1    3    3    0    0 -0.29454938597E+02 -0.12274142991E+03 -0.57770925882E+02  0.13881834138E+03  0.00000000000E+00 0.  1.
</event>
<event>
 7    1  0.7459264E-005  0.5733535E+02  0.7818608E-02  0.1461023E+00
          2   -1    0    0  502    0  0.00000000000E+00  0.00000000000E+00  0.16569426442E+04  0.16569426442E+04  0.00000000000E+00 0. -1.
          1   -1    0    0  501    0 -0.00000000000E+00 -0.00000000000E+00 -0.16337229523E+02  0.16337229523E+02  0.00000000000E+00 0. -1.
         25    2    1    2    0    0 -0.47981990005E+02 -0.69537130050E+02  0.53617991305E+03  0.55700223367E+03  0.12499962132E+03 0.  0.
          2    1    1    2  501    0  0.35812711465E+02  0.15099790767E+02  0.67780039461E+02  0.78132501131E+02  0.00000000000E+00 0. -1.
          1    1    1    2  502    0  0.12169278540E+02  0.54437339283E+02  0.10366454622E+04  0.10381451389E+04  0.00000000000E+00 0. -1.
         22    1    3    3    0    0 -0.19218131586E+02  0.92011101148E+01  0.88848680770E+01  0.23085447575E+02  0.00000000000E+00 0.  1.
         22    1    3    3    0    0 -0.28763858419E+02 -0.78738240165E+02  0.52729504498E+03  0.53391678609E+03  0.00000000000E+00 0.  1.
</event>
<event>
 7    1  0.7459264E-005  0.4190437E+03  0.7818608E-02  0.1119872E+00
          2   -1    0    0  502    0  0.00000000000E+00  0.00000000000E+00  0.47079874155E+03  0.47079874155E+03  0.00000000000E+00 0. -1.
          1   -1    0    0  501    0 -0.00000000000E+00 -0.00000000000E+00 -0.11169825941E+04  0.11169825941E+04  0.00000000000E+00 0. -1.
         25    2    1    2    0    0  0.66399253294E+02  0.47114645634E+03 -0.68897976507E+03  0.84658654299E+03  0.12501125526E+03 0.  0.
          2    1    1    2  501    0  0.51406532162E+01 -0.35393376750E+03 -0.23942404601E+03  0.42733992547E+03  0.00000000000E+00 0. -1.
          1    1    1    2  502    0 -0.71539906510E+02 -0.11721268884E+03  0.28221995854E+03  0.31385486717E+03  0.00000000000E+00 0. -1.
         22    1    3    3    0    0 -0.15847123244E+02  0.20244774292E+03 -0.21628447629E+03  0.29667354889E+03  0.00000000000E+00 0.  1.
         22    1    3    3    0    0  0.82246376538E+02  0.26869871343E+03 -0.47269528878E+03  0.54991299410E+03  0.00000000000E+00 0.  1.
</event>
<event>
 7    1  0.7459264E-005  0.5611922E+02  0.7818608E-02  0.1493341E+00
          2   -1    0    0  502    0  0.00000000000E+00  0.00000000000E+00  0.85336323277E+03  0.85336323277E+03  0.00000000000E+00 0. -1.
          1   -1    0    0  501    0 -0.00000000000E+00 -0.00000000000E+00 -0.55663114468E+03  0.55663114468E+03  0.00000000000E+00 0. -1.
         25    2    1    2    0    0  0.33921152253E+02  0.14463584720E+01 -0.13089667576E+03  0.18415282751E+03  0.12500235051E+03 0.  0.
          2    1    1    2  501    0 -0.50949410488E+02 -0.28035797729E+02 -0.39668414974E+03  0.40092413627E+03  0.00000000000E+00 0. -1.
          1    1    1    2  502    0  0.17028258235E+02  0.26589439257E+02  0.82431291359E+03  0.82491741367E+03  0.00000000000E+00 0. -1.
         22    1    3    3    0    0  0.70891729416E+02  0.13628763599E+02 -0.12560013029E+03  0.14486812356E+03  0.00000000000E+00 0.  1.
         22    1    3    3    0    0 -0.36970577163E+02 -0.12182405127E+02 -0.52965454735E+01  0.39284703950E+02  0.00000000000E+00 0.  1.
</event>
<event>
 7    1  0.7459264E-005  0.2996811E+03  0.7818608E-02  0.1241495E+00
          2   -1    0    0  502    0  0.00000000000E+00  0.00000000000E+00  0.15476948010E+03  0.15476948010E+03  0.00000000000E+00 0. -1.
          1   -1    0    0  501    0 -0.00000000000E+00 -0.00000000000E+00 -0.23567786066E+04  0.23567786066E+04  0.00000000000E+00 0. -1.
         25    2    1    2    0    0  0.26950421749E+03 -0.70902665082E+02 -0.31306939977E+03  0.43737582047E+03  0.12500179239E+03 0.  0.
          2    1    1    2  501    0  0.25153203720E+02 -0.41860378509E+02 -0.17115081907E+04  0.17122047956E+04  0.00000000000E+00 0. -1.
          1    1    1    2  502    0 -0.29465742121E+03  0.11276304359E+03 -0.17743153601E+03  0.36196747070E+03  0.00000000000E+00 0. -1.
         22    1    3    3    0    0  0.14139146127E+01 -0.34672856853E+02 -0.30755628593E+02  0.46369330888E+02  0.00000000000E+00 0.  1.
         22    1    3    3    0    0  0.26809030288E+03 -0.36229808229E+02 -0.28231377117E+03  0.39100648958E+03  0.00000000000E+00 0.  1.
</event>
<event>
 7    1  0.7459264E-005  0.1771509E+03  0.7818608E-02  0.1175260E+00
          2   -1    0    0  502    0  0.00000000000E+00  0.00000000000E+00  0.89495173589E+03  0.89495173589E+03  0.00000000000E+00 0. -1.
          1   -1    0    0  501    0 -0.00000000000E+00 -0.00000000000E+00 -0.24760285585E+04  0.24760285585E+04  0.00000000000E+00 0. -1.
         25    2    1    2    0    0 -0.48893694493E+02  0.83482464271E+02  0.11985517768E+03  0.19833582137E+03  0.12494766592E+03 0.  0.
          2    1    1    2  501    0 -0.16105097196E+03 -0.73790346167E+02 -0.24184756202E+04  0.24249550009E+04  0.00000000000E+00 0. -1.
          1    1    1    2  502    0  0.20994466645E+03 -0.96921181039E+01  0.71754361997E+03  0.74768947209E+03  0.00000000000E+00 0. -1.
         22    1    3    3    0    0 -0.79683152135E+02  0.72106467206E+02  0.44823083587E+02  0.11643820752E+03  0.00000000000E+00 0.  1.
         22    1    3    3    0    0  0.30789457643E+02  0.11375997065E+02  0.75032094090E+02  0.81897613852E+02  0.00000000000E+00 0.  1.
</event>
<event>
 7    1  0.7459264E-005  0.6178934E+03  0.7818608E-02  0.1171182E+00
          2   -1    0    0  502    0  0.00000000000E+00  0.00000000000E+00  0.20641327713E+04  0.20641327713E+04  0.00000000000E+00 0. -1.
          1   -1    0    0  501    0 -0.00000000000E+00 -0.00000000000E+00 -0.64858233906E+03  0.64858233906E+03  0.00000000000E+00 0. -1.
         25    2    1    2    0    0  0.62452447935E+03 -0.14383930234E+03  0.66304010640E+03  0.93057407975E+03  0.12500146002E+03 0.  0.
          2    1    1    2  501    0 -0.27253685422E+02  0.42451583820E+02 -0.44089586878E+03  0.44377254021E+03  0.00000000000E+00 0. -1.
          1    1    1    2  502    0 -0.59727079393E+03  0.10138771852E+03  0.11934061947E+04  0.13383684904E+04  0.00000000000E+00 0. -1.
         22    1    3    3    0    0  0.52061035315E+03 -0.16632888519E+03  0.54907681321E+03  0.77471658344E+03  0.00000000000E+00 0.  1.
         22    1    3    3    0    0  0.10391412620E+03  0.22489582859E+02  0.11396329319E+03  0.15585749631E+03  0.00000000000E+00 0.  1.
</event>
<event>
 7    1  0.7459264E-005  0.2477658E+03  0.7818608E-02  0.1187148E+00
          2   -1    0    0  502    0  0.00000000000E+00  0.00000000000E+00  0.10552396420E+04  0.10552396420E+04  0.00000000000E+00 0. -1.
          1   -1    0    0  501    0 -0.00000000000E+00 -0.00000000000E+00 -0.13278233409E+03  0.13278233409E+03  0.00000000000E+00 0. -1.
         25    2    1    2    0    0  0.12029801318E+03 -0.23134653946E+03  0.36814755949E+03  0.46813277295E+03  0.12499133674E+03 0.  0.
          2    1    1    2  501    0  0.73163497825E+02  0.75471060735E+02 -0.77196603342E+01  0.10539625979E+03  0.00000000000E+00 0. -1.
          1    1    1    2  502    0 -0.19346151100E+03  0.15587547872E+03  0.56202940878E+03  0.61449294336E+03  0.00000000000E+00 0. -1.
         22    1    3    3    0    0 -0.13103201510E+02 -0.81236330128E+02  0.15366622517E+03  0.17431105525E+03  0.00000000000E+00 0.  1.
         22    1    3    3    0    0  0.13340121469E+03 -0.15011020933E+03  0.21448133431E+03  0.29382171770E+03  0.00000000000E+00 0.  1.
</event>
<event>
 7    1  0.7459264E-005  0.3880109E+03  0.7818608E-02  0.1297991E+00
          2   -1    0    0  502    0  0.00000000000E+00  0.00000000000E+00  0.28563090539E+03  0.28563090539E+03  0.00000000000E+00 0. -1.
          1   -1    0    0  501    0 -0.00000000000E+00 -0.00000000000E+00 -0.21918746844E+04  0.21918746844E+04  0.00000000000E+00 0. -1.
         25    2    1    2    0    0  0.37267515438E+03  0.81216965715E+02 -0.13386838082E+04  0.13975629050E+04  0.12499907563E+03 0.  0.
          2    1    1    2  501    0 -0.39242887468E+03 -0.71921017621E+02 -0.77483703338E+03  0.87151906621E+03  0.00000000000E+00 0. -1.
          1    1    1    2  502    0  0.19753720298E+02 -0.92959480942E+01  0.20727706257E+03  0.20842361858E+03  0.00000000000E+00 0. -1.
         22    1    3    3    0    0  0.53694286528E+02  0.30825253583E+01 -0.38895186431E+03  0.39265268510E+03  0.00000000000E+00 0.  1.
         22    1    3    3    0    0  0.31898086785E+03  0.78134440357E+02 -0.94973194385E+03  0.10049102199E+04  0.00000000000E+00 0.  1.
</event>
<event>
 7    1  0.7459264E-005  0.2692086E+03  0.7818608E-02  0.1137441E+00
          2   -1    0    0  502    0  0.00000000000E+00  0.00000000000E+00  0.19417838042E+04  0.19417838042E+04  0.00000000000E+00 0. -1.
          1   -1    0    0  501    0 -0.00000000000E+00 -0.00000000000E+00 -0.18289382029E+04  0.18289382029E+04  0.00000000000E+00 0. -1.
         25    2    1    2    0    0  0.16696003733E+03 -0.37080461215E+03 -0.67968113046E+03  0.80185834311E+03  0.12505458349E+03 0.  0.
          2    1    1    2  501    0 -0.13656512836E+03  0.10485677319E+03 -0.10717377431E+04  0.10854799709E+04  0.00000000000E+00 0. -1.
          1    1    1    2  502    0 -0.30394908971E+02  0.26594783896E+03  0.18642644748E+04  0.18833836931E+04  0.00000000000E+00 0. -1.
         22    1    3    3    0    0  0.14730829071E+03 -0.17563986603E+03 -0.35924513632E+03  0.42615274611E+03  0.00000000000E+00 0.  1.
         22    1    3    3    0    0  0.19651746625E+02 -0.19516474613E+03 -0.32043599415E+03  0.37570559700E+03  0.00000000000E+00 0.  1.
</event>
<event>
 7    1  0.7459264E-005  0.3821662E+03  0.7818608E-02  0.1109662E+00
          2   -1    0    0  502    0  0.00000000000E+00  0.00000000000E+00  0.82390834542E+03  0.82390834542E+03  0.00000000000E+00 0. -1.
          1   -1    0    0  501    0 -0.00000000000E+00 -0.00000000000E+00 -0.16160686636E+04  0.16160686636E+04  0.00000000000E+00 0. -1.
         25    2    1    2    0    0 -0.38060690522E+03  0.92753289882E+02  0.13612637621E+03  0.43315139166E+03  0.12499979485E+03 0.  0.
          2    1    1    2  501    0  0.29804317313E+03 -0.24282652920E+03 -0.14278577829E+04  0.14787062942E+04  0.00000000000E+00 0. -1.
          1    1    1    2  502    0  0.82563732082E+02  0.15007323932E+03  0.49957108851E+03  0.52811932316E+03  0.00000000000E+00 0. -1.
         22    1    3    3    0    0 -0.85141023496E+02  0.73255950540E+02  0.60330850704E+02  0.12749603805E+03  0.00000000000E+00 0.  1.
         22    1    3    3    0    0 -0.29546588172E+03  0.19497339342E+02  0.75795525504E+02  0.30565535361E+03  0.00000000000E+00 0.  1.
</event>
<event>
 7    1  0.7459264E-005  0.2850581E+03  0.7818608E-02  0.1288695E+00
          2   -1    0    0  502    0  0.00000000000E+00  0.00000000000E+00  0.52556333682E+03  0.52556333682E+03  0.00000000000E+00 0. -1.
          1   -1    0    0  501    0 -0.00000000000E+00 -0.00000000000E+00 -0.80611184713E+03  0.80611184713E+03  0.00000000000E+00 0. -1.
         25    2    1    2    0    0 -0.14425845548E+03  0.22091119634E+03 -0.22110099954E+03  0.36622641859E+03  0.12499551603E+03 0.  0.
          2    1    1    2  501    0 -0.31423862356E+02  0.79111756072E+01 -0.46589896535E+03  0.46702450871E+03  0.00000000000E+00 0. -1.
          1    1    1    2  502    0  0.17568231783E+03 -0.22882237195E+03  0.40645145457E+03  0.49842425666E+03  0.00000000000E+00 0. -1.
         22    1    3    3    0    0  0.18221625919E+02  0.19441748684E+02 -0.13218033633E+01  0.26678763223E+02  0.00000000000E+00 0.  1.
         22    1    3    3    0    0 -0.16248008139E+03  0.20146944766E+03 -0.21977919618E+03  0.33954765536E+03  0.00000000000E+00 0.  1.
</event>
<event>
 7    1  0.7459264E-005  0.2262423E+03  0.7818608E-02  0.1252531E+00
          2   -1    0    0  502    0  0.00000000000E+00  0.00000000000E+00  0.16782109052E+04  0.16782109052E+04  0.00000000000E+00 0. -1.
          1   -1    0    0  501    0 -0.00000000000E+00 -0.00000000000E+00 -0.47987707909E+02  0.47987707909E+02  0.00000000000E+00 0. -1.
         25    2    1    2    0    0  0.23036616676E+03 -0.76725381210E+02  0.54501393879E+03  0.60960636395E+03  0.12499748231E+03 0.  0.
          2    1    1    2  501    0 -0.17670827724E+03  0.98491670364E+02  0.90384867619E+03  0.92621209980E+03  0.00000000000E+00 0. -1.
          1    1    1    2  502    0 -0.53657889522E+02 -0.21766289154E+02  0.18136058228E+03  0.19038014932E+03  0.00000000000E+00 0. -1.
         22    1    3    3    0    0  0.13109452486E+03 -0.86485861739E+02  0.42766335121E+03  0.45558920169E+03  0.00000000000E+00 0.  1.
         22    1    3    3    0    0  0.99271641895E+02  0.97604805292E+01  0.11735058758E+03  0.15401716226E+03  0.00000000000E+00 0.  1.
</event>
<event>
 7    1  0.7459264E-005  0.3922020E+02  0.7818608E-02  0.1527350E+00
          2   -1    0    0  502    0  0.00000000000E+00  0.00000000000E+00  0.11658941042E+04  0.11658941042E+04  0.00000000000E+00 0. -1.
          1   -1    0    0  501    0 -0.00000000000E+00 -0.00000000000E+00 -0.38827162050E+03  0.38827162050E+03  0.00000000000E+00 0. -1.
         25    2    1    2    0    0 -0.11247488989E+02 -0.49986870870E+01  0.41112894235E+03  0.42988858993E+03  0.12500279852E+03 0.  0.
          2    1    1    2  501    0  0.70686506483E+00  0.39296389370E+02 -0.37743901150E+03  0.37947979298E+03  0.00000000000E+00 0. -1.
          1    1    1    2  502    0  0.10540623924E+02 -0.34297702283E+02  0.74393255284E+03  0.74479734177E+03  0.00000000000E+00 0. -1.
         22    1    3    3    0    0 -0.26823463533E+02  0.29067417636E+02  0.37744838618E+03  0.37951508164E+03  0.00000000000E+00 0.  1.
         22    1    3    3    0    0  0.15575974544E+02 -0.34066104723E+02  0.33680556171E+02  0.50373508295E+02  0.00000000000E+00 0.  1.
</event>
<event>
 7    1  0.7459264E-005  0.2778619E+03  0.7818608E-02  0.1169486E+00
          2   -1    0    0  502    0  0.00000000000E+00  0.00000000000E+00  0.20695348653E+04  0.20695348653E+04  0.00000000000E+00 0. -1.
          1   -1    0    0  501    0 -0.00000000000E+00 -0.00000000000E+00 -0.26885940163E+03  0.26885940163E+03  0.00000000000E+00 0. -1.
         25    2    1    2    0    0 -0.32941297437E+03  0.14840065140E+03  0.86537754310E+03  0.94606486953E+03  0.12499913691E+03 0.  0.
          2    1    1    2  501    0  0.11138193092E+03 -0.26000528624E+02 -0.19968986371E+03  0.23012606044E+03  0.00000000000E+00 0. -1.
          1    1    1    2  502    0  0.21803104345E+03 -0.12240012278E+03  0.11349877843E+04  0.11622033370E+04  0.00000000000E+00 0. -1.
         22    1    3    3    0    0  0.59723633649E+00 -0.11988854729E+02  0.57898450078E+02  0.59129686710E+02  0.00000000000E+00 0. -1.
         22    1    3    3    0    0 -0.33001021071E+03  0.16038950613E+03  0.80747909303E+03  0.88693518282E+03  0.00000000000E+00 0. -1.
</event>
<event>
 7    1  0.7459264E-005  0.3246562E+03  0.7818608E-02  0.1180182E+00
          2   -1    0    0  502    0  0.00000000000E+00  0.00000000000E+00  0.59919187020E+03  0.59919187020E+03  0.00000000000E+00 0. -1.
          1   -1    0    0  501    0 -0.00000000000E+00 -0.00000000000E+00 -0.11912234181E+04  0.11912234181E+04  0.00000000000E+00 0. -1.
         25    2    1    2    0    0 -0.17842341126E+03  0.27768893787E+03 -0.83563252389E+03  0.90711220297E+03  0.12499909555E+03 0.  0.
          2    1    1    2  501    0  0.96281052934E+02 -0.30545449241E+03 -0.23479291239E+03  0.39711484459E+03  0.00000000000E+00 0. -1.
          1    1    1    2  502    0  0.82142358328E+02  0.27765554536E+02  0.47839388836E+03  0.48618824077E+03  0.00000000000E+00 0. -1.
         22    1    3    3    0    0 -0.54947105676E+02  0.42401877126E+02 -0.78895885831E+02  0.10507932436E+03  0.00000000000E+00 0.  1.
         22    1    3    3    0    0 -0.12347630559E+03  0.23528706074E+03 -0.75673663806E+03  0.80203287861E+03  0.00000000000E+00 0.  1.
</event>
<event>
 7    1  0.7459264E-005  0.3491009E+03  0.7818608E-02  0.1278171E+00
          2   -1    0    0  502    0  0.00000000000E+00  0.00000000000E+00  0.12833925926E+03  0.12833925926E+03  0.00000000000E+00 0. -1.
          1   -1    0    0  501    0 -0.00000000000E+00 -0.00000000000E+00 -0.12871114119E+04  0.12871114119E+04  0.00000000000E+00 0. -1.
         25    2    1    2    0    0 -0.24184630025E+03  0.23239349881E+03 -0.70277169307E+03  0.78867607693E+03  0.12500212205E+03 0.  0.
          2    1    1    2  501    0 -0.29045956570E+02  0.32826640165E+01  0.16312250175E+02  0.33474363054E+02  0.00000000000E+00 0. -1.
          1    1    1    2  502    0  0.27089225682E+03 -0.23567616282E+03 -0.47231270978E+03  0.59330023120E+03  0.00000000000E+00 0. -1.
         22    1    3    3    0    0 -0.10129170924E+03  0.38646768750E+02 -0.31333816010E+03  0.33156354695E+03  0.00000000000E+00 0. -1.
         22    1    3    3    0    0 -0.14055459102E+03  0.19374673006E+03 -0.38943353297E+03  0.45711252998E+03  0.00000000000E+00 0. -1.
</event>
<event>
 7    1  0.7459264E-005  0.4432987E+03  0.7818608E-02  0.1183943E+00
          2   -1    0    0  502    0  0.00000000000E+00  0.00000000000E+00  0.13126322140E+04  0.13126322140E+04  0.00000000000E+00 0. -1.
          1   -1    0    0  501    0 -0.00000000000E+00 -0.00000000000E+00 -0.92336995570E+03  0.92336995570E+03  0.00000000000E+00 0. -1.
         25    2    1    2    0    0  0.42532376002E+03  0.22521688785E+03 -0.48476010202E+03  0.69443836379E+03  0.12501734755E+03 0.  0.
          2    1    1    2  501    0 -0.17259355919E+02 -0.58385409598E+02 -0.29027903779E+03  0.29659511325E+03  0.00000000000E+00 0. -1.
          1    1    1    2  502    0 -0.40806440410E+03 -0.16683147825E+03  0.11643013981E+04  0.12449686926E+04  0.00000000000E+00 0. -1.
         22    1    3    3    0    0  0.77621598515E+02  0.62778412879E+02 -0.41466836318E+02  0.10810060219E+03  0.00000000000E+00 0.  1.
         22    1    3    3    0    0  0.34770216150E+03  0.16243847497E+03 -0.44329326570E+03  0.58633776160E+03  0.00000000000E+00 0.  1.
</event>
<event>
 7    1  0.7459264E-005  0.3327979E+03  0.7818608E-02  0.1159142E+00
          2   -1    0    0  502    0  0.00000000000E+00  0.00000000000E+00  0.87306297483E+03  0.87306297483E+03  0.00000000000E+00 0. -1.
          1   -1    0    0  501    0 -0.00000000000E+00 -0.00000000000E+00 -0.18110646136E+04  0.18110646136E+04  0.00000000000E+00 0. -1.
         25    2    1    2    0    0 -0.37835488586E+03  0.18930041348E+03 -0.58151887064E+03  0.72991515252E+03  0.12499946709E+03 0.  0.
          2    1    1    2  501    0  0.67404783407E+02 -0.83891510679E+02 -0.11189209211E+04  0.11240841686E+04  0.00000000000E+00 0. -1.
          1    1    1    2  502    0  0.31095010245E+03 -0.10540890280E+03  0.76243815300E+03  0.83012826729E+03  0.00000000000E+00 0. -1.
         22    1    3    3    0    0 -0.34142294841E+03  0.19964718419E+03 -0.48350616310E+03  0.62466538052E+03  0.00000000000E+00 0.  1.
         22    1    3    3    0    0 -0.36931937442E+02 -0.10346770713E+02 -0.98012707540E+02  0.10524977200E+03  0.00000000000E+00 0.  1.
</event>
<event>
 7    1  0.7459264E-005  0.3321497E+03  0.7818608E-02  0.1173950E+00
          2   -1    0    0  502    0  0.00000000000E+00  0.00000000000E+00  0.62454698356E+03  0.62454698356E+03  0.00000000000E+00 0. -1.
          1   -1    0    0  501    0 -0.00000000000E+00 -0.00000000000E+00 -0.46740712707E+03  0.46740712707E+03  0.00000000000E+00 0. -1.
         25    2    1    2    0    0 -0.39727255389E+03 -0.10343344854E+03  0.38448347940E+03  0.57617380092E+03  0.12499897034E+03 0.  0.
          2    1    1    2  501    0  0.31134965594E+03  0.73664948297E+02 -0.26686295544E+03  0.41663049558E+03  0.00000000000E+00 0. -1.
          1    1    1    2  502    0  0.85922897950E+02  0.29768500240E+02  0.39519332526E+02  0.99149814129E+02  0.00000000000E+00 0. -1.
         22    1    3    3    0    0 -0.36048749075E+03 -0.65888801892E+02  0.28717592118E+03  0.46557767871E+03  0.00000000000E+00 0. -1.
         22    1    3    3    0    0 -0.36785063133E+02 -0.37544646645E+02  0.97307558226E+02  0.11059612222E+03  0.00000000000E+00 0. -1.
</event>
<event>
 7    1  0.7459264E-005  0.1428303E+03  0.7818608E-02  0.1219556E+00
          2   -1    0    0  502    0  0.00000000000E+00  0.00000000000E+00  0.21343177240E+04  0.21343177240E+04  0.00000000000E+00 0. -1.
          1   -1    0    0  501    0 -0.00000000000E+00 -0.00000000000E+00 -0.12139520291E+03  0.12139520291E+03  0.00000000000E+00 0. -1.
         25    2    1    2    0    0  0.72501478664E+02  0.21801582320E+03  0.83080112486E+03  0.87100165823E+03  0.12500406392E+03 0.  0.
          2    1    1    2  501    0 -0.93273206442E+02 -0.88375773540E+02 -0.55628950240E+02  0.14001695788E+03  0.00000000000E+00 0. -1.
          1    1    1    2  502    0  0.20771727778E+02 -0.12964004966E+03  0.12377503464E+04  0.12446943108E+04  0.00000000000E+00 0. -1.
         22    1    3    3    0    0  0.68301840889E+02  0.17681758997E+03  0.79160121910E+03  0.81397917152E+03  0.00000000000E+00 0. -1.
         22    1    3    3    0    0  0.41996377753E+01  0.41198233229E+02  0.39199905760E+02  0.57022486706E+02  0.00000000000E+00 0. -1.
</event>
<event>
 7    1  0.7459264E-005  0.6879141E+02  0.7818608E-02  0.1381972E+00
          2   -1    0    0  502    0  0.00000000000E+00  0.00000000000E+00  0.23866891575E+04  0.23866891575E+04  0.00000000000E+00 0. -1.
          1   -1    0    0  501    0 -0.00000000000E+00 -0.00000000000E+00 -0.23519324665E+03  0.23519324665E+03  0.00000000000E+00 0. -1.
         25    2    1    2    0    0 -0.66937649109E+02  0.73432953304E+02  0.21612866190E+02  0.16113658610E+03  0.12499934358E+03 0.  0.
          2    1    1    2  501    0  0.78084136786E+01 -0.67305034680E+02 -0.15809126423E+03  0.17199938036E+03  0.00000000000E+00 0. -1.
          1    1    1    2  502    0  0.59129235430E+02 -0.61279186234E+01  0.22879743089E+04  0.22887464377E+04  0.00000000000E+00 0. -1.
         22    1    3    3    0    0 -0.18197978485E+02 -0.26415871910E+02  0.36997284160E+02  0.48966965853E+02  0.00000000000E+00 0.  1.
         22    1    3    3    0    0 -0.48739670624E+02  0.99848825213E+02 -0.15384417970E+02  0.11216962024E+03  0.00000000000E+00 0.  1.
</event>
<event>
 7    1  0.7459264E-005  0.4296922E+03  0.7818608E-02  0.1119831E+00
          2   -1    0    0  502    0  0.00000000000E+00  0.00000000000E+00  0.11798299823E+04  0.11798299823E+04  0.00000000000E+00 0. -1.
          1   -1    0    0  501    0 -0.00000000000E+00 -0.00000000000E+00 -0.11527696319E+04  0.11527696319E+04  0.00000000000E+00 0. -1.
         25    2    1    2    0    0 -0.47090277068E+03  0.40349776627E+02  0.36357321849E+03  0.60925201252E+03  0.12500002258E+03 0.  0.
          2    1    1    2  501    0  0.39885386822E+03 -0.15331496988E+03 -0.97839211623E+03  0.10676333740E+04  0.00000000000E+00 0. -1.
          1    1    1    2  502    0  0.72048902464E+02  0.11296519325E+03  0.64187924811E+03  0.65571422768E+03  0.00000000000E+00 0. -1.
         22    1    3    3    0    0 -0.20036341705E+03  0.67783996343E+02  0.20451705972E+03  0.29422337903E+03  0.00000000000E+00 0.  1.
         22    1    3    3    0    0 -0.27053935363E+03 -0.27434219716E+02  0.15905615877E+03  0.31502863349E+03  0.00000000000E+00 0.  1.
</event>
<event>
 7    1  0.7459264E-005  0.1008009E+03  0.7818608E-02  0.1331512E+00
          2   -1    0    0  502    0  0.00000000000E+00  0.00000000000E+00  0.18474098834E+04  0.18474098834E+04  0.00000000000E+00 0. -1.
          1   -1    0    0  501    0 -0.00000000000E+00 -0.00000000000E+00 -0.16802208915E+03  0.16802208915E+03  0.00000000000E+00 0. -1.
         25    2    1    2    0    0 -0.34187986198E+02 -0.59516563388E+02  0.36523492440E+03  0.39208750908E+03  0.12500010023E+03 0.  0.
          2    1    1    2  501    0  0.40293921856E+02 -0.47295457917E+02 -0.14631624449E+03  0.15896195733E+03  0.00000000000E+00 0. -1.
          1    1    1    2  502    0 -0.61059356575E+01  0.10681202130E+03  0.14604691144E+04  0.14643825062E+04  0.00000000000E+00 0. -1.
         22    1    3    3    0    0 -0.49689401886E+01  0.28880861557E+02  0.22539405327E+02  0.36970519653E+02  0.00000000000E+00 0.  1.
         22    1    3    3    0    0 -0.29219046010E+02 -0.88397424945E+02  0.34269551907E+03  0.35511698943E+03  0.00000000000E+00 0.  1.
</event>
<event>
 7    1  0.7459264E-005  0.5447171E+03  0.7818608E-02  0.1009732E+00
          2   -1    0    0  502    0  0.00000000000E+00  0.00000000000E+00  0.17113379415E+04  0.17113379415E+04  0.00000000000E+00 0. -1.
          1   -1    0    0  501    0 -0.00000000000E+00 -0.00000000000E+00 -0.23893725665E+04  0.23893725665E+04  0.00000000000E+00 0. -1.
         25    2    1    2    0    0  0.90288855353E+03 -0.10405092320E+03 -0.15452416442E+04  0.17970621540E+04  0.12500524601E+03 0.  0.
          2    1    1    2  501    0 -0.39723214746E+03  0.28421927084E+03 -0.58107148567E+03  0.75909027418E+03  0.00000000000E+00 0. -1.
          1    1    1    2  502    0 -0.50565640607E+03 -0.18016834764E+03  0.14482785049E+04  0.15445580799E+04  0.00000000000E+00 0. -1.
         22    1    3    3    0    0  0.71317556731E+03 -0.33991351407E+02 -0.11649112718E+04  0.13663063613E+04  0.00000000000E+00 0.  1.
         22    1    3    3    0    0  0.18971298622E+03 -0.70059571789E+02 -0.38033037241E+03  0.43075579267E+03  0.00000000000E+00 0.  1.
</event>
<event>
 7    1  0.7459264E-005  0.1422944E+03  0.7818608E-02  0.1370883E+00
          2   -1    0    0  502    0  0.00000000000E+00  0.00000000000E+00  0.33605439335E+04  0.33605439335E+04  0.00000000000E+00 0. -1.
          1   -1    0    0  501    0 -0.00000000000E+00 -0.00000000000E+00 -0.20342621404E+04  0.20342621404E+04  0.00000000000E+00 0. -1.
         25    2    1    2    0    0  0.15528612523E+03  0.43634671839E+02 -0.25874474148E+03  0.32953369531E+03  0.12500339926E+03 0.  0.
          2    1    1    2  501    0 -0.26583286641E+02  0.16851097784E+02 -0.17384599563E+04  0.17387448491E+04  0.00000000000E+00 0. -1.
          1    1    1    2  502    0 -0.12870283859E+03 -0.60485769624E+02  0.33234864909E+04  0.33265275295E+04  0.00000000000E+00 0. -1.
         22    1    3    3    0    0  0.74975964253E+02  0.18369698568E+02 -0.22664701643E+03  0.23943205946E+03  0.00000000000E+00 0. -1.
         22    1    3    3    0    0  0.80310160974E+02  0.25264973271E+02 -0.32097725055E+02  0.90101635855E+02  0.00000000000E+00 0. -1.
</event>
<event>
 7    1  0.7459264E-005  0.6124140E+03  0.7818608E-02  0.1174986E+00
          2   -1    0    0  502    0  0.00000000000E+00  0.00000000000E+00  0.10059659112E+04  0.10059659112E+04  0.00000000000E+00 0. -1.
          1   -1    0    0  501    0 -0.00000000000E+00 -0.00000000000E+00 -0.10636173148E+04  0.10636173148E+04  0.00000000000E+00 0. -1.
         25    2    1    2    0    0  0.59501105702E+03 -0.15059628735E+03  0.31437124302E+03  0.70083553641E+03  0.12499508357E+03 0.  0.
          2    1    1    2  501    0 -0.57993489495E+03  0.19694857879E+03 -0.76093177864E+03  0.97679598525E+03  0.00000000000E+00 0. -1.
          1    1    1    2  502    0 -0.15076162073E+02 -0.46352291434E+02  0.38890913202E+03  0.39195170436E+03  0.00000000000E+00 0. -1.
         22    1    3    3    0    0  0.42774939676E+03 -0.72614915308E+02  0.16788648650E+03  0.46521859883E+03  0.00000000000E+00 0.  1.
         22    1    3    3    0    0  0.16726166026E+03 -0.77981372046E+02  0.14648475652E+03  0.23561693758E+03  0.00000000000E+00 0.  1.
</event>
<event>
 7    1  0.7459264E-005  0.2551161E+03  0.7818608E-02  0.1222976E+00
          2   -1    0    0  502    0  0.00000000000E+00  0.00000000000E+00  0.15982107819E+04  0.15982107819E+04  0.00000000000E+00 0. -1.
          1   -1    0    0  501    0 -0.00000000000E+00 -0.00000000000E+00 -0.17045305945E+04  0.17045305945E+04  0.00000000000E+00 0. -1.
         25    2    1    2    0    0 -0.25732889200E+03 -0.10236729303E+03  0.20469472968E+03  0.36636447005E+03  0.12500308483E+03 0.  0.
          2    1    1    2  501    0  0.25247389607E+03  0.33131444805E+02 -0.16127820569E+04  0.16327604613E+04  0.00000000000E+00 0. -1.
          1    1    1    2  502    0  0.48549959293E+01  0.69235848226E+02  0.13017675146E+04  0.13036164451E+04  0.00000000000E+00 0. -1.
         22    1    3    3    0    0 -0.12788316127E+03 -0.11309654425E+03  0.14238538577E+03  0.22230278752E+03  0.00000000000E+00 0. -1.
         22    1    3    3    0    0 -0.12944573073E+03  0.10729251221E+02  0.62309343909E+02  0.14406168253E+03  0.00000000000E+00 0. -1.
</event>
<event>
 7    1  0.7459264E-005  0.2004360E+03  0.7818608E-02  0.1256080E+00
          2   -1    0    0  502    0  0.00000000000E+00  0.00000000000E+00  0.88106745050E+03  0.88106745050E+03  0.00000000000E+00 0. -1.
          1   -1    0    0  501    0 -0.00000000000E+00 -0.00000000000E+00 -0.11046150227E+03  0.11046150227E+03  0.00000000000E+00 0. -1.
         25    2    1    2    0    0 -0.17638748616E+03 -0.10716669081E+03  0.33028210797E+03  0.40903472446E+03  0.12500356025E+03 0.  0.
          2    1    1    2  501    0  0.19528874921E+03  0.46964936578E+02  0.79213445558E+02  0.21591241463E+03  0.00000000000E+00 0. -1.
          1    1    1    2  502    0 -0.18901263045E+02  0.60201754233E+02  0.36111039470E+03  0.36658181368E+03  0.00000000000E+00 0. -1.
         22    1    3    3    0    0 -0.55726640821E+02 -0.34947604449E+01  0.18167967765E+02  0.58717517833E+02  0.00000000000E+00 0. -1.
         22    1    3    3    0    0 -0.12066084534E+03 -0.10367193037E+03  0.31211414021E+03  0.35031720663E+03  0.00000000000E+00 0. -1.
</event>
<event>
 7    1  0.7459264E-005  0.4215570E+03  0.7818608E-02  0.1071394E+00
          2   -1    0    0  502    0  0.00000000000E+00  0.00000000000E+00  0.92077535554E+03  0.92077535554E+03  0.00000000000E+00 0. -1.
          1   -1    0    0  501    0 -0.00000000000E+00 -0.00000000000E+00 -0.18373102812E+04  0.18373102812E+04  0.00000000000E+00 0. -1.
         25    2    1    2    0    0 -0.31138284281E+03  0.43174149888E+03 -0.61892267384E+03  0.82586345955E+03  0.12500072389E+03 0.  0.
          2    1    1    2  501    0 -0.64252283181E+02 -0.24927410887E+03 -0.10449120120E+04  0.10761538226E+04  0.00000000000E+00 0. -1.
          1    1    1    2  502    0  0.37563512599E+03 -0.18246739001E+03  0.74729976009E+03  0.85606835459E+03  0.00000000000E+00 0. -1.
         22    1    3    3    0    0 -0.25300788509E+03  0.25992974511E+03 -0.44953489318E+03  0.57763144175E+03  0.00000000000E+00 0.  1.
         22    1    3    3    0    0 -0.58374957713E+02  0.17181175378E+03 -0.16938778066E+03  0.24823201780E+03  0.00000000000E+00 0.  1.
</event>
<event>
 7    1  0.7459264E-005  0.5994787E+02  0.7818608E-02  0.1425822E+00
          2   -1    0    0  502    0  0.00000000000E+00  0.00000000000E+00  0.10923024753E+03  0.10923024753E+03  0.00000000000E+00 0. -1.
          1   -1    0    0  501    0 -0.00000000000E+00 -0.00000000000E+00 -0.65592222327E+03  0.65592222327E+03  0.00000000000E+00 0. -1.
         25    2    1    2    0    0 -0.59863391655E+02 -0.25130523919E+02 -0.73180617998E+02  0.15873285090E+03  0.12500218482E+03 0.  0.
          2    1    1    2  501    0  0.55943797968E+02 -0.23006958213E+02 -0.52923393623E+03  0.53267962971E+03  0.00000000000E+00 0. -1.
          1    1    1    2  502    0  0.39195936866E+01  0.48137482132E+02  0.55722578482E+02  0.73739990191E+02  0.00000000000E+00 0. -1.
         22    1    3    3    0    0  0.72005522610E+01 -0.61498391988E+02 -0.17689140041E+02  0.64395697413E+02  0.00000000000E+00 0.  1.
         22    1    3    3    0    0 -0.67063943916E+02  0.36367868069E+02 -0.55491477957E+02  0.94337153483E+02  0.00000000000E+00 0.  1.
</event>
<event>
 7    1  0.7459264E-005  0.1269745E+03  0.7818608E-02  0.1440278E+00
          2   -1    0    0  502    0  0.00000000000E+00  0.00000000000E+00  0.11788325542E+03  0.11788325542E+03  0.00000000000E+00 0. -1.
          1   -1    0    0  501    0 -0.00000000000E+00 -0.00000000000E+00 -0.27390183991E+04  0.27390183991E+04  0.00000000000E+00 0. -1.
         25    2    1    2    0    0  0.33284457629E+02  0.13037770957E+03 -0.12278382882E+03  0.22094924906E+03  0.12504599061E+03 0.  0.
          2    1    1    2  501    0 -0.13296727226E+02 -0.12607678622E+03 -0.25640314473E+04  0.25671636920E+04  0.00000000000E+00 0. -1.
          1    1    1    2  502    0 -0.19987730403E+02 -0.43009233559E+01  0.65680132395E+02  0.68788713462E+02  0.00000000000E+00 0. -1.
         22    1    3    3    0    0  0.16649601293E+02 -0.21434175159E+02 -0.36676006258E+02  0.45626335849E+02  0.00000000000E+00 0.  1.
         22    1    3    3    0    0  0.16634856336E+02  0.15181188473E+03 -0.86107822559E+02  0.17532291321E+03  0.00000000000E+00 0.  1.
</event>
<event>
 7    1  0.7459264E-005  0.1753122E+03  0.7818608E-02  0.1178911E+00
          2   -1    0    0  502    0  0.00000000000E+00  0.00000000000E+00  0.21552198502E+04  0.21552198502E+04  0.00000000000E+00 0. -1.
          1   -1    0    0  501    0 -0.00000000000E+00 -0.00000000000E+00 -0.56348760218E+03  0.56348760218E+03  0.00000000000E+00 0. -1.
         25    2    1    2    0    0 -0.11394107182E+02 -0.33626874704E+02  0.90398882192E+02  0.15829282934E+03  0.12499627809E+03 0.  0.
          2    1    1    2  501    0  0.24513794492E+02 -0.16103078705E+03 -0.51218724550E+03  0.53746405922E+03  0.00000000000E+00 0. -1.
          1    1    1    2  502    0 -0.13119687310E+02  0.19465766175E+03  0.20135206113E+04  0.20229505638E+04  0.00000000000E+00 0. -1.
         22    1    3    3    0    0  0.52775781305E+01  0.35033189803E+01 -0.30279802673E+02  0.30935295775E+02  0.00000000000E+00 0.  1.
         22    1    3    3    0    0 -0.16671685313E+02 -0.37130193684E+02  0.12067868486E+03  0.12735753356E+03  0.00000000000E+00 0.  1.
</event>
<event>
 7    1  0.7459264E-005  0.5142077E+03  0.7818608E-02  0.1237900E+00
          2   -1    0    0  502    0  0.00000000000E+00  0.00000000000E+00  0.23928391106E+03  0.23928391106E+03  0.00000000000E+00 0. -1.
          1   -1    0    0  501    0 -0.00000000000E+00 -0.00000000000E+00 -0.27970387031E+04  0.27970387031E+04  0.00000000000E+00 0. -1.
         25    2    1    2    0    0 -0.60447616442E+02 -0.52902733661E+03 -0.74803056469E+03  0.92666059631E+03  0.12500519124E+03 0.  0.
          2    1    1    2  501    0 -0.72419168407E+01  0.28618565038E+02 -0.15340754041E+04  0.15343594146E+04  0.00000000000E+00 0. -1.
          1    1    1    2  502    0  0.67689533283E+02  0.50040877157E+03 -0.27564882325E+03  0.57530260328E+03  0.00000000000E+00 0. -1.
         22    1    3    3    0    0 -0.54979313350E+02 -0.79041225087E+02 -0.11525232160E+03  0.15017768740E+03  0.00000000000E+00 0. -1.
         22    1    3    3    0    0 -0.54683030922E+01 -0.44998611152E+03 -0.63277824309E+03  0.77648290891E+03  0.00000000000E+00 0. -1.
</event>
<event>
 7    1  0.7459264E-005  0.3137981E+03  0.7818608E-02  0.1204903E+00
          2   -1    0    0  502    0  0.00000000000E+00  0.00000000000E+00  0.25168537594E+03  0.25168537594E+03  0.00000000000E+00 0. -1.
          1   -1    0    0  501    0 -0.00000000000E+00 -0.00000000000E+00 -0.12690436290E+04  0.12690436290E+04  0.00000000000E+00 0. -1.
         25    2    1    2    0    0  0.27025532988E+03 -0.18623369761E+03 -0.18388583511E+03  0.39643389865E+03  0.12499960876E+03 0.  0.
          2    1    1    2  501    0  0.13782220440E+02  0.66945521381E+02 -0.81265339330E+03  0.81552264841E+03  0.00000000000E+00 0. -1.
          1    1    1    2  502    0 -0.28403755032E+03  0.11928817623E+03 -0.20819024675E+02  0.30877245791E+03  0.00000000000E+00 0. -1.
         22    1    3    3    0    0  0.11882396300E+03 -0.68359184698E+02 -0.14703712536E+03  0.20102743233E+03  0.00000000000E+00 0.  1.
         22    1    3    3    0    0  0.15143136687E+03 -0.11787451291E+03 -0.36848709749E+02  0.19540646631E+03  0.00000000000E+00 0.  1.
</event>
<event>
 7    1  0.7459264E-005  0.2232014E+03  0.7818608E-02  0.1225475E+00
          2   -1    0    0  502    0  0.00000000000E+00  0.00000000000E+00  0.60465024336E+03  0.60465024336E+03  0.00000000000E+00 0. -1.
          1   -1    0    0  501    0 -0.00000000000E+00 -0.00000000000E+00 -0.11873514213E+04  0.11873514213E+04  0.00000000000E+00 0. -1.
         25    2    1    2    0    0 -0.64787653329E+02  0.16103801220E+03 -0.57084048141E+02  0.22139167966E+03  0.12500002351E+03 0.  0.
          2    1    1    2  501    0 -0.72039719268E+02  0.28001012424E+02 -0.10205227697E+04  0.10234454072E+04  0.00000000000E+00 0. -1.
          1    1    1    2  502    0  0.13682737260E+03 -0.18903902462E+03  0.49490563998E+03  0.54716457781E+03  0.00000000000E+00 0. -1.
         22    1    3    3    0    0  0.35542513897E+02  0.22521595433E+02 -0.18999579815E+02  0.46167917304E+02  0.00000000000E+00 0. -1.
         22    1    3    3    0    0 -0.10033016723E+03  0.13851641676E+03 -0.38084468326E+02  0.17522376236E+03  0.00000000000E+00 0. -1.
</event>
<event>
 7    1  0.7459264E-005  0.1584184E+03  0.7818608E-02  0.1248599E+00
          2   -1    0    0  502    0  0.00000000000E+00  0.00000000000E+00  0.55093164198E+03  0.55093164198E+03  0.00000000000E+00 0. -1.
          1   -1    0    0  501    0 -0.00000000000E+00 -0.00000000000E+00 -0.12429739187E+04  0.12429739187E+04  0.00000000000E+00 0. -1.
         25    2    1    2    0    0  0.12025760307E+03 -0.20418212975E+03 -0.15722110233E+02  0.26836904239E+03  0.12499009944E+03 0.  0.
          2    1    1    2  501    0 -0.42784097334E+02  0.74608268572E+02 -0.10857547300E+04  0.10891557310E+04  0.00000000000E+00 0. -1.
          1    1    1    2  502    0 -0.77473505737E+02  0.12957386118E+03  0.40943456358E+03  0.43638078721E+03  0.00000000000E+00 0. -1.
         22    1    3    3    0    0  0.82283779676E+02 -0.14728074307E+03 -0.68381810061E+02  0.18203930791E+03  0.00000000000E+00 0.  1.
         22    1    3    3    0    0  0.37973823395E+02 -0.56901386679E+02  0.52659699827E+02  0.86329734479E+02  0.00000000000E+00 0.  1.
</event>
<event>
 7    1  0.7459264E-005  0.9161018E+02  0.7818608E-02  0.1426583E+00
          2   -1    0    0  502    0  0.00000000000E+00  0.00000000000E+00  0.19729333649E+04  0.19729333649E+04  0.00000000000E+00 0. -1.
          1   -1    0    0  501    0 -0.00000000000E+00 -0.00000000000E+00 -0.14823356431E+03  0.14823356431E+03  0.00000000000E+00 0. -1.
         25    2    1    2    0    0 -0.82202355333E+02 -0.22553824643E+01  0.44241888617E+03  0.46703866519E+03  0.12501331916E+03 0.  0.
          2    1    1    2  501    0 -0.48370157982E+01 -0.31047167761E+02 -0.13265652997E+03  0.13632710036E+03  0.00000000000E+00 0. -1.
          1    1    1    2  502    0  0.87039371132E+02  0.33302550225E+02  0.15149374444E+04  0.15178011637E+04  0.00000000000E+00 0. -1.
         22    1    3    3    0    0 -0.68923238408E+02 -0.54090089145E+02  0.34435684610E+03  0.35532771915E+03  0.00000000000E+00 0.  1.
         22    1    3    3    0    0 -0.13279116926E+02  0.51834706680E+02  0.98062040070E+02  0.11171094604E+03  0.00000000000E+00 0.  1.
</event>
<event>
 7    1  0.7459264E-005  0.5832838E+02  0.7818608E-02  0.1436971E+00
          2   -1    0    0  502    0  0.00000000000E+00  0.00000000000E+00  0.66778075299E+02  0.66778075299E+02  0.00000000000E+00 0. -1.
          1   -1    0    0  501    0 -0.00000000000E+00 -0.00000000000E+00 -0.25748419817E+04  0.25748419817E+04  0.00000000000E+00 0. -1.
         25    2    1    2    0    0 -0.16504232799E+02  0.13123565061E+02 -0.16456200526E+04  0.16504953140E+04  0.12499922527E+03 0.  0.
          2    1    1    2  501    0  0.79352423239E+01  0.44927339236E+02 -0.91271563685E+03  0.91385516775E+03  0.00000000000E+00 0. -1.
          1    1    1    2  502    0  0.85689904754E+01 -0.58050904298E+02  0.50271783056E+02  0.77269575249E+02  0.00000000000E+00 0. -1.
         22    1    3    3    0    0 -0.51437469564E+02  0.38799914034E+02 -0.13674477853E+04  0.13689648250E+04  0.00000000000E+00 0.  1.
         22    1    3    3    0    0  0.34933236765E+02 -0.25676348973E+02 -0.27817226737E+03  0.28153048904E+03  0.00000000000E+00 0.  1.
</event>
<event>
 7    1  0.7459264E-005  0.1535649E+03  0.7818608E-02  0.1348663E+00
          2   -1    0    0  502    0  0.00000000000E+00  0.00000000000E+00  0.10212908291E+04  0.10212908291E+04  0.00000000000E+00 0. -1.
          1   -1    0    0  501    0 -0.00000000000E+00 -0.00000000000E+00 -0.50903714234E+03  0.50903714234E+03  0.00000000000E+00 0. -1.
         25    2    1    2    0    0  0.94031529647E+02  0.15565319069E+03  0.28938660588E+03  0.36392322998E+03  0.12500266125E+03 0.  0.
          2    1    1    2  501    0 -0.24023085369E+02 -0.25664909996E+02 -0.46325017719E+03  0.46458209490E+03  0.00000000000E+00 0. -1.
          1    1    1    2  502    0 -0.70008444278E+02 -0.12998828069E+03  0.68611725806E+03  0.70182264654E+03  0.00000000000E+00 0. -1.
         22    1    3    3    0    0 -0.28054477647E+02  0.47324012828E+02  0.98034590159E+02  0.11241617666E+03  0.00000000000E+00 0.  1.
         22    1    3    3    0    0  0.12208600729E+03  0.10832917786E+03  0.19135201572E+03  0.25150705333E+03  0.00000000000E+00 0.  1.
</event>
<event>
 7    1  0.7459264E-005  0.2112924E+03  0.7818608E-02  0.1287587E+00
          2   -1    0    0  502    0  0.00000000000E+00  0.00000000000E+00  0.36448566996E+03  0.36448566996E+03  0.00000000000E+00 0. -1.
          1   -1    0    0  501    0 -0.00000000000E+00 -0.00000000000E+00 -0.47925598410E+03  0.47925598410E+03  0.00000000000E+00 0. -1.
         25    2    1    2    0    0 -0.19662578714E+03  0.13495449327E+03 -0.19008659358E+03  0.32959486502E+03  0.12500178624E+03 0.  0.
          2    1    1    2  501    0  0.15907489076E+03 -0.11168727439E+03 -0.17404474361E+03  0.26090312553E+03  0.00000000000E+00 0. -1.
          1    1    1    2  502    0  0.37550896377E+02 -0.23267218887E+02  0.24936102305E+03  0.25324366351E+03  0.00000000000E+00 0. -1.
         22    1    3    3    0    0 -0.15890596586E+03  0.12073819369E+03 -0.20548053145E+03  0.28644557285E+03  0.00000000000E+00 0.  1.
         22    1    3    3    0    0 -0.37719821284E+02  0.14216299584E+02  0.15393937868E+02  0.43149292168E+02  0.00000000000E+00 0.  1.
</event>
<event>
 7    1  0.7459264E-005  0.6125510E+02  0.7818608E-02  0.1431730E+00
          2   -1    0    0  502    0  0.00000000000E+00  0.00000000000E+00  0.22768470330E+04  0.22768470330E+04  0.00000000000E+00 0. -1.
          1   -1    0    0  501    0 -0.00000000000E+00 -0.00000000000E+00 -0.49948229827E+02  0.49948229827E+02  0.00000000000E+00 0. -1.
         25    2    1    2    0    0  0.40826821713E+01 -0.19451632300E+02  0.50541428887E+03  0.52102155227E+03  0.12499928099E+03 0.  0.
          2    1    1    2  501    0  0.22112365912E+02 -0.39413333087E+02 -0.29263996757E+02  0.53840032108E+02  0.00000000000E+00 0. -1.
          1    1    1    2  502    0 -0.26195048083E+02  0.58864965387E+02  0.17507485111E+04  0.17519336785E+04  0.00000000000E+00 0. -1.
         22    1    3    3    0    0  0.21399105491E+02 -0.61710105975E+02  0.16338117592E+03  0.17595302651E+03  0.00000000000E+00 0.  1.
         22    1    3    3    0    0 -0.17316423320E+02  0.42258473675E+02  0.34203311295E+03  0.34506852576E+03  0.00000000000E+00 0.  1.
</event>
<event>
 7    1  0.7459264E-005  0.2390659E+03  0.7818608E-02  0.1202018E+00
          2   -1    0    0  502    0  0.00000000000E+00  0.00000000000E+00  0.63357739151E+03  0.63357739151E+03  0.00000000000E+00 0. -1.
          1   -1    0    0  501    0 -0.00000000000E+00 -0.00000000000E+00 -0.28243451818E+04  0.28243451818E+04  0.00000000000E+00 0. -1.
         25    2    1    2    0    0  0.29755274018E+03  0.34112728487E+02  0.10790189178E+03  0.34200825871E+03  0.12500207735E+03 0.  0.
          2    1    1    2  501    0 -0.84768345584E+02  0.37155976704E+02 -0.26756227317E+04  0.26772230467E+04  0.00000000000E+00 0. -1.
          1    1    1    2  502    0 -0.21278439460E+03 -0.71268705191E+02  0.37695304965E+03  0.43869126794E+03  0.00000000000E+00 0. -1.
         22    1    3    3    0    0  0.17199623991E+03  0.61314456185E+02  0.14498171643E+02  0.18317304950E+03  0.00000000000E+00 0. -1.
         22    1    3    3    0    0  0.12555650027E+03 -0.27201727698E+02  0.93403720142E+02  0.15883520921E+03  0.00000000000E+00 0. -1.
</event>
<event>
 7    1  0.7459264E-005  0.3389226E+03  0.7818608E-02  0.1094384E+00
          2   -1    0    0  502    0  0.00000000000E+00  0.00000000000E+00  0.16113944622E+04  0.16113944622E+04  0.00000000000E+00 0. -1.
          1   -1    0    0  501    0 -0.00000000000E+00 -0.00000000000E+00 -0.24665741275E+03  0.24665741275E+03  0.00000000000E+00 0. -1.
         25    2    1    2    0    0 -0.31224995685E+03  0.15890548162E+03  0.60015503147E+03  0.70608900024E+03  0.12499850725E+03 0.  0.
          2    1    1    2  501    0  0.14316449991E+03 -0.32255106493E+03  0.94807534650E+00  0.35289681547E+03  0.00000000000E+00 0. -1.
          1    1    1    2  502    0  0.16908545694E+03  0.16364558331E+03  0.76363394264E+03  0.79906605925E+03  0.00000000000E+00 0. -1.
         22    1    3    3    0    0 -0.11894196533E+03  0.12491699375E+03  0.32737921638E+03  0.37003864360E+03  0.00000000000E+00 0. -1.
         22    1    3    3    0    0 -0.19330799152E+03  0.33988487871E+02  0.27277581509E+03  0.33605035663E+03  0.00000000000E+00 0. -1.
</event>
<event>
 7    1  0.7459264E-005  0.4090428E+03  0.7818608E-02  0.1095718E+00
          2   -1    0    0  502    0  0.00000000000E+00  0.00000000000E+00  0.13408628014E+04  0.13408628014E+04  0.00000000000E+00 0. -1.
          1   -1    0    0  501    0 -0.00000000000E+00 -0.00000000000E+00 -0.26398639170E+04  0.26398639170E+04  0.00000000000E+00 0. -1.
         25    2    1    2    0    0  0.48197840853E+03 -0.16879062072E+03  0.69520848239E+03  0.87162693796E+03  0.12500090024E+03 0.  0.
          2    1    1    2  501    0 -0.13297870169E+03  0.13793265683E+03 -0.24925611849E+04  0.24999140012E+04  0.00000000000E+00 0. -1.
          1    1    1    2  502    0 -0.34899970684E+03  0.30857963895E+02  0.49835158692E+03  0.60918577913E+03  0.00000000000E+00 0. -1.
         22    1    3    3    0    0  0.47674757460E+03 -0.15654531339E+03  0.69629546898E+03  0.85826689622E+03  0.00000000000E+00 0. -1.
         22    1    3    3    0    0  0.52308339368E+01 -0.12245307335E+02 -0.10869865946E+01  0.13360041738E+02  0.00000000000E+00 0. -1.
</event>
<event>
 7    1  0.7459264E-005  0.2539233E+03  0.7818608E-02  0.1353775E+00
          2   -1    0    0  502    0  0.00000000000E+00  0.00000000000E+00  0.17774438277E+04  0.17774438277E+04  0.00000000000E+00 0. -1.
          1   -1    0    0  501    0 -0.00000000000E+00 -0.00000000000E+00 -0.50734819378E+02  0.50734819378E+02  0.00000000000E+00 0. -1.
         25    2    1    2    0    0 -0.26643328489E+03  0.11275705512E+02  0.76092818217E+03  0.81593527422E+03  0.12499934583E+03 0.  0.
          2    1    1    2  501    0  0.19818533683E+02 -0.46394649568E+01  0.59377877759E+01  0.21202741240E+02  0.00000000000E+00 0. -1.
          1    1    1    2  502    0  0.24661475121E+03 -0.66362405552E+01  0.95984303834E+03  0.99104063159E+03  0.00000000000E+00 0. -1.
         22    1    3    3    0    0 -0.10488240401E+03  0.42912904284E+02  0.18506314467E+03  0.21700277312E+03  0.00000000000E+00 0.  1.
         22    1    3    3    0    0 -0.16155088088E+03 -0.31637198772E+02  0.57586503750E+03  0.59893250110E+03  0.00000000000E+00 0.  1.
</event>
<event>
 7    1  0.7459264E-005  0.4214877E+03  0.7818608E-02  0.1084276E+00
          2   -1    0    0  502    0  0.00000000000E+00  0.00000000000E+00  0.13956645295E+04  0.13956645295E+04  0.00000000000E+00 0. -1.
          1   -1    0    0  501    0 -0.00000000000E+00 -0.00000000000E+00 -0.10408450801E+04  0.10408450801E+04  0.00000000000E+00 0. -1.
         25    2    1    2    0    0  0.42004583288E+03  0.45861906292E+03  0.59234249109E+03  0.86790789871E+03  0.12499818924E+03 0.  0.
          2    1    1    2  501    0 -0.25380401050E+03 -0.32024150201E+03 -0.83693402692E+03  0.93135903967E+03  0.00000000000E+00 0. -1.
          1    1    1    2  502    0 -0.16624182238E+03 -0.13837756090E+03  0.59941098519E+03  0.63724267123E+03  0.00000000000E+00 0. -1.
         22    1    3    3    0    0  0.41493652308E+03  0.46678244167E+03  0.58565368013E+03  0.85618245666E+03  0.00000000000E+00 0.  1.
         22    1    3    3    0    0  0.51093097928E+01 -0.81633787584E+01  0.66888109634E+01  0.11725442056E+02  0.00000000000E+00 0.  1.
</event>
<event>
 7    1  0.7459264E-005  0.7250958E+02  0.7818608E-02  0.1366703E+00
          2   -1    0    0  502    0  0.00000000000E+00  0.00000000000E+00  0.29941245524E+03  0.29941245524E+03  0.00000000000E+00 0. -1.
          1   -1    0    0  501    0 -0.00000000000E+00 -0.00000000000E+00 -0.89057870592E+03  0.89057870592E+03  0.00000000000E+00 0. -1.
         25    2    1    2    0    0 -0.10485184550E+02 -0.11528889457E+03 -0.36081662335E+02  0.17414434189E+03  0.12499158832E+03 0.  0.
          2    1    1    2  501    0  0.39297391900E+02  0.50443754076E+02 -0.77866005213E+03  0.78128121322E+03  0.00000000000E+00 0. -1.
          1    1    1    2  502    0 -0.28812207350E+02  0.64845140491E+02  0.22357546378E+03  0.23456560605E+03  0.00000000000E+00 0. -1.
         22    1    3    3    0    0 -0.33243593026E+02 -0.81328457103E+02 -0.76616452178E+02  0.11657416162E+03  0.00000000000E+00 0. -1.
         22    1    3    3    0    0  0.22758408476E+02 -0.33960437464E+02  0.40534789843E+02  0.57570180274E+02  0.00000000000E+00 0. -1.
</event>
<event>
 7    1  0.7459264E-005  0.5962683E+03  0.7818608E-02  0.1249112E+00
          2   -1    0    0  502    0  0.00000000000E+00  0.00000000000E+00  0.35716077329E+03  0.35716077329E+03  0.00000000000E+00 0. -1.
          1   -1    0    0  501    0 -0.00000000000E+00 -0.00000000000E+00 -0.20907184500E+04  0.20907184500E+04  0.00000000000E+00 0. -1.
         25    2    1    2    0    0  0.95785776264E+02 -0.59680906421E+03 -0.37176103601E+03  0.72054709487E+03  0.12500349580E+03 0.  0.
          2    1    1    2  501    0 -0.18935811266E+02  0.12578926626E+02 -0.10691675770E+04  0.10694092304E+04  0.00000000000E+00 0. -1.
          1    1    1    2  502    0 -0.76849964998E+02  0.58423013759E+03 -0.29262906363E+03  0.65792289796E+03  0.00000000000E+00 0. -1.
         22    1    3    3    0    0 -0.19282307261E+02 -0.15658864291E+03 -0.59144624462E+02  0.16849301785E+03  0.00000000000E+00 0.  1.
         22    1    3    3    0    0  0.11506808352E+03 -0.44022042130E+03 -0.31261641155E+03  0.55205407701E+03  0.00000000000E+00 0.  1.
</event>
<event>
 7    1  0.7459264E-005  0.1493345E+03  0.7818608E-02  0.1387693E+00
          2   -1    0    0  502    0  0.00000000000E+00  0.00000000000E+00  0.13332252429E+04  0.13332252429E+04  0.00000000000E+00 0. -1.
          1   -1    0    0  501    0 -0.00000000000E+00 -0.00000000000E+00 -0.58856128675E+02  0.58856128675E+02  0.00000000000E+00 0. -1.
         25    2    1    2    0    0 -0.18980849256E+02 -0.14852752303E+03  0.23465605174E+03  0.30514125508E+03  0.12500810053E+03 0.  0.
          2    1    1    2  501    0 -0.25510176791E+02  0.57243679169E+01 -0.89726121078E+01  0.27641368924E+02  0.00000000000E+00 0. -1.
          1    1    1    2  502    0  0.44491026047E+02  0.14280315511E+03  0.10486856746E+04  0.10592987476E+04  0.00000000000E+00 0. -1.
         22    1    3    3    0    0 -0.34235122875E+02 -0.15502931759E+03  0.23996382494E+03  0.28773037766E+03  0.00000000000E+00 0.  1.
         22    1    3    3    0    0  0.15254273619E+02  0.65017945603E+01 -0.53077732000E+01  0.17410877419E+02  0.00000000000E+00 0.  1.
</event>
<event>
 7    1  0.7459264E-005  0.5406071E+03  0.7818608E-02  0.1139367E+00
          2   -1    0    0  502    0  0.00000000000E+00  0.00000000000E+00  0.21495954390E+04  0.21495954390E+04  0.00000000000E+00 0. -1.
          1   -1    0    0  501    0 -0.00000000000E+00 -0.00000000000E+00 -0.98223225537E+03  0.98223225537E+03  0.00000000000E+00 0. -1.
         25    2    1    2    0    0  0.50372459926E+03  0.29409118210E+03  0.11177530359E+04  0.12669744625E+04  0.12499737579E+03 0.  0.
          2    1    1    2  501    0 -0.80912895605E+02 -0.21673474233E+02 -0.83932150241E+03  0.84349109098E+03  0.00000000000E+00 0. -1.
          1    1    1    2  502    0 -0.42281170366E+03 -0.27241770786E+03  0.88893165010E+03  0.10213621409E+04  0.00000000000E+00 0. -1.
         22    1    3    3    0    0  0.23553143100E+03  0.18827008033E+03  0.66568856828E+03  0.73079542150E+03  0.00000000000E+00 0. -1.
         22    1    3    3    0    0  0.26819316826E+03  0.10582110177E+03  0.45206446766E+03  0.53617904099E+03  0.00000000000E+00 0. -1.
</event>
<event>
 7    1  0.7459264E-005  0.1897328E+03  0.7818608E-02  0.1354089E+00
          2   -1    0    0  502    0  0.00000000000E+00  0.00000000000E+00  0.14215787397E+04  0.14215787397E+04  0.00000000000E+00 0. -1.
          1   -1    0    0  501    0 -0.00000000000E+00 -0.00000000000E+00 -0.57783848796E+03  0.57783848796E+03  0.00000000000E+00 0. -1.
         25    2    1    2    0    0  0.43371808280E+02 -0.18999481899E+03  0.42151576691E+02  0.23533424064E+03  0.12500521750E+03 0.  0.
          2    1    1    2  501    0  0.23929759664E+02  0.12863879571E+02 -0.47385876861E+03  0.47463696167E+03  0.00000000000E+00 0. -1.
          1    1    1    2  502    0 -0.67301567944E+02  0.17713093942E+03  0.12754474436E+04  0.12894460253E+04  0.00000000000E+00 0. -1.
         22    1    3    3    0    0  0.41374411641E+02 -0.17470622613E+03 -0.11113731421E+02  0.17988224597E+03  0.00000000000E+00 0. -1.
         22    1    3    3    0    0  0.19973966385E+01 -0.15288592858E+02  0.53265308112E+02  0.55451994673E+02  0.00000000000E+00 0. -1.
</event>
<event>
 7    1  0.7459264E-005  0.1260849E+03  0.7818608E-02  0.1259098E+00
          2   -1    0    0  502    0  0.00000000000E+00  0.00000000000E+00  0.48382674748E+03  0.48382674748E+03  0.00000000000E+00 0. -1.
          1   -1    0    0  501    0 -0.00000000000E+00 -0.00000000000E+00 -0.15157052796E+03  0.15157052796E+03  0.00000000000E+00 0. -1.
         25    2    1    2    0    0  0.15908082464E+03  0.89322604653E+02  0.35321277553E+02  0.22395890999E+03  0.12499905697E+03 0.  0.
          2    1    1    2  501    0 -0.10541397942E+03 -0.80821339222E+01  0.74131370408E+01  0.10598293517E+03  0.00000000000E+00 0. -1.
          1    1    1    2  502    0 -0.53666845224E+02 -0.81240470731E+02  0.28952180492E+03  0.30545543028E+03  0.00000000000E+00 0. -1.
         22    1    3    3    0    0  0.86697436034E+02  0.59970985331E+02 -0.42534533127E+02  0.11367563945E+03  0.00000000000E+00 0. -1.
         22    1    3    3    0    0  0.72383388609E+02  0.29351619322E+02  0.77855810680E+02  0.11028327054E+03  0.00000000000E+00 0. -1.
</event>
<event>
 7    1  0.7459264E-005  0.6209614E+03  0.7818608E-02  0.1152819E+00
          2   -1    0    0  502    0  0.00000000000E+00  0.00000000000E+00  0.13891398713E+04  0.13891398713E+04  0.00000000000E+00 0. -1.
          1   -1    0    0  501    0 -0.00000000000E+00 -0.00000000000E+00 -0.10196382310E+04  0.10196382310E+04  0.00000000000E+00 0. -1.
         25    2    1    2    0    0  0.24883657596E+03  0.56776057055E+03  0.10391770285E+02  0.63246099030E+03  0.12500883314E+03 0.  0.
          2    1    1    2  501    0 -0.57296223055E+02  0.23984120717E+02 -0.61633105604E+03  0.61945303766E+03  0.00000000000E+00 0. -1.
          1    1    1    2  502    0 -0.19154035290E+03 -0.59174469127E+03  0.97544092601E+03  0.11568640744E+04  0.00000000000E+00 0. -1.
         22    1    3    3    0    0  0.20709645969E+03  0.50363425755E+03  0.49011530885E+02  0.54675272213E+03  0.00000000000E+00 0.  1.
         22    1    3    3    0    0  0.41740116270E+02  0.64126312996E+02 -0.38619760600E+02  0.85708268175E+02  0.00000000000E+00 0.  1.
</event>
<event>
 7    1  0.7459264E-005  0.6745523E+02  0.7818608E-02  0.1390626E+00
          2   -1    0    0  502    0  0.00000000000E+00  0.00000000000E+00  0.56649932790E+03  0.56649932790E+03  0.00000000000E+00 0. -1.
          1   -1    0    0  501    0 -0.00000000000E+00 -0.00000000000E+00 -0.66769209822E+03  0.66769209822E+03  0.00000000000E+00 0. -1.
         25    2    1    2    0    0 -0.62763732553E+02  0.10558358146E+03  0.51230915498E+03  0.54145356718E+03  0.12499646529E+03 0.  0.
          2    1    1    2  501    0  0.40768309503E+02 -0.53508644910E+02 -0.63021054710E+03  0.63379063090E+03  0.00000000000E+00 0. -1.
          1    1    1    2  502    0  0.21995423050E+02 -0.52074936555E+02  0.16708621797E+02  0.58947228049E+02  0.00000000000E+00 0. -1.
         22    1    3    3    0    0 -0.69393366317E+02  0.19470801106E+02  0.35256423208E+03  0.35985565040E+03  0.00000000000E+00 0. -1.
         22    1    3    3    0    0  0.66296337644E+01  0.86112780359E+02  0.15974492290E+03  0.18159791678E+03  0.00000000000E+00 0. -1.
</event>
<event>
 7    1  0.7459264E-005  0.6189245E+02  0.7818608E-02  0.1429514E+00
          2   -1    0    0  502    0  0.00000000000E+00  0.00000000000E+00  0.62902347702E+03  0.62902347702E+03  0.00000000000E+00 0. -1.
          1   -1    0    0  501    0 -0.00000000000E+00 -0.00000000000E+00 -0.52668537879E+03  0.52668537879E+03  0.00000000000E+00 0. -1.
         25    2    1    2    0    0 -0.76066338840E+02  0.61419413775E+02 -0.34396657830E+03  0.37881516635E+03  0.12501796260E+03 0.  0.
          2    1    1    2  501    0  0.44740809298E+02 -0.81889885773E+01 -0.16056815459E+03  0.16688598449E+03  0.00000000000E+00 0. -1.
          1    1    1    2  502    0  0.31325529542E+02 -0.53230425198E+02  0.60687283112E+03  0.61000770497E+03  0.00000000000E+00 0. -1.
         22    1    3    3    0    0 -0.53687076696E+02  0.53872370593E+02 -0.68555565114E+02  0.10239335928E+03  0.00000000000E+00 0. -1.
         22    1    3    3    0    0 -0.22379262144E+02  0.75470431822E+01 -0.27541101319E+03  0.27642180707E+03  0.00000000000E+00 0. -1.
</event>
<event>
 7    1  0.7459264E-005  0.2860793E+03  0.7818608E-02  0.1263904E+00
          2   -1    0    0  502    0  0.00000000000E+00  0.00000000000E+00  0.25300513870E+04  0.25300513870E+04  0.00000000000E+00 0. -1.
          1   -1    0    0  501    0 -0.00000000000E+00 -0.00000000000E+00 -0.53530524913E+03  0.53530524913E+03  0.00000000000E+00 0. -1.
         25    2    1    2    0    0  0.20556238554E+03  0.22473789306E+03 -0.26958193519E+03  0.42551587526E+03  0.12500530142E+03 0.  0.
          2    1    1    2  501    0 -0.17408283938E+03 -0.19856704779E+03 -0.94639508564E+02  0.28051799233E+03  0.00000000000E+00 0. -1.
          1    1    1    2  502    0 -0.31479546160E+02 -0.26170845271E+02  0.23589675817E+04  0.23593227686E+04  0.00000000000E+00 0. -1.
         22    1    3    3    0    0  0.22139247938E+03  0.20450973469E+03 -0.26018596586E+03  0.39816529022E+03  0.00000000000E+00 0.  1.
         22    1    3    3    0    0 -0.15830093836E+02  0.20228158370E+02 -0.93959693375E+01  0.27350585034E+02  0.00000000000E+00 0.  1.
</event>
<event>
 7    1  0.7459264E-005  0.3469360E+03  0.7818608E-02  0.1223292E+00
          2   -1    0    0  502    0  0.00000000000E+00  0.00000000000E+00  0.25929795799E+03  0.25929795799E+03  0.00000000000E+00 0. -1.
          1   -1    0    0  501    0 -0.00000000000E+00 -0.00000000000E+00 -0.13813263837E+04  0.13813263837E+04  0.00000000000E+00 0. -1.
         25    2    1    2    0    0 -0.32868307484E+03 -0.68411627505E+02 -0.99892664606E+01  0.35838175300E+03  0.12499992391E+03 0.  0.
          2    1    1    2  501    0 -0.42396835461E+02  0.28109436170E+02 -0.78301913166E+03  0.78466973473E+03  0.00000000000E+00 0. -1.
          1    1    1    2  502    0  0.37107991030E+03  0.40302191334E+02 -0.32902002761E+03  0.49757285398E+03  0.00000000000E+00 0. -1.
         22    1    3    3    0    0 -0.19146927264E+03 -0.56047121716E+02  0.53697475464E+02  0.20660392322E+03  0.00000000000E+00 0.  1.
         22    1    3    3    0    0 -0.13721380220E+03 -0.12364505789E+02 -0.63686741925E+02  0.15177782978E+03  0.00000000000E+00 0.  1.
</event>
<event>
 7    1  0.7459264E-005  0.3542686E+03  0.7818608E-02  0.1066517E+00
          2   -1    0    0  502    0  0.00000000000E+00  0.00000000000E+00  0.81139554564E+03  0.81139554564E+03  0.00000000000E+00 0. -1.
          1   -1    0    0  501    0 -0.00000000000E+00 -0.00000000000E+00 -0.23850607173E+04  0.23850607173E+04  0.00000000000E+00 0. -1.
         25    2    1    2    0    0 -0.12973681076E+03  0.59796639384E+03 -0.72557097953E+03  0.95732647834E+03  0.12500116629E+03 0.  0.
          2    1    1    2  501    0 -0.71437188402E+02 -0.31968137986E+03 -0.14822282565E+04  0.15179921149E+04  0.00000000000E+00 0. -1.
          1    1    1    2  502    0  0.20117399916E+03 -0.27828501398E+03  0.63413406441E+03  0.72113766966E+03  0.00000000000E+00 0. -1.
         22    1    3    3    0    0 -0.43665717894E+02  0.23111104378E+03 -0.18936084725E+03  0.30195453291E+03  0.00000000000E+00 0.  1.
         22    1    3    3    0    0 -0.86071092864E+02  0.36685535006E+03 -0.53621013228E+03  0.65537194543E+03  0.00000000000E+00 0.  1.
</event>
<event>
 7    1  0.7459264E-005  0.7126764E+02  0.7818608E-02  0.1414259E+00
          2   -1    0    0  502    0  0.00000000000E+00  0.00000000000E+00  0.28428041861E+03  0.28428041861E+03  0.00000000000E+00 0. -1.
          1   -1    0    0  501    0 -0.00000000000E+00 -0.00000000000E+00 -0.64234101374E+03  0.64234101374E+03  0.00000000000E+00 0. -1.
         25    2    1    2    0    0  0.10045110852E+03  0.29002528685E+02 -0.16763854275E+03  0.23379522866E+03  0.12500382417E+03 0.  0.
          2    1    1    2  501    0 -0.29970903111E+02 -0.32763227046E+02 -0.43551509842E+03  0.43777286923E+03  0.00000000000E+00 0. -1.
          1    1    1    2  502    0 -0.70480205408E+02  0.37606983609E+01  0.24509304604E+03  0.25505333447E+03  0.00000000000E+00 0. -1.
         22    1    3    3    0    0  0.90544169187E+02  0.59705538567E+02 -0.65542984524E+02  0.12672363919E+03  0.00000000000E+00 0. -1.
         22    1    3    3    0    0  0.99069393324E+01 -0.30703009882E+02 -0.10209555822E+03  0.10707158947E+03  0.00000000000E+00 0. -1.
</event>
<event>
 7    1  0.7459264E-005  0.3156410E+03  0.7818608E-02  0.1221268E+00
          2   -1    0    0  502    0  0.00000000000E+00  0.00000000000E+00  0.21922136277E+04  0.21922136277E+04  0.00000000000E+00 0. -1.
          1   -1    0    0  501    0 -0.00000000000E+00 -0.00000000000E+00 -0.48153561587E+03  0.48153561587E+03  0.00000000000E+00 0. -1.
         25    2    1    2    0    0  0.28560151720E+03 -0.22270591601E+03 -0.16885027321E+03  0.41869068576E+03  0.12500129567E+03 0.  0.
          2    1    1    2  501    0 -0.21772959735E+02  0.52794910555E+02 -0.17119253793E+03  0.18046675428E+03  0.00000000000E+00 0. -1.
          1    1    1    2  502    0 -0.26382855747E+03  0.16991100546E+03  0.20507208229E+04  0.20745918035E+04  0.00000000000E+00 0. -1.
         22    1    3    3    0    0  0.25006443519E+03 -0.21632806719E+03 -0.10783027518E+03  0.34778933660E+03  0.00000000000E+00 0.  1.
         22    1    3    3    0    0  0.35537082010E+02 -0.63778488200E+01 -0.61019998027E+02  0.70901349159E+02  0.00000000000E+00 0.  1.
</event>
<event>
 7    1  0.7459264E-005  0.3656997E+03  0.7818608E-02  0.1246851E+00
          2   -1    0    0  502    0  0.00000000000E+00  0.00000000000E+00  0.28779362894E+04  0.28779362894E+04  0.00000000000E+00 0. -1.
          1   -1    0    0  501    0 -0.00000000000E+00 -0.00000000000E+00 -0.16684401057E+03  0.16684401057E+03  0.00000000000E+00 0. -1.
         25    2    1    2    0    0 -0.63826678893E+02 -0.38396475232E+03  0.12565960628E+04  0.13214204547E+04  0.12496230265E+03 0.  0.
          2    1    1    2  501    0  0.21564222630E+01  0.37854374980E+02 -0.11182042533E+03  0.11807375400E+03  0.00000000000E+00 0. -1.
          1    1    1    2  502    0  0.61670256630E+02  0.34611037734E+03  0.15663166413E+04  0.16052860913E+04  0.00000000000E+00 0. -1.
         22    1    3    3    0    0  0.21681127506E+02 -0.42145778784E+02  0.77890291733E+02  0.91176946129E+02  0.00000000000E+00 0.  1.
         22    1    3    3    0    0 -0.85507806398E+02 -0.34181897354E+03  0.11787057711E+04  0.12302435086E+04  0.00000000000E+00 0.  1.
</event>
<event>
 7    1  0.7459264E-005  0.9830943E+03  0.7818608E-02  0.1169109E+00
          2   -1    0    0  502    0  0.00000000000E+00  0.00000000000E+00  0.13221674730E+04  0.13221674730E+04  0.00000000000E+00 0. -1.
          1   -1    0    0  501    0 -0.00000000000E+00 -0.00000000000E+00 -0.15354970555E+04  0.15354970555E+04  0.00000000000E+00 0. -1.
         25    2    1    2    0    0 -0.98239653179E+03  0.64949518828E+02  0.50666012495E+03  0.11142938591E+04  0.12499974606E+03 0.  0.
          2    1    1    2  501    0  0.60137326847E+01  0.31905374144E+02 -0.76066059285E+03  0.76135317389E+03  0.00000000000E+00 0. -1.
          1    1    1    2  502    0  0.97638279911E+03 -0.96854892972E+02  0.40670885411E+02  0.98201749557E+03  0.00000000000E+00 0. -1.
         22    1    3    3    0    0 -0.40193544641E+03 -0.27445789814E+02  0.17322407843E+03  0.43853387077E+03  0.00000000000E+00 0.  1.
         22    1    3    3    0    0 -0.58046108538E+03  0.92395308642E+02  0.33343604652E+03  0.67575998832E+03  0.00000000000E+00 0.  1.
</event>
<event>
 7    1  0.7459264E-005  0.2706297E+03  0.7818608E-02  0.1106093E+00
          2   -1    0    0  502    0  0.00000000000E+00  0.00000000000E+00  0.20283221037E+04  0.20283221037E+04  0.00000000000E+00 0. -1.
          1   -1    0    0  501    0 -0.00000000000E+00 -0.00000000000E+00 -0.11092562612E+04  0.11092562612E+04  0.00000000000E+00 0. -1.
         25    2    1    2    0    0  0.12071489214E+03 -0.43135397950E+03  0.56242791751E+03  0.72978570371E+03  0.12499468037E+03 0.  0.
          2    1    1    2  501    0  0.65017053091E+02  0.25930717866E+03 -0.99621153245E+03  0.10314576324E+04  0.00000000000E+00 0. -1.
          1    1    1    2  502    0 -0.18573194524E+03  0.17204680084E+03  0.13528494574E+04  0.13763350288E+04  0.00000000000E+00 0. -1.
         22    1    3    3    0    0  0.13035342944E+03 -0.28194011964E+03  0.32897496819E+03  0.45244533076E+03  0.00000000000E+00 0. -1.
         22    1    3    3    0    0 -0.96385372955E+01 -0.14941385986E+03  0.23345294932E+03  0.27734037295E+03  0.00000000000E+00 0. -1.
</event>
<event>
 7    1  0.7459264E-005  0.2846673E+03  0.7818608E-02  0.1251322E+00
          2   -1    0    0  502    0  0.00000000000E+00  0.00000000000E+00  0.94794838070E+03  0.94794838070E+03  0.00000000000E+00 0. -1.
          1   -1    0    0  501    0 -0.00000000000E+00 -0.00000000000E+00 -0.16971913296E+03  0.16971913296E+03  0.00000000000E+00 0. -1.
         25    2    1    2    0    0 -0.14026878292E+03  0.28440640790E+03  0.22481350214E+03  0.40832314394E+03  0.12499737123E+03 0.  0.
          2    1    1    2  501    0  0.34127307489E+02 -0.31698918476E+02 -0.36293891767E+02  0.59048633588E+02  0.00000000000E+00 0. -1.
          1    1    1    2  502    0  0.10614147543E+03 -0.25270748943E+03  0.58970963737E+03  0.65029573613E+03  0.00000000000E+00 0. -1.
         22    1    3    3    0    0  0.87712897941E+01  0.96214658738E+02  0.94623815113E+02  0.13523262353E+03  0.00000000000E+00 0. -1.
         22    1    3    3    0    0 -0.14904007271E+03  0.18819174917E+03  0.13018968702E+03  0.27309052041E+03  0.00000000000E+00 0. -1.
</event>
<event>
 7    1  0.7459264E-005  0.1411121E+03  0.7818608E-02  0.1256823E+00
          2   -1    0    0  502    0  0.00000000000E+00  0.00000000000E+00  0.22876629957E+04  0.22876629957E+04  0.00000000000E+00 0. -1.
          1   -1    0    0  501    0 -0.00000000000E+00 -0.00000000000E+00 -0.82435245482E+02  0.82435245482E+02  0.00000000000E+00 0. -1.
         25    2    1    2    0    0 -0.98894579203E+02  0.16028416547E+03  0.14247627405E+04  0.14425820767E+04  0.12499211959E+03 0.  0.
          2    1    1    2  501    0  0.79258925677E+02 -0.40419717665E+02 -0.40400158486E+02  0.97713375141E+02  0.00000000000E+00 0. -1.
          1    1    1    2  502    0  0.19635653526E+02 -0.11986444781E+03  0.82086516827E+03  0.82980278935E+03  0.00000000000E+00 0. -1.
         22    1    3    3    0    0 -0.95880733497E+02  0.17210044928E+03  0.10941510304E+04  0.11117455451E+04  0.00000000000E+00 0.  1.
         22    1    3    3    0    0 -0.30138457065E+01 -0.11816283812E+02  0.33061171010E+03  0.33083653166E+03  0.00000000000E+00 0.  1.
</event>
<event>
 7    1  0.7459264E-005  0.2892031E+03  0.7818608E-02  0.1279297E+00
          2   -1    0    0  502    0  0.00000000000E+00  0.00000000000E+00  0.15673072767E+04  0.15673072767E+04  0.00000000000E+00 0. -1.
          1   -1    0    0  501    0 -0.00000000000E+00 -0.00000000000E+00 -0.11699887821E+03  0.11699887821E+03  0.00000000000E+00 0. -1.
         25    2    1    2    0    0 -0.26157811814E+03  0.11114746648E+03  0.32726699788E+03  0.45111640075E+03  0.12500179167E+03 0.  0.
          2    1    1    2  501    0  0.25680558108E+03 -0.14572781786E+03  0.34390996716E+03  0.45327670234E+03  0.00000000000E+00 0. -1.
          1    1    1    2  502    0  0.47725370624E+01  0.34580351371E+02  0.77913143347E+03  0.77991305184E+03  0.00000000000E+00 0. -1.
         22    1    3    3    0    0 -0.71511113400E+02  0.92017412863E+02  0.94773751722E+02  0.15021021145E+03  0.00000000000E+00 0.  1.
         22    1    3    3    0    0 -0.19006700474E+03  0.19130053622E+02  0.23249324616E+03  0.30090618929E+03  0.00000000000E+00 0.  1.
</event>
<event>
 7    1  0.7459264E-005  0.4096664E+03  0.7818608E-02  0.1142684E+00
          2   -1    0    0  502    0  0.00000000000E+00  0.00000000000E+00  0.41039289651E+04  0.41039289651E+04  0.00000000000E+00 0. -1.
          1   -1    0    0  501    0 -0.00000000000E+00 -0.00000000000E+00 -0.50603791212E+03  0.50603791212E+03  0.00000000000E+00 0. -1.
         25    2    1    2    0    0 -0.23021802392E+03 -0.25369649482E+03  0.23651140860E+03  0.43465043343E+03  0.12498441045E+03 0.  0.
          2    1    1    2  501    0  0.33386792253E+03  0.27688435716E+03 -0.29040696550E+03  0.52198557695E+03  0.00000000000E+00 0. -1.
          1    1    1    2  502    0 -0.10364989861E+03 -0.23187862336E+02  0.36517866099E+04  0.36533308668E+04  0.00000000000E+00 0. -1.
         22    1    3    3    0    0 -0.21471441968E+03 -0.16789498442E+03  0.14693812607E+03  0.30964789795E+03  0.00000000000E+00 0.  1.
         22    1    3    3    0    0 -0.15503604236E+02 -0.85801510404E+02  0.89573282527E+02  0.12500253547E+03  0.00000000000E+00 0.  1.
</event>
<event>
 7    1  0.7459264E-005  0.1264765E+03  0.7818608E-02  0.1330188E+00
          2   -1    0    0  502    0  0.00000000000E+00  0.00000000000E+00  0.81646452639E+03  0.81646452639E+03  0.00000000000E+00 0. -1.
          1   -1    0    0  501    0 -0.00000000000E+00 -0.00000000000E+00 -0.59372718650E+03  0.59372718650E+03  0.00000000000E+00 0. -1.
         25    2    1    2    0    0 -0.51483697452E+02 -0.11713061672E+03 -0.88052845491E+01  0.17908492207E+03  0.12499489510E+03 0.  0.
          2    1    1    2  501    0  0.24022679025E+01  0.12717366612E+03 -0.49080742812E+03  0.50702154169E+03  0.00000000000E+00 0. -1.
          1    1    1    2  502    0  0.49081429550E+02 -0.10043049400E+02  0.72235005256E+03  0.72408524912E+03  0.00000000000E+00 0. -1.
         22    1    3    3    0    0  0.41461223078E+02 -0.43114808543E+02  0.13996358424E+01  0.59832087673E+02  0.00000000000E+00 0. -1.
         22    1    3    3    0    0 -0.92944920530E+02 -0.74015808176E+02 -0.10204920392E+02  0.11925283440E+03  0.00000000000E+00 0. -1.
</event>
<event>
 7    1  0.7459264E-005  0.9603689E+02  0.7818608E-02  0.1435220E+00
          2   -1    0    0  502    0  0.00000000000E+00  0.00000000000E+00  0.21837820105E+04  0.21837820105E+04  0.00000000000E+00 0. -1.
          1   -1    0    0  501    0 -0.00000000000E+00 -0.00000000000E+00 -0.21223008663E+04  0.21223008663E+04  0.00000000000E+00 0. -1.
         25    2    1    2    0    0  0.60394083093E+02 -0.49869243546E+02  0.15979872719E+04  0.16047811824E+04  0.12499974254E+03 0.  0.
          2    1    1    2  501    0 -0.56501584797E+02  0.77674262074E+02 -0.21174762287E+04  0.21196535800E+04  0.00000000000E+00 0. -1.
          1    1    1    2  502    0 -0.38924982963E+01 -0.27805018529E+02  0.58097010105E+03  0.58164811434E+03  0.00000000000E+00 0. -1.
         22    1    3    3    0    0 -0.26470789252E+02 -0.25791216194E+02  0.17092716037E+03  0.17487705301E+03  0.00000000000E+00 0.  1.
         22    1    3    3    0    0  0.86864872345E+02 -0.24078027352E+02  0.14270601115E+04  0.14299041294E+04  0.00000000000E+00 0.  1.
</event>
<event>
 7    1  0.7459264E-005  0.2383278E+03  0.7818608E-02  0.1240552E+00
          2   -1    0    0  502    0  0.00000000000E+00  0.00000000000E+00  0.35198220192E+03  0.35198220192E+03  0.00000000000E+00 0. -1.
          1   -1    0    0  501    0 -0.00000000000E+00 -0.00000000000E+00 -0.11112681889E+04  0.11112681889E+04  0.00000000000E+00 0. -1.
         25    2    1    2    0    0 -0.10006505087E+03 -0.23300979320E+03 -0.14860077432E+03  0.31939636340E+03  0.12500107476E+03 0.  0.
          2    1    1    2  501    0  0.61997909391E+02 -0.16318854883E+00 -0.82352838299E+03  0.82585880451E+03  0.00000000000E+00 0. -1.
          1    1    1    2  502    0  0.38067141484E+02  0.23317298175E+03  0.21284317029E+03  0.31799522295E+03  0.00000000000E+00 0. -1.
         22    1    3    3    0    0  0.58182493245E+01  0.11284215899E+02 -0.20056285645E+02  0.23736894227E+02  0.00000000000E+00 0.  1.
         22    1    3    3    0    0 -0.10588330020E+03 -0.24429400910E+03 -0.12854448868E+03  0.29565946918E+03  0.00000000000E+00 0.  1.
</event>
<event>
 7    1  0.7459264E-005  0.9043917E+03  0.7818608E-02  0.1146993E+00
          2   -1    0    0  502    0  0.00000000000E+00  0.00000000000E+00  0.14969266534E+04  0.14969266534E+04  0.00000000000E+00 0. -1.
          1   -1    0    0  501    0 -0.00000000000E+00 -0.00000000000E+00 -0.91101997148E+03  0.91101997148E+03  0.00000000000E+00 0. -1.
         25    2    1    2    0    0 -0.89424697199E+03  0.25948688767E+03  0.18757850812E+03  0.95803038638E+03  0.12500173092E+03 0.  0.
          2    1    1    2  501    0  0.34925426728E+02 -0.29466451990E+02 -0.30964852743E+03  0.31300202517E+03  0.00000000000E+00 0. -1.
          1    1    1    2  502    0  0.85932154526E+03 -0.23002043568E+03  0.70797670122E+03  0.11369142133E+04  0.00000000000E+00 0. -1.
         22    1    3    3    0    0 -0.48243183993E+03  0.15460966073E+03  0.16372829899E+03  0.53240171230E+03  0.00000000000E+00 0. -1.
         22    1    3    3    0    0 -0.41181513205E+03  0.10487722694E+03  0.23850209128E+02  0.42562867407E+03  0.00000000000E+00 0. -1.
</event>
<event>
 7    1  0.7459264E-005  0.5019830E+03  0.7818608E-02  0.1019249E+00
          2   -1    0    0  502    0  0.00000000000E+00  0.00000000000E+00  0.90736734800E+03  0.90736734800E+03  0.00000000000E+00 0. -1.
          1   -1    0    0  501    0 -0.00000000000E+00 -0.00000000000E+00 -0.10514048925E+04  0.10514048925E+04  0.00000000000E+00 0. -1.
         25    2    1    2    0    0  0.46114636971E+03  0.39166501724E+03 -0.48132873947E+03  0.78317075826E+03  0.12498648375E+03 0.  0.
          2    1    1    2  501    0 -0.47690627717E+03  0.66251269412E+02 -0.15235223439E+03  0.50501488219E+03  0.00000000000E+00 0. -1.
          1    1    1    2  502    0  0.15759907464E+02 -0.45791628665E+03  0.48964342935E+03  0.67058660006E+03  0.00000000000E+00 0. -1.
         22    1    3    3    0    0  0.23971151748E+03  0.16823652420E+03 -0.16092671537E+03  0.33415946404E+03  0.00000000000E+00 0.  1.
         22    1    3    3    0    0  0.22143485223E+03  0.22342849305E+03 -0.32040202411E+03  0.44901129422E+03  0.00000000000E+00 0.  1.
</event>
<event>
 7    1  0.7459264E-005  0.6299403E+03  0.7818608E-02  0.1015565E+00
          2   -1    0    0  502    0  0.00000000000E+00  0.00000000000E+00  0.40132199873E+04  0.40132199873E+04  0.00000000000E+00 0. -1.
          1   -1    0    0  501    0 -0.00000000000E+00 -0.00000000000E+00 -0.21066284482E+03  0.21066284482E+03  0.00000000000E+00 0. -1.
         25    2    1    2    0    0 -0.42228363841E+03  0.54657186034E+03  0.25543288116E+04  0.26490158234E+04  0.12499954068E+03 0.  0.
          2    1    1    2  501    0 -0.12250118651E+03 -0.36622181430E+03  0.51974008108E+03  0.64749881069E+03  0.00000000000E+00 0. -1.
          1    1    1    2  502    0  0.54478482492E+03 -0.18035004603E+03  0.72848824975E+03  0.92736819796E+03  0.00000000000E+00 0. -1.
         22    1    3    3    0    0 -0.29499373951E+03  0.39879497932E+03  0.20258197777E+04  0.20856664435E+04  0.00000000000E+00 0.  1.
         22    1    3    3    0    0 -0.12728989891E+03  0.14777688102E+03  0.52850903394E+03  0.56334937994E+03  0.00000000000E+00 0.  1.
</event>
<event>
 7    1  0.7459264E-005  0.4563079E+03  0.7818608E-02  0.1138844E+00
          2   -1    0    0  502    0  0.00000000000E+00  0.00000000000E+00  0.26621830011E+04  0.26621830011E+04  0.00000000000E+00 0. -1.
          1   -1    0    0  501    0 -0.00000000000E+00 -0.00000000000E+00 -0.16896516896E+04  0.16896516896E+04  0.00000000000E+00 0. -1.
         25    2    1    2    0    0  0.50383701142E+03 -0.22361188062E+03  0.55083541887E+03  0.78923926853E+03  0.12499982831E+03 0.  0.
          2    1    1    2  501    0 -0.40976419328E+03  0.19008368018E+03 -0.15366701172E+04  0.16016845971E+04  0.00000000000E+00 0. -1.
          1    1    1    2  502    0 -0.94072818140E+02  0.33528200433E+02  0.19583660098E+04  0.19609108251E+04  0.00000000000E+00 0. -1.
         22    1    3    3    0    0  0.48397456762E+03 -0.18496404577E+03  0.48087889474E+03  0.70688584067E+03  0.00000000000E+00 0.  1.
         22    1    3    3    0    0  0.19862443798E+02 -0.38647834848E+02  0.69956524129E+02  0.82353427860E+02  0.00000000000E+00 0.  1.
</event>
<event>
 7    1  0.7459264E-005  0.2075963E+03  0.7818608E-02  0.1297299E+00
          2   -1    0    0  502    0  0.00000000000E+00  0.00000000000E+00  0.20722297877E+04  0.20722297877E+04  0.00000000000E+00 0. -1.
          1   -1    0    0  501    0 -0.00000000000E+00 -0.00000000000E+00 -0.16611311487E+03  0.16611311487E+03  0.00000000000E+00 0. -1.
         25    2    1    2    0    0 -0.63775094456E+02  0.20762603147E+03 -0.31983003774E+01  0.25062382589E+03  0.12500496535E+03 0.  0.
          2    1    1    2  501    0  0.83664796248E+02 -0.17169700346E+03  0.19515123355E+03  0.27306347812E+03  0.00000000000E+00 0. -1.
          1    1    1    2  502    0 -0.19889701792E+02 -0.35929028016E+02  0.17141637396E+04  0.17146555985E+04  0.00000000000E+00 0. -1.
         22    1    3    3    0    0 -0.86346866148E+02  0.20345062747E+03 -0.20376650923E+02  0.22195302884E+03  0.00000000000E+00 0.  1.
         22    1    3    3    0    0  0.22571771692E+02  0.41754040050E+01  0.17178350546E+02  0.28670797048E+02  0.00000000000E+00 0.  1.
</event>
<event>
 7    1  0.7459264E-005  0.3456266E+03  0.7818608E-02  0.1200165E+00
          2   -1    0    0  502    0  0.00000000000E+00  0.00000000000E+00  0.36302278348E+03  0.36302278348E+03  0.00000000000E+00 0. -1.
          1   -1    0    0  501    0 -0.00000000000E+00 -0.00000000000E+00 -0.12601966968E+04  0.12601966968E+04  0.00000000000E+00 0. -1.
         25    2    1    2    0    0 -0.35493500435E+03 -0.56917657910E+02  0.27434191778E+02  0.38157173304E+03  0.12500350189E+03 0.  0.
          2    1    1    2  501    0  0.38952626199E+02 -0.52431090196E+02 -0.90430819797E+03  0.90666401893E+03  0.00000000000E+00 0. -1.
          1    1    1    2  502    0  0.31598237815E+03  0.10934874811E+03 -0.20299907143E+02  0.33498372833E+03  0.00000000000E+00 0. -1.
         22    1    3    3    0    0 -0.30250423563E+03 -0.14756363629E+02 -0.12881206094E+02  0.30313773818E+03  0.00000000000E+00 0. -1.
         22    1    3    3    0    0 -0.52430768724E+02 -0.42161294280E+02  0.40315397872E+02  0.78433994862E+02  0.00000000000E+00 0. -1.
</event>
<event>
 7    1  0.7459264E-005  0.7681747E+02  0.7818608E-02  0.1420179E+00
          2   -1    0    0  502    0  0.00000000000E+00  0.00000000000E+00  0.34745545779E+03  0.34745545779E+03  0.00000000000E+00 0. -1.
          1   -1    0    0  501    0 -0.00000000000E+00 -0.00000000000E+00 -0.28197692173E+03  0.28197692173E+03  0.00000000000E+00 0. -1.
         25    2    1    2    0    0 -0.26056569103E+02 -0.46635347203E+02  0.53520959500E+02  0.14608744407E+03  0.12499299104E+03 0.  0.
          2    1    1    2  501    0  0.31983856293E+01  0.78671393909E+02 -0.22746639678E+03  0.24070807953E+03  0.00000000000E+00 0. -1.
          1    1    1    2  502    0  0.22858183474E+02 -0.32036046706E+02  0.23942397334E+03  0.24263685592E+03  0.00000000000E+00 0. -1.
         22    1    3    3    0    0 -0.16535900838E+02 -0.89604789494E+02  0.28552464610E+02  0.95486635463E+02  0.00000000000E+00 0.  1.
         22    1    3    3    0    0 -0.95206682649E+01  0.42969442291E+02  0.24968494891E+02  0.50600808611E+02  0.00000000000E+00 0.  1.
</event>
<event>
 7    1  0.7459264E-005  0.2155138E+03  0.7818608E-02  0.1230013E+00
          2   -1    0    0  502    0  0.00000000000E+00  0.00000000000E+00  0.29243713818E+04  0.29243713818E+04  0.00000000000E+00 0. -1.
          1   -1    0    0  501    0 -0.00000000000E+00 -0.00000000000E+00 -0.59437313509E+02  0.59437313509E+02  0.00000000000E+00 0. -1.
         25    2    1    2    0    0  0.19907039738E+03  0.59775385951E+02  0.12612762311E+04  0.12843849936E+04  0.12499984320E+03 0.  0.
          2    1    1    2  501    0 -0.17316236815E+02  0.74380314017E+02 -0.35167894501E+01  0.76450317061E+02  0.00000000000E+00 0. -1.
          1    1    1    2  502    0 -0.18175416056E+03 -0.13415569997E+03  0.16071746266E+04  0.16229733846E+04  0.00000000000E+00 0. -1.
         22    1    3    3    0    0  0.26541977511E+02  0.39974700963E+02  0.55506138292E+03  0.55713157521E+03  0.00000000000E+00 0. -1.
         22    1    3    3    0    0  0.17252841987E+03  0.19800684988E+02  0.70621484821E+03  0.72725341843E+03  0.00000000000E+00 0. -1.
</event>
<event>
 7    1  0.7459264E-005  0.1634450E+03  0.7818608E-02  0.1218349E+00
          2   -1    0    0  502    0  0.00000000000E+00  0.00000000000E+00  0.17419837289E+03  0.17419837289E+03  0.00000000000E+00 0. -1.
          1   -1    0    0  501    0 -0.00000000000E+00 -0.00000000000E+00 -0.10120147300E+04  0.10120147300E+04  0.00000000000E+00 0. -1.
         25    2    1    2    0    0 -0.80959634047E+02  0.11441533232E+03 -0.18882102518E+03  0.26631380945E+03  0.12499733973E+03 0.  0.
          2    1    1    2  501    0 -0.14394517835E+02 -0.17638046835E+03 -0.74828967650E+03  0.76893088877E+03  0.00000000000E+00 0. -1.
          1    1    1    2  502    0  0.95354151882E+02  0.61965136022E+02  0.99294344530E+02  0.15096840470E+03  0.00000000000E+00 0. -1.
         22    1    3    3    0    0 -0.50997227642E+02  0.13012244844E+03 -0.18559310469E+03  0.23233030220E+03  0.00000000000E+00 0.  1.
         22    1    3    3    0    0 -0.29962406405E+02 -0.15707116118E+02 -0.32279204973E+01  0.33983507250E+02  0.00000000000E+00 0.  1.
</event>
<event>
 7    1  0.7459264E-005  0.1227731E+03  0.7818608E-02  0.1304263E+00
          2   -1    0    0  502    0  0.00000000000E+00  0.00000000000E+00  0.69027166297E+03  0.69027166297E+03  0.00000000000E+00 0. -1.
          1   -1    0    0  501    0 -0.00000000000E+00 -0.00000000000E+00 -0.10063058655E+04  0.10063058655E+04  0.00000000000E+00 0. -1.
         25    2    1    2    0    0 -0.52425539820E+02  0.61926139115E+02  0.42841875211E+02  0.15506009518E+03  0.12499969166E+03 0.  0.
          2    1    1    2  501    0  0.27063535246E+02 -0.12191265006E+03 -0.94427997736E+03  0.95250186605E+03  0.00000000000E+00 0. -1.
          1    1    1    2  502    0  0.25362004575E+02  0.59986510948E+02  0.58540389962E+03  0.58901556725E+03  0.00000000000E+00 0. -1.
         22    1    3    3    0    0 -0.18361125788E+01  0.79768125213E+02  0.58775328622E+02  0.99100274288E+02  0.00000000000E+00 0.  1.
         22    1    3    3    0    0 -0.50589427241E+02 -0.17841986098E+02 -0.15933453410E+02  0.55959820891E+02  0.00000000000E+00 0.  1.
</event>
<event>
 7    1  0.7459264E-005  0.2009417E+03  0.7818608E-02  0.1220696E+00
          2   -1    0    0  502    0  0.00000000000E+00  0.00000000000E+00  0.36037659652E+04  0.36037659652E+04  0.00000000000E+00 0. -1.
          1   -1    0    0  501    0 -0.00000000000E+00 -0.00000000000E+00 -0.69085275604E+02  0.69085275604E+02  0.00000000000E+00 0. -1.
         25    2    1    2    0    0  0.24709546477E+03 -0.64821122043E+02  0.56942153687E+03  0.63649320296E+03  0.12499905677E+03 0.  0.
          2    1    1    2  501    0 -0.15948942339E+03  0.86488124107E+02  0.20157256178E+03  0.27119839500E+03  0.00000000000E+00 0. -1.
          1    1    1    2  502    0 -0.87606041382E+02 -0.21667002064E+02  0.27636865909E+04  0.27651596428E+04  0.00000000000E+00 0. -1.
         22    1    3    3    0    0  0.83855150039E+02 -0.36540218623E+02  0.34879008560E+03  0.36058479942E+03  0.00000000000E+00 0. -1.
         22    1    3    3    0    0  0.16324031473E+03 -0.28280903420E+02  0.22063145127E+03  0.27590840354E+03  0.00000000000E+00 0. -1.
</event>
<event>
 7    1  0.7459264E-005  0.3890349E+02  0.7818608E-02  0.1535912E+00
          2   -1    0    0  502    0  0.00000000000E+00  0.00000000000E+00  0.79718278444E+03  0.79718278444E+03  0.00000000000E+00 0. -1.
          1   -1    0    0  501    0 -0.00000000000E+00 -0.00000000000E+00 -0.65362247616E+03  0.65362247616E+03  0.00000000000E+00 0. -1.
         25    2    1    2    0    0  0.29766774469E+01  0.48749455936E+02  0.11288217703E+03  0.17537105573E+03  0.12500900461E+03 0.  0.
          2    1    1    2  501    0 -0.28324361358E+02 -0.19150281522E+02 -0.62132625799E+03  0.62226627869E+03  0.00000000000E+00 0. -1.
          1    1    1    2  502    0  0.25347683911E+02 -0.29599174415E+02  0.65200438924E+03  0.65316792618E+03  0.00000000000E+00 0. -1.
         22    1    3    3    0    0 -0.20599517946E+02  0.21279143834E+02 -0.21242502870E+02  0.36447030470E+02  0.00000000000E+00 0.  1.
         22    1    3    3    0    0  0.23576195393E+02  0.27470312102E+02  0.13412467990E+03  0.13892402526E+03  0.00000000000E+00 0.  1.
</event>
<event>
 7    1  0.7459264E-005  0.2473871E+03  0.7818608E-02  0.1265714E+00
          2   -1    0    0  502    0  0.00000000000E+00  0.00000000000E+00  0.25052006009E+04  0.25052006009E+04  0.00000000000E+00 0. -1.
          1   -1    0    0  501    0 -0.00000000000E+00 -0.00000000000E+00 -0.40169439494E+03  0.40169439494E+03  0.00000000000E+00 0. -1.
         25    2    1    2    0    0 -0.53133135430E+02 -0.21202221691E+03  0.29642734882E+03  0.38893076623E+03  0.12498566819E+03 0.  0.
          2    1    1    2  501    0  0.25735479948E+02 -0.38743456117E+02 -0.34652714800E+03  0.34963471599E+03  0.00000000000E+00 0. -1.
          1    1    1    2  502    0  0.27397655483E+02  0.25076567302E+03  0.21536060051E+04  0.21683295136E+04  0.00000000000E+00 0. -1.
         22    1    3    3    0    0  0.10150048986E+02  0.11497262561E+02  0.47645985512E+01  0.16059636988E+02  0.00000000000E+00 0. -1.
         22    1    3    3    0    0 -0.63283184416E+02 -0.22351947947E+03  0.29166275027E+03  0.37287112924E+03  0.00000000000E+00 0. -1.
</event>
<event>
 7    1  0.7459264E-005  0.2085759E+03  0.7818608E-02  0.1300336E+00
          2   -1    0    0  502    0  0.00000000000E+00  0.00000000000E+00  0.94957798021E+03  0.94957798021E+03  0.00000000000E+00 0. -1.
          1   -1    0    0  501    0 -0.00000000000E+00 -0.00000000000E+00 -0.39574074018E+03  0.39574074018E+03  0.00000000000E+00 0. -1.
         25    2    1    2    0    0 -0.21861509816E+03  0.78902318639E+02 -0.95103112722E+02  0.28051411310E+03  0.12500171425E+03 0.  0.
          2    1    1    2  501    0  0.17898292140E+03 -0.81873536829E+02 -0.16075980858E+03  0.25412964848E+03  0.00000000000E+00 0. -1.
          1    1    1    2  502    0  0.39632176769E+02  0.29712181907E+01  0.80970016133E+03  0.81067495880E+03  0.00000000000E+00 0. -1.
         22    1    3    3    0    0 -0.22784499176E+03  0.83108262680E+02 -0.68460843842E+02  0.25200637043E+03  0.00000000000E+00 0.  1.
         22    1    3    3    0    0  0.92298935979E+01 -0.42059440412E+01 -0.26642268879E+02  0.28507742670E+02  0.00000000000E+00 0.  1.
</event>
<event>
 7    1  0.7459264E-005  0.1566210E+03  0.7818608E-02  0.1362887E+00
          2   -1    0    0  502    0  0.00000000000E+00  0.00000000000E+00  0.58961961261E+02  0.58961961261E+02  0.00000000000E+00 0. -1.
          1   -1    0    0  501    0 -0.00000000000E+00 -0.00000000000E+00 -0.13795044221E+04  0.13795044221E+04  0.00000000000E+00 0. -1.
         25    2    1    2    0    0 -0.11322645526E+03  0.89150616110E+02 -0.33586645894E+03  0.38626372457E+03  0.12500129659E+03 0.  0.
          2    1    1    2  501    0 -0.29504063304E+02 -0.79692666373E+01 -0.81680665213E+03  0.81737819027E+03  0.00000000000E+00 0. -1.
          1    1    1    2  502    0  0.14273051857E+03 -0.81181349472E+02 -0.16786934981E+03  0.23482446857E+03  0.00000000000E+00 0. -1.
         22    1    3    3    0    0 -0.59154757183E+02  0.96172017468E+02 -0.12492113615E+03  0.16838536901E+03  0.00000000000E+00 0.  1.
         22    1    3    3    0    0 -0.54071698080E+02 -0.70214013583E+01 -0.21094532279E+03  0.21787835555E+03  0.00000000000E+00 0.  1.
</event>
<event>
 7    1  0.7459264E-005  0.1610824E+03  0.7818608E-02  0.1411590E+00
          2   -1    0    0  502    0  0.00000000000E+00  0.00000000000E+00  0.19326822778E+03  0.19326822778E+03  0.00000000000E+00 0. -1.
          1   -1    0    0  501    0 -0.00000000000E+00 -0.00000000000E+00 -0.11241263835E+04  0.11241263835E+04  0.00000000000E+00 0. -1.
         25    2    1    2    0    0  0.22376960982E+02  0.14216660219E+03 -0.51018597582E+02  0.19733783357E+03  0.12500900807E+03 0.  0.
          2    1    1    2  501    0 -0.17734966218E+02 -0.16167912382E+03 -0.99244210948E+03  0.10056818626E+04  0.00000000000E+00 0. -1.
          1    1    1    2  502    0 -0.46419947641E+01  0.19512521626E+02  0.11260255139E+03  0.11437491506E+03  0.00000000000E+00 0. -1.
         22    1    3    3    0    0 -0.44703121386E+02  0.86532176211E+02 -0.51527584479E+02  0.11018746999E+03  0.00000000000E+00 0. -1.
         22    1    3    3    0    0  0.67080082368E+02  0.55634425979E+02  0.50898689664E+00  0.87150363581E+02  0.00000000000E+00 0. -1.
</event>
<event>
 7    1  0.7459264E-005  0.1231256E+03  0.7818608E-02  0.1268450E+00
          2   -1    0    0  502    0  0.00000000000E+00  0.00000000000E+00  0.42994540590E+03  0.42994540590E+03  0.00000000000E+00 0. -1.
          1   -1    0    0  501    0 -0.00000000000E+00 -0.00000000000E+00 -0.71692421363E+03  0.71692421363E+03  0.00000000000E+00 0. -1.
         25    2    1    2    0    0  0.16174830433E+03 -0.10128763511E+03  0.22096768619E+03  0.31760023684E+03  0.12498597170E+03 0.  0.
          2    1    1    2  501    0 -0.71892041028E+02  0.55792844696E+02 -0.64933241274E+03  0.65567819036E+03  0.00000000000E+00 0. -1.
          1    1    1    2  502    0 -0.89856263301E+02  0.45494790416E+02  0.14138591882E+03  0.17359119232E+03  0.00000000000E+00 0. -1.
         22    1    3    3    0    0  0.30922512046E+02 -0.85905682611E+02  0.12420905700E+03  0.15415536934E+03  0.00000000000E+00 0.  1.
         22    1    3    3    0    0  0.13082579228E+03 -0.15381952501E+02  0.96758629193E+02  0.16344486750E+03  0.00000000000E+00 0.  1.
</event>
<event>
 7    1  0.7459264E-005  0.1357506E+03  0.7818608E-02  0.1287326E+00
          2   -1    0    0  502    0  0.00000000000E+00  0.00000000000E+00  0.28676316908E+03  0.28676316908E+03  0.00000000000E+00 0. -1.
          1   -1    0    0  501    0 -0.00000000000E+00 -0.00000000000E+00 -0.65271461749E+03  0.65271461749E+03  0.00000000000E+00 0. -1.
         25    2    1    2    0    0  0.10285242849E+03 -0.15774413227E+03 -0.52220835951E+02  0.23197778957E+03  0.12499938335E+03 0.  0.
          2    1    1    2  501    0 -0.57891166969E+02  0.37408331457E+02 -0.48697279213E+03  0.49182646406E+03  0.00000000000E+00 0. -1.
          1    1    1    2  502    0 -0.44961261518E+02  0.12033580081E+03  0.17324217966E+03  0.21567353293E+03  0.00000000000E+00 0. -1.
         22    1    3    3    0    0  0.13033018037E+02 -0.11117710680E+03  0.11315095300E+02  0.11250884418E+03  0.00000000000E+00 0.  1.
         22    1    3    3    0    0  0.89819410451E+02 -0.46567025461E+02 -0.63535931250E+02  0.11946894540E+03  0.00000000000E+00 0.  1.
</event>
<event>
 7    1  0.7459264E-005  0.4059712E+03  0.7818608E-02  0.1127252E+00
          2   -1    0    0  502    0  0.00000000000E+00  0.00000000000E+00  0.82069862535E+03  0.82069862535E+03  0.00000000000E+00 0. -1.
          1   -1    0    0  501    0 -0.00000000000E+00 -0.00000000000E+00 -0.13516367717E+04  0.13516367717E+04  0.00000000000E+00 0. -1.
         25    2    1    2    0    0  0.35733727094E+03 -0.60033863226E+02 -0.57128154551E+03  0.68795461392E+03  0.12499982653E+03 0.  0.
          2    1    1    2  501    0 -0.43836134366E+03  0.16082876359E+03 -0.63979129024E+03  0.79206025899E+03  0.00000000000E+00 0. -1.
          1    1    1    2  502    0  0.81024072720E+02 -0.10079490036E+03  0.68013468944E+03  0.69232052410E+03  0.00000000000E+00 0. -1.
         22    1    3    3    0    0  0.27082497066E+03 -0.53587793454E+02 -0.32275354383E+03  0.42472069222E+03  0.00000000000E+00 0. -1.
         22    1    3    3    0    0  0.86512300277E+02 -0.64460697714E+01 -0.24852800168E+03  0.26323392170E+03  0.00000000000E+00 0. -1.
</event>
<event>
 7    1  0.7459264E-005  0.1232235E+03  0.7818608E-02  0.1255057E+00
          2   -1    0    0  502    0  0.00000000000E+00  0.00000000000E+00  0.10028440876E+04  0.10028440876E+04  0.00000000000E+00 0. -1.
          1   -1    0    0  501    0 -0.00000000000E+00 -0.00000000000E+00 -0.32461387647E+04  0.32461387647E+04  0.00000000000E+00 0. -1.
         25    2    1    2    0    0 -0.18702470163E+03 -0.83465342219E+02  0.55335080229E+02  0.24623507091E+03  0.12500014668E+03 0.  0.
          2    1    1    2  501    0  0.10363481375E+03 -0.31247129004E+01 -0.31455901488E+04  0.31472984166E+04  0.00000000000E+00 0. -1.
          1    1    1    2  502    0  0.83389887884E+02  0.86590055119E+02  0.84696039150E+03  0.85544936485E+03  0.00000000000E+00 0. -1.
         22    1    3    3    0    0 -0.12066112028E+03 -0.86767598087E+02 -0.15124304845E+02  0.14938696938E+03  0.00000000000E+00 0. -1.
         22    1    3    3    0    0 -0.66363581353E+02  0.33022558680E+01  0.70459385074E+02  0.96848101524E+02  0.00000000000E+00 0. -1.
</event>
<event>
 7    1  0.7459264E-005  0.1861105E+03  0.7818608E-02  0.1245534E+00
          2   -1    0    0  502    0  0.00000000000E+00  0.00000000000E+00  0.24049353284E+04  0.24049353284E+04  0.00000000000E+00 0. -1.
          1   -1    0    0  501    0 -0.00000000000E+00 -0.00000000000E+00 -0.21041087018E+03  0.21041087018E+03  0.00000000000E+00 0. -1.
         25    2    1    2    0    0  0.43627805001E+02 -0.21465320748E+03  0.34055597319E+02  0.25448833315E+03  0.12500057259E+03 0.  0.
          2    1    1    2  501    0  0.18198089576E+02  0.17132772328E+03 -0.24990898654E+02  0.17409452675E+03  0.00000000000E+00 0. -1.
          1    1    1    2  502    0 -0.61825894577E+02  0.43325484204E+02  0.21854597596E+04  0.21867633387E+04  0.00000000000E+00 0. -1.
         22    1    3    3    0    0  0.91200739437E+01 -0.16622405689E+02  0.49375370484E+02  0.52890522119E+02  0.00000000000E+00 0.  1.
         22    1    3    3    0    0  0.34507731058E+02 -0.19803080179E+03 -0.15319773165E+02  0.20159781103E+03  0.00000000000E+00 0.  1.
</event>
<event>
 7    1  0.7459264E-005  0.3854106E+03  0.7818608E-02  0.1207233E+00
          2   -1    0    0  502    0  0.00000000000E+00  0.00000000000E+00  0.12193643586E+04  0.12193643586E+04  0.00000000000E+00 0. -1.
          1   -1    0    0  501    0 -0.00000000000E+00 -0.00000000000E+00 -0.11393141702E+04  0.11393141702E+04  0.00000000000E+00 0. -1.
         25    2    1    2    0    0 -0.18458131177E+02  0.40462538720E+03  0.18037120067E+03  0.46067493866E+03  0.12500089004E+03 0.  0.
          2    1    1    2  501    0 -0.30980035793E+02 -0.38223260161E+03 -0.96148033889E+03  0.10351357237E+04  0.00000000000E+00 0. -1.
          1    1    1    2  502    0  0.49438166970E+02 -0.22392785584E+02  0.86115932662E+03  0.86286786649E+03  0.00000000000E+00 0. -1.
         22    1    3    3    0    0 -0.60629299309E+02  0.32484795735E+03  0.11762997954E+03  0.35076903999E+03  0.00000000000E+00 0. -1.
         22    1    3    3    0    0  0.42171168133E+02  0.79777429848E+02  0.62741221122E+02  0.10990589867E+03  0.00000000000E+00 0. -1.
</event>
<event>
 7    1  0.7459264E-005  0.1065583E+03  0.7818608E-02  0.1456770E+00
          2   -1    0    0  502    0  0.00000000000E+00  0.00000000000E+00  0.95895360023E+03  0.95895360023E+03  0.00000000000E+00 0. -1.
          1   -1    0    0  501    0 -0.00000000000E+00 -0.00000000000E+00 -0.11646952123E+03  0.11646952123E+03  0.00000000000E+00 0. -1.
         25    2    1    2    0    0  0.70130571648E+02 -0.10506111920E+03  0.65337782315E+03  0.67711421157E+03  0.12499975950E+03 0.  0.
          2    1    1    2  501    0 -0.63615233725E+02  0.84499115479E+02 -0.77316368676E+02  0.13101457684E+03  0.00000000000E+00 0. -1.
          1    1    1    2  502    0 -0.65153379226E+01  0.20562003720E+02  0.26642262452E+03  0.26729433305E+03  0.00000000000E+00 0. -1.
         22    1    3    3    0    0  0.53885391424E+02 -0.12738549210E+03  0.61154825980E+03  0.62699439636E+03  0.00000000000E+00 0. -1.
         22    1    3    3    0    0  0.16245180224E+02  0.22324372904E+02  0.41829563352E+02  0.50119815206E+02  0.00000000000E+00 0. -1.
</event>
<event>
 7    1  0.7459264E-005  0.1946909E+03  0.7818608E-02  0.1205111E+00
          2   -1    0    0  502    0  0.00000000000E+00  0.00000000000E+00  0.40944437236E+04  0.40944437236E+04  0.00000000000E+00 0. -1.
          1   -1    0    0  501    0 -0.00000000000E+00 -0.00000000000E+00 -0.98121737274E+02  0.98121737274E+02  0.00000000000E+00 0. -1.
         25    2    1    2    0    0  0.16653052999E+03 -0.19211451600E+03  0.29880505700E+04  0.30014516669E+04  0.12500198197E+03 0.  0.
          2    1    1    2  501    0 -0.89052141363E+02  0.64431732439E+02 -0.51136748796E+02  0.12122994310E+03  0.00000000000E+00 0. -1.
          1    1    1    2  502    0 -0.77478388627E+02  0.12768278356E+03  0.10594081651E+04  0.10698838508E+04  0.00000000000E+00 0. -1.
         22    1    3    3    0    0  0.12400955373E+03 -0.12632344992E+03  0.25724063593E+04  0.25784899575E+04  0.00000000000E+00 0.  1.
         22    1    3    3    0    0  0.42520976261E+02 -0.65791066079E+02  0.41564421069E+03  0.42296170947E+03  0.00000000000E+00 0.  1.
</event>
<event>
 7    1  0.7459264E-005  0.4095757E+02  0.7818608E-02  0.1541506E+00
          2   -1    0    0  502    0  0.00000000000E+00  0.00000000000E+00  0.43403311070E+03  0.43403311070E+03  0.00000000000E+00 0. -1.
          1   -1    0    0  501    0 -0.00000000000E+00 -0.00000000000E+00 -0.63481789681E+02  0.63481789681E+02  0.00000000000E+00 0. -1.
         25    2    1    2    0    0  0.66170834871E+02  0.35168792791E+00  0.11476192697E+03  0.18213850504E+03  0.12500172825E+03 0.  0.
          2    1    1    2  501    0 -0.37085944293E+02 -0.11951607772E+02 -0.15757683925E+02  0.42029903582E+02  0.00000000000E+00 0. -1.
          1    1    1    2  502    0 -0.29084890578E+02  0.11599919844E+02  0.27154707797E+03  0.27334649175E+03  0.00000000000E+00 0. -1.
         22    1    3    3    0    0 -0.16170117273E+02  0.44934650050E+02  0.40934868740E+02  0.62898799245E+02  0.00000000000E+00 0. -1.
         22    1    3    3    0    0  0.82340952144E+02 -0.44582962122E+02  0.73827058234E+02  0.11923970580E+03  0.00000000000E+00 0. -1.
</event>
<event>
 7    1  0.7459264E-005  0.8562652E+03  0.7818608E-02  0.1068398E+00
          2   -1    0    0  502    0  0.00000000000E+00  0.00000000000E+00  0.74470678648E+03  0.74470678648E+03  0.00000000000E+00 0. -1.
          1   -1    0    0  501    0 -0.00000000000E+00 -0.00000000000E+00 -0.22179509730E+04  0.22179509730E+04  0.00000000000E+00 0. -1.
         25    2    1    2    0    0  0.30597428835E+03 -0.77563582954E+03  0.27745842018E+02  0.84357947110E+03  0.12500114848E+03 0.  0.
          2    1    1    2  501    0  0.13182868157E+03 -0.77347133077E+01 -0.11466799781E+04  0.11542588961E+04  0.00000000000E+00 0. -1.
          1    1    1    2  502    0 -0.43780296992E+03  0.78337054285E+03 -0.35431005045E+03  0.96481939228E+03  0.00000000000E+00 0. -1.
         22    1    3    3    0    0  0.21659656656E+03 -0.51883770344E+03 -0.39049031472E+02  0.56358802508E+03  0.00000000000E+00 0. -1.
         22    1    3    3    0    0  0.89377721785E+02 -0.25679812610E+03  0.66794873490E+02  0.27999144602E+03  0.00000000000E+00 0. -1.
</event>
<event>
 7    1  0.7459264E-005  0.1198388E+03  0.7818608E-02  0.1317336E+00
          2   -1    0    0  502    0  0.00000000000E+00  0.00000000000E+00  0.93845720231E+03  0.93845720231E+03  0.00000000000E+00 0. -1.
          1   -1    0    0  501    0 -0.00000000000E+00 -0.00000000000E+00 -0.12142891657E+04  0.12142891657E+04  0.00000000000E+00 0. -1.
         25    2    1    2    0    0 -0.13270275188E+03  0.36526800611E+02  0.64704341866E+02  0.19686585969E+03  0.12500114934E+03 0.  0.
          2    1    1    2  501    0  0.15049000053E+02 -0.57324676064E+02 -0.11430178976E+04  0.11445534085E+04  0.00000000000E+00 0. -1.
          1    1    1    2  502    0  0.11765375183E+03  0.20797875453E+02  0.80248159226E+03  0.81132709980E+03  0.00000000000E+00 0. -1.
         22    1    3    3    0    0 -0.92086392952E+02  0.22496479274E+02 -0.24449231673E+02  0.97896681639E+02  0.00000000000E+00 0.  1.
         22    1    3    3    0    0 -0.40616358928E+02  0.14030321338E+02  0.89153573539E+02  0.98969178051E+02  0.00000000000E+00 0.  1.
</event>
<event>
 7    1  0.7459264E-005  0.3894405E+03  0.7818608E-02  0.1109992E+00
          2   -1    0    0  502    0  0.00000000000E+00  0.00000000000E+00  0.33065985333E+04  0.33065985333E+04  0.00000000000E+00 0. -1.
          1   -1    0    0  501    0 -0.00000000000E+00 -0.00000000000E+00 -0.50701466822E+03  0.50701466822E+03  0.00000000000E+00 0. -1.
         25    2    1    2    0    0  0.17079022223E+03  0.52263908265E+03  0.17913777039E+04  0.18780254491E+04  0.12499839407E+03 0.  0.
          2    1    1    2  501    0 -0.12055778750E+03 -0.36297276988E+03 -0.37892547981E+03  0.53839384381E+03  0.00000000000E+00 0. -1.
          1    1    1    2  502    0 -0.50232434724E+02 -0.15966631277E+03  0.13871316410E+04  0.13971939087E+04  0.00000000000E+00 0. -1.
         22    1    3    3    0    0  0.13252911764E+03  0.33256870469E+03  0.96664545313E+03  0.10308100419E+04  0.00000000000E+00 0.  1.
         22    1    3    3    0    0  0.38261104589E+02  0.19007037797E+03  0.82473225078E+03  0.84721540719E+03  0.00000000000E+00 0.  1.
</event>
<event>
 7    1  0.7459264E-005  0.4954043E+03  0.7818608E-02  0.1210096E+00
          2   -1    0    0  502    0  0.00000000000E+00  0.00000000000E+00  0.23292411724E+04  0.23292411724E+04  0.00000000000E+00 0. -1.
          1   -1    0    0  501    0 -0.00000000000E+00 -0.00000000000E+00 -0.31406584661E+03  0.31406584661E+03  0.00000000000E+00 0. -1.
         25    2    1    2    0    0 -0.98004715692E+02  0.49589612515E+03  0.16704887149E+03  0.54685364425E+03  0.12500276609E+03 0.  0.
          2    1    1    2  501    0  0.12603316247E+03 -0.46604237258E+03  0.34647340649E+03  0.59424209922E+03  0.00000000000E+00 0. -1.
          1    1    1    2  502    0 -0.28028446776E+02 -0.29853752572E+02  0.15016530478E+04  0.15022112755E+04  0.00000000000E+00 0. -1.
         22    1    3    3    0    0  0.22733274091E+02  0.16494092132E+03  0.31899825403E+02  0.16952848769E+03  0.00000000000E+00 0. -1.
         22    1    3    3    0    0 -0.12073798978E+03  0.33095520383E+03  0.13514904609E+03  0.37732515656E+03  0.00000000000E+00 0. -1.
</event>
<event>
 7    1  0.7459264E-005  0.1250186E+03  0.7818608E-02  0.1429317E+00
          2   -1    0    0  502    0  0.00000000000E+00  0.00000000000E+00  0.88240258431E+02  0.88240258431E+02  0.00000000000E+00 0. -1.
          1   -1    0    0  501    0 -0.00000000000E+00 -0.00000000000E+00 -0.10296801386E+04  0.10296801386E+04  0.00000000000E+00 0. -1.
         25    2    1    2    0    0 -0.99125583349E+02  0.81029403672E+02 -0.24515497148E+03  0.30350929463E+03  0.12500114539E+03 0.  0.
          2    1    1    2  501    0  0.17971752828E+02  0.13622541278E+02 -0.68915945898E+03  0.68952832968E+03  0.00000000000E+00 0. -1.
          1    1    1    2  502    0  0.81153830521E+02 -0.94651944950E+02 -0.71254497114E+01  0.12488277273E+03  0.00000000000E+00 0. -1.
         22    1    3    3    0    0  0.29015278984E+02  0.18176668810E+02 -0.66929474152E+02  0.75178668609E+02  0.00000000000E+00 0. -1.
         22    1    3    3    0    0 -0.12814086233E+03  0.62852734862E+02 -0.17822549733E+03  0.22833062602E+03  0.00000000000E+00 0. -1.
</event>
<event>
 7    1  0.7459264E-005  0.9039306E+03  0.7818608E-02  0.1087656E+00
          2   -1    0    0  502    0  0.00000000000E+00  0.00000000000E+00  0.21007274152E+04  0.21007274152E+04  0.00000000000E+00 0. -1.
          1   -1    0    0  501    0 -0.00000000000E+00 -0.00000000000E+00 -0.97364788270E+03  0.97364788270E+03  0.00000000000E+00 0. -1.
         25    2    1    2    0    0 -0.11064374547E+03  0.88092476512E+03  0.36525399710E+03  0.96814515007E+03  0.12499627591E+03 0.  0.
          2    1    1    2  501    0  0.19629945545E+02 -0.91274486458E+03 -0.35919154676E+03  0.98107445683E+03  0.00000000000E+00 0. -1.
          1    1    1    2  502    0  0.91013799927E+02  0.31820099462E+02  0.11210170822E+04  0.11251556910E+04  0.00000000000E+00 0. -1.
         22    1    3    3    0    0 -0.13516412973E+03  0.79377907279E+03  0.34091114071E+03  0.87439977369E+03  0.00000000000E+00 0. -1.
         22    1    3    3    0    0  0.24520384255E+02  0.87145692326E+02  0.24342856387E+02  0.93745376377E+02  0.00000000000E+00 0. -1.
</event>
<event>
 7    1  0.7459264E-005  0.6214619E+02  0.7818608E-02  0.1442429E+00
          2   -1    0    0  502    0  0.00000000000E+00  0.00000000000E+00  0.15925973472E+04  0.15925973472E+04  0.00000000000E+00 0. -1.
          1   -1    0    0  501    0 -0.00000000000E+00 -0.00000000000E+00 -0.53510954052E+03  0.53510954052E+03  0.00000000000E+00 0. -1.
         25    2    1    2    0    0  0.64839038296E+02 -0.16892371846E+02  0.57073335434E+02  0.15287996650E+03  0.12500186169E+03 0.  0.
          2    1    1    2  501    0 -0.38828120865E+02  0.48724750586E+02 -0.48492886419E+03  0.48891484700E+03  0.00000000000E+00 0. -1.
          1    1    1    2  502    0 -0.26010917432E+02 -0.31832378740E+02  0.14853433355E+04  0.14859120742E+04  0.00000000000E+00 0. -1.
         22    1    3    3    0    0 -0.26751203309E+02  0.24265331451E+02 -0.23642780942E+01  0.36194239871E+02  0.00000000000E+00 0. -1.
         22    1    3    3    0    0  0.91590241605E+02 -0.41157703297E+02  0.59437613528E+02  0.11668572663E+03  0.00000000000E+00 0. -1.
</event>
<event>
 7    1  0.7459264E-005  0.4564072E+03  0.7818608E-02  0.1143029E+00
          2   -1    0    0  502    0  0.00000000000E+00  0.00000000000E+00  0.18997514048E+04  0.18997514048E+04  0.00000000000E+00 0. -1.
          1   -1    0    0  501    0 -0.00000000000E+00 -0.00000000000E+00 -0.14506344861E+04  0.14506344861E+04  0.00000000000E+00 0. -1.
         25    2    1    2    0    0 -0.38339924309E+03 -0.26634762209E+03  0.27893259172E+02  0.48407915445E+03  0.12497423122E+03 0.  0.
          2    1    1    2  501    0  0.69531830766E+02 -0.64645932521E+02 -0.11889675279E+04  0.11927520926E+04  0.00000000000E+00 0. -1.
          1    1    1    2  502    0  0.31386741233E+03  0.33099355461E+03  0.16101911874E+04  0.16735546438E+04  0.00000000000E+00 0. -1.
         22    1    3    3    0    0 -0.61122205382E+02 -0.10618062896E+03 -0.55744045544E+01  0.12264307540E+03  0.00000000000E+00 0.  1.
         22    1    3    3    0    0 -0.32227703771E+03 -0.16016699313E+03  0.33467663727E+02  0.36143607905E+03  0.00000000000E+00 0.  1.
</event>
<event>
 7    1  0.7459264E-005  0.6700658E+02  0.7818608E-02  0.1449183E+00
          2   -1    0    0  502    0  0.00000000000E+00  0.00000000000E+00  0.14607745064E+04  0.14607745064E+04  0.00000000000E+00 0. -1.
          1   -1    0    0  501    0 -0.00000000000E+00 -0.00000000000E+00 -0.15315453801E+03  0.15315453801E+03  0.00000000000E+00 0. -1.
         25    2    1    2    0    0  0.69689767520E+02  0.96948324323E+01  0.15513964563E+02  0.14427983305E+03  0.12500133462E+03 0.  0.
          2    1    1    2  501    0 -0.77363807024E+01 -0.35429874822E+02 -0.84216513141E+02  0.91692686196E+02  0.00000000000E+00 0. -1.
          1    1    1    2  502    0 -0.61953386817E+02  0.25735042390E+02  0.13763225169E+04  0.13779565251E+04  0.00000000000E+00 0. -1.
         22    1    3    3    0    0 -0.28360762199E+02  0.31640143999E+02  0.10005842031E+02  0.43652587776E+02  0.00000000000E+00 0.  1.
         22    1    3    3    0    0  0.98050529719E+02 -0.21945311567E+02  0.55081225329E+01  0.10062724528E+03  0.00000000000E+00 0.  1.
</event>
<event>
 7    1  0.7459264E-005  0.3964797E+03  0.7818608E-02  0.1108272E+00
          2   -1    0    0  502    0  0.00000000000E+00  0.00000000000E+00  0.85405670084E+03  0.85405670084E+03  0.00000000000E+00 0. -1.
          1   -1    0    0  501    0 -0.00000000000E+00 -0.00000000000E+00 -0.57465410583E+03  0.57465410583E+03  0.00000000000E+00 0. -1.
         25    2    1    2    0    0  0.29054933431E+03 -0.21149657951E+03  0.43186537017E+03  0.57557033322E+03  0.12499516680E+03 0.  0.
          2    1    1    2  501    0 -0.20185216475E+03  0.35423963455E+03 -0.38864399597E+03  0.56327095674E+03  0.00000000000E+00 0. -1.
          1    1    1    2  502    0 -0.88697169552E+02 -0.14274305504E+03  0.23618122081E+03  0.28986951670E+03  0.00000000000E+00 0. -1.
         22    1    3    3    0    0  0.53865243842E+02  0.27591156416E+01  0.28040324902E+02  0.60789283873E+02  0.00000000000E+00 0. -1.
         22    1    3    3    0    0  0.23668409046E+03 -0.21425569515E+03  0.40382504527E+03  0.51478104935E+03  0.00000000000E+00 0. -1.
</event>
<event>
 7    1  0.7459264E-005  0.3789547E+03  0.7818608E-02  0.1210271E+00
          2   -1    0    0  502    0  0.00000000000E+00  0.00000000000E+00  0.58454327913E+03  0.58454327913E+03  0.00000000000E+00 0. -1.
          1   -1    0    0  501    0 -0.00000000000E+00 -0.00000000000E+00 -0.12259687895E+04  0.12259687895E+04  0.00000000000E+00 0. -1.
         25    2    1    2    0    0 -0.29132941932E+03 -0.20614116483E+03  0.10343578960E+03  0.39203705293E+03  0.12500831133E+03 0.  0.
          2    1    1    2  501    0 -0.10875697479E+02 -0.52314094826E+02 -0.96329698301E+03  0.96477775824E+03  0.00000000000E+00 0. -1.
          1    1    1    2  502    0  0.30220511679E+03  0.25845525965E+03  0.21843568299E+03  0.45369725750E+03  0.00000000000E+00 0. -1.
         22    1    3    3    0    0 -0.20917286293E+03 -0.20809060426E+03  0.69497149902E+02  0.30312512270E+03  0.00000000000E+00 0. -1.
         22    1    3    3    0    0 -0.82156556388E+02  0.19494394369E+01  0.33938639700E+02  0.88911930225E+02  0.00000000000E+00 0. -1.
</event>
<event>
 7    1  0.7459264E-005  0.2700471E+03  0.7818608E-02  0.1228909E+00
          2   -1    0    0  502    0  0.00000000000E+00  0.00000000000E+00  0.27067329437E+04  0.27067329437E+04  0.00000000000E+00 0. -1.
          1   -1    0    0  501    0 -0.00000000000E+00 -0.00000000000E+00 -0.50595854127E+03  0.50595854127E+03  0.00000000000E+00 0. -1.
         25    2    1    2    0    0 -0.27759338694E+03  0.14143700625E+02  0.10945780590E+04  0.11362149184E+04  0.12500032352E+03 0.  0.
          2    1    1    2  501    0  0.13413754237E+02 -0.60170165490E+02 -0.47182371609E+03  0.47583400118E+03  0.00000000000E+00 0. -1.
          1    1    1    2  502    0  0.26417963271E+03  0.46026464865E+02  0.15780200596E+04  0.16006425654E+04  0.00000000000E+00 0. -1.
         22    1    3    3    0    0 -0.45364479071E+02 -0.27982438911E+02  0.92879150081E+02  0.10708636406E+03  0.00000000000E+00 0.  1.
         22    1    3    3    0    0 -0.23222890787E+03  0.42126139536E+02  0.10016989089E+04  0.10291285544E+04  0.00000000000E+00 0.  1.
</event>
<event>
 7    1  0.7459264E-005  0.6704496E+02  0.7818608E-02  0.1404251E+00
          2   -1    0    0  502    0  0.00000000000E+00  0.00000000000E+00  0.19313316839E+03  0.19313316839E+03  0.00000000000E+00 0. -1.
          1   -1    0    0  501    0 -0.00000000000E+00 -0.00000000000E+00 -0.29585016495E+03  0.29585016495E+03  0.00000000000E+00 0. -1.
         25    2    1    2    0    0  0.60427890610E+02  0.59829003036E+02 -0.22248733512E+02  0.15281246668E+03  0.12500241702E+03 0.  0.
          2    1    1    2  501    0 -0.66209959738E+02 -0.91191895171E+01 -0.19749567765E+03  0.20849810809E+03  0.00000000000E+00 0. -1.
          1    1    1    2  502    0  0.57820691286E+01 -0.50709813519E+02  0.11702741461E+03  0.12767275857E+03  0.00000000000E+00 0. -1.
         22    1    3    3    0    0 -0.26498241032E+02 -0.20957126227E+01  0.24634718745E+02  0.36241111418E+02  0.00000000000E+00 0. -1.
         22    1    3    3    0    0  0.86926131641E+02  0.61924715658E+02 -0.46883452257E+02  0.11657135526E+03  0.00000000000E+00 0. -1.
</event>
<event>
 7    1  0.7459264E-005  0.8266822E+03  0.7818608E-02  0.1111159E+00
          2   -1    0    0  502    0  0.00000000000E+00  0.00000000000E+00  0.16324198223E+04  0.16324198223E+04  0.00000000000E+00 0. -1.
          1   -1    0    0  501    0 -0.00000000000E+00 -0.00000000000E+00 -0.10176895334E+04  0.10176895334E+04  0.00000000000E+00 0. -1.
         25    2    1    2    0    0 -0.37483988970E+03  0.75471641296E+03 -0.27162784269E+03  0.89415410352E+03  0.12501227547E+03 0.  0.
          2    1    1    2  501    0  0.29718716838E+03 -0.75233133912E+03 -0.55588795419E+02  0.81080994756E+03  0.00000000000E+00 0. -1.
          1    1    1    2  502    0  0.77652721312E+02 -0.23850738381E+01  0.94194692698E+03  0.94514530468E+03  0.00000000000E+00 0. -1.
         22    1    3    3    0    0 -0.23282784665E+03  0.58993567885E+03 -0.19497414693E+03  0.66351174015E+03  0.00000000000E+00 0. -1.
         22    1    3    3    0    0 -0.14201204304E+03  0.16478073412E+03 -0.76653695764E+02  0.23064236337E+03  0.00000000000E+00 0. -1.
</event>
<event>
 7    1  0.7459264E-005  0.6688961E+03  0.7818608E-02  0.1105297E+00
          2   -1    0    0  502    0  0.00000000000E+00  0.00000000000E+00  0.15265147407E+04  0.15265147407E+04  0.00000000000E+00 0. -1.
          1   -1    0    0  501    0 -0.00000000000E+00 -0.00000000000E+00 -0.10505808175E+04  0.10505808175E+04  0.00000000000E+00 0. -1.
         25    2    1    2    0    0  0.46059863722E+03  0.59167159239E+03 -0.50241766715E+03  0.91119429777E+03  0.12500063264E+03 0.  0.
          2    1    1    2  501    0 -0.18970061820E+02 -0.10172947893E+03 -0.25059959485E+03  0.27112526085E+03  0.00000000000E+00 0. -1.
          1    1    1    2  502    0 -0.44162857540E+03 -0.48994211346E+03  0.12289511852E+04  0.13947759995E+04  0.00000000000E+00 0. -1.
         22    1    3    3    0    0  0.38929643297E+03  0.50579215425E+03 -0.36903386568E+03  0.73726752949E+03  0.00000000000E+00 0. -1.
         22    1    3    3    0    0  0.71302204249E+02  0.85879438144E+02 -0.13338380148E+03  0.17392676828E+03  0.00000000000E+00 0. -1.
</event>
<event>
 7    1  0.7459264E-005  0.1203791E+03  0.7818608E-02  0.1244882E+00
          2   -1    0    0  502    0  0.00000000000E+00  0.00000000000E+00  0.80031688228E+03  0.80031688228E+03  0.00000000000E+00 0. -1.
          1   -1    0    0  501    0 -0.00000000000E+00 -0.00000000000E+00 -0.23710904816E+03  0.23710904816E+03  0.00000000000E+00 0. -1.
         25    2    1    2    0    0  0.10263710032E+03 -0.14576559726E+03 -0.14014979550E+02  0.21818220831E+03  0.12500029065E+03 0.  0.
          2    1    1    2  501    0  0.13375839696E+02  0.11672400359E+03 -0.85825005881E+02  0.14549686504E+03  0.00000000000E+00 0. -1.
          1    1    1    2  502    0 -0.11601294002E+03  0.29041593673E+02  0.66304781956E+03  0.67374685709E+03  0.00000000000E+00 0. -1.
         22    1    3    3    0    0  0.11947398539E+03 -0.11393643210E+03  0.22830443406E+02  0.16666365198E+03  0.00000000000E+00 0.  1.
         22    1    3    3    0    0 -0.16836885067E+02 -0.31829165164E+02 -0.36845422956E+02  0.51518556333E+02  0.00000000000E+00 0.  1.
</event>
<event>
 7    1  0.7459264E-005  0.4755880E+03  0.7818608E-02  0.1126929E+00
          2   -1    0    0  502    0  0.00000000000E+00  0.00000000000E+00  0.26638050623E+04  0.26638050623E+04  0.00000000000E+00 0. -1.
          1   -1    0    0  501    0 -0.00000000000E+00 -0.00000000000E+00 -0.25914332945E+04  0.25914332945E+04  0.00000000000E+00 0. -1.
         25    2    1    2    0    0  0.40626799846E+03 -0.21023572362E+03 -0.13169792842E+04  0.13997543224E+04  0.12499992816E+03 0.  0.
          2    1    1    2  501    0  0.55833108270E+02  0.95742985596E+02 -0.12089039797E+04  0.12139740060E+04  0.00000000000E+00 0. -1.
          1    1    1    2  502    0 -0.46210110673E+03  0.11449273803E+03  0.25982550317E+04  0.26415100283E+04  0.00000000000E+00 0. -1.
         22    1    3    3    0    0  0.30752714956E+03 -0.93864243972E+02 -0.90362013933E+03  0.95912084755E+03  0.00000000000E+00 0.  1.
         22    1    3    3    0    0  0.98740848908E+02 -0.11637147965E+03 -0.41335914490E+03  0.44063347488E+03  0.00000000000E+00 0.  1.
</event>
<event>
 7    1  0.7459264E-005  0.1359638E+03  0.7818608E-02  0.1390063E+00
          2   -1    0    0  502    0  0.00000000000E+00  0.00000000000E+00  0.20317372367E+04  0.20317372367E+04  0.00000000000E+00 0. -1.
          1   -1    0    0  501    0 -0.00000000000E+00 -0.00000000000E+00 -0.81037043317E+03  0.81037043317E+03  0.00000000000E+00 0. -1.
         25    2    1    2    0    0  0.69168517828E+02  0.13634275700E+03 -0.13323527529E+03  0.23822342988E+03  0.12500053086E+03 0.  0.
          2    1    1    2  501    0 -0.27235722420E+02 -0.72058851504E+01 -0.62199334788E+03  0.62263105783E+03  0.00000000000E+00 0. -1.
          1    1    1    2  502    0 -0.41932795408E+02 -0.12913687185E+03  0.19765954267E+04  0.19812531821E+04  0.00000000000E+00 0. -1.
         22    1    3    3    0    0  0.42724517714E+02  0.34052992427E+02  0.14565808912E+02  0.56543377122E+02  0.00000000000E+00 0. -1.
         22    1    3    3    0    0  0.26444000114E+02  0.10228976458E+03 -0.14780108420E+03  0.18168005276E+03  0.00000000000E+00 0. -1.
</event>
<event>
 7    1  0.7459264E-005  0.3450924E+03  0.7818608E-02  0.1141916E+00
          2   -1    0    0  502    0  0.00000000000E+00  0.00000000000E+00  0.12182158550E+04  0.12182158550E+04  0.00000000000E+00 0. -1.
          1   -1    0    0  501    0 -0.00000000000E+00 -0.00000000000E+00 -0.10147214491E+04  0.10147214491E+04  0.00000000000E+00 0. -1.
         25    2    1    2    0    0 -0.21879889476E+03 -0.31016284353E+03  0.37151896612E+01  0.39963899696E+03  0.12499431749E+03 0.  0.
          2    1    1    2  501    0  0.12571636880E+03 -0.19732170209E+02 -0.78257731513E+03  0.79285636662E+03  0.00000000000E+00 0. -1.
          1    1    1    2  502    0  0.93082525956E+02  0.32989501374E+03  0.98235653141E+03  0.10404419405E+04  0.00000000000E+00 0. -1.
         22    1    3    3    0    0 -0.10322135889E+03 -0.50215817041E+02  0.86467236148E+01  0.11511317493E+03  0.00000000000E+00 0.  1.
         22    1    3    3    0    0 -0.11557753587E+03 -0.25994702649E+03 -0.49315339536E+01  0.28452582203E+03  0.00000000000E+00 0.  1.
</event>
<event>
 7    1  0.7459264E-005  0.3332733E+03  0.7818608E-02  0.1191282E+00
          2   -1    0    0  502    0  0.00000000000E+00  0.00000000000E+00  0.64599882422E+03  0.64599882422E+03  0.00000000000E+00 0. -1.
          1   -1    0    0  501    0 -0.00000000000E+00 -0.00000000000E+00 -0.73708879322E+03  0.73708879322E+03  0.00000000000E+00 0. -1.
         25    2    1    2    0    0  0.22443642664E+03  0.17114542282E+03 -0.11128612731E+03  0.32813355257E+03  0.12499824333E+03 0.  0.
          2    1    1    2  501    0  0.74510824640E+02  0.45719945168E+01 -0.45812113822E+03  0.46416348780E+03  0.00000000000E+00 0. -1.
          1    1    1    2  502    0 -0.29894725128E+03 -0.17571741733E+03  0.47831729652E+03  0.59079057707E+03  0.00000000000E+00 0. -1.
         22    1    3    3    0    0  0.10358584715E+03  0.19289289270E+02 -0.78301504350E+02  0.13127539752E+03  0.00000000000E+00 0. -1.
         22    1    3    3    0    0  0.12085057950E+03  0.15185613355E+03 -0.32984622963E+02  0.19685815506E+03  0.00000000000E+00 0. -1.
</event>
<event>
 7    1  0.7459264E-005  0.2826043E+03  0.7818608E-02  0.1231621E+00
          2   -1    0    0  502    0  0.00000000000E+00  0.00000000000E+00  0.55136752253E+03  0.55136752253E+03  0.00000000000E+00 0. -1.
          1   -1    0    0  501    0 -0.00000000000E+00 -0.00000000000E+00 -0.63740813958E+03  0.63740813958E+03  0.00000000000E+00 0. -1.
         25    2    1    2    0    0  0.20330488722E+03  0.20143226955E+03 -0.33510122245E+03  0.45806618775E+03  0.12499586667E+03 0.  0.
          2    1    1    2  501    0 -0.23521509008E+03 -0.15386175852E+03 -0.15610851670E+03  0.32151119471E+03  0.00000000000E+00 0. -1.
          1    1    1    2  502    0  0.31910202858E+02 -0.47570511028E+02  0.40516912210E+03  0.40919827965E+03  0.00000000000E+00 0. -1.
         22    1    3    3    0    0  0.54998051345E+02  0.34624289845E+02 -0.16529781211E+03  0.17761473415E+03  0.00000000000E+00 0.  1.
         22    1    3    3    0    0  0.14830683588E+03  0.16680797970E+03 -0.16980341034E+03  0.28045145359E+03  0.00000000000E+00 0.  1.
</event>
<event>
 7    1  0.7459264E-005  0.1431050E+03  0.7818608E-02  0.1338354E+00
          2   -1    0    0  502    0  0.00000000000E+00  0.00000000000E+00  0.48167851275E+03  0.48167851275E+03  0.00000000000E+00 0. -1.
          1   -1    0    0  501    0 -0.00000000000E+00 -0.00000000000E+00 -0.20979261346E+04  0.20979261346E+04  0.00000000000E+00 0. -1.
         25    2    1    2    0    0 -0.12725195962E+03 -0.30904573057E+02  0.32486253924E+03  0.37189857798E+03  0.12499891616E+03 0.  0.
          2    1    1    2  501    0 -0.38204095048E+02 -0.15497047162E+02 -0.20187288361E+04  0.20191497777E+04  0.00000000000E+00 0. -1.
          1    1    1    2  502    0  0.16545605467E+03  0.46401620219E+02  0.77618675017E+02  0.18855629159E+03  0.00000000000E+00 0. -1.
         22    1    3    3    0    0 -0.13516495998E+03 -0.42454146269E+02  0.32822839387E+03  0.35749936990E+03  0.00000000000E+00 0.  1.
         22    1    3    3    0    0  0.79130003533E+01  0.11549573212E+02 -0.33658546255E+01  0.14399208080E+02  0.00000000000E+00 0.  1.
</event>
<event>
 7    1  0.7522915E-005  0.1616148E+04  0.7818608E-02  0.1084781E+00
          2   -1    0    0  502    0  0.00000000000E+00  0.00000000000E+00  0.24172507872E+04  0.24172507872E+04  0.00000000000E+00 0. -1.
          1   -1    0    0  501    0 -0.00000000000E+00 -0.00000000000E+00 -0.15223828821E+04  0.15223828821E+04  0.00000000000E+00 0. -1.
         25    2    1    2    0    0 -0.89733877565E+03 -0.13313719924E+04  0.13909268835E+03  0.16163972746E+04  0.12500045128E+03 0.  0.
          2    1    1    2  501    0  0.86545709585E+03  0.13774481088E+04  0.62780827747E+02  0.16279805618E+04  0.00000000000E+00 0. -1.
          1    1    1    2  502    0  0.31881679805E+02 -0.46076116402E+02  0.69299438899E+03  0.69525583290E+03  0.00000000000E+00 0. -1.
         22    1    3    3    0    0 -0.19813427386E+03 -0.21379927730E+03  0.42669842569E+02  0.29459809388E+03  0.00000000000E+00 0.  1.
         22    1    3    3    0    0 -0.69920450179E+03 -0.11175727151E+04  0.96422845777E+02  0.13217991807E+04  0.00000000000E+00 0.  1.
</event>
<event>
 7    1  0.7459264E-005  0.3580872E+03  0.7818608E-02  0.1096519E+00
          2   -1    0    0  502    0  0.00000000000E+00  0.00000000000E+00  0.23225687629E+04  0.23225687629E+04  0.00000000000E+00 0. -1.
          1   -1    0    0  501    0 -0.00000000000E+00 -0.00000000000E+00 -0.38939571121E+03  0.38939571121E+03  0.00000000000E+00 0. -1.
         25    2    1    2    0    0 -0.32890563319E+03  0.44097401546E+03  0.68923281213E+03  0.89067609549E+03  0.12500015960E+03 0.  0.
          2    1    1    2  501    0  0.20783342818E+03 -0.26139676214E+03 -0.18109259487E+03  0.37989147008E+03  0.00000000000E+00 0. -1.
          1    1    1    2  502    0  0.12107220501E+03 -0.17957725332E+03  0.14250328344E+04  0.14413969085E+04  0.00000000000E+00 0. -1.
         22    1    3    3    0    0 -0.47612227154E+02  0.12337216893E+03  0.23117062716E+03  0.26632212658E+03  0.00000000000E+00 0.  1.
         22    1    3    3    0    0 -0.28129340603E+03  0.31760184653E+03  0.45806218497E+03  0.62435396891E+03  0.00000000000E+00 0.  1.
</event>
<event>
 7    1  0.7459264E-005  0.1369476E+03  0.7818608E-02  0.1311300E+00
          2   -1    0    0  502    0  0.00000000000E+00  0.00000000000E+00  0.10024375507E+04  0.10024375507E+04  0.00000000000E+00 0. -1.
          1   -1    0    0  501    0 -0.00000000000E+00 -0.00000000000E+00 -0.67124920446E+02  0.67124920446E+02  0.00000000000E+00 0. -1.
         25    2    1    2    0    0  0.26431137853E+02 -0.12080238065E+03  0.22466182904E+03  0.28528658426E+03  0.12499470994E+03 0.  0.
          2    1    1    2  501    0  0.21841301109E+02  0.14666197871E+03  0.11908003488E+03  0.19017579536E+03  0.00000000000E+00 0. -1.
          1    1    1    2  502    0 -0.48272438962E+02 -0.25859598052E+02  0.59157076638E+03  0.59410009158E+03  0.00000000000E+00 0. -1.
         22    1    3    3    0    0  0.57973491256E+02 -0.10392604867E+03  0.99518317517E+02  0.15513041224E+03  0.00000000000E+00 0. -1.
         22    1    3    3    0    0 -0.31542353403E+02 -0.16876331987E+02  0.12514351152E+03  0.13015617202E+03  0.00000000000E+00 0. -1.
</event>
<event>
 7    1  0.7459264E-005  0.2299733E+03  0.7818608E-02  0.1321353E+00
          2   -1    0    0  502    0  0.00000000000E+00  0.00000000000E+00  0.20880797248E+04  0.20880797248E+04  0.00000000000E+00 0. -1.
          1   -1    0    0  501    0 -0.00000000000E+00 -0.00000000000E+00 -0.50393588840E+03  0.50393588840E+03  0.00000000000E+00 0. -1.
         25    2    1    2    0    0  0.22647883041E+03  0.85944313761E+02  0.48149145922E+03  0.55329737874E+03  0.12499951332E+03 0.  0.
          2    1    1    2  501    0 -0.62585024164E+01 -0.29129367140E+02 -0.45931488563E+03  0.46028018972E+03  0.00000000000E+00 0. -1.
          1    1    1    2  502    0 -0.22022032799E+03 -0.56814946621E+02  0.15619672628E+04  0.15784380447E+04  0.00000000000E+00 0. -1.
         22    1    3    3    0    0  0.20274150350E+03  0.52296103586E+02  0.46303172319E+03  0.50817061738E+03  0.00000000000E+00 0. -1.
         22    1    3    3    0    0  0.23737326909E+02  0.33648210174E+02  0.18459736037E+02  0.45126761365E+02  0.00000000000E+00 0. -1.
</event>
<event>
 7    1  0.7459264E-005  0.1610559E+03  0.7818608E-02  0.1192640E+00
          2   -1    0    0  502    0  0.00000000000E+00  0.00000000000E+00  0.15026667499E+04  0.15026667499E+04  0.00000000000E+00 0. -1.
          1   -1    0    0  501    0 -0.00000000000E+00 -0.00000000000E+00 -0.77654651101E+03  0.77654651101E+03  0.00000000000E+00 0. -1.
         25    2    1    2    0    0  0.19634866178E+03 -0.16158490026E+03  0.60286206378E+03  0.66612665021E+03  0.12497827493E+03 0.  0.
          2    1    1    2  501    0 -0.15977768237E+03  0.13861029333E+02 -0.72946651209E+03  0.74688849782E+03  0.00000000000E+00 0. -1.
          1    1    1    2  502    0 -0.36570979412E+02  0.14772387093E+03  0.85272468724E+03  0.86619811291E+03  0.00000000000E+00 0. -1.
         22    1    3    3    0    0  0.72960848247E+02  0.79123054500E+01  0.14317636056E+03  0.16088927925E+03  0.00000000000E+00 0. -1.
         22    1    3    3    0    0  0.12338781353E+03 -0.16949720571E+03  0.45968570322E+03  0.50523737096E+03  0.00000000000E+00 0. -1.
</event>
<event>
 7    1  0.7459264E-005  0.2005310E+03  0.7818608E-02  0.1316073E+00
          2   -1    0    0  502    0  0.00000000000E+00  0.00000000000E+00  0.13337730217E+03  0.13337730217E+03  0.00000000000E+00 0. -1.
          1   -1    0    0  501    0 -0.00000000000E+00 -0.00000000000E+00 -0.29191374439E+04  0.29191374439E+04  0.00000000000E+00 0. -1.
         25    2    1    2    0    0 -0.12655879610E+03  0.14398463675E+03 -0.18043770826E+04  0.18188323240E+04  0.12500264920E+03 0.  0.
          2    1    1    2  501    0 -0.30609188231E+02 -0.18609474192E+02 -0.10269169762E+04  0.10275415860E+04  0.00000000000E+00 0. -1.
          1    1    1    2  502    0  0.15716798433E+03 -0.12537516256E+03  0.45533917053E+02  0.20614083605E+03  0.00000000000E+00 0. -1.
         22    1    3    3    0    0 -0.46625745251E+02  0.42000650885E+02 -0.11521938294E+04  0.11539014843E+04  0.00000000000E+00 0.  1.
         22    1    3    3    0    0 -0.79933050847E+02  0.10198398587E+03 -0.65218325312E+03  0.66493083974E+03  0.00000000000E+00 0.  1.
</event>
<event>
 7    1  0.7459264E-005  0.9433530E+02  0.7818608E-02  0.1363810E+00
          2   -1    0    0  502    0  0.00000000000E+00  0.00000000000E+00  0.16023133790E+04  0.16023133790E+04  0.00000000000E+00 0. -1.
          1   -1    0    0  501    0 -0.00000000000E+00 -0.00000000000E+00 -0.37794884011E+03  0.37794884011E+03  0.00000000000E+00 0. -1.
         25    2    1    2    0    0  0.31347997225E+02  0.34747260994E+02 -0.69770352154E+02  0.15060839893E+03  0.12499967484E+03 0.  0.
          2    1    1    2  501    0  0.15351215248E+02  0.47952251821E+02 -0.26393371003E+03  0.26869328528E+03  0.00000000000E+00 0. -1.
          1    1    1    2  502    0 -0.46699212473E+02 -0.82699512815E+02  0.15580686011E+04  0.15609605349E+04  0.00000000000E+00 0. -1.
         22    1    3    3    0    0  0.75629359723E+02  0.37833247526E+02 -0.26501099585E+02  0.88619766134E+02  0.00000000000E+00 0. -1.
         22    1    3    3    0    0 -0.44281362498E+02 -0.30859865326E+01 -0.43269252570E+02  0.61988632792E+02  0.00000000000E+00 0. -1.
</event>
<event>
 7    1  0.7459264E-005  0.3522687E+03  0.7818608E-02  0.1236051E+00
          2   -1    0    0  502    0  0.00000000000E+00  0.00000000000E+00  0.32871709178E+03  0.32871709178E+03  0.00000000000E+00 0. -1.
          1   -1    0    0  501    0 -0.00000000000E+00 -0.00000000000E+00 -0.10081890846E+04  0.10081890846E+04  0.00000000000E+00 0. -1.
         25    2    1    2    0    0  0.35596834910E+03  0.56826736256E+02 -0.43508472651E+03  0.57867559828E+03  0.12499594108E+03 0.  0.
          2    1    1    2  501    0 -0.33338079418E+03 -0.94484062720E+02 -0.43868642056E+03  0.55903109718E+03  0.00000000000E+00 0. -1.
          1    1    1    2  502    0 -0.22587554925E+02  0.37657326464E+02  0.19429915422E+03  0.19919948094E+03  0.00000000000E+00 0. -1.
         22    1    3    3    0    0  0.94350826801E+01  0.32409206761E+02 -0.31493322992E+02  0.46164996060E+02  0.00000000000E+00 0. -1.
         22    1    3    3    0    0  0.34653326642E+03  0.24417529495E+02 -0.40359140352E+03  0.53251060222E+03  0.00000000000E+00 0. -1.
</event>
<event>
 7    1  0.7459264E-005  0.3039784E+03  0.7818608E-02  0.1128788E+00
          2   -1    0    0  502    0  0.00000000000E+00  0.00000000000E+00  0.13711628517E+03  0.13711628517E+03  0.00000000000E+00 0. -1.
          1   -1    0    0  501    0 -0.00000000000E+00 -0.00000000000E+00 -0.15751093028E+04  0.15751093028E+04  0.00000000000E+00 0. -1.
         25    2    1    2    0    0  0.35629553688E+03  0.24260613379E+02 -0.59825520169E+03  0.70786227474E+03  0.12499850675E+03 0.  0.
          2    1    1    2  501    0 -0.24704727588E+03 -0.15382524813E+03 -0.76622318596E+03  0.81962951032E+03  0.00000000000E+00 0. -1.
          1    1    1    2  502    0 -0.10924826100E+03  0.12956463475E+03 -0.73514629962E+02  0.18473380289E+03  0.00000000000E+00 0. -1.
         22    1    3    3    0    0  0.19288292816E+03 -0.46673081640E+02 -0.28095000925E+03  0.34396963270E+03  0.00000000000E+00 0. -1.
         22    1    3    3    0    0  0.16341260872E+03  0.70933695019E+02 -0.31730519245E+03  0.36389264204E+03  0.00000000000E+00 0. -1.
</event>
<event>
 7    1  0.7459264E-005  0.5312521E+02  0.7818608E-02  0.1560494E+00
          2   -1    0    0  502    0  0.00000000000E+00  0.00000000000E+00  0.65856189224E+03  0.65856189224E+03  0.00000000000E+00 0. -1.
          1   -1    0    0  501    0 -0.00000000000E+00 -0.00000000000E+00 -0.41662578972E+03  0.41662578972E+03  0.00000000000E+00 0. -1.
         25    2    1    2    0    0  0.32244109253E+02  0.51624528470E+02  0.17558445174E+03  0.22395203290E+03  0.12497935358E+03 0.  0.
          2    1    1    2  501    0 -0.41924187515E+02 -0.32569705099E+02 -0.39039552901E+03  0.39398869560E+03  0.00000000000E+00 0. -1.
          1    1    1    2  502    0  0.96800782624E+01 -0.19054823370E+02  0.45674717978E+03  0.45724695346E+03  0.00000000000E+00 0. -1.
         22    1    3    3    0    0  0.15149897120E+02 -0.39541918207E+02  0.81437251473E+02  0.91788390364E+02  0.00000000000E+00 0. -1.
         22    1    3    3    0    0  0.17094212133E+02  0.91166446677E+02  0.94147200272E+02  0.13216364253E+03  0.00000000000E+00 0. -1.
</event>
<event>
 7    1  0.7459264E-005  0.7283780E+03  0.7818608E-02  0.1117537E+00
          2   -1    0    0  502    0  0.00000000000E+00  0.00000000000E+00  0.94731815725E+03  0.94731815725E+03  0.00000000000E+00 0. -1.
          1   -1    0    0  501    0 -0.00000000000E+00 -0.00000000000E+00 -0.20946112788E+04  0.20946112788E+04  0.00000000000E+00 0. -1.
         25    2    1    2    0    0  0.11550628345E+03 -0.71393141772E+03 -0.46531407860E+03  0.86901171442E+03  0.12499758931E+03 0.  0.
          2    1    1    2  501    0  0.80724121061E+02  0.10052478076E+02 -0.12467381805E+04  0.12493892615E+04  0.00000000000E+00 0. -1.
          1    1    1    2  502    0 -0.19623040451E+03  0.70387893964E+03  0.56475913751E+03  0.92352846016E+03  0.00000000000E+00 0. -1.
         22    1    3    3    0    0  0.65300341926E+02 -0.41295050801E+03 -0.19483842639E+03  0.46125293399E+03  0.00000000000E+00 0.  1.
         22    1    3    3    0    0  0.50205941526E+02 -0.30098090971E+03 -0.27047565222E+03  0.40775878043E+03  0.00000000000E+00 0.  1.
</event>
<event>
 7    1  0.7459264E-005  0.6917428E+02  0.7818608E-02  0.1402001E+00
          2   -1    0    0  502    0  0.00000000000E+00  0.00000000000E+00  0.38344903848E+02  0.38344903848E+02  0.00000000000E+00 0. -1.
          1   -1    0    0  501    0 -0.00000000000E+00 -0.00000000000E+00 -0.12266012916E+04  0.12266012916E+04  0.00000000000E+00 0. -1.
         25    2    1    2    0    0 -0.24715684272E+02  0.89335598669E+02 -0.60485674861E+03  0.62455545344E+03  0.12500445529E+03 0.  0.
          2    1    1    2  501    0 -0.25854483034E+02 -0.43207571612E+02 -0.56800551932E+03  0.57023295110E+03  0.00000000000E+00 0. -1.
          1    1    1    2  502    0  0.50570167306E+02 -0.46128027057E+02 -0.15394119828E+02  0.70157790920E+02  0.00000000000E+00 0. -1.
         22    1    3    3    0    0 -0.72498751878E+02  0.58683243564E+02 -0.29027446380E+03  0.30489187663E+03  0.00000000000E+00 0.  1.
         22    1    3    3    0    0  0.47783067607E+02  0.30652355105E+02 -0.31458228481E+03  0.31966357682E+03  0.00000000000E+00 0.  1.
</event>
<event>
 7    1  0.7459264E-005  0.5146479E+03  0.7818608E-02  0.1201279E+00
          2   -1    0    0  502    0  0.00000000000E+00  0.00000000000E+00  0.21651403661E+03  0.21651403661E+03  0.00000000000E+00 0. -1.
          1   -1    0    0  501    0 -0.00000000000E+00 -0.00000000000E+00 -0.19259266057E+04  0.19259266057E+04  0.00000000000E+00 0. -1.
         25    2    1    2    0    0 -0.69534048061E+02  0.52595787975E+03 -0.50975466803E+03  0.74628503835E+03  0.12499944711E+03 0.  0.
          2    1    1    2  501    0  0.30367599935E+02 -0.50740432328E+03 -0.12379991346E+04  0.13382911476E+04  0.00000000000E+00 0. -1.
          1    1    1    2  502    0  0.39166448126E+02 -0.18553556469E+02  0.38341233572E+02  0.57864456347E+02  0.00000000000E+00 0. -1.
         22    1    3    3    0    0 -0.19445598287E+02  0.46447543746E+03 -0.44983495818E+03  0.64689029433E+03  0.00000000000E+00 0.  1.
         22    1    3    3    0    0 -0.50088449774E+02  0.61482442287E+02 -0.59919709850E+02  0.99394744020E+02  0.00000000000E+00 0.  1.
</event>
<event>
 7    1  0.7459264E-005  0.2078337E+03  0.7818608E-02  0.1181937E+00
          2   -1    0    0  502    0  0.00000000000E+00  0.00000000000E+00  0.95666685738E+02  0.95666685738E+02  0.00000000000E+00 0. -1.
          1   -1    0    0  501    0 -0.00000000000E+00 -0.00000000000E+00 -0.35516360540E+04  0.35516360540E+04  0.00000000000E+00 0. -1.
         25    2    1    2    0    0 -0.18204571978E+03  0.20181614961E+03 -0.38415179056E+03  0.48688900602E+03  0.12497161142E+03 0.  0.
          2    1    1    2  501    0  0.49260225199E+02 -0.19950044661E+03 -0.30045037405E+04  0.30115228249E+04  0.00000000000E+00 0. -1.
          1    1    1    2  502    0  0.13278549458E+03 -0.23157030047E+01 -0.67313837136E+02  0.14889090879E+03  0.00000000000E+00 0. -1.
         22    1    3    3    0    0 -0.18811621067E+02  0.42556280951E+02 -0.83045887879E+01  0.47263943239E+02  0.00000000000E+00 0.  1.
         22    1    3    3    0    0 -0.16323409871E+03  0.15925986866E+03 -0.37584720178E+03  0.43962506279E+03  0.00000000000E+00 0.  1.
</event>
<event>
 7    1  0.7459264E-005  0.7448227E+02  0.7818608E-02  0.1440615E+00
          2   -1    0    0  502    0  0.00000000000E+00  0.00000000000E+00  0.43889546361E+03  0.43889546361E+03  0.00000000000E+00 0. -1.
          1   -1    0    0  501    0 -0.00000000000E+00 -0.00000000000E+00 -0.10924188276E+03  0.10924188276E+03  0.00000000000E+00 0. -1.
         25    2    1    2    0    0  0.90387337696E+01  0.88935146383E+02  0.31384052932E+03  0.34944039365E+03  0.12498620683E+03 0.  0.
          2    1    1    2  501    0 -0.25357338129E+02 -0.23784951622E+02 -0.76794931998E+02  0.84298161909E+02  0.00000000000E+00 0. -1.
          1    1    1    2  502    0  0.16318604359E+02 -0.65150194761E+02  0.92607983528E+02  0.11439879081E+03  0.00000000000E+00 0. -1.
         22    1    3    3    0    0 -0.36292784906E+02  0.97398404366E+02  0.24946178684E+03  0.27024951156E+03  0.00000000000E+00 0. -1.
         22    1    3    3    0    0  0.45331518676E+02 -0.84632579830E+01  0.64378742485E+02  0.79190882083E+02  0.00000000000E+00 0. -1.
</event>
<event>
 7    1  0.7459264E-005  0.1056659E+03  0.7818608E-02  0.1333438E+00
          2   -1    0    0  502    0  0.00000000000E+00  0.00000000000E+00  0.38296773749E+02  0.38296773749E+02  0.00000000000E+00 0. -1.
          1   -1    0    0  501    0 -0.00000000000E+00 -0.00000000000E+00 -0.24263899278E+04  0.24263899278E+04  0.00000000000E+00 0. -1.
         25    2    1    2    0    0  0.93901621029E+02 -0.12683014450E+03 -0.18902041275E+04  0.19008946358E+04  0.12500149034E+03 0.  0.
          2    1    1    2  501    0 -0.46724098226E+02  0.34834345141E+02 -0.44284757280E+03  0.44666603373E+03  0.00000000000E+00 0. -1.
          1    1    1    2  502    0 -0.47177522803E+02  0.91995799361E+02 -0.55041453747E+02  0.11712603207E+03  0.00000000000E+00 0. -1.
         22    1    3    3    0    0  0.10954689562E+03 -0.13773461836E+03 -0.18061833534E+04  0.18147368000E+04  0.00000000000E+00 0.  1.
         22    1    3    3    0    0 -0.15645274587E+02  0.10904473862E+02 -0.84020774142E+02  0.86157835712E+02  0.00000000000E+00 0.  1.
</event>
<event>
 7    1  0.7459264E-005  0.3256477E+03  0.7818608E-02  0.1231453E+00
          2   -1    0    0  502    0  0.00000000000E+00  0.00000000000E+00  0.18363131457E+04  0.18363131457E+04  0.00000000000E+00 0. -1.
          1   -1    0    0  501    0 -0.00000000000E+00 -0.00000000000E+00 -0.21247566402E+04  0.21247566402E+04  0.00000000000E+00 0. -1.
         25    2    1    2    0    0  0.25810938256E+03  0.21418486468E+03 -0.28493838917E+03  0.45750485689E+03  0.12500079533E+03 0.  0.
          2    1    1    2  501    0 -0.27743448722E+03 -0.16829102324E+03 -0.17381632975E+04  0.17681921310E+04  0.00000000000E+00 0. -1.
          1    1    1    2  502    0  0.19325104656E+02 -0.45893841443E+02  0.17346581922E+04  0.17353727980E+04  0.00000000000E+00 0. -1.
         22    1    3    3    0    0  0.11628882756E+03  0.17597247409E+03 -0.17415949134E+03  0.27353415048E+03  0.00000000000E+00 0. -1.
         22    1    3    3    0    0  0.14182055500E+03  0.38212390594E+02 -0.11077889783E+03  0.18397070642E+03  0.00000000000E+00 0. -1.
</event>
<event>
 7    1  0.7459264E-005  0.1933685E+03  0.7818608E-02  0.1303830E+00
          2   -1    0    0  502    0  0.00000000000E+00  0.00000000000E+00  0.66780664067E+03  0.66780664067E+03  0.00000000000E+00 0. -1.
          1   -1    0    0  501    0 -0.00000000000E+00 -0.00000000000E+00 -0.13609443264E+03  0.13609443264E+03  0.00000000000E+00 0. -1.
         25    2    1    2    0    0  0.18039788760E+03 -0.14846971506E+02  0.42719771971E+02  0.22408389752E+03  0.12499913519E+03 0.  0.
          2    1    1    2  501    0 -0.21637148722E+03  0.35568230344E+02  0.23098018508E+03  0.31848636610E+03  0.00000000000E+00 0. -1.
          1    1    1    2  502    0  0.35973599616E+02 -0.20721258838E+02  0.25801225098E+03  0.26133080969E+03  0.00000000000E+00 0. -1.
         22    1    3    3    0    0  0.72585823624E+02 -0.55728169965E+02  0.57135916431E+02  0.10788347262E+03  0.00000000000E+00 0.  1.
         22    1    3    3    0    0  0.10781206398E+03  0.40881198459E+02 -0.14416144460E+02  0.11620042490E+03  0.00000000000E+00 0.  1.
</event>
<event>
 7    1  0.7459264E-005  0.7248199E+03  0.7818608E-02  0.1095778E+00
          2   -1    0    0  502    0  0.00000000000E+00  0.00000000000E+00  0.95532796794E+03  0.95532796794E+03  0.00000000000E+00 0. -1.
          1   -1    0    0  501    0 -0.00000000000E+00 -0.00000000000E+00 -0.20352021447E+04  0.20352021447E+04  0.00000000000E+00 0. -1.
         25    2    1    2    0    0  0.46451591591E+03 -0.58241612814E+03 -0.58922491906E+03  0.95801592402E+03  0.12499969194E+03 0.  0.
          2    1    1    2  501    0 -0.52177421665E+03  0.49079863765E+03 -0.11551821773E+04  0.13592562300E+04  0.00000000000E+00 0. -1.
          1    1    1    2  502    0  0.57258300743E+02  0.91617490488E+02  0.66453291965E+03  0.67325795863E+03  0.00000000000E+00 0. -1.
         22    1    3    3    0    0  0.83179943606E+02 -0.18738917962E+03 -0.13557614125E+03  0.24579360800E+03  0.00000000000E+00 0. -1.
         22    1    3    3    0    0  0.38133597230E+03 -0.39502694852E+03 -0.45364877782E+03  0.71222231603E+03  0.00000000000E+00 0. -1.
</event>
<event>
 7    1  0.7459264E-005  0.2219091E+03  0.7818608E-02  0.1266248E+00
          2   -1    0    0  502    0  0.00000000000E+00  0.00000000000E+00  0.17273532629E+04  0.17273532629E+04  0.00000000000E+00 0. -1.
          1   -1    0    0  501    0 -0.00000000000E+00 -0.00000000000E+00 -0.26248626797E+03  0.26248626797E+03  0.00000000000E+00 0. -1.
         25    2    1    2    0    0  0.73074919091E+02 -0.18870493208E+03  0.41863146653E+03  0.48148509934E+03  0.12500440362E+03 0.  0.
          2    1    1    2  501    0  0.51429976758E+02 -0.39737758971E+01 -0.21772108989E+03  0.22374831036E+03  0.00000000000E+00 0. -1.
          1    1    1    2  502    0 -0.12450489585E+03  0.19267870798E+03  0.12639566183E+04  0.12846061212E+04  0.00000000000E+00 0. -1.
         22    1    3    3    0    0 -0.16441343182E+02 -0.12722607758E+03  0.24829991407E+03  0.27948101887E+03  0.00000000000E+00 0. -1.
         22    1    3    3    0    0  0.89516262273E+02 -0.61478854501E+02  0.17033155247E+03  0.20200408047E+03  0.00000000000E+00 0. -1.
</event>
<event>
 7    1  0.7459264E-005  0.5245447E+02  0.7818608E-02  0.1467154E+00
          2   -1    0    0  502    0  0.00000000000E+00  0.00000000000E+00  0.11447397964E+03  0.11447397964E+03  0.00000000000E+00 0. -1.
          1   -1    0    0  501    0 -0.00000000000E+00 -0.00000000000E+00 -0.10011116785E+04  0.10011116785E+04  0.00000000000E+00 0. -1.
         25    2    1    2    0    0  0.29452635246E+02  0.37380743164E+02 -0.13969599455E+03  0.19340335903E+03  0.12500044284E+03 0.  0.
          2    1    1    2  501    0 -0.52913900430E+02 -0.41938464646E+01 -0.82895410858E+03  0.83065178224E+03  0.00000000000E+00 0. -1.
          1    1    1    2  502    0  0.23461265184E+02 -0.33186896700E+02  0.82012404233E+02  0.91530516903E+02  0.00000000000E+00 0. -1.
         22    1    3    3    0    0 -0.16382337273E+02 -0.44531045495E+01 -0.12938838785E+03  0.13049737938E+03  0.00000000000E+00 0.  1.
         22    1    3    3    0    0  0.45834972519E+02  0.41833847714E+02 -0.10307606704E+02  0.62905979655E+02  0.00000000000E+00 0.  1.
</event>
<event>
 7    1  0.7459264E-005  0.8628844E+02  0.7818608E-02  0.1415118E+00
          2   -1    0    0  502    0  0.00000000000E+00  0.00000000000E+00  0.44098059385E+03  0.44098059385E+03  0.00000000000E+00 0. -1.
          1   -1    0    0  501    0 -0.00000000000E+00 -0.00000000000E+00 -0.72037219475E+02  0.72037219475E+02  0.00000000000E+00 0. -1.
         25    2    1    2    0    0  0.10356752087E+03  0.45249179429E+02  0.24431413812E+03  0.29681723480E+03  0.12504940294E+03 0.  0.
          2    1    1    2  501    0 -0.34897529141E+02 -0.10457329282E+02 -0.27539116833E+02  0.45668328541E+02  0.00000000000E+00 0. -1.
          1    1    1    2  502    0 -0.68669991728E+02 -0.34791850148E+02  0.15216835309E+03  0.17053224998E+03  0.00000000000E+00 0. -1.
         22    1    3    3    0    0  0.87413530363E+02  0.86658934427E+02  0.19320910046E+03  0.22908656160E+03  0.00000000000E+00 0.  1.
         22    1    3    3    0    0  0.16153990506E+02 -0.41409754998E+02  0.51105037656E+02  0.67730673200E+02  0.00000000000E+00 0.  1.
</event>
<event>
 7    1  0.7459264E-005  0.2221285E+03  0.7818608E-02  0.1222337E+00
          2   -1    0    0  502    0  0.00000000000E+00  0.00000000000E+00  0.70420196842E+03  0.70420196842E+03  0.00000000000E+00 0. -1.
          1   -1    0    0  501    0 -0.00000000000E+00 -0.00000000000E+00 -0.19033059172E+04  0.19033059172E+04  0.00000000000E+00 0. -1.
         25    2    1    2    0    0 -0.74555405793E+01 -0.22065829698E+03  0.59291004845E+03  0.64491565835E+03  0.12501284626E+03 0.  0.
          2    1    1    2  501    0  0.79460484079E+02 -0.11208754823E+02 -0.17016345180E+04  0.17035256492E+04  0.00000000000E+00 0. -1.
          1    1    1    2  502    0 -0.72004943500E+02  0.23186705180E+03 -0.90379479254E+02  0.25906657807E+03  0.00000000000E+00 0. -1.
         22    1    3    3    0    0 -0.40092999566E+01 -0.66567669981E+02  0.35661315342E+03  0.36279508041E+03  0.00000000000E+00 0.  1.
         22    1    3    3    0    0 -0.34462406226E+01 -0.15409062700E+03  0.23629689503E+03  0.28212057795E+03  0.00000000000E+00 0.  1.
</event>
<event>
 7    1  0.7459264E-005  0.6624225E+03  0.7818608E-02  0.1084025E+00
          2   -1    0    0  502    0  0.00000000000E+00  0.00000000000E+00  0.16804130954E+04  0.16804130954E+04  0.00000000000E+00 0. -1.
          1   -1    0    0  501    0 -0.00000000000E+00 -0.00000000000E+00 -0.61966516816E+03  0.61966516816E+03  0.00000000000E+00 0. -1.
         25    2    1    2    0    0 -0.48676376979E+03  0.35230781494E+03  0.17325995156E+03  0.63773364085E+03  0.12500168721E+03 0.  0.
          2    1    1    2  501    0  0.14927549273E+01  0.13808053596E+03 -0.27661181383E+03  0.30916429011E+03  0.00000000000E+00 0. -1.
          1    1    1    2  502    0  0.48527101486E+03 -0.49038835091E+03  0.11640997895E+04  0.13531803326E+04  0.00000000000E+00 0. -1.
         22    1    3    3    0    0 -0.43204056360E+03  0.32756325846E+03  0.19144185877E+03  0.57498410602E+03  0.00000000000E+00 0. -1.
         22    1    3    3    0    0 -0.54723206192E+02  0.24744556486E+02 -0.18181907211E+02  0.62749534830E+02  0.00000000000E+00 0. -1.
</event>
<event>
 7    1  0.7459264E-005  0.2751672E+03  0.7818608E-02  0.1259798E+00
          2   -1    0    0  502    0  0.00000000000E+00  0.00000000000E+00  0.27559947559E+03  0.27559947559E+03  0.00000000000E+00 0. -1.
          1   -1    0    0  501    0 -0.00000000000E+00 -0.00000000000E+00 -0.77280011735E+03  0.77280011735E+03  0.00000000000E+00 0. -1.
         25    2    1    2    0    0 -0.25029658331E+03  0.96138124551E+02 -0.33298569214E+03  0.44541624485E+03  0.12500096557E+03 0.  0.
          2    1    1    2  501    0  0.24613843235E+03 -0.14025046938E+03 -0.32794642266E+03  0.43336264049E+03  0.00000000000E+00 0. -1.
          1    1    1    2  502    0  0.41581509666E+01  0.44112344829E+02  0.16373147303E+03  0.16962070760E+03  0.00000000000E+00 0. -1.
         22    1    3    3    0    0 -0.64765090845E+02 -0.13471172476E+02 -0.27650668559E+02  0.71697621661E+02  0.00000000000E+00 0.  1.
         22    1    3    3    0    0 -0.18553149247E+03  0.10960929703E+03 -0.30533502358E+03  0.37371862319E+03  0.00000000000E+00 0.  1.
</event>
<event>
 7    1  0.7459264E-005  0.1987921E+03  0.7818608E-02  0.1322983E+00
          2   -1    0    0  502    0  0.00000000000E+00  0.00000000000E+00  0.11516812157E+04  0.11516812157E+04  0.00000000000E+00 0. -1.
          1   -1    0    0  501    0 -0.00000000000E+00 -0.00000000000E+00 -0.13033259068E+03  0.13033259068E+03  0.00000000000E+00 0. -1.
         25    2    1    2    0    0  0.85732738553E+02  0.19269566016E+03  0.23038331617E+03  0.33643502757E+03  0.12502134019E+03 0.  0.
          2    1    1    2  501    0 -0.33836918735E+02 -0.30151332183E+01 -0.61752104245E+02  0.70479433004E+02  0.00000000000E+00 0. -1.
          1    1    1    2  502    0 -0.51895819818E+02 -0.18968052695E+03  0.85271741314E+03  0.87509934584E+03  0.00000000000E+00 0. -1.
         22    1    3    3    0    0  0.37297670345E+02  0.79268406112E+02  0.18557191708E+03  0.20521094715E+03  0.00000000000E+00 0. -1.
         22    1    3    3    0    0  0.48435068207E+02  0.11342725405E+03  0.44811399085E+02  0.13122408042E+03  0.00000000000E+00 0. -1.
</event>
<event>
 7    1  0.7459264E-005  0.7470436E+02  0.7818608E-02  0.1362647E+00
          2   -1    0    0  502    0  0.00000000000E+00  0.00000000000E+00  0.53043824450E+02  0.53043824450E+02  0.00000000000E+00 0. -1.
          1   -1    0    0  501    0 -0.00000000000E+00 -0.00000000000E+00 -0.51854673313E+03  0.51854673313E+03  0.00000000000E+00 0. -1.
         25    2    1    2    0    0  0.92342425498E+02  0.95839040593E+01 -0.15451712752E+03  0.21936326098E+03  0.12500289120E+03 0.  0.
          2    1    1    2  501    0 -0.59761041978E+02  0.45736638249E+02 -0.25871452276E+03  0.26943724038E+03  0.00000000000E+00 0. -1.
          1    1    1    2  502    0 -0.32581383520E+02 -0.55320542308E+02 -0.52271258391E+02  0.82790056210E+02  0.00000000000E+00 0. -1.
         22    1    3    3    0    0  0.99200564446E+02  0.50465756992E+02 -0.92251179460E+02  0.14456079941E+03  0.00000000000E+00 0.  1.
         22    1    3    3    0    0 -0.68581389479E+01 -0.40881852932E+02 -0.62265948063E+02  0.74802461572E+02  0.00000000000E+00 0.  1.
</event>
<event>
 7    1  0.7459264E-005  0.1220898E+03  0.7818608E-02  0.1293282E+00
          2   -1    0    0  502    0  0.00000000000E+00  0.00000000000E+00  0.97130646073E+03  0.97130646073E+03  0.00000000000E+00 0. -1.
          1   -1    0    0  501    0 -0.00000000000E+00 -0.00000000000E+00 -0.64848806415E+03  0.64848806415E+03  0.00000000000E+00 0. -1.
         25    2    1    2    0    0 -0.18233284659E+03 -0.44553663323E+02  0.22834071884E+03  0.32092786552E+03  0.12499966050E+03 0.  0.
          2    1    1    2  501    0  0.71050639508E+02  0.14337464634E+02 -0.59520929902E+03  0.59960642584E+03  0.00000000000E+00 0. -1.
          1    1    1    2  502    0  0.11128220708E+03  0.30216198689E+02  0.68968697676E+03  0.69926023352E+03  0.00000000000E+00 0. -1.
         22    1    3    3    0    0 -0.60403599122E+02 -0.55905671550E+02  0.16187261218E+03  0.18159510310E+03  0.00000000000E+00 0.  1.
         22    1    3    3    0    0 -0.12192924747E+03  0.11352008227E+02  0.66468106666E+02  0.13933276241E+03  0.00000000000E+00 0.  1.
</event>
<event>
 7    1  0.7459264E-005  0.1549693E+03  0.7818608E-02  0.1317217E+00
          2   -1    0    0  502    0  0.00000000000E+00  0.00000000000E+00  0.82955003065E+03  0.82955003065E+03  0.00000000000E+00 0. -1.
          1   -1    0    0  501    0 -0.00000000000E+00 -0.00000000000E+00 -0.52212268003E+03  0.52212268003E+03  0.00000000000E+00 0. -1.
         25    2    1    2    0    0 -0.22736478672E+02 -0.17766616724E+03 -0.72992373937E+02  0.23029397389E+03  0.12500085325E+03 0.  0.
          2    1    1    2  501    0  0.38755754247E+02  0.24556255975E+02 -0.36112249070E+03  0.36402537203E+03  0.00000000000E+00 0. -1.
          1    1    1    2  502    0 -0.16019275575E+02  0.15310991126E+03  0.74154221525E+03  0.75735336476E+03  0.00000000000E+00 0. -1.
         22    1    3    3    0    0  0.17919923542E+02 -0.17683952765E+03 -0.58528014580E+02  0.18713329658E+03  0.00000000000E+00 0. -1.
         22    1    3    3    0    0 -0.40656402214E+02 -0.82663958715E+00 -0.14464359357E+02  0.43160677307E+02  0.00000000000E+00 0. -1.
</event>
<event>
 7    1  0.7459264E-005  0.2397238E+03  0.7818608E-02  0.1149139E+00
          2   -1    0    0  502    0  0.00000000000E+00  0.00000000000E+00  0.26983183967E+04  0.26983183967E+04  0.00000000000E+00 0. -1.
          1   -1    0    0  501    0 -0.00000000000E+00 -0.00000000000E+00 -0.61058724822E+03  0.61058724822E+03  0.00000000000E+00 0. -1.
         25    2    1    2    0    0 -0.97020381988E+02 -0.33810685405E+03 -0.26209889947E+03  0.45612999837E+03  0.12501817080E+03 0.  0.
          2    1    1    2  501    0  0.99782508557E+02  0.17007856471E+03 -0.20963346053E+03  0.28780106838E+03  0.00000000000E+00 0. -1.
          1    1    1    2  502    0 -0.27621265690E+01  0.16802828934E+03  0.25594635085E+04  0.25649745782E+04  0.00000000000E+00 0. -1.
         22    1    3    3    0    0  0.20395990490E+02 -0.60696217973E+02 -0.13219743430E+02  0.65381869969E+02  0.00000000000E+00 0.  1.
         22    1    3    3    0    0 -0.11741637248E+03 -0.27741063607E+03 -0.24887915604E+03  0.39074812840E+03  0.00000000000E+00 0.  1.
</event>
<event>
 7    1  0.7459264E-005  0.3295937E+03  0.7818608E-02  0.1290859E+00
          2   -1    0    0  502    0  0.00000000000E+00  0.00000000000E+00  0.86961083112E+03  0.86961083112E+03  0.00000000000E+00 0. -1.
          1   -1    0    0  501    0 -0.00000000000E+00 -0.00000000000E+00 -0.46162123329E+03  0.46162123329E+03  0.00000000000E+00 0. -1.
         25    2    1    2    0    0 -0.31436309355E+03 -0.51199771631E+02 -0.15975421577E+03  0.37761276988E+03  0.12499769326E+03 0.  0.
          2    1    1    2  501    0  0.33989562876E+03  0.61315808383E+02 -0.37807915053E+02  0.34744511113E+03  0.00000000000E+00 0. -1.
          1    1    1    2  502    0 -0.25532535203E+02 -0.10116036752E+02  0.60555172865E+03  0.60617418340E+03  0.00000000000E+00 0. -1.
         22    1    3    3    0    0 -0.21018364763E+03 -0.92837105364E+02 -0.10141220346E+03  0.25115797593E+03  0.00000000000E+00 0.  1.
         22    1    3    3    0    0 -0.10417944592E+03  0.41637333733E+02 -0.58342012312E+02  0.12645479395E+03  0.00000000000E+00 0.  1.
</event>
<event>
 7    1  0.7459264E-005  0.9479613E+02  0.7818608E-02  0.1439513E+00
          2   -1    0    0  502    0  0.00000000000E+00  0.00000000000E+00  0.14841740421E+04  0.14841740421E+04  0.00000000000E+00 0. -1.
          1   -1    0    0  501    0 -0.00000000000E+00 -0.00000000000E+00 -0.14675686023E+04  0.14675686023E+04  0.00000000000E+00 0. -1.
         25    2    1    2    0    0  0.63375052712E+02 -0.33824541880E+02 -0.95940286198E+01  0.14448641167E+03  0.12499512324E+03 0.  0.
          2    1    1    2  501    0 -0.75162079984E+02  0.58717226321E+02 -0.13887586700E+04  0.13920300623E+04  0.00000000000E+00 0. -1.
          1    1    1    2  502    0  0.11787027271E+02 -0.24892684441E+02  0.14149581385E+04  0.14152261704E+04  0.00000000000E+00 0. -1.
         22    1    3    3    0    0  0.96204108358E+02 -0.10350529207E+02 -0.27118563875E+02  0.10048771281E+03  0.00000000000E+00 0.  1.
         22    1    3    3    0    0 -0.32829055646E+02 -0.23474012673E+02  0.17524535255E+02  0.43998698861E+02  0.00000000000E+00 0.  1.
</event>
<event>
 7    1  0.7459264E-005  0.2005156E+03  0.7818608E-02  0.1241893E+00
          2   -1    0    0  502    0  0.00000000000E+00  0.00000000000E+00  0.31494304793E+04  0.31494304793E+04  0.00000000000E+00 0. -1.
          1   -1    0    0  501    0 -0.00000000000E+00 -0.00000000000E+00 -0.72905903630E+02  0.72905903630E+02  0.00000000000E+00 0. -1.
         25    2    1    2    0    0  0.11733614382E+03 -0.16654051078E+03  0.80556306347E+03  0.84027397737E+03  0.12499998179E+03 0.  0.
          2    1    1    2  501    0  0.50012632888E+02  0.52756601496E+02 -0.25246734509E+02  0.76954012586E+02  0.00000000000E+00 0. -1.
          1    1    1    2  502    0 -0.16734877671E+03  0.11378390929E+03  0.22962082467E+04  0.23051083929E+04  0.00000000000E+00 0. -1.
         22    1    3    3    0    0  0.11402111919E+02 -0.65910309961E+01  0.10603745155E+01  0.13212654538E+02  0.00000000000E+00 0. -1.
         22    1    3    3    0    0  0.10593403190E+03 -0.15994947979E+03  0.80450268895E+03  0.82706132284E+03  0.00000000000E+00 0. -1.
</event>
<event>
 7    1  0.7459264E-005  0.3911030E+03  0.7818608E-02  0.1261294E+00
          2   -1    0    0  502    0  0.00000000000E+00  0.00000000000E+00  0.20517969213E+04  0.20517969213E+04  0.00000000000E+00 0. -1.
          1   -1    0    0  501    0 -0.00000000000E+00 -0.00000000000E+00 -0.37017480176E+03  0.37017480176E+03  0.00000000000E+00 0. -1.
         25    2    1    2    0    0  0.31627462945E+03  0.20966521919E+03 -0.22389132856E+02  0.40014406610E+03  0.12499941998E+03 0.  0.
          2    1    1    2  501    0 -0.33193561436E+03 -0.23609246545E+03  0.10251390758E+03  0.42003571940E+03  0.00000000000E+00 0. -1.
          1    1    1    2  502    0  0.15660984913E+02  0.26427246260E+02  0.16014973448E+04  0.16017919375E+04  0.00000000000E+00 0. -1.
         22    1    3    3    0    0  0.29056507819E+03  0.13595873343E+03 -0.88878285399E+01  0.32092341042E+03  0.00000000000E+00 0. -1.
         22    1    3    3    0    0  0.25709551261E+02  0.73706485755E+02 -0.13501304317E+02  0.79220655682E+02  0.00000000000E+00 0. -1.
</event>
<event>
 7    1  0.7459264E-005  0.1496340E+03  0.7818608E-02  0.1373783E+00
          2   -1    0    0  502    0  0.00000000000E+00  0.00000000000E+00  0.25964382275E+04  0.25964382275E+04  0.00000000000E+00 0. -1.
          1   -1    0    0  501    0 -0.00000000000E+00 -0.00000000000E+00 -0.14326021506E+03  0.14326021506E+03  0.00000000000E+00 0. -1.
         25    2    1    2    0    0 -0.17508121979E+03 -0.16130619662E+01  0.41832959714E+03  0.47040317108E+03  0.12499382395E+03 0.  0.
          2    1    1    2  501    0  0.14688668305E+03 -0.60704143400E+01 -0.70989519249E+02  0.16325458472E+03  0.00000000000E+00 0. -1.
          1    1    1    2  502    0  0.28194536737E+02  0.76834763062E+01  0.21058379346E+04  0.21060406868E+04  0.00000000000E+00 0. -1.
         22    1    3    3    0    0 -0.18165720009E+03  0.23445315182E+02  0.31994615259E+03  0.36866592154E+03  0.00000000000E+00 0.  1.
         22    1    3    3    0    0  0.65759802980E+01 -0.25058377148E+02  0.98383444546E+02  0.10173724953E+03  0.00000000000E+00 0.  1.
</event>
<event>
 7    1  0.7459264E-005  0.1381696E+03  0.7818608E-02  0.1361851E+00
          2   -1    0    0  502    0  0.00000000000E+00  0.00000000000E+00  0.26284156662E+02  0.26284156662E+02  0.00000000000E+00 0. -1.
          1   -1    0    0  501    0 -0.00000000000E+00 -0.00000000000E+00 -0.15025432812E+04  0.15025432812E+04  0.00000000000E+00 0. -1.
         25    2    1    2    0    0  0.57515505107E+02  0.12783041085E+03 -0.49132509039E+03  0.52599831495E+03  0.12500094249E+03 0.  0.
          2    1    1    2  501    0 -0.33929405466E+02  0.83603502037E+01 -0.41114768043E+03  0.41262999786E+03  0.00000000000E+00 0. -1.
          1    1    1    2  502    0 -0.23586099641E+02 -0.13619076106E+03 -0.57378635373E+03  0.59019912506E+03  0.00000000000E+00 0. -1.
         22    1    3    3    0    0  0.74142923139E+01  0.43868772176E+02 -0.35751747820E+03  0.36027515613E+03  0.00000000000E+00 0.  1.
         22    1    3    3    0    0  0.50101212793E+02  0.83961638676E+02 -0.13380761219E+03  0.16572315883E+03  0.00000000000E+00 0.  1.
</event>
<event>
 7    1  0.7459264E-005  0.8413298E+02  0.7818608E-02  0.1480918E+00
          2   -1    0    0  502    0  0.00000000000E+00  0.00000000000E+00  0.24754359693E+04  0.24754359693E+04  0.00000000000E+00 0. -1.
          1   -1    0    0  501    0 -0.00000000000E+00 -0.00000000000E+00 -0.22267966492E+03  0.22267966492E+03  0.00000000000E+00 0. -1.
         25    2    1    2    0    0 -0.69087635497E+01  0.98901302027E+02  0.18819658991E+03  0.24672405349E+03  0.12500241422E+03 0.  0.
          2    1    1    2  501    0 -0.14420849269E+02 -0.17882850173E+02 -0.19195366364E+03  0.19332347558E+03  0.00000000000E+00 0. -1.
          1    1    1    2  502    0  0.21329612819E+02 -0.81018451854E+02  0.22565133782E+04  0.22580681052E+04  0.00000000000E+00 0. -1.
         22    1    3    3    0    0 -0.47197895419E+02  0.19219890712E+02  0.17140182926E+02  0.53766452382E+02  0.00000000000E+00 0.  1.
         22    1    3    3    0    0  0.40289131870E+02  0.79681411314E+02  0.17105640699E+03  0.19295760111E+03  0.00000000000E+00 0.  1.
</event>
<event>
 7    1  0.7459264E-005  0.1538361E+03  0.7818608E-02  0.1254200E+00
          2   -1    0    0  502    0  0.00000000000E+00  0.00000000000E+00  0.16720814418E+03  0.16720814418E+03  0.00000000000E+00 0. -1.
          1   -1    0    0  501    0 -0.00000000000E+00 -0.00000000000E+00 -0.25355255097E+04  0.25355255097E+04  0.00000000000E+00 0. -1.
         25    2    1    2    0    0  0.77925638372E+02 -0.20908287568E+03 -0.10230981105E+04  0.10545821813E+04  0.12500311784E+03 0.  0.
          2    1    1    2  501    0 -0.51017298913E+02  0.12976394344E+03 -0.14815768871E+04  0.14881234889E+04  0.00000000000E+00 0. -1.
          1    1    1    2  502    0 -0.26908339459E+02  0.79318932235E+02  0.13635763204E+03  0.16002798368E+03  0.00000000000E+00 0. -1.
         22    1    3    3    0    0 -0.21883674514E+02 -0.97509083675E+02 -0.30188022079E+03  0.31799148465E+03  0.00000000000E+00 0.  1.
         22    1    3    3    0    0  0.99809312886E+02 -0.11157379200E+03 -0.72121788972E+03  0.73659069669E+03  0.00000000000E+00 0.  1.
</event>
<event>
 7    1  0.7459264E-005  0.1133339E+03  0.7818608E-02  0.1320858E+00
          2   -1    0    0  502    0  0.00000000000E+00  0.00000000000E+00  0.15816006514E+04  0.15816006514E+04  0.00000000000E+00 0. -1.
          1   -1    0    0  501    0 -0.00000000000E+00 -0.00000000000E+00 -0.45010850935E+03  0.45010850935E+03  0.00000000000E+00 0. -1.
         25    2    1    2    0    0 -0.15348742610E+03  0.55585494562E+02  0.64607531624E+03  0.67800227161E+03  0.12500251551E+03 0.  0.
          2    1    1    2  501    0  0.59961532403E+02 -0.95981483873E+01 -0.42904712392E+03  0.43332314082E+03  0.00000000000E+00 0. -1.
          1    1    1    2  502    0  0.93525893697E+02 -0.45987346175E+02  0.91446394974E+03  0.92038374832E+03  0.00000000000E+00 0. -1.
         22    1    3    3    0    0  0.17510608327E+02 -0.82359236690E+01  0.11046921020E+03  0.11215122935E+03  0.00000000000E+00 0.  1.
         22    1    3    3    0    0 -0.17099803443E+03  0.63821418231E+02  0.53560610603E+03  0.56585104226E+03  0.00000000000E+00 0.  1.
</event>
<event>
 7    1  0.7459264E-005  0.1460481E+03  0.7818608E-02  0.1340785E+00
          2   -1    0    0  502    0  0.00000000000E+00  0.00000000000E+00  0.43433741981E+03  0.43433741981E+03  0.00000000000E+00 0. -1.
          1   -1    0    0  501    0 -0.00000000000E+00 -0.00000000000E+00 -0.13514008846E+04  0.13514008846E+04  0.00000000000E+00 0. -1.
         25    2    1    2    0    0  0.18138463626E+03 -0.28920331079E+02  0.69537999762E+02  0.23279949757E+03  0.12499320316E+03 0.  0.
          2    1    1    2  501    0 -0.14419853299E+03  0.15438913352E+02 -0.12642229216E+04  0.12725137219E+04  0.00000000000E+00 0. -1.
          1    1    1    2  502    0 -0.37186103271E+02  0.13481417727E+02  0.27762145700E+03  0.28042508498E+03  0.00000000000E+00 0. -1.
         22    1    3    3    0    0  0.75813925464E+02 -0.66689759270E+02  0.20677052017E+00  0.10097186757E+03  0.00000000000E+00 0. -1.
         22    1    3    3    0    0  0.10557071080E+03  0.37769428191E+02  0.69331229241E+02  0.13182763000E+03  0.00000000000E+00 0. -1.
</event>
<event>
 7    1  0.7459264E-005  0.3349034E+03  0.7818608E-02  0.1223579E+00
          2   -1    0    0  502    0  0.00000000000E+00  0.00000000000E+00  0.74879598301E+03  0.74879598301E+03  0.00000000000E+00 0. -1.
          1   -1    0    0  501    0 -0.00000000000E+00 -0.00000000000E+00 -0.75562156555E+03  0.75562156555E+03  0.00000000000E+00 0. -1.
         25    2    1    2    0    0  0.31611154719E+03 -0.19460991734E+03 -0.17707187609E+03  0.42985914533E+03  0.12499962131E+03 0.  0.
          2    1    1    2  501    0 -0.27253868163E+03  0.16525498646E+03 -0.39461731968E+03  0.50725671265E+03  0.00000000000E+00 0. -1.
          1    1    1    2  502    0 -0.43572865555E+02  0.29354930881E+02  0.56486361323E+03  0.56730169057E+03  0.00000000000E+00 0. -1.
         22    1    3    3    0    0  0.98219958367E+01 -0.33785676398E+02 -0.50370956122E+02  0.61442467012E+02  0.00000000000E+00 0.  1.
         22    1    3    3    0    0  0.30628955135E+03 -0.16082424094E+03 -0.12670091997E+03  0.36841667832E+03  0.00000000000E+00 0.  1.
</event>
<event>
 7    1  0.7459264E-005  0.2791466E+03  0.7818608E-02  0.1169013E+00
          2   -1    0    0  502    0  0.00000000000E+00  0.00000000000E+00  0.35398510205E+03  0.35398510205E+03  0.00000000000E+00 0. -1.
          1   -1    0    0  501    0 -0.00000000000E+00 -0.00000000000E+00 -0.38341632331E+03  0.38341632331E+03  0.00000000000E+00 0. -1.
         25    2    1    2    0    0  0.16706950579E+02  0.35163825701E+03 -0.60144423861E+01  0.37361682831E+03  0.12499909954E+03 0.  0.
          2    1    1    2  501    0  0.35914903738E+01 -0.11441211990E+03 -0.48610441751E+02  0.12436240200E+03  0.00000000000E+00 0. -1.
          1    1    1    2  502    0 -0.20298440952E+02 -0.23722613711E+03  0.25193662884E+02  0.23942219505E+03  0.00000000000E+00 0. -1.
         22    1    3    3    0    0  0.59981803898E+02  0.27817285530E+03  0.17701870471E+02  0.28511631038E+03  0.00000000000E+00 0. -1.
         22    1    3    3    0    0 -0.43274853319E+02  0.73465401712E+02 -0.23716312857E+02  0.88500517931E+02  0.00000000000E+00 0. -1.
</event>
<event>
 7    1  0.7459264E-005  0.1406880E+03  0.7818608E-02  0.1214500E+00
          2   -1    0    0  502    0  0.00000000000E+00  0.00000000000E+00  0.24298400159E+03  0.24298400159E+03  0.00000000000E+00 0. -1.
          1   -1    0    0  501    0 -0.00000000000E+00 -0.00000000000E+00 -0.85185950406E+03  0.85185950406E+03  0.00000000000E+00 0. -1.
         25    2    1    2    0    0  0.58593868710E+02 -0.11847716454E+03  0.85040256507E+02  0.20081336174E+03  0.12499632418E+03 0.  0.
          2    1    1    2  501    0  0.82043648359E+02  0.11470787545E+03 -0.73425269211E+03  0.74767377431E+03  0.00000000000E+00 0. -1.
          1    1    1    2  502    0 -0.14063751707E+03  0.37692890894E+01  0.40336933130E+02  0.14635636960E+03  0.00000000000E+00 0. -1.
         22    1    3    3    0    0  0.30095082371E+02 -0.86449345658E+01  0.81478608496E+02  0.87288100672E+02  0.00000000000E+00 0. -1.
         22    1    3    3    0    0  0.28498786339E+02 -0.10983222997E+03  0.35616480109E+01  0.11352526107E+03  0.00000000000E+00 0. -1.
</event>
<event>
 7    1  0.7459264E-005  0.7916341E+02  0.7818608E-02  0.1345487E+00
          2   -1    0    0  502    0  0.00000000000E+00  0.00000000000E+00  0.58709793001E+03  0.58709793001E+03  0.00000000000E+00 0. -1.
          1   -1    0    0  501    0 -0.00000000000E+00 -0.00000000000E+00 -0.45954081909E+04  0.45954081909E+04  0.00000000000E+00 0. -1.
         25    2    1    2    0    0 -0.86197917023E+01 -0.51595574894E+01 -0.10158310966E+04  0.10235423847E+04  0.12500109874E+03 0.  0.
          2    1    1    2  501    0 -0.69588474889E+02 -0.82423226880E+01 -0.35726775099E+04  0.35733646723E+04  0.00000000000E+00 0. -1.
          1    1    1    2  502    0  0.78208266591E+02  0.13401880177E+02  0.58019834560E+03  0.58559906386E+03  0.00000000000E+00 0. -1.
         22    1    3    3    0    0 -0.57017979373E+02 -0.24515941383E+02 -0.33370776628E+03  0.33943033840E+03  0.00000000000E+00 0.  1.
         22    1    3    3    0    0  0.48398187671E+02  0.19356383894E+02 -0.68212333031E+03  0.68411204632E+03  0.00000000000E+00 0.  1.
</event>
<event>
 7    1  0.7459264E-005  0.8269020E+03  0.7818608E-02  0.1138612E+00
          2   -1    0    0  502    0  0.00000000000E+00  0.00000000000E+00  0.21446013527E+04  0.21446013527E+04  0.00000000000E+00 0. -1.
          1   -1    0    0  501    0 -0.00000000000E+00 -0.00000000000E+00 -0.27744434576E+04  0.27744434576E+04  0.00000000000E+00 0. -1.
         25    2    1    2    0    0 -0.75721577753E+03  0.38403818861E+03 -0.11017049273E+04  0.13965101332E+04  0.12500296523E+03 0.  0.
          2    1    1    2  501    0  0.74032184603E+03 -0.33141810868E+03 -0.14170721367E+04  0.16327914255E+04  0.00000000000E+00 0. -1.
          1    1    1    2  502    0  0.16893931496E+02 -0.52620079936E+02  0.18889349591E+04  0.18897432517E+04  0.00000000000E+00 0. -1.
         22    1    3    3    0    0 -0.65379026614E+03  0.29960999450E+03 -0.86664038935E+03  0.11261764628E+04  0.00000000000E+00 0.  1.
         22    1    3    3    0    0 -0.10342551138E+03  0.84428194114E+02 -0.23506453793E+03  0.27033367041E+03  0.00000000000E+00 0.  1.
</event>
<event>
 7    1  0.7459264E-005  0.1707027E+03  0.7818608E-02  0.1302870E+00
          2   -1    0    0  502    0  0.00000000000E+00  0.00000000000E+00  0.42350884223E+03  0.42350884223E+03  0.00000000000E+00 0. -1.
          1   -1    0    0  501    0 -0.00000000000E+00 -0.00000000000E+00 -0.11666242860E+03  0.11666242860E+03  0.00000000000E+00 0. -1.
         25    2    1    2    0    0  0.10561474739E+03  0.98171159018E+02  0.16687478104E+03  0.25350486288E+03  0.12500188650E+03 0.  0.
          2    1    1    2  501    0 -0.15111187876E+03 -0.11161893176E+03  0.66658126410E+02  0.19934114389E+03  0.00000000000E+00 0. -1.
          1    1    1    2  502    0  0.45497131369E+02  0.13447772745E+02  0.73313506179E+02  0.87325264058E+02  0.00000000000E+00 0. -1.
         22    1    3    3    0    0  0.84554561256E+02  0.87184717286E+02  0.45290637996E+02  0.12962210709E+03  0.00000000000E+00 0. -1.
         22    1    3    3    0    0  0.21060186133E+02  0.10986441733E+02  0.12158414304E+03  0.12388275579E+03  0.00000000000E+00 0. -1.
</event>
<event>
 7    1  0.7459264E-005  0.7181857E+02  0.7818608E-02  0.1397114E+00
          2   -1    0    0  502    0  0.00000000000E+00  0.00000000000E+00  0.27962529379E+04  0.27962529379E+04  0.00000000000E+00 0. -1.
          1   -1    0    0  501    0 -0.00000000000E+00 -0.00000000000E+00 -0.47508596511E+02  0.47508596511E+02  0.00000000000E+00 0. -1.
         25    2    1    2    0    0  0.82590306006E+02 -0.70447304205E+02  0.19725549687E+03  0.25752698026E+03  0.12500573269E+03 0.  0.
          2    1    1    2  501    0 -0.35649606015E+02  0.52061246280E+02  0.41018583487E+02  0.75258168756E+02  0.00000000000E+00 0. -1.
          1    1    1    2  502    0 -0.46940699990E+02  0.18386057926E+02  0.25104702610E+04  0.25109763854E+04  0.00000000000E+00 0. -1.
         22    1    3    3    0    0  0.56868033670E+02 -0.54247342465E+02  0.21025642464E+03  0.22446494497E+03  0.00000000000E+00 0.  1.
         22    1    3    3    0    0  0.25722272335E+02 -0.16199961740E+02 -0.13000927779E+02  0.33062035291E+02  0.00000000000E+00 0.  1.
</event>
<event>
 7    1  0.7459264E-005  0.1256384E+03  0.7818608E-02  0.1372687E+00
          2   -1    0    0  502    0  0.00000000000E+00  0.00000000000E+00  0.13200420514E+03  0.13200420514E+03  0.00000000000E+00 0. -1.
          1   -1    0    0  501    0 -0.00000000000E+00 -0.00000000000E+00 -0.16146875248E+04  0.16146875248E+04  0.00000000000E+00 0. -1.
         25    2    1    2    0    0  0.85700123192E+02 -0.12566792701E+03 -0.61258231758E+03  0.64344193798E+03  0.12499397084E+03 0.  0.
          2    1    1    2  501    0 -0.57416153806E+02  0.10484923098E+03 -0.98031448601E+03  0.98757605653E+03  0.00000000000E+00 0. -1.
          1    1    1    2  502    0 -0.28283969387E+02  0.20818696032E+02  0.11021348392E+03  0.11567373542E+03  0.00000000000E+00 0. -1.
         22    1    3    3    0    0  0.26786640387E+02 -0.12263863963E+03 -0.50888827940E+03  0.52414219534E+03  0.00000000000E+00 0. -1.
         22    1    3    3    0    0  0.58913482806E+02 -0.30292873813E+01 -0.10369403818E+03  0.11929974264E+03  0.00000000000E+00 0. -1.
</event>
<event>
 7    1  0.7459264E-005  0.3539525E+03  0.7818608E-02  0.1187723E+00
          2   -1    0    0  502    0  0.00000000000E+00  0.00000000000E+00  0.39121853761E+03  0.39121853761E+03  0.00000000000E+00 0. -1.
          1   -1    0    0  501    0 -0.00000000000E+00 -0.00000000000E+00 -0.11397693680E+04  0.11397693680E+04  0.00000000000E+00 0. -1.
         25    2    1    2    0    0  0.17482593311E+03 -0.32926800586E+03 -0.55797953559E+03  0.68260046787E+03  0.12498283892E+03 0.  0.
          2    1    1    2  501    0 -0.21147378444E+03  0.26600576404E+03 -0.45847699175E+03  0.57068500941E+03  0.00000000000E+00 0. -1.
          1    1    1    2  502    0  0.36647851325E+02  0.63262241819E+02  0.26790569695E+03  0.27770242834E+03  0.00000000000E+00 0. -1.
         22    1    3    3    0    0  0.51737018220E+02 -0.13335810266E+03 -0.32087705950E+03  0.35131636727E+03  0.00000000000E+00 0. -1.
         22    1    3    3    0    0  0.12308891489E+03 -0.19590990319E+03 -0.23710247609E+03  0.33128410059E+03  0.00000000000E+00 0. -1.
</event>
<event>
 7    1  0.7459264E-005  0.1254348E+03  0.7818608E-02  0.1308569E+00
          2   -1    0    0  502    0  0.00000000000E+00  0.00000000000E+00  0.35918338351E+02  0.35918338351E+02  0.00000000000E+00 0. -1.
          1   -1    0    0  501    0 -0.00000000000E+00 -0.00000000000E+00 -0.22761600803E+04  0.22761600803E+04  0.00000000000E+00 0. -1.
         25    2    1    2    0    0  0.11339994051E+03  0.10065743857E+03 -0.11673289590E+04  0.11837540508E+04  0.12500115136E+03 0.  0.
          2    1    1    2  501    0 -0.60314937437E+02  0.10883371728E+02 -0.95689604552E+03  0.95885680964E+03  0.00000000000E+00 0. -1.
          1    1    1    2  502    0 -0.53085003075E+02 -0.11154081029E+03 -0.11601673736E+03  0.16946755814E+03  0.00000000000E+00 0. -1.
         22    1    3    3    0    0  0.93279320674E+02  0.79553586741E+02 -0.11287872162E+04  0.11354251998E+04  0.00000000000E+00 0.  1.
         22    1    3    3    0    0  0.20120619838E+02  0.21103851825E+02 -0.38541742819E+02  0.48328851053E+02  0.00000000000E+00 0.  1.
</event>
<event>
 7    1  0.7459264E-005  0.2519407E+03  0.7818608E-02  0.1337077E+00
          2   -1    0    0  502    0  0.00000000000E+00  0.00000000000E+00  0.50773023114E+03  0.50773023114E+03  0.00000000000E+00 0. -1.
          1   -1    0    0  501    0 -0.00000000000E+00 -0.00000000000E+00 -0.21694534727E+03  0.21694534727E+03  0.00000000000E+00 0. -1.
         25    2    1    2    0    0 -0.25687706698E+03  0.45311802193E+02  0.26310368051E+03  0.39100835050E+03  0.12499998604E+03 0.  0.
          2    1    1    2  501    0  0.17904349963E+02 -0.15496194914E+02 -0.69916019231E+02  0.73816986863E+02  0.00000000000E+00 0. -1.
          1    1    1    2  502    0  0.23897271701E+03 -0.29815607279E+02  0.97597222596E+02  0.25985024105E+03  0.00000000000E+00 0. -1.
         22    1    3    3    0    0 -0.20566718882E+02  0.28907728035E+02  0.92552049941E+02  0.99118760152E+02  0.00000000000E+00 0. -1.
         22    1    3    3    0    0 -0.23631034809E+03  0.16404074158E+02  0.17055163056E+03  0.29188959035E+03  0.00000000000E+00 0. -1.
</event>
<event>
 7    1  0.7459264E-005  0.5069030E+02  0.7818608E-02  0.1461058E+00
          2   -1    0    0  502    0  0.00000000000E+00  0.00000000000E+00  0.56318339111E+03  0.56318339111E+03  0.00000000000E+00 0. -1.
          1   -1    0    0  501    0 -0.00000000000E+00 -0.00000000000E+00 -0.82692731395E+03  0.82692731395E+03  0.00000000000E+00 0. -1.
         25    2    1    2    0    0  0.17158429495E+02 -0.51204084450E+01  0.15159311295E+03  0.19729663211E+03  0.12499943545E+03 0.  0.
          2    1    1    2  501    0 -0.38441679551E+02 -0.33331992369E+02 -0.80202463045E+03  0.80363691571E+03  0.00000000000E+00 0. -1.
          1    1    1    2  502    0  0.21283250056E+02  0.38452400814E+02  0.38668759466E+03  0.38917715725E+03  0.00000000000E+00 0. -1.
         22    1    3    3    0    0 -0.16663604139E+02  0.54700437098E+02  0.76436228870E+02  0.95458423439E+02  0.00000000000E+00 0. -1.
         22    1    3    3    0    0  0.33822033634E+02 -0.59820845543E+02  0.75156884078E+02  0.10183820867E+03  0.00000000000E+00 0. -1.
</event>
<event>
 7    1  0.7459264E-005  0.2230191E+03  0.7818608E-02  0.1250418E+00
          2   -1    0    0  502    0  0.00000000000E+00  0.00000000000E+00  0.72561304563E+03  0.72561304563E+03  0.00000000000E+00 0. -1.
          1   -1    0    0  501    0 -0.00000000000E+00 -0.00000000000E+00 -0.16927085056E+03  0.16927085056E+03  0.00000000000E+00 0. -1.
         25    2    1    2    0    0 -0.19188172178E+03  0.17180904468E+03  0.33877323874E+03  0.44354370718E+03  0.12500707941E+03 0.  0.
          2    1    1    2  501    0  0.56003831998E+02 -0.21508043501E+02 -0.74637670226E+02  0.95759108968E+02  0.00000000000E+00 0. -1.
          1    1    1    2  502    0  0.13587788978E+03 -0.15030100118E+03  0.29220662655E+03  0.35558108005E+03  0.00000000000E+00 0. -1.
         22    1    3    3    0    0 -0.14670759247E+03  0.13438501180E+03  0.32840955361E+03  0.38397302508E+03  0.00000000000E+00 0.  1.
         22    1    3    3    0    0 -0.45174129315E+02  0.37424032885E+02  0.10363685132E+02  0.59570682103E+02  0.00000000000E+00 0.  1.
</event>
<event>
 7    1  0.7459264E-005  0.1757485E+03  0.7818608E-02  0.1193270E+00
          2   -1    0    0  502    0  0.00000000000E+00  0.00000000000E+00  0.15444377638E+04  0.15444377638E+04  0.00000000000E+00 0. -1.
          1   -1    0    0  501    0 -0.00000000000E+00 -0.00000000000E+00 -0.22974220121E+03  0.22974220121E+03  0.00000000000E+00 0. -1.
         25    2    1    2    0    0 -0.28881154892E+03 -0.78119599718E+02  0.34373610254E+03  0.47254019889E+03  0.12499979493E+03 0.  0.
          2    1    1    2  501    0  0.16178345170E+03  0.22933454128E+02 -0.11949046313E+03  0.20242973927E+03  0.00000000000E+00 0. -1.
          1    1    1    2  502    0  0.12702809722E+03  0.55186145590E+02  0.10904499232E+04  0.10992100269E+04  0.00000000000E+00 0. -1.
         22    1    3    3    0    0 -0.93474632858E+02 -0.45111524643E+02  0.20780580860E+03  0.23228390115E+03  0.00000000000E+00 0. -1.
         22    1    3    3    0    0 -0.19533691606E+03 -0.33008075075E+02  0.13593029393E+03  0.24025629774E+03  0.00000000000E+00 0. -1.
</event>
<event>
 7    1  0.7459264E-005  0.7143120E+03  0.7818608E-02  0.1186516E+00
          2   -1    0    0  502    0  0.00000000000E+00  0.00000000000E+00  0.13089635490E+04  0.13089635490E+04  0.00000000000E+00 0. -1.
          1   -1    0    0  501    0 -0.00000000000E+00 -0.00000000000E+00 -0.51491641335E+03  0.51491641335E+03  0.00000000000E+00 0. -1.
         25    2    1    2    0    0 -0.72893656750E+03  0.76948537447E+02  0.28586238052E+03  0.79662542563E+03  0.12500068528E+03 0.  0.
          2    1    1    2  501    0  0.69530917991E+03 -0.62208300947E+02  0.21309080165E+03  0.72988520886E+03  0.00000000000E+00 0. -1.
          1    1    1    2  502    0  0.33627387592E+02 -0.14740236500E+02  0.29509395345E+03  0.29736932783E+03  0.00000000000E+00 0. -1.
         22    1    3    3    0    0 -0.59570027047E+02  0.11692923666E+01 -0.10800986778E+02  0.60552594349E+02  0.00000000000E+00 0.  1.
         22    1    3    3    0    0 -0.66936654045E+03  0.75779245080E+02  0.29666336729E+03  0.73607283128E+03  0.00000000000E+00 0.  1.
</event>
<event>
 7    1  0.7459264E-005  0.1299004E+03  0.7818608E-02  0.1338360E+00
          2   -1    0    0  502    0  0.00000000000E+00  0.00000000000E+00  0.11340774330E+04  0.11340774330E+04  0.00000000000E+00 0. -1.
          1   -1    0    0  501    0 -0.00000000000E+00 -0.00000000000E+00 -0.27664115828E+03  0.27664115828E+03  0.00000000000E+00 0. -1.
         25    2    1    2    0    0 -0.47280761092E+02 -0.14443626046E+03 -0.14862122761E+03  0.24659766570E+03  0.12499934292E+03 0.  0.
          2    1    1    2  501    0  0.52947777858E+02  0.99374946220E+02 -0.38179240221E+02  0.11889702057E+03  0.00000000000E+00 0. -1.
          1    1    1    2  502    0 -0.56670167655E+01  0.45061314242E+02  0.10442367425E+04  0.10452239050E+04  0.00000000000E+00 0. -1.
         22    1    3    3    0    0 -0.74263918040E+02 -0.37122389344E+02 -0.85624581342E+02  0.11926764122E+03  0.00000000000E+00 0. -1.
         22    1    3    3    0    0  0.26983156947E+02 -0.10731387112E+03 -0.62996646266E+02  0.12733002448E+03  0.00000000000E+00 0. -1.
</event>
<event>
 7    1  0.7459264E-005  0.1265539E+03  0.7818608E-02  0.1407526E+00
          2   -1    0    0  502    0  0.00000000000E+00  0.00000000000E+00  0.14363388528E+04  0.14363388528E+04  0.00000000000E+00 0. -1.
          1   -1    0    0  501    0 -0.00000000000E+00 -0.00000000000E+00 -0.26195753823E+03  0.26195753823E+03  0.00000000000E+00 0. -1.
         25    2    1    2    0    0  0.14232849778E+03  0.51260353938E+01  0.85254846766E+03  0.87335407413E+03  0.12499908631E+03 0.  0.
          2    1    1    2  501    0 -0.24909888013E+02 -0.85995479256E+01 -0.24482368928E+03  0.24623788006E+03  0.00000000000E+00 0. -1.
          1    1    1    2  502    0 -0.11741860977E+03  0.34735125317E+01  0.56665653617E+03  0.57870443682E+03  0.00000000000E+00 0. -1.
         22    1    3    3    0    0  0.46705212822E+01 -0.42801249155E+02  0.16505811209E+03  0.17058118614E+03  0.00000000000E+00 0.  1.
         22    1    3    3    0    0  0.13765797650E+03  0.47927284549E+02  0.68749035557E+03  0.70277288799E+03  0.00000000000E+00 0.  1.
</event>
<event>
 7    1  0.7459264E-005  0.2368230E+03  0.7818608E-02  0.1132975E+00
          2   -1    0    0  502    0  0.00000000000E+00  0.00000000000E+00  0.46098667799E+03  0.46098667799E+03  0.00000000000E+00 0. -1.
          1   -1    0    0  501    0 -0.00000000000E+00 -0.00000000000E+00 -0.62311082270E+03  0.62311082270E+03  0.00000000000E+00 0. -1.
         25    2    1    2    0    0  0.42138679988E+01  0.21348367934E+03  0.20036689696E+03  0.31837812146E+03  0.12499878720E+03 0.  0.
          2    1    1    2  501    0 -0.20012087778E+03 -0.14772212449E+03 -0.47075381710E+03  0.53242778675E+03  0.00000000000E+00 0. -1.
          1    1    1    2  502    0  0.19590700978E+03 -0.65761554846E+02  0.10826277543E+03  0.23329159248E+03  0.00000000000E+00 0. -1.
         22    1    3    3    0    0  0.24739949063E+02  0.15416369854E+02 -0.79327694315E+01  0.30210236178E+02  0.00000000000E+00 0.  1.
         22    1    3    3    0    0 -0.20526081064E+02  0.19806730948E+03  0.20829966639E+03  0.28816788528E+03  0.00000000000E+00 0.  1.
</event>
<event>
 7    1  0.7459264E-005  0.5110851E+02  0.7818608E-02  0.1565647E+00
          2   -1    0    0  502    0  0.00000000000E+00  0.00000000000E+00  0.11073166248E+04  0.11073166248E+04  0.00000000000E+00 0. -1.
          1   -1    0    0  501    0 -0.00000000000E+00 -0.00000000000E+00 -0.68118596155E+02  0.68118596155E+02  0.00000000000E+00 0. -1.
         25    2    1    2    0    0 -0.20143224540E+02  0.52142990811E+02  0.29587752192E+03  0.32602497842E+03  0.12499655034E+03 0.  0.
          2    1    1    2  501    0 -0.15165705473E+02 -0.15246790735E+02 -0.50009999305E+02  0.54437700913E+02  0.00000000000E+00 0. -1.
          1    1    1    2  502    0  0.35308930013E+02 -0.36896200075E+02  0.79333050604E+03  0.79497254162E+03  0.00000000000E+00 0. -1.
         22    1    3    3    0    0 -0.52095089704E+01 -0.29106643034E+02  0.18716248833E+03  0.18948385866E+03  0.00000000000E+00 0. -1.
         22    1    3    3    0    0 -0.14933715570E+02  0.81249633845E+02  0.10871503358E+03  0.13654111977E+03  0.00000000000E+00 0. -1.
</event>
<event>
 7    1  0.7459264E-005  0.1090122E+04  0.7818608E-02  0.1056117E+00
          2   -1    0    0  502    0  0.00000000000E+00  0.00000000000E+00  0.14508305880E+04  0.14508305880E+04  0.00000000000E+00 0. -1.
          1   -1    0    0  501    0 -0.00000000000E+00 -0.00000000000E+00 -0.21504294150E+04  0.21504294150E+04  0.00000000000E+00 0. -1.
         25    2    1    2    0    0  0.10951058777E+04 -0.11447906708E+03  0.54990119182E+03  0.12370848434E+04  0.12500099546E+03 0.  0.
          2    1    1    2  501    0 -0.10638430568E+04  0.23352610519E+03 -0.16321620610E+04  0.19622052606E+04  0.00000000000E+00 0. -1.
          1    1    1    2  502    0 -0.31262820908E+02 -0.11904703811E+03  0.38266204215E+03  0.40196989906E+03  0.00000000000E+00 0. -1.
         22    1    3    3    0    0  0.36344801969E+03  0.67101769178E+01  0.13856723584E+03  0.38902489425E+03  0.00000000000E+00 0. -1.
         22    1    3    3    0    0  0.73165785798E+03 -0.12118924400E+03  0.41133395597E+03  0.84805994914E+03  0.00000000000E+00 0. -1.
</event>
<event>
 7    1  0.7459264E-005  0.1915410E+03  0.7818608E-02  0.1259143E+00
          2   -1    0    0  502    0  0.00000000000E+00  0.00000000000E+00  0.15682547037E+04  0.15682547037E+04  0.00000000000E+00 0. -1.
          1   -1    0    0  501    0 -0.00000000000E+00 -0.00000000000E+00 -0.53589419842E+03  0.53589419842E+03  0.00000000000E+00 0. -1.
         25    2    1    2    0    0 -0.24038889547E+03  0.75914712604E+02  0.69559222242E+03  0.75034853572E+03  0.12499808207E+03 0.  0.
          2    1    1    2  501    0  0.17656716753E+03 -0.70350249229E+02 -0.48947259870E+03  0.52507956264E+03  0.00000000000E+00 0. -1.
          1    1    1    2  502    0  0.63821727938E+02 -0.55644633752E+01  0.82624088153E+03  0.82872080372E+03  0.00000000000E+00 0. -1.
         22    1    3    3    0    0 -0.20114254061E+02  0.55007572820E+02  0.11576904240E+03  0.12974161808E+03  0.00000000000E+00 0. -1.
         22    1    3    3    0    0 -0.22027464141E+03  0.20907139784E+02  0.57982318002E+03  0.62060691764E+03  0.00000000000E+00 0. -1.
</event>
<event>
 7    1  0.7459264E-005  0.3289513E+03  0.7818608E-02  0.1186384E+00
          2   -1    0    0  502    0  0.00000000000E+00  0.00000000000E+00  0.27750978712E+04  0.27750978712E+04  0.00000000000E+00 0. -1.
          1   -1    0    0  501    0 -0.00000000000E+00 -0.00000000000E+00 -0.13254779008E+03  0.13254779008E+03  0.00000000000E+00 0. -1.
         25    2    1    2    0    0  0.31403417432E+03 -0.10957022776E+03  0.42262929629E+03  0.55214464645E+03  0.12500036428E+03 0.  0.
          2    1    1    2  501    0 -0.27680334507E+03  0.18020423328E+03  0.34047325241E+03  0.47435819076E+03  0.00000000000E+00 0. -1.
          1    1    1    2  502    0 -0.37230829254E+02 -0.70634005518E+02  0.18794475324E+04  0.18811428241E+04  0.00000000000E+00 0. -1.
         22    1    3    3    0    0  0.29449496622E+03 -0.11724976819E+03  0.33161747346E+03  0.45874278411E+03  0.00000000000E+00 0. -1.
         22    1    3    3    0    0  0.19539208101E+02  0.76795404228E+01  0.91011822831E+02  0.93401862344E+02  0.00000000000E+00 0. -1.
</event>
<event>
 7    1  0.7459264E-005  0.3744477E+03  0.7818608E-02  0.1090718E+00
          2   -1    0    0  502    0  0.00000000000E+00  0.00000000000E+00  0.35104968565E+03  0.35104968565E+03  0.00000000000E+00 0. -1.
          1   -1    0    0  501    0 -0.00000000000E+00 -0.00000000000E+00 -0.16963243032E+04  0.16963243032E+04  0.00000000000E+00 0. -1.
         25    2    1    2    0    0  0.46280526533E+03 -0.29792759776E+03 -0.56308460148E+03  0.79726825574E+03  0.12499134396E+03 0.  0.
          2    1    1    2  501    0 -0.14673299313E+03  0.16859736250E+03 -0.86937333846E+03  0.89764449730E+03  0.00000000000E+00 0. -1.
          1    1    1    2  502    0 -0.31607227221E+03  0.12933023526E+03  0.87183322425E+02  0.35246123577E+03  0.00000000000E+00 0. -1.
         22    1    3    3    0    0  0.59840476609E+02 -0.70236550754E+01 -0.10658862161E+03  0.12243916296E+03  0.00000000000E+00 0. -1.
         22    1    3    3    0    0  0.40296478873E+03 -0.29090394268E+03 -0.45649597988E+03  0.67482909278E+03  0.00000000000E+00 0. -1.
</event>
<event>
 7    1  0.7459264E-005  0.3341681E+03  0.7818608E-02  0.1299664E+00
          2   -1    0    0  502    0  0.00000000000E+00  0.00000000000E+00  0.19083373313E+03  0.19083373313E+03  0.00000000000E+00 0. -1.
          1   -1    0    0  501    0 -0.00000000000E+00 -0.00000000000E+00 -0.15615953699E+04  0.15615953699E+04  0.00000000000E+00 0. -1.
         25    2    1    2    0    0 -0.14689992560E+03 -0.30215013929E+03 -0.13378340861E+04  0.13850268683E+04  0.12500035632E+03 0.  0.
          2    1    1    2  501    0  0.15899806656E+03  0.28031750265E+03  0.46335632638E+01  0.32230382773E+03  0.00000000000E+00 0. -1.
          1    1    1    2  502    0 -0.12098140959E+02  0.21832636637E+02 -0.37561113983E+02  0.45098407076E+02  0.00000000000E+00 0. -1.
         22    1    3    3    0    0  0.52148036260E+01 -0.34207048560E+02 -0.31222116722E+03  0.31413273247E+03  0.00000000000E+00 0.  1.
         22    1    3    3    0    0 -0.15211472923E+03 -0.26794309073E+03 -0.10256129189E+04  0.10708941358E+04  0.00000000000E+00 0.  1.
</event>
<event>
 7    1  0.7459264E-005  0.6528395E+02  0.7818608E-02  0.1429243E+00
          2   -1    0    0  502    0  0.00000000000E+00  0.00000000000E+00  0.16893711393E+04  0.16893711393E+04  0.00000000000E+00 0. -1.
          1   -1    0    0  501    0 -0.00000000000E+00 -0.00000000000E+00 -0.10628668534E+04  0.10628668534E+04  0.00000000000E+00 0. -1.
         25    2    1    2    0    0  0.17998103938E+02 -0.17489665448E+02  0.24725120189E+03  0.27818690633E+03  0.12499991149E+03 0.  0.
          2    1    1    2  501    0 -0.26448571264E+02  0.59865238249E+02 -0.10460488813E+04  0.10480942876E+04  0.00000000000E+00 0. -1.
          1    1    1    2  502    0  0.84504673260E+01 -0.42375572801E+02  0.14253019653E+04  0.14259567988E+04  0.00000000000E+00 0. -1.
         22    1    3    3    0    0 -0.24037893708E+02  0.47626438355E+01 -0.18601614665E+01  0.24575665014E+02  0.00000000000E+00 0. -1.
         22    1    3    3    0    0  0.42035997646E+02 -0.22252309284E+02  0.24911136336E+03  0.25361124131E+03  0.00000000000E+00 0. -1.
</event>
<event>
 7    1  0.7459264E-005  0.1351105E+03  0.7818608E-02  0.1296407E+00
          2   -1    0    0  502    0  0.00000000000E+00  0.00000000000E+00  0.25247187440E+04  0.25247187440E+04  0.00000000000E+00 0. -1.
          1   -1    0    0  501    0 -0.00000000000E+00 -0.00000000000E+00 -0.98088312383E+02  0.98088312383E+02  0.00000000000E+00 0. -1.
         25    2    1    2    0    0 -0.11090698022E+03 -0.73056530197E+02  0.70338284809E+02  0.19547373626E+03  0.12499956957E+03 0.  0.
          2    1    1    2  501    0  0.14405215908E+03  0.18749990472E+02  0.11536665642E+03  0.18550485733E+03  0.00000000000E+00 0. -1.
          1    1    1    2  502    0 -0.33145178866E+02  0.54306539726E+02  0.22409254903E+04  0.22418284627E+04  0.00000000000E+00 0. -1.
         22    1    3    3    0    0  0.32057016135E+01 -0.62473147896E+02  0.31643991492E+01  0.62635326716E+02  0.00000000000E+00 0. -1.
         22    1    3    3    0    0 -0.11411268183E+03 -0.10583382301E+02  0.67173885660E+02  0.13283840954E+03  0.00000000000E+00 0. -1.
</event>
<event>
 7    1  0.7459264E-005  0.9454066E+02  0.7818608E-02  0.1313665E+00
          2   -1    0    0  502    0  0.00000000000E+00  0.00000000000E+00  0.10341388710E+04  0.10341388710E+04  0.00000000000E+00 0. -1.
          1   -1    0    0  501    0 -0.00000000000E+00 -0.00000000000E+00 -0.16388241976E+04  0.16388241976E+04  0.00000000000E+00 0. -1.
         25    2    1    2    0    0 -0.31308392735E+02 -0.15113546403E+03  0.61494616959E+03  0.64622322213E+03  0.12499406936E+03 0.  0.
          2    1    1    2  501    0 -0.19487201562E+02  0.92405753482E+02 -0.16180609150E+04  0.16208145171E+04  0.00000000000E+00 0. -1.
          1    1    1    2  502    0  0.50795594297E+02  0.58729710549E+02  0.39842941879E+03  0.40592532941E+03  0.00000000000E+00 0. -1.
         22    1    3    3    0    0 -0.51786467174E+02 -0.14715628580E+02  0.10566161940E+03  0.11858653263E+03  0.00000000000E+00 0. -1.
         22    1    3    3    0    0  0.20478074439E+02 -0.13641983545E+03  0.50928455020E+03  0.52763668950E+03  0.00000000000E+00 0. -1.
</event>
<event>
 7    1  0.7459264E-005  0.7089590E+02  0.7818608E-02  0.1372083E+00
          2   -1    0    0  502    0  0.00000000000E+00  0.00000000000E+00  0.64999262996E+02  0.64999262996E+02  0.00000000000E+00 0. -1.
          1   -1    0    0  501    0 -0.00000000000E+00 -0.00000000000E+00 -0.91546463117E+03  0.91546463117E+03  0.00000000000E+00 0. -1.
         25    2    1    2    0    0  0.70722391519E+02 -0.89608507038E+02 -0.44886231501E+03  0.47972322520E+03  0.12500261502E+03 0.  0.
          2    1    1    2  501    0 -0.13668658546E+02  0.63973620488E+02 -0.42791284078E+03  0.43288434443E+03  0.00000000000E+00 0. -1.
          1    1    1    2  502    0 -0.57053732973E+02  0.25634886550E+02  0.26309787624E+02  0.67856324535E+02  0.00000000000E+00 0. -1.
         22    1    3    3    0    0  0.48423807615E+02  0.23621428267E+02 -0.14206087383E+03  0.15193462045E+03  0.00000000000E+00 0. -1.
         22    1    3    3    0    0  0.22298583904E+02 -0.11322993531E+03 -0.30680144118E+03  0.32778860475E+03  0.00000000000E+00 0. -1.
</event>
<event>
 7    1  0.7459264E-005  0.1452556E+03  0.7818608E-02  0.1215635E+00
          2   -1    0    0  502    0  0.00000000000E+00  0.00000000000E+00  0.16065861027E+04  0.16065861027E+04  0.00000000000E+00 0. -1.
          1   -1    0    0  501    0 -0.00000000000E+00 -0.00000000000E+00 -0.16449562420E+03  0.16449562420E+03  0.00000000000E+00 0. -1.
         25    2    1    2    0    0 -0.23056599091E+03  0.25399950314E+02  0.21275306452E+03  0.33866704970E+03  0.12500268177E+03 0.  0.
          2    1    1    2  501    0  0.10148689786E+03 -0.83900693250E+02 -0.53238846668E+02  0.14203271299E+03  0.00000000000E+00 0. -1.
          1    1    1    2  502    0  0.12907909305E+03  0.58500742936E+02  0.12825762606E+04  0.12903819642E+04  0.00000000000E+00 0. -1.
         22    1    3    3    0    0 -0.20875343272E+03 -0.29140797588E+01  0.21879322781E+03  0.30241852468E+03  0.00000000000E+00 0.  1.
         22    1    3    3    0    0 -0.21812558190E+02  0.28314030073E+02 -0.60401632892E+01  0.36248525023E+02  0.00000000000E+00 0.  1.
</event>
<event>
 7    1  0.7459264E-005  0.8477563E+03  0.7818608E-02  0.1114352E+00
          2   -1    0    0  502    0  0.00000000000E+00  0.00000000000E+00  0.10299910136E+04  0.10299910136E+04  0.00000000000E+00 0. -1.
          1   -1    0    0  501    0 -0.00000000000E+00 -0.00000000000E+00 -0.21653814486E+04  0.21653814486E+04  0.00000000000E+00 0. -1.
         25    2    1    2    0    0 -0.79190797500E+03  0.38888952525E+03 -0.38066681147E+03  0.96896053752E+03  0.12499599268E+03 0.  0.
          2    1    1    2  501    0  0.77110131623E+03 -0.31917417700E+03 -0.13714489413E+04  0.16054101015E+04  0.00000000000E+00 0. -1.
          1    1    1    2  502    0  0.20806658777E+02 -0.69715348254E+02  0.61672531781E+03  0.62100182323E+03  0.00000000000E+00 0. -1.
         22    1    3    3    0    0 -0.22316166186E+03  0.17421670566E+03 -0.12465223606E+03  0.30933924389E+03  0.00000000000E+00 0. -1.
         22    1    3    3    0    0 -0.56874631314E+03  0.21467281959E+03 -0.25601457541E+03  0.65962129363E+03  0.00000000000E+00 0. -1.
</event>
<event>
 7    1  0.7459264E-005  0.4209760E+03  0.7818608E-02  0.1166742E+00
          2   -1    0    0  502    0  0.00000000000E+00  0.00000000000E+00  0.11154446458E+04  0.11154446458E+04  0.00000000000E+00 0. -1.
          1   -1    0    0  501    0 -0.00000000000E+00 -0.00000000000E+00 -0.12867333137E+04  0.12867333137E+04  0.00000000000E+00 0. -1.
         25    2    1    2    0    0 -0.66495294902E+01 -0.44686536288E+03 -0.94716368508E+02  0.47363360239E+03  0.12499892025E+03 0.  0.
          2    1    1    2  501    0  0.70024510304E+02  0.34151365570E+02 -0.95381795152E+03  0.95699447880E+03  0.00000000000E+00 0. -1.
          1    1    1    2  502    0 -0.63374980814E+02  0.41271399731E+03  0.87724565220E+03  0.97154987832E+03  0.00000000000E+00 0. -1.
         22    1    3    3    0    0  0.55133415437E+02 -0.15362156277E+03 -0.17408710210E+02  0.16414122345E+03  0.00000000000E+00 0. -1.
         22    1    3    3    0    0 -0.61782944927E+02 -0.29324380011E+03 -0.77307658298E+02  0.30949237893E+03  0.00000000000E+00 0. -1.
</event>
<event>
 7    1  0.7459264E-005  0.3296489E+03  0.7818608E-02  0.1099797E+00
          2   -1    0    0  502    0  0.00000000000E+00  0.00000000000E+00  0.31033457172E+03  0.31033457172E+03  0.00000000000E+00 0. -1.
          1   -1    0    0  501    0 -0.00000000000E+00 -0.00000000000E+00 -0.81963015406E+03  0.81963015406E+03  0.00000000000E+00 0. -1.
         25    2    1    2    0    0  0.22721283146E+03  0.46115686111E+02 -0.33479577868E+03  0.42598673334E+03  0.12499662505E+03 0.  0.
          2    1    1    2  501    0 -0.20921122126E+03  0.28304129099E+03 -0.78196656487E+02  0.36055016931E+03  0.00000000000E+00 0. -1.
          1    1    1    2  502    0 -0.18001610205E+02 -0.32915697710E+03 -0.96303147169E+02  0.34342782313E+03  0.00000000000E+00 0. -1.
         22    1    3    3    0    0  0.57040153491E+02  0.68893944331E+02 -0.14203199024E+03  0.16784826757E+03  0.00000000000E+00 0.  1.
         22    1    3    3    0    0  0.17017267797E+03 -0.22778258220E+02 -0.19276378844E+03  0.25813846577E+03  0.00000000000E+00 0.  1.
</event>
<event>
 7    1  0.7459264E-005  0.7521444E+03  0.7818608E-02  0.1076731E+00
          2   -1    0    0  502    0  0.00000000000E+00  0.00000000000E+00  0.21595709204E+04  0.21595709204E+04  0.00000000000E+00 0. -1.
          1   -1    0    0  501    0 -0.00000000000E+00 -0.00000000000E+00 -0.26321471025E+04  0.26321471025E+04  0.00000000000E+00 0. -1.
         25    2    1    2    0    0  0.52346845094E+03 -0.59003038621E+03  0.86891948864E+03  0.11801703454E+04  0.12500356273E+03 0.  0.
          2    1    1    2  501    0  0.40040179743E+02  0.12804725898E+03 -0.23574664637E+04  0.23612808905E+04  0.00000000000E+00 0. -1.
          1    1    1    2  502    0 -0.56350863068E+03  0.46198312722E+03  0.10159707929E+04  0.12502667870E+04  0.00000000000E+00 0. -1.
         22    1    3    3    0    0  0.67863714536E+02 -0.15216373064E+03  0.17390513828E+03  0.24083662884E+03  0.00000000000E+00 0.  1.
         22    1    3    3    0    0  0.45560473640E+03 -0.43786665557E+03  0.69501435037E+03  0.93933371658E+03  0.00000000000E+00 0.  1.
</event>
<event>
 7    1  0.7459264E-005  0.1521193E+03  0.7818608E-02  0.1226505E+00
          2   -1    0    0  502    0  0.00000000000E+00  0.00000000000E+00  0.10521124493E+04  0.10521124493E+04  0.00000000000E+00 0. -1.
          1   -1    0    0  501    0 -0.00000000000E+00 -0.00000000000E+00 -0.20566444556E+03  0.20566444556E+03  0.00000000000E+00 0. -1.
         25    2    1    2    0    0 -0.73682215108E+02 -0.92753162255E+02  0.44407897021E+03  0.47630382734E+03  0.12500794464E+03 0.  0.
          2    1    1    2  501    0  0.43872950107E+02 -0.10326539413E+03 -0.15416746719E+03  0.19067298004E+03  0.00000000000E+00 0. -1.
          1    1    1    2  502    0  0.29809265001E+02  0.19601855639E+03  0.55653650077E+03  0.59080008752E+03  0.00000000000E+00 0. -1.
         22    1    3    3    0    0 -0.13581345397E+02  0.31241827246E+02  0.76308642931E+02  0.83567420078E+02  0.00000000000E+00 0.  1.
         22    1    3    3    0    0 -0.60100869711E+02 -0.12399498950E+03  0.36777032728E+03  0.39273640727E+03  0.00000000000E+00 0.  1.
</event>
<event>
 7    1  0.7459264E-005  0.7880388E+03  0.7818608E-02  0.1202680E+00
          2   -1    0    0  502    0  0.00000000000E+00  0.00000000000E+00  0.64511416544E+03  0.64511416544E+03  0.00000000000E+00 0. -1.
          1   -1    0    0  501    0 -0.00000000000E+00 -0.00000000000E+00 -0.27024537195E+04  0.27024537195E+04  0.00000000000E+00 0. -1.
         25    2    1    2    0    0  0.10814318669E+03 -0.77373909965E+03  0.10408027178E+03  0.79801299044E+03  0.12499954707E+03 0.  0.
          2    1    1    2  501    0 -0.12368535476E+02 -0.24983431319E+02 -0.15211698748E+04  0.15214252991E+04  0.00000000000E+00 0. -1.
          1    1    1    2  502    0 -0.95774651219E+02  0.79872253097E+03 -0.64024995104E+03  0.10281295955E+04  0.00000000000E+00 0. -1.
         22    1    3    3    0    0  0.12765440565E+03 -0.68034709048E+03  0.11596982443E+03  0.70186666183E+03  0.00000000000E+00 0.  1.
         22    1    3    3    0    0 -0.19511218955E+02 -0.93392009175E+02 -0.11889552648E+02  0.96146328609E+02  0.00000000000E+00 0.  1.
</event>
<event>
 7    1  0.7459264E-005  0.8831800E+02  0.7818608E-02  0.1395747E+00
          2   -1    0    0  502    0  0.00000000000E+00  0.00000000000E+00  0.14569217631E+02  0.14569217631E+02  0.00000000000E+00 0. -1.
          1   -1    0    0  501    0 -0.00000000000E+00 -0.00000000000E+00 -0.34277146697E+04  0.34277146697E+04  0.00000000000E+00 0. -1.
         25    2    1    2    0    0  0.47421098748E+02 -0.91086925024E+02 -0.52553020891E+03  0.54986486162E+03  0.12499510810E+03 0.  0.
          2    1    1    2  501    0  0.73624923198E+01  0.40784111663E+02 -0.22647325575E+04  0.22651117206E+04  0.00000000000E+00 0. -1.
          1    1    1    2  502    0 -0.54783591068E+02  0.50302813361E+02 -0.62288268568E+03  0.62730730508E+03  0.00000000000E+00 0. -1.
         22    1    3    3    0    0  0.56818099646E+02 -0.22542094573E+02 -0.89514444507E+02  0.10839408771E+03  0.00000000000E+00 0.  1.
         22    1    3    3    0    0 -0.93970008983E+01 -0.68544830450E+02 -0.43601576440E+03  0.44147077391E+03  0.00000000000E+00 0.  1.
</event>
<event>
 7    1  0.7459264E-005  0.3191589E+03  0.7818608E-02  0.1264569E+00
          2   -1    0    0  502    0  0.00000000000E+00  0.00000000000E+00  0.27385818839E+04  0.27385818839E+04  0.00000000000E+00 0. -1.
          1   -1    0    0  501    0 -0.00000000000E+00 -0.00000000000E+00 -0.17999654449E+04  0.17999654449E+04  0.00000000000E+00 0. -1.
         25    2    1    2    0    0 -0.18714305731E+03  0.23046120263E+03 -0.28383468121E+03  0.42932873266E+03  0.12500457838E+03 0.  0.
          2    1    1    2  501    0 -0.36412784719E+02 -0.17927598734E+01 -0.14335606845E+04  0.14340241773E+04  0.00000000000E+00 0. -1.
          1    1    1    2  502    0  0.22355584202E+03 -0.22866844276E+03  0.26560118048E+04  0.26751944188E+04  0.00000000000E+00 0. -1.
         22    1    3    3    0    0 -0.47331720625E+02  0.15086465747E+03 -0.11089254025E+03  0.19312584533E+03  0.00000000000E+00 0.  1.
         22    1    3    3    0    0 -0.13981133668E+03  0.79596545163E+02 -0.17294214095E+03  0.23620288733E+03  0.00000000000E+00 0.  1.
</event>
<event>
 7    1  0.7459264E-005  0.6802507E+03  0.7818608E-02  0.1109036E+00
          2   -1    0    0  502    0  0.00000000000E+00  0.00000000000E+00  0.34712091287E+04  0.34712091287E+04  0.00000000000E+00 0. -1.
          1   -1    0    0  501    0 -0.00000000000E+00 -0.00000000000E+00 -0.32910860790E+04  0.32910860790E+04  0.00000000000E+00 0. -1.
         25    2    1    2    0    0 -0.24642509739E+03  0.66897164327E+03 -0.13243676434E+03  0.73580786489E+03  0.12500131741E+03 0.  0.
          2    1    1    2  501    0  0.14985972287E+03 -0.65980441353E+03 -0.28161415868E+04  0.28962826585E+04  0.00000000000E+00 0. -1.
          1    1    1    2  502    0  0.96565374523E+02 -0.91672297441E+01  0.31287014009E+04  0.31302046843E+04  0.00000000000E+00 0. -1.
         22    1    3    3    0    0 -0.55958605869E+02  0.30552833531E+03 -0.89455569410E+02  0.32323556139E+03  0.00000000000E+00 0.  1.
         22    1    3    3    0    0 -0.19046649153E+03  0.36344330796E+03 -0.42981194929E+02  0.41257230350E+03  0.00000000000E+00 0.  1.
</event>
<event>
 7    1  0.1130839E-004  0.1160548E+03  0.7818608E-02  0.1303322E+00
          2   -1    0    0  502    0  0.00000000000E+00  0.00000000000E+00  0.13614183566E+04  0.13614183566E+04  0.00000000000E+00 0. -1.
          1   -1    0    0  501    0 -0.00000000000E+00 -0.00000000000E+00 -0.10806344859E+04  0.10806344859E+04  0.00000000000E+00 0. -1.
         25    2    1    2    0    0 -0.10971700422E+02 -0.16771307230E+03 -0.34015260932E+03  0.39947039030E+03  0.12499896906E+03 0.  0.
          2    1    1    2  501    0 -0.22832742931E+02  0.10699500773E+03 -0.70569847691E+03  0.71412856415E+03  0.00000000000E+00 0. -1.
          1    1    1    2  502    0  0.33804443353E+02  0.60718064573E+02  0.13266349569E+04  0.13284538881E+04  0.00000000000E+00 0. -1.
         22    1    3    3    0    0 -0.36969070375E+02 -0.11261095980E+03 -0.11110159283E+03  0.16245462246E+03  0.00000000000E+00 0.  1.
         22    1    3    3    0    0  0.25997369952E+02 -0.55102112506E+02 -0.22905101649E+03  0.23701576783E+03  0.00000000000E+00 0.  1.
</event>
<event>
 7    1  0.7459264E-005  0.1743912E+03  0.7818608E-02  0.1277117E+00
          2   -1    0    0  502    0  0.00000000000E+00  0.00000000000E+00  0.10983712189E+04  0.10983712189E+04  0.00000000000E+00 0. -1.
          1   -1    0    0  501    0 -0.00000000000E+00 -0.00000000000E+00 -0.73333371254E+03  0.73333371254E+03  0.00000000000E+00 0. -1.
         25    2    1    2    0    0 -0.19123899566E+03 -0.15815459635E+01  0.21141706315E+03  0.31128740908E+03  0.12501128634E+03 0.  0.
          2    1    1    2  501    0  0.16612281706E+03 -0.51924077352E+02 -0.67124214423E+03  0.69343991546E+03  0.00000000000E+00 0. -1.
          1    1    1    2  502    0  0.25116178597E+02  0.53505623315E+02  0.82486258744E+03  0.82697760690E+03  0.00000000000E+00 0. -1.
         22    1    3    3    0    0  0.15149887186E+02 -0.19512012923E+01  0.40601603008E+02  0.43379908195E+02  0.00000000000E+00 0.  1.
         22    1    3    3    0    0 -0.20638888284E+03  0.36965532878E+00  0.17081546014E+03  0.26790750088E+03  0.00000000000E+00 0.  1.
</event>
<event>
 7    1  0.7459264E-005  0.3719398E+03  0.7818608E-02  0.1127300E+00
          2   -1    0    0  502    0  0.00000000000E+00  0.00000000000E+00  0.18068015702E+04  0.18068015702E+04  0.00000000000E+00 0. -1.
          1   -1    0    0  501    0 -0.00000000000E+00 -0.00000000000E+00 -0.15649734779E+04  0.15649734779E+04  0.00000000000E+00 0. -1.
         25    2    1    2    0    0  0.11199286516E+03  0.37903829263E+03  0.12482052444E+04  0.13152390451E+04  0.12499993785E+03 0.  0.
          2    1    1    2  501    0 -0.13709907028E+03 -0.33244590335E+02 -0.14704793722E+04  0.14772308357E+04  0.00000000000E+00 0. -1.
          1    1    1    2  502    0  0.25106205115E+02 -0.34579370230E+03  0.46410222023E+03  0.57930516734E+03  0.00000000000E+00 0. -1.
         22    1    3    3    0    0 -0.37822921659E+01  0.19010533477E+03  0.65324809665E+03  0.68035830253E+03  0.00000000000E+00 0.  1.
         22    1    3    3    0    0  0.11577515733E+03  0.18893295786E+03  0.59495714771E+03  0.63488074252E+03  0.00000000000E+00 0.  1.
</event>
<event>
 7    1  0.1324582E-004  0.6762291E+02  0.7818608E-02  0.1495317E+00
          2   -1    0    0  502    0  0.00000000000E+00  0.00000000000E+00  0.32347775708E+04  0.32347775708E+04  0.00000000000E+00 0. -1.
          1   -1    0    0  501    0 -0.00000000000E+00 -0.00000000000E+00 -0.15809685634E+04  0.15809685634E+04  0.00000000000E+00 0. -1.
         25    2    1    2    0    0  0.36237025619E+02 -0.21036373903E+02 -0.18757728859E+03  0.22927248539E+03  0.12499992923E+03 0.  0.
          2    1    1    2  501    0  0.20938564253E+02 -0.15154280669E+02 -0.13720657765E+04  0.13723092110E+04  0.00000000000E+00 0. -1.
          1    1    1    2  502    0 -0.57175589873E+02  0.36190654572E+02  0.32134520725E+04  0.32141644379E+04  0.00000000000E+00 0. -1.
         22    1    3    3    0    0 -0.26684774500E+02  0.24121038021E+02 -0.12932537598E+02  0.38225020524E+02  0.00000000000E+00 0.  1.
         22    1    3    3    0    0  0.62921800120E+02 -0.45157411924E+02 -0.17464475099E+03  0.19104746486E+03  0.00000000000E+00 0.  1.
</event>
<event>
 7    1  0.7459264E-005  0.2376247E+03  0.7818608E-02  0.1290968E+00
          2   -1    0    0  502    0  0.00000000000E+00  0.00000000000E+00  0.34464250865E+03  0.34464250865E+03  0.00000000000E+00 0. -1.
          1   -1    0    0  501    0 -0.00000000000E+00 -0.00000000000E+00 -0.31742960736E+04  0.31742960736E+04  0.00000000000E+00 0. -1.
         25    2    1    2    0    0 -0.21795435324E+03 -0.14489537877E+03 -0.22939392874E+04  0.23122024831E+04  0.12499639083E+03 0.  0.
          2    1    1    2  501    0  0.37074263913E+02 -0.85791963630E+01 -0.82880386067E+03  0.82967701132E+03  0.00000000000E+00 0. -1.
          1    1    1    2  502    0  0.18088008933E+03  0.15347457513E+03  0.29308958315E+03  0.37705908778E+03  0.00000000000E+00 0. -1.
         22    1    3    3    0    0 -0.20630456092E+03 -0.16006154382E+03 -0.22358619433E+04  0.22510575069E+04  0.00000000000E+00 0.  1.
         22    1    3    3    0    0 -0.11649792320E+02  0.15166165049E+02 -0.58077344130E+02  0.61144976282E+02  0.00000000000E+00 0.  1.
</event>
<event>
 7    1  0.7459264E-005  0.1451986E+03  0.7818608E-02  0.1355755E+00
          2   -1    0    0  502    0  0.00000000000E+00  0.00000000000E+00  0.23847409957E+03  0.23847409957E+03  0.00000000000E+00 0. -1.
          1   -1    0    0  501    0 -0.00000000000E+00 -0.00000000000E+00 -0.34748595728E+03  0.34748595728E+03  0.00000000000E+00 0. -1.
         25    2    1    2    0    0  0.10940071450E+02 -0.14635799171E+03  0.48581385141E+02  0.19880839716E+03  0.12499712356E+03 0.  0.
          2    1    1    2  501    0 -0.34913826097E+02  0.25072079111E+01 -0.22413596976E+03  0.22685280313E+03  0.00000000000E+00 0. -1.
          1    1    1    2  502    0  0.23973754647E+02  0.14385078380E+03  0.66542726908E+02  0.16029885657E+03  0.00000000000E+00 0. -1.
         22    1    3    3    0    0 -0.19249690952E+02 -0.13698514268E+03  0.75228992928E+02  0.15746390474E+03  0.00000000000E+00 0.  1.
         22    1    3    3    0    0  0.30189762402E+02 -0.93728490276E+01 -0.26647607787E+02  0.41344492421E+02  0.00000000000E+00 0.  1.
</event>
<event>
 7    1  0.7459264E-005  0.3075798E+03  0.7818608E-02  0.1184464E+00
          2   -1    0    0  502    0  0.00000000000E+00  0.00000000000E+00  0.23207936876E+03  0.23207936876E+03  0.00000000000E+00 0. -1.
          1   -1    0    0  501    0 -0.00000000000E+00 -0.00000000000E+00 -0.17520375502E+04  0.17520375502E+04  0.00000000000E+00 0. -1.
         25    2    1    2    0    0 -0.25657932335E+03 -0.18881130123E+03 -0.14951425108E+04  0.15338055706E+04  0.12500297656E+03 0.  0.
          2    1    1    2  501    0  0.24826908842E+03  0.10196945142E+03 -0.14245355442E+03  0.30385576258E+03  0.00000000000E+00 0. -1.
          1    1    1    2  502    0  0.83102349297E+01  0.86841849813E+02  0.11763788382E+03  0.14645558574E+03  0.00000000000E+00 0. -1.
         22    1    3    3    0    0 -0.27473226050E+02 -0.11639358511E+02 -0.39679683082E+03  0.39791704885E+03  0.00000000000E+00 0. -1.
         22    1    3    3    0    0 -0.22910609730E+03 -0.17717194272E+03 -0.10983456800E+04  0.11358885218E+04  0.00000000000E+00 0. -1.
</event>
<event>
 7    1  0.7459264E-005  0.1052797E+03  0.7818608E-02  0.1331567E+00
          2   -1    0    0  502    0  0.00000000000E+00  0.00000000000E+00  0.82695739218E+03  0.82695739218E+03  0.00000000000E+00 0. -1.
          1   -1    0    0  501    0 -0.00000000000E+00 -0.00000000000E+00 -0.16394778481E+04  0.16394778481E+04  0.00000000000E+00 0. -1.
         25    2    1    2    0    0 -0.13122269141E+03  0.92814821612E+02  0.10217583059E+03  0.22781450223E+03  0.12500224487E+03 0.  0.
          2    1    1    2  501    0  0.52021472096E+02 -0.28797716246E+02 -0.15721764070E+04  0.15733004153E+04  0.00000000000E+00 0. -1.
          1    1    1    2  502    0  0.79201219310E+02 -0.64017105366E+02  0.65748012053E+03  0.66532032271E+03  0.00000000000E+00 0. -1.
         22    1    3    3    0    0 -0.25155348861E+02  0.32854737994E+02  0.97460803823E+02  0.10588122434E+03  0.00000000000E+00 0.  1.
         22    1    3    3    0    0 -0.10606734254E+03  0.59960083618E+02  0.47150267657E+01  0.12193327790E+03  0.00000000000E+00 0.  1.
</event>
<event>
 7    1  0.7459264E-005  0.1212498E+03  0.7818608E-02  0.1337257E+00
          2   -1    0    0  502    0  0.00000000000E+00  0.00000000000E+00  0.31444760847E+02  0.31444760847E+02  0.00000000000E+00 0. -1.
          1   -1    0    0  501    0 -0.00000000000E+00 -0.00000000000E+00 -0.10887008085E+04  0.10887008085E+04  0.00000000000E+00 0. -1.
         25    2    1    2    0    0 -0.80012332365E+02  0.78352843181E+02 -0.38952776385E+03  0.42414406987E+03  0.12500068735E+03 0.  0.
          2    1    1    2  501    0  0.49916979043E+02 -0.11717965562E+03 -0.59333668880E+03  0.60685352661E+03  0.00000000000E+00 0. -1.
          1    1    1    2  502    0  0.30095353322E+02  0.38826812443E+02 -0.74391594969E+02  0.89147972821E+02  0.00000000000E+00 0. -1.
         22    1    3    3    0    0 -0.10344088245E+03  0.80250294932E+02 -0.24565613908E+03  0.27836498463E+03  0.00000000000E+00 0.  1.
         22    1    3    3    0    0  0.23428550088E+02 -0.18974517510E+01 -0.14387162476E+03  0.14577908524E+03  0.00000000000E+00 0.  1.
</event>
<event>
 7    1  0.7459264E-005  0.1579945E+03  0.7818608E-02  0.1370284E+00
          2   -1    0    0  502    0  0.00000000000E+00  0.00000000000E+00  0.34542072454E+03  0.34542072454E+03  0.00000000000E+00 0. -1.
          1   -1    0    0  501    0 -0.00000000000E+00 -0.00000000000E+00 -0.89259563812E+03  0.89259563812E+03  0.00000000000E+00 0. -1.
         25    2    1    2    0    0  0.20910403569E+02  0.15423261683E+03 -0.28800718304E+03  0.35042534824E+03  0.12499936852E+03 0.  0.
          2    1    1    2  501    0 -0.28220526524E+02  0.38896976414E+01 -0.55305379896E+03  0.55378699191E+03  0.00000000000E+00 0. -1.
          1    1    1    2  502    0  0.73101229551E+01 -0.15812231447E+03  0.29388606842E+03  0.33380402251E+03  0.00000000000E+00 0. -1.
         22    1    3    3    0    0 -0.26739079654E+02  0.25327902945E+02 -0.15448106464E+03  0.15881083206E+03  0.00000000000E+00 0. -1.
         22    1    3    3    0    0  0.47649483223E+02  0.12890471389E+03 -0.13352611841E+03  0.19161451618E+03  0.00000000000E+00 0. -1.
</event>
<event>
 7    1  0.7459264E-005  0.2607748E+03  0.7818608E-02  0.1210123E+00
          2   -1    0    0  502    0  0.00000000000E+00  0.00000000000E+00  0.14082034396E+04  0.14082034396E+04  0.00000000000E+00 0. -1.
          1   -1    0    0  501    0 -0.00000000000E+00 -0.00000000000E+00 -0.11616912137E+03  0.11616912137E+03  0.00000000000E+00 0. -1.
         25    2    1    2    0    0 -0.22750384703E+03 -0.18059588449E+03  0.37068893221E+03  0.48724536586E+03  0.12499955276E+03 0.  0.
          2    1    1    2  501    0 -0.47928425442E+01  0.77622357770E+02 -0.36602380124E+01  0.77856272115E+02  0.00000000000E+00 0. -1.
          1    1    1    2  502    0  0.23229668957E+03  0.10297352672E+03  0.92500562406E+03  0.95927092301E+03  0.00000000000E+00 0. -1.
         22    1    3    3    0    0 -0.72515887517E+02 -0.80156348102E+02  0.54460387274E+02  0.12103523398E+03  0.00000000000E+00 0.  1.
         22    1    3    3    0    0 -0.15498795951E+03 -0.10043953638E+03  0.31622854493E+03  0.36621013188E+03  0.00000000000E+00 0.  1.
</event>
<event>
 7    1  0.7459264E-005  0.1221566E+03  0.7818608E-02  0.1289606E+00
          2   -1    0    0  502    0  0.00000000000E+00  0.00000000000E+00  0.24307028300E+04  0.24307028300E+04  0.00000000000E+00 0. -1.
          1   -1    0    0  501    0 -0.00000000000E+00 -0.00000000000E+00 -0.20525581868E+03  0.20525581868E+03  0.00000000000E+00 0. -1.
         25    2    1    2    0    0 -0.14248604480E+03  0.98253578732E+02 -0.62296766739E+02  0.22240010987E+03  0.12499953211E+03 0.  0.
          2    1    1    2  501    0  0.23834583110E+02 -0.71084668149E+02 -0.38397494333E+02  0.84234701691E+02  0.00000000000E+00 0. -1.
          1    1    1    2  502    0  0.11865146169E+03 -0.27168910583E+02  0.23261412724E+04  0.23293238371E+04  0.00000000000E+00 0. -1.
         22    1    3    3    0    0 -0.22143364748E+00 -0.59787440226E+01  0.24935890491E+02  0.25643577120E+02  0.00000000000E+00 0.  1.
         22    1    3    3    0    0 -0.14226461115E+03  0.10423232275E+03 -0.87232657230E+02  0.19675653275E+03  0.00000000000E+00 0.  1.
</event>
<event>
 7    1  0.7459264E-005  0.3392228E+03  0.7818608E-02  0.1232798E+00
          2   -1    0    0  502    0  0.00000000000E+00  0.00000000000E+00  0.68741910762E+03  0.68741910762E+03  0.00000000000E+00 0. -1.
          1   -1    0    0  501    0 -0.00000000000E+00 -0.00000000000E+00 -0.14003488371E+04  0.14003488371E+04  0.00000000000E+00 0. -1.
         25    2    1    2    0    0  0.31137517762E+03  0.18562562220E+02 -0.33752824085E+03  0.47628737478E+03  0.12500112021E+03 0.  0.
          2    1    1    2  501    0 -0.34854507885E+03 -0.47566050944E+02 -0.96132362648E+03  0.10236646502E+04  0.00000000000E+00 0. -1.
          1    1    1    2  502    0  0.37169901223E+02  0.29003488724E+02  0.58592213784E+03  0.58781591976E+03  0.00000000000E+00 0. -1.
         22    1    3    3    0    0  0.47862022893E+02  0.48857410812E+02 -0.47587702288E+02  0.83321121186E+02  0.00000000000E+00 0.  1.
         22    1    3    3    0    0  0.26351315473E+03 -0.30294848592E+02 -0.28994053856E+03  0.39296625360E+03  0.00000000000E+00 0.  1.
</event>
<event>
 7    1  0.7459264E-005  0.5138947E+03  0.7818608E-02  0.1134127E+00
          2   -1    0    0  502    0  0.00000000000E+00  0.00000000000E+00  0.28939661523E+04  0.28939661523E+04  0.00000000000E+00 0. -1.
          1   -1    0    0  501    0 -0.00000000000E+00 -0.00000000000E+00 -0.51781905314E+03  0.51781905314E+03  0.00000000000E+00 0. -1.
         25    2    1    2    0    0 -0.48113884857E+03  0.16871010593E+03  0.25054984977E+04  0.25599034005E+04  0.12500002588E+03 0.  0.
          2    1    1    2  501    0 -0.62009706551E+02 -0.70516676406E+02 -0.26699353305E+03  0.28302535584E+03  0.00000000000E+00 0. -1.
          1    1    1    2  502    0  0.54314855512E+03 -0.98193429528E+02  0.13764213456E+03  0.56885644915E+03  0.00000000000E+00 0. -1.
         22    1    3    3    0    0 -0.10508101636E+03  0.94922132064E+02  0.65146818217E+03  0.66668060084E+03  0.00000000000E+00 0.  1.
         22    1    3    3    0    0 -0.37605783221E+03  0.73787973870E+02  0.18540303155E+04  0.18932227996E+04  0.00000000000E+00 0.  1.
</event>
<event>
 7    1  0.7459264E-005  0.1089475E+03  0.7818608E-02  0.1268445E+00
          2   -1    0    0  502    0  0.00000000000E+00  0.00000000000E+00  0.64865881759E+03  0.64865881759E+03  0.00000000000E+00 0. -1.
          1   -1    0    0  501    0 -0.00000000000E+00 -0.00000000000E+00 -0.46018915289E+03  0.46018915289E+03  0.00000000000E+00 0. -1.
         25    2    1    2    0    0  0.13192712841E+03  0.59028267012E+02  0.35253895673E+03  0.40099617907E+03  0.12500046440E+03 0.  0.
          2    1    1    2  501    0 -0.94806632533E+02  0.39870310813E+02 -0.41924449957E+03  0.43167567649E+03  0.00000000000E+00 0. -1.
          1    1    1    2  502    0 -0.37120495881E+02 -0.98898577825E+02  0.25517520754E+03  0.27617611492E+03  0.00000000000E+00 0. -1.
         22    1    3    3    0    0  0.23652660674E+02 -0.19865262504E+02  0.17960294142E+03  0.18223965973E+03  0.00000000000E+00 0. -1.
         22    1    3    3    0    0  0.10827446774E+03  0.78893529515E+02  0.17293601531E+03  0.21875651934E+03  0.00000000000E+00 0. -1.
</event>
<event>
 7    1  0.7459264E-005  0.8360131E+02  0.7818608E-02  0.1334827E+00
          2   -1    0    0  502    0  0.00000000000E+00  0.00000000000E+00  0.14710941940E+04  0.14710941940E+04  0.00000000000E+00 0. -1.
          1   -1    0    0  501    0 -0.00000000000E+00 -0.00000000000E+00 -0.68673100915E+03  0.68673100915E+03  0.00000000000E+00 0. -1.
         25    2    1    2    0    0 -0.10017238415E+03  0.90665287619E+02  0.31103101012E+03  0.36141455074E+03  0.12500194920E+03 0.  0.
          2    1    1    2  501    0  0.71301455717E+02 -0.14558170507E+02 -0.65807129165E+03  0.66208282171E+03  0.00000000000E+00 0. -1.
          1    1    1    2  502    0  0.28870928436E+02 -0.76107117112E+02  0.11314034663E+04  0.11343278307E+04  0.00000000000E+00 0. -1.
         22    1    3    3    0    0 -0.10382753336E+03  0.57215011706E+02  0.30500016659E+03  0.32722899607E+03  0.00000000000E+00 0. -1.
         22    1    3    3    0    0  0.36551492078E+01  0.33450275912E+02  0.60308435301E+01  0.34185554669E+02  0.00000000000E+00 0. -1.
</event>
<event>
 7    1  0.7459264E-005  0.3207993E+03  0.7818608E-02  0.1248279E+00
          2   -1    0    0  502    0  0.00000000000E+00  0.00000000000E+00  0.10040077511E+04  0.10040077511E+04  0.00000000000E+00 0. -1.
          1   -1    0    0  501    0 -0.00000000000E+00 -0.00000000000E+00 -0.66820446611E+03  0.66820446611E+03  0.00000000000E+00 0. -1.
         25    2    1    2    0    0 -0.33716366904E+03  0.66138941321E+02 -0.23041690062E+03  0.43216890108E+03  0.12499724673E+03 0.  0.
          2    1    1    2  501    0  0.32298685381E+02  0.27789004616E+02 -0.30722532101E+03  0.31016581328E+03  0.00000000000E+00 0. -1.
          1    1    1    2  502    0  0.30486498366E+03 -0.93927945937E+02  0.87344550657E+03  0.92987750281E+03  0.00000000000E+00 0. -1.
         22    1    3    3    0    0 -0.22145910193E+03 -0.14881866441E+02 -0.11631256998E+03  0.25058774454E+03  0.00000000000E+00 0. -1.
         22    1    3    3    0    0 -0.11570456711E+03  0.81020807763E+02 -0.11410433064E+03  0.18158115654E+03  0.00000000000E+00 0. -1.
</event>
<event>
 7    1  0.7459264E-005  0.6515333E+03  0.7818608E-02  0.1120054E+00
          2   -1    0    0  502    0  0.00000000000E+00  0.00000000000E+00  0.48948711103E+03  0.48948711103E+03  0.00000000000E+00 0. -1.
          1   -1    0    0  501    0 -0.00000000000E+00 -0.00000000000E+00 -0.26520341940E+04  0.26520341940E+04  0.00000000000E+00 0. -1.
         25    2    1    2    0    0 -0.49785658854E+03 -0.37642348090E+03 -0.10229377432E+04  0.12048145517E+04  0.12498263012E+03 0.  0.
          2    1    1    2  501    0  0.58050916900E+03  0.34587211847E+03 -0.14576621591E+04  0.16066727693E+04  0.00000000000E+00 0. -1.
          1    1    1    2  502    0 -0.82652580461E+02  0.30551362431E+02  0.31805281925E+03  0.33003398406E+03  0.00000000000E+00 0. -1.
         22    1    3    3    0    0 -0.31099138253E+03 -0.30447612212E+03 -0.73244242402E+03  0.85199369332E+03  0.00000000000E+00 0.  1.
         22    1    3    3    0    0 -0.18686520601E+03 -0.71947358779E+02 -0.29049531918E+03  0.35282085839E+03  0.00000000000E+00 0.  1.
</event>
<event>
 7    1  0.7459264E-005  0.1398292E+03  0.7818608E-02  0.1265180E+00
          2   -1    0    0  502    0  0.00000000000E+00  0.00000000000E+00  0.29104314432E+04  0.29104314432E+04  0.00000000000E+00 0. -1.
          1   -1    0    0  501    0 -0.00000000000E+00 -0.00000000000E+00 -0.59104470157E+03  0.59104470157E+03  0.00000000000E+00 0. -1.
         25    2    1    2    0    0  0.15427877122E+03  0.66502785931E+02 -0.22310727960E+02  0.21058562602E+03  0.12499591000E+03 0.  0.
          2    1    1    2  501    0 -0.13808976680E+03  0.14615861997E+02 -0.46381661019E+03  0.48415726267E+03  0.00000000000E+00 0. -1.
          1    1    1    2  502    0 -0.16189004418E+02 -0.81118647928E+02  0.28055140798E+04  0.28067332561E+04  0.00000000000E+00 0. -1.
         22    1    3    3    0    0  0.15332563016E+03  0.80556244407E+02  0.11880640610E+02  0.17360647165E+03  0.00000000000E+00 0. -1.
         22    1    3    3    0    0  0.95314105669E+00 -0.14053458476E+02 -0.34191368571E+02  0.36979154368E+02  0.00000000000E+00 0. -1.
</event>
<event>
 7    1  0.7459264E-005  0.3302056E+03  0.7818608E-02  0.1180821E+00
          2   -1    0    0  502    0  0.00000000000E+00  0.00000000000E+00  0.16690789960E+04  0.16690789960E+04  0.00000000000E+00 0. -1.
          1   -1    0    0  501    0 -0.00000000000E+00 -0.00000000000E+00 -0.20310609459E+03  0.20310609459E+03  0.00000000000E+00 0. -1.
         25    2    1    2    0    0 -0.22541723490E+03 -0.26033828465E+03  0.49847698710E+02  0.36972810399E+03  0.12500050229E+03 0.  0.
          2    1    1    2  501    0  0.14085082460E+03  0.26390292974E+03  0.50161949042E+03  0.58404265622E+03  0.00000000000E+00 0. -1.
          1    1    1    2  502    0  0.84566410307E+02 -0.35646450985E+01  0.91450571228E+03  0.91841433038E+03  0.00000000000E+00 0. -1.
         22    1    3    3    0    0 -0.18271569706E+03 -0.12554361841E+03  0.63061289409E+01  0.22177915443E+03  0.00000000000E+00 0. -1.
         22    1    3    3    0    0 -0.42701537840E+02 -0.13479466624E+03  0.43541569769E+02  0.14794894957E+03  0.00000000000E+00 0. -1.
</event>
<event>
 7    1  0.7459264E-005  0.2523059E+03  0.7818608E-02  0.1148874E+00
          2   -1    0    0  502    0  0.00000000000E+00  0.00000000000E+00  0.12095519561E+04  0.12095519561E+04  0.00000000000E+00 0. -1.
          1   -1    0    0  501    0 -0.00000000000E+00 -0.00000000000E+00 -0.17611569038E+03  0.17611569038E+03  0.00000000000E+00 0. -1.
         25    2    1    2    0    0  0.33245043448E+03 -0.13013129268E+03  0.33265127428E+03  0.50372704565E+03  0.12500648588E+03 0.  0.
          2    1    1    2  501    0 -0.10009900658E+03  0.12504246686E+03  0.18594766884E+02  0.16124886043E+03  0.00000000000E+00 0. -1.
          1    1    1    2  502    0 -0.23235142791E+03  0.50888258271E+01  0.68219022458E+03  0.72069174042E+03  0.00000000000E+00 0. -1.
         22    1    3    3    0    0  0.25898448842E+03 -0.12069414242E+03  0.19042180345E+03  0.34336642888E+03  0.00000000000E+00 0.  1.
         22    1    3    3    0    0  0.73465946068E+02 -0.94371502666E+01  0.14222947083E+03  0.16036061676E+03  0.00000000000E+00 0.  1.
</event>
<event>
 7    1  0.7459264E-005  0.4797757E+03  0.7818608E-02  0.1054683E+00
          2   -1    0    0  502    0  0.00000000000E+00  0.00000000000E+00  0.31518490315E+04  0.31518490315E+04  0.00000000000E+00 0. -1.
          1   -1    0    0  501    0 -0.00000000000E+00 -0.00000000000E+00 -0.16114478527E+04  0.16114478527E+04  0.00000000000E+00 0. -1.
         25    2    1    2    0    0  0.29595969774E+03  0.53324970779E+03 -0.54590757106E+03  0.82800193390E+03  0.12499893143E+03 0.  0.
          2    1    1    2  501    0 -0.27992250398E+03 -0.55559318911E+02 -0.88289283208E+03  0.92787024906E+03  0.00000000000E+00 0. -1.
          1    1    1    2  502    0 -0.16037193755E+02 -0.47769038888E+03  0.29692015819E+04  0.30074247012E+04  0.00000000000E+00 0. -1.
         22    1    3    3    0    0  0.66824239803E+02  0.16681355968E+03 -0.23392880572E+03  0.29498292979E+03  0.00000000000E+00 0. -1.
         22    1    3    3    0    0  0.22913545793E+03  0.36643614811E+03 -0.31197876533E+03  0.53301900411E+03  0.00000000000E+00 0. -1.
</event>
<event>
 7    1  0.7459264E-005  0.1838993E+03  0.7818608E-02  0.1300253E+00
          2   -1    0    0  502    0  0.00000000000E+00  0.00000000000E+00  0.91960599811E+03  0.91960599811E+03  0.00000000000E+00 0. -1.
          1   -1    0    0  501    0 -0.00000000000E+00 -0.00000000000E+00 -0.45863535213E+03  0.45863535213E+03  0.00000000000E+00 0. -1.
         25    2    1    2    0    0  0.79004135722E+02 -0.12716577993E+03  0.10205065962E+03  0.22012039677E+03  0.12500345154E+03 0.  0.
          2    1    1    2  501    0  0.38815574789E+01 -0.44943715035E+02 -0.38623963598E+03  0.38886509281E+03  0.00000000000E+00 0. -1.
          1    1    1    2  502    0 -0.82885693200E+02  0.17210949497E+03  0.74515962234E+03  0.76925586066E+03  0.00000000000E+00 0. -1.
         22    1    3    3    0    0  0.68977150579E+02 -0.10911590804E+03  0.13142242062E+03  0.18421721236E+03  0.00000000000E+00 0. -1.
         22    1    3    3    0    0  0.10026985143E+02 -0.18049871895E+02 -0.29371760998E+02  0.35903184408E+02  0.00000000000E+00 0. -1.
</event>
<event>
 7    1  0.7459264E-005  0.2062212E+03  0.7818608E-02  0.1203000E+00
          2   -1    0    0  502    0  0.00000000000E+00  0.00000000000E+00  0.42498329374E+03  0.42498329374E+03  0.00000000000E+00 0. -1.
          1   -1    0    0  501    0 -0.00000000000E+00 -0.00000000000E+00 -0.22288612932E+04  0.22288612932E+04  0.00000000000E+00 0. -1.
         25    2    1    2    0    0 -0.21460063155E+03 -0.11676234911E+03 -0.61663609722E+03  0.67494591285E+03  0.12500012657E+03 0.  0.
          2    1    1    2  501    0  0.20158566672E+03  0.11402207681E+02 -0.15693664808E+04  0.15823014701E+04  0.00000000000E+00 0. -1.
          1    1    1    2  502    0  0.13014964836E+02  0.10536014143E+03  0.38212457851E+03  0.39659720399E+03  0.00000000000E+00 0. -1.
         22    1    3    3    0    0 -0.15543540224E+03 -0.41192183849E+02 -0.26074967775E+03  0.30634515620E+03  0.00000000000E+00 0.  1.
         22    1    3    3    0    0 -0.59165229309E+02 -0.75570165257E+02 -0.35588641948E+03  0.36860075665E+03  0.00000000000E+00 0.  1.
</event>
<event>
 7    1  0.7459264E-005  0.3137056E+03  0.7818608E-02  0.1139526E+00
          2   -1    0    0  502    0  0.00000000000E+00  0.00000000000E+00  0.46156589079E+03  0.46156589079E+03  0.00000000000E+00 0. -1.
          1   -1    0    0  501    0 -0.00000000000E+00 -0.00000000000E+00 -0.11368768701E+04  0.11368768701E+04  0.00000000000E+00 0. -1.
         25    2    1    2    0    0  0.71100191097E+02  0.17864108835E+03  0.36657354234E+03  0.43239848783E+03  0.12499765882E+03 0.  0.
          2    1    1    2  501    0 -0.18943106498E+03 -0.26083223783E+03 -0.92799565616E+03  0.98239173577E+03  0.00000000000E+00 0. -1.
          1    1    1    2  502    0  0.11833087388E+03  0.82191149484E+02 -0.11388886547E+03  0.18365253727E+03  0.00000000000E+00 0. -1.
         22    1    3    3    0    0  0.75006618822E+02  0.45549868922E+02  0.91417543819E+02  0.12671996979E+03  0.00000000000E+00 0.  1.
         22    1    3    3    0    0 -0.39064277245E+01  0.13309121943E+03  0.27515599852E+03  0.30567851804E+03  0.00000000000E+00 0.  1.
</event>
<event>
 7    1  0.7459264E-005  0.5493468E+03  0.7818608E-02  0.1133496E+00
          2   -1    0    0  502    0  0.00000000000E+00  0.00000000000E+00  0.10783468199E+04  0.10783468199E+04  0.00000000000E+00 0. -1.
          1   -1    0    0  501    0 -0.00000000000E+00 -0.00000000000E+00 -0.22524642810E+04  0.22524642810E+04  0.00000000000E+00 0. -1.
         25    2    1    2    0    0  0.11353119370E+03 -0.54059854930E+03  0.27365297489E+03  0.62900904771E+03  0.12502123015E+03 0.  0.
          2    1    1    2  501    0 -0.88066219671E+02 -0.89687429509E+01 -0.19529105077E+04  0.19549157395E+04  0.00000000000E+00 0. -1.
          1    1    1    2  502    0 -0.25464974034E+02  0.54956729225E+03  0.50514007170E+03  0.74688631374E+03  0.00000000000E+00 0. -1.
         22    1    3    3    0    0  0.37438767966E+02 -0.51200234826E+02  0.56287565124E+00  0.63430609504E+02  0.00000000000E+00 0. -1.
         22    1    3    3    0    0  0.76092425739E+02 -0.48939831447E+03  0.27309009924E+03  0.56557843821E+03  0.00000000000E+00 0. -1.
</event>
<event>
 7    1  0.7459264E-005  0.7674684E+02  0.7818608E-02  0.1443217E+00
          2   -1    0    0  502    0  0.00000000000E+00  0.00000000000E+00  0.97540446268E+02  0.97540446268E+02  0.00000000000E+00 0. -1.
          1   -1    0    0  501    0 -0.00000000000E+00 -0.00000000000E+00 -0.93649945847E+03  0.93649945847E+03  0.00000000000E+00 0. -1.
         25    2    1    2    0    0  0.84667541762E+02 -0.37582829086E+02 -0.46833016618E+02  0.16248403754E+03  0.12500667718E+03 0.  0.
          2    1    1    2  501    0 -0.55269478317E+02  0.52777859118E+02 -0.82285496569E+03  0.82639609886E+03  0.00000000000E+00 0. -1.
          1    1    1    2  502    0 -0.29398063446E+02 -0.15195030032E+02  0.30728970110E+02  0.45159768334E+02  0.00000000000E+00 0. -1.
         22    1    3    3    0    0  0.23207583106E+02 -0.54485092787E+02  0.26877336296E+02  0.65035440000E+02  0.00000000000E+00 0. -1.
         22    1    3    3    0    0  0.61459958656E+02  0.16902263701E+02 -0.73710352914E+02  0.97448597542E+02  0.00000000000E+00 0. -1.
</event>
<event>
 7    1  0.7459264E-005  0.2084666E+03  0.7818608E-02  0.1270540E+00
          2   -1    0    0  502    0  0.00000000000E+00  0.00000000000E+00  0.33360742644E+03  0.33360742644E+03  0.00000000000E+00 0. -1.
          1   -1    0    0  501    0 -0.00000000000E+00 -0.00000000000E+00 -0.44497259882E+03  0.44497259882E+03  0.00000000000E+00 0. -1.
         25    2    1    2    0    0 -0.12279188436E+03  0.12593668292E+03  0.94074367518E+02  0.23540805174E+03  0.12501627585E+03 0.  0.
          2    1    1    2  501    0  0.12003345270E+03 -0.17853601972E+03 -0.33792789689E+03  0.40059755816E+03  0.00000000000E+00 0. -1.
          1    1    1    2  502    0  0.27584316627E+01  0.52599336806E+02  0.13248835699E+03  0.14257441536E+03  0.00000000000E+00 0. -1.
         22    1    3    3    0    0 -0.10415661516E+02  0.96471693516E+02  0.24816661223E+02  0.10015558062E+03  0.00000000000E+00 0.  1.
         22    1    3    3    0    0 -0.11237622285E+03  0.29464989403E+02  0.69257706295E+02  0.13525247112E+03  0.00000000000E+00 0.  1.
</event>
<event>
 7    1  0.7459264E-005  0.3566942E+03  0.7818608E-02  0.1138867E+00
          2   -1    0    0  502    0  0.00000000000E+00  0.00000000000E+00  0.18522970596E+04  0.18522970596E+04  0.00000000000E+00 0. -1.
          1   -1    0    0  501    0 -0.00000000000E+00 -0.00000000000E+00 -0.90402061346E+03  0.90402061346E+03  0.00000000000E+00 0. -1.
         25    2    1    2    0    0  0.26610826409E+03 -0.29830568844E+03  0.17979117005E+03  0.45579644561E+03  0.12500257208E+03 0.  0.
          2    1    1    2  501    0 -0.14100740071E+03  0.32406125055E+03 -0.72237921035E+03  0.80419556372E+03  0.00000000000E+00 0. -1.
          1    1    1    2  502    0 -0.12510086338E+03 -0.25755562107E+02  0.14908644865E+04  0.14963256638E+04  0.00000000000E+00 0. -1.
         22    1    3    3    0    0  0.47427052879E+01 -0.59653470480E+02  0.23764952211E+01  0.59888876458E+02  0.00000000000E+00 0. -1.
         22    1    3    3    0    0  0.26136555880E+03 -0.23865221796E+03  0.17741467483E+03  0.39590756915E+03  0.00000000000E+00 0. -1.
</event>
<event>
 7    1  0.7459264E-005  0.1051112E+04  0.7818608E-02  0.1146364E+00
          2   -1    0    0  502    0  0.00000000000E+00  0.00000000000E+00  0.15431129373E+04  0.15431129373E+04  0.00000000000E+00 0. -1.
          1   -1    0    0  501    0 -0.00000000000E+00 -0.00000000000E+00 -0.12560765946E+04  0.12560765946E+04  0.00000000000E+00 0. -1.
         25    2    1    2    0    0 -0.71611000342E+03 -0.74148084126E+03  0.38782744355E+03  0.11084414858E+04  0.12500010641E+03 0.  0.
          2    1    1    2  501    0  0.75569688843E+03  0.74291992817E+03 -0.58124914979E+03  0.12086597457E+04  0.00000000000E+00 0. -1.
          1    1    1    2  502    0 -0.39586885012E+02 -0.14390869047E+01  0.48045804900E+03  0.48208830030E+03  0.00000000000E+00 0. -1.
         22    1    3    3    0    0 -0.13064773750E+03 -0.74514298862E+02  0.68472447075E+02  0.16525643121E+03  0.00000000000E+00 0. -1.
         22    1    3    3    0    0 -0.58546226592E+03 -0.66696654240E+03  0.31935499647E+03  0.94318505463E+03  0.00000000000E+00 0. -1.
</event>
<event>
 7    1  0.7506325E-005  0.1121541E+04  0.7818608E-02  0.1179525E+00
          2   -1    0    0  502    0  0.00000000000E+00  0.00000000000E+00  0.14999092547E+04  0.14999092547E+04  0.00000000000E+00 0. -1.
          1   -1    0    0  501    0 -0.00000000000E+00 -0.00000000000E+00 -0.15493304830E+04  0.15493304830E+04  0.00000000000E+00 0. -1.
         25    2    1    2    0    0 -0.10439242687E+04  0.40481486761E+03  0.48631963747E+02  0.11276717703E+04  0.12500239169E+03 0.  0.
          2    1    1    2  501    0  0.63742822230E+01  0.24469312820E+02 -0.66377395988E+03  0.66425540913E+03  0.00000000000E+00 0. -1.
          1    1    1    2  502    0  0.10375499865E+04 -0.42928418043E+03  0.56572076788E+03  0.12573125583E+04  0.00000000000E+00 0. -1.
         22    1    3    3    0    0 -0.72595473307E+03  0.22457380700E+03  0.57430144552E+02  0.76206423008E+03  0.00000000000E+00 0.  1.
         22    1    3    3    0    0 -0.31796953560E+03  0.18024106061E+03 -0.87981808045E+01  0.36560754025E+03  0.00000000000E+00 0.  1.
</event>
<event>
 7    1  0.7459264E-005  0.3594582E+03  0.7818608E-02  0.1114145E+00
          2   -1    0    0  502    0  0.00000000000E+00  0.00000000000E+00  0.34146691603E+03  0.34146691603E+03  0.00000000000E+00 0. -1.
          1   -1    0    0  501    0 -0.00000000000E+00 -0.00000000000E+00 -0.18372151402E+04  0.18372151402E+04  0.00000000000E+00 0. -1.
         25    2    1    2    0    0  0.39861856481E+03 -0.25062638243E+02  0.32113763663E+02  0.41973888020E+03  0.12499815074E+03 0.  0.
          2    1    1    2  501    0 -0.93219917256E+02  0.14458973359E+03 -0.13942350484E+04  0.14048087109E+04  0.00000000000E+00 0. -1.
          1    1    1    2  502    0 -0.30539864755E+03 -0.11952709535E+03 -0.13362693943E+03  0.35413446513E+03  0.00000000000E+00 0. -1.
         22    1    3    3    0    0  0.21780948381E+03 -0.13146716166E+02  0.79846717576E+02  0.23235598914E+03  0.00000000000E+00 0.  1.
         22    1    3    3    0    0  0.18080908100E+03 -0.11915922077E+02 -0.47732953913E+02  0.18738289106E+03  0.00000000000E+00 0.  1.
</event>
<event>
 7    1  0.7459264E-005  0.2451636E+03  0.7818608E-02  0.1188857E+00
          2   -1    0    0  502    0  0.00000000000E+00  0.00000000000E+00  0.49023000509E+03  0.49023000509E+03  0.00000000000E+00 0. -1.
          1   -1    0    0  501    0 -0.00000000000E+00 -0.00000000000E+00 -0.89638377499E+03  0.89638377499E+03  0.00000000000E+00 0. -1.
         25    2    1    2    0    0 -0.55821191674E+01 -0.23281482623E+03 -0.16192286399E+03  0.30996404063E+03  0.12499915692E+03 0.  0.
          2    1    1    2  501    0  0.10419245781E+03  0.29619710227E+01 -0.61810354926E+03  0.62683078988E+03  0.00000000000E+00 0. -1.
          1    1    1    2  502    0 -0.98610338641E+02  0.22985285521E+03  0.37387264336E+03  0.44981894957E+03  0.00000000000E+00 0. -1.
         22    1    3    3    0    0  0.59299558050E+02 -0.12634395330E+03 -0.88750954862E+02  0.16539638481E+03  0.00000000000E+00 0. -1.
         22    1    3    3    0    0 -0.64881677218E+02 -0.10647087293E+03 -0.73171909133E+02  0.14456765582E+03  0.00000000000E+00 0. -1.
</event>
<event>
 7    1  0.7459264E-005  0.2076902E+03  0.7818608E-02  0.1333997E+00
          2   -1    0    0  502    0  0.00000000000E+00  0.00000000000E+00  0.99612105286E+03  0.99612105286E+03  0.00000000000E+00 0. -1.
          1   -1    0    0  501    0 -0.00000000000E+00 -0.00000000000E+00 -0.55006866521E+03  0.55006866521E+03  0.00000000000E+00 0. -1.
         25    2    1    2    0    0 -0.15034939905E+02  0.22637770032E+03  0.43049665938E+03  0.50241965186E+03  0.12500088085E+03 0.  0.
          2    1    1    2  501    0 -0.29988210515E+01 -0.29353608546E+02 -0.49517690794E+03  0.49605523626E+03  0.00000000000E+00 0. -1.
          1    1    1    2  502    0  0.18033760956E+02 -0.19702409177E+03  0.51073263620E+03  0.54771482996E+03  0.00000000000E+00 0. -1.
         22    1    3    3    0    0 -0.33992528915E+02  0.25155553352E+01  0.49090430606E+02  0.59763621190E+02  0.00000000000E+00 0.  1.
         22    1    3    3    0    0  0.18957589010E+02  0.22386214498E+03  0.38140622878E+03  0.44265603067E+03  0.00000000000E+00 0.  1.
</event>
<event>
 7    1  0.7459264E-005  0.1414293E+04  0.7818608E-02  0.1042294E+00
          2   -1    0    0  502    0  0.00000000000E+00  0.00000000000E+00  0.36095418721E+04  0.36095418721E+04  0.00000000000E+00 0. -1.
          1   -1    0    0  501    0 -0.00000000000E+00 -0.00000000000E+00 -0.84181033872E+03  0.84181033872E+03  0.00000000000E+00 0. -1.
         25    2    1    2    0    0  0.48044033935E+03 -0.13694633635E+04  0.15652540891E+04  0.21381970857E+04  0.12495435220E+03 0.  0.
          2    1    1    2  501    0 -0.10842853967E+03  0.40045614820E+02 -0.27063975934E+03  0.29428944735E+03  0.00000000000E+00 0. -1.
          1    1    1    2  502    0 -0.37201179968E+03  0.13294177486E+04  0.14731172036E+04  0.20188656778E+04  0.00000000000E+00 0. -1.
         22    1    3    3    0    0  0.47893853705E+03 -0.12874740279E+04  0.14943433059E+04  0.20297865431E+04  0.00000000000E+00 0. -1.
         22    1    3    3    0    0  0.15018023041E+01 -0.81989335584E+02  0.70910783171E+02  0.10841054252E+03  0.00000000000E+00 0. -1.
</event>
<event>
 7    1  0.7459264E-005  0.1583718E+03  0.7818608E-02  0.1203554E+00
          2   -1    0    0  502    0  0.00000000000E+00  0.00000000000E+00  0.57068697420E+03  0.57068697420E+03  0.00000000000E+00 0. -1.
          1   -1    0    0  501    0 -0.00000000000E+00 -0.00000000000E+00 -0.19209014549E+04  0.19209014549E+04  0.00000000000E+00 0. -1.
         25    2    1    2    0    0 -0.22229784863E+03 -0.19131676267E+03  0.30204366715E+03  0.43917347609E+03  0.12499811220E+03 0.  0.
          2    1    1    2  501    0  0.12757219074E+03  0.91772612873E+02 -0.18249613105E+04  0.18317152238E+04  0.00000000000E+00 0. -1.
          1    1    1    2  502    0  0.94725657887E+02  0.99544149794E+02  0.17270316273E+03  0.22069972913E+03  0.00000000000E+00 0. -1.
         22    1    3    3    0    0 -0.19155884640E+02 -0.32752576641E+02  0.11403144260E+03  0.12017840528E+03  0.00000000000E+00 0.  1.
         22    1    3    3    0    0 -0.20314196399E+03 -0.15856418603E+03  0.18801222454E+03  0.31899507081E+03  0.00000000000E+00 0.  1.
</event>
<event>
 7    1  0.7459264E-005  0.4154709E+03  0.7818608E-02  0.1122159E+00
          2   -1    0    0  502    0  0.00000000000E+00  0.00000000000E+00  0.21713436026E+04  0.21713436026E+04  0.00000000000E+00 0. -1.
          1   -1    0    0  501    0 -0.00000000000E+00 -0.00000000000E+00 -0.15047567047E+04  0.15047567047E+04  0.00000000000E+00 0. -1.
         25    2    1    2    0    0  0.43191919032E+03  0.24087704846E+03  0.37745772163E+03  0.63456789857E+03  0.12500458727E+03 0.  0.
          2    1    1    2  501    0 -0.13184208855E+03  0.27125464125E+02 -0.13485017957E+04  0.13552030180E+04  0.00000000000E+00 0. -1.
          1    1    1    2  502    0 -0.30007710177E+03 -0.26800251259E+03  0.16376309720E+04  0.16863293908E+04  0.00000000000E+00 0. -1.
         22    1    3    3    0    0  0.20246552762E+03  0.18136562227E+03  0.22357846229E+03  0.35195611603E+03  0.00000000000E+00 0. -1.
         22    1    3    3    0    0  0.22945366270E+03  0.59511426192E+02  0.15387925935E+03  0.28261178254E+03  0.00000000000E+00 0. -1.
</event>
<event>
 7    1  0.7459264E-005  0.2609807E+03  0.7818608E-02  0.1195031E+00
          2   -1    0    0  502    0  0.00000000000E+00  0.00000000000E+00  0.51510237900E+03  0.51510237900E+03  0.00000000000E+00 0. -1.
          1   -1    0    0  501    0 -0.00000000000E+00 -0.00000000000E+00 -0.53732694102E+03  0.53732694102E+03  0.00000000000E+00 0. -1.
         25    2    1    2    0    0 -0.67204388604E+02  0.29077290996E+03  0.33012510572E+03  0.46224681410E+03  0.12499686677E+03 0.  0.
          2    1    1    2  501    0  0.14004779211E+02 -0.90404151757E+02 -0.37092615578E+03  0.38204091082E+03  0.00000000000E+00 0. -1.
          1    1    1    2  502    0  0.53199609393E+02 -0.20036875821E+03  0.18576488042E+02  0.20814159511E+03  0.00000000000E+00 0. -1.
         22    1    3    3    0    0 -0.29399311631E+02  0.19511528504E+03  0.29227665048E+03  0.35264703940E+03  0.00000000000E+00 0. -1.
         22    1    3    3    0    0 -0.37805076973E+02  0.95657624923E+02  0.37848455242E+02  0.10959977470E+03  0.00000000000E+00 0. -1.
</event>
<event>
 7    1  0.7459264E-005  0.1798734E+03  0.7818608E-02  0.1390991E+00
          2   -1    0    0  502    0  0.00000000000E+00  0.00000000000E+00  0.70754349742E+03  0.70754349742E+03  0.00000000000E+00 0. -1.
          1   -1    0    0  501    0 -0.00000000000E+00 -0.00000000000E+00 -0.92125397131E+03  0.92125397131E+03  0.00000000000E+00 0. -1.
         25    2    1    2    0    0 -0.12440900325E+03 -0.11453930378E+03 -0.64361828930E+03  0.67710178888E+03  0.12500191194E+03 0.  0.
          2    1    1    2  501    0  0.52457665587E+01 -0.20476165970E+02 -0.24870197511E+03  0.24959860549E+03  0.00000000000E+00 0. -1.
          1    1    1    2  502    0  0.11916323670E+03  0.13501546975E+03  0.67860979051E+03  0.70209707436E+03  0.00000000000E+00 0. -1.
         22    1    3    3    0    0  0.58741557417E+01  0.87301205125E+01 -0.17768198487E+01  0.10671354113E+02  0.00000000000E+00 0. -1.
         22    1    3    3    0    0 -0.13028315900E+03 -0.12326942429E+03 -0.64184146945E+03  0.66643043477E+03  0.00000000000E+00 0. -1.
</event>
<event>
 7    1  0.7459264E-005  0.2018376E+03  0.7818608E-02  0.1216817E+00
          2   -1    0    0  502    0  0.00000000000E+00  0.00000000000E+00  0.25935671774E+04  0.25935671774E+04  0.00000000000E+00 0. -1.
          1   -1    0    0  501    0 -0.00000000000E+00 -0.00000000000E+00 -0.44157410133E+03  0.44157410133E+03  0.00000000000E+00 0. -1.
         25    2    1    2    0    0  0.40011566828E+02 -0.25229563286E+03  0.33585125351E+03  0.44008489139E+03  0.12499854122E+03 0.  0.
          2    1    1    2  501    0  0.34822680885E+02  0.19609543177E+03 -0.36292466880E+03  0.41398110185E+03  0.00000000000E+00 0. -1.
          1    1    1    2  502    0 -0.74834247713E+02  0.56200201091E+02  0.21790664914E+04  0.21810752855E+04  0.00000000000E+00 0. -1.
         22    1    3    3    0    0  0.26444124561E+02 -0.64719315659E+02  0.20403397532E+02  0.72829802787E+02  0.00000000000E+00 0. -1.
         22    1    3    3    0    0  0.13567442267E+02 -0.18757631720E+03  0.31544785598E+03  0.36725508861E+03  0.00000000000E+00 0. -1.
</event>
<event>
 7    1  0.7459264E-005  0.3070196E+03  0.7818608E-02  0.1234291E+00
          2   -1    0    0  502    0  0.00000000000E+00  0.00000000000E+00  0.76049984761E+03  0.76049984761E+03  0.00000000000E+00 0. -1.
          1   -1    0    0  501    0 -0.00000000000E+00 -0.00000000000E+00 -0.12262976664E+04  0.12262976664E+04  0.00000000000E+00 0. -1.
         25    2    1    2    0    0 -0.29751298084E+03  0.18076879723E+03 -0.10997615864E+03  0.38588997755E+03  0.12499994994E+03 0.  0.
          2    1    1    2  501    0  0.50586480012E+02 -0.85263790921E+01 -0.94122607019E+03  0.94262304571E+03  0.00000000000E+00 0. -1.
          1    1    1    2  502    0  0.24692650083E+03 -0.17224241813E+03  0.58540441006E+03  0.65828449073E+03  0.00000000000E+00 0. -1.
         22    1    3    3    0    0 -0.27199153315E+02 -0.17640514446E+02  0.17113935787E+01  0.32463988648E+02  0.00000000000E+00 0.  1.
         22    1    3    3    0    0 -0.27031382753E+03  0.19840931167E+03 -0.11168755222E+03  0.35342598890E+03  0.00000000000E+00 0.  1.
</event>
<event>
 7    1  0.7459264E-005  0.2603311E+03  0.7818608E-02  0.1202128E+00
          2   -1    0    0  502    0  0.00000000000E+00  0.00000000000E+00  0.14757143225E+03  0.14757143225E+03  0.00000000000E+00 0. -1.
          1   -1    0    0  501    0 -0.00000000000E+00 -0.00000000000E+00 -0.13372644871E+04  0.13372644871E+04  0.00000000000E+00 0. -1.
         25    2    1    2    0    0  0.13262887286E+03 -0.25570110074E+03 -0.17843954505E+03  0.36116337729E+03  0.12499937209E+03 0.  0.
          2    1    1    2  501    0  0.27861779685E+02  0.80189497753E+02 -0.80323487001E+03  0.80770841937E+03  0.00000000000E+00 0. -1.
          1    1    1    2  502    0 -0.16049065254E+03  0.17551160299E+03 -0.20801863982E+03  0.31596412273E+03  0.00000000000E+00 0. -1.
         22    1    3    3    0    0  0.14172311982E+03 -0.14649976466E+03 -0.10537773283E+03  0.22946043300E+03  0.00000000000E+00 0.  1.
         22    1    3    3    0    0 -0.90942469597E+01 -0.10920133608E+03 -0.73061812225E+02  0.13170294430E+03  0.00000000000E+00 0.  1.
</event>
<event>
 7    1  0.7459264E-005  0.3481076E+03  0.7818608E-02  0.1225168E+00
          2   -1    0    0  502    0  0.00000000000E+00  0.00000000000E+00  0.77025536223E+03  0.77025536223E+03  0.00000000000E+00 0. -1.
          1   -1    0    0  501    0 -0.00000000000E+00 -0.00000000000E+00 -0.81274977236E+03  0.81274977236E+03  0.00000000000E+00 0. -1.
         25    2    1    2    0    0  0.53655761647E+02 -0.38229172510E+03  0.59304358730E+02  0.41007581154E+03  0.12497703951E+03 0.  0.
          2    1    1    2  501    0 -0.12167075992E+02  0.48203945628E+02 -0.58329712413E+03  0.58541198581E+03  0.00000000000E+00 0. -1.
          1    1    1    2  502    0 -0.41488685655E+02  0.33408777948E+03  0.48149835527E+03  0.58751733724E+03  0.00000000000E+00 0. -1.
         22    1    3    3    0    0  0.60711110021E+02 -0.26402156256E+03  0.93775157887E+02  0.28668275953E+03  0.00000000000E+00 0.  1.
         22    1    3    3    0    0 -0.70553483743E+01 -0.11827016254E+03 -0.34470799157E+02  0.12339305200E+03  0.00000000000E+00 0.  1.
</event>
<event>
 7    1  0.7459264E-005  0.4057428E+02  0.7818608E-02  0.1521471E+00
          2   -1    0    0  502    0  0.00000000000E+00  0.00000000000E+00  0.20481506897E+04  0.20481506897E+04  0.00000000000E+00 0. -1.
          1   -1    0    0  501    0 -0.00000000000E+00 -0.00000000000E+00 -0.81966625130E+03  0.81966625130E+03  0.00000000000E+00 0. -1.
         25    2    1    2    0    0 -0.44852651893E+02  0.54834061553E+02  0.68988637818E+03  0.70468967940E+03  0.12500317902E+03 0.  0.
          2    1    1    2  501    0  0.31462132530E+02 -0.17631198926E+02 -0.81157470711E+03  0.81237567060E+03  0.00000000000E+00 0. -1.
          1    1    1    2  502    0  0.13390519362E+02 -0.37202862627E+02  0.13501727674E+04  0.13507515910E+04  0.00000000000E+00 0. -1.
         22    1    3    3    0    0 -0.78926299912E+02  0.69215065138E+02  0.45832879219E+03  0.47019715844E+03  0.00000000000E+00 0. -1.
         22    1    3    3    0    0  0.34073648019E+02 -0.14381003585E+02  0.23155758599E+03  0.23449252096E+03  0.00000000000E+00 0. -1.
</event>
<event>
 7    1  0.7459264E-005  0.4312968E+03  0.7818608E-02  0.1175220E+00
          2   -1    0    0  502    0  0.00000000000E+00  0.00000000000E+00  0.51055470222E+03  0.51055470222E+03  0.00000000000E+00 0. -1.
          1   -1    0    0  501    0 -0.00000000000E+00 -0.00000000000E+00 -0.16930461435E+04  0.16930461435E+04  0.00000000000E+00 0. -1.
         25    2    1    2    0    0  0.42932798966E+03  0.66894866138E+02  0.10451797039E+03  0.46405389004E+03  0.12499824359E+03 0.  0.
          2    1    1    2  501    0 -0.43148271540E+03  0.20994964134E+01 -0.14762990251E+04  0.15380638976E+04  0.00000000000E+00 0. -1.
          1    1    1    2  502    0  0.21547257378E+01 -0.68994362551E+02  0.18928961348E+03  0.20148305804E+03  0.00000000000E+00 0. -1.
         22    1    3    3    0    0  0.38120662101E+03  0.41423697179E+02  0.12870823482E+03  0.40447524065E+03  0.00000000000E+00 0. -1.
         22    1    3    3    0    0  0.48121368652E+02  0.25471168958E+02 -0.24190264433E+02  0.59578649384E+02  0.00000000000E+00 0. -1.
</event>
<event>
 7    1  0.7459264E-005  0.4400695E+03  0.7818608E-02  0.1130532E+00
          2   -1    0    0  502    0  0.00000000000E+00  0.00000000000E+00  0.12728595401E+04  0.12728595401E+04  0.00000000000E+00 0. -1.
          1   -1    0    0  501    0 -0.00000000000E+00 -0.00000000000E+00 -0.32568591895E+04  0.32568591895E+04  0.00000000000E+00 0. -1.
         25    2    1    2    0    0 -0.27109490693E+03 -0.32790885029E+03 -0.55383280318E+03  0.70948617719E+03  0.12499279611E+03 0.  0.
          2    1    1    2  501    0  0.36315959918E+03  0.25969243308E+03 -0.26034065642E+04  0.26414107581E+04  0.00000000000E+00 0. -1.
          1    1    1    2  502    0 -0.92064692242E+02  0.68216417212E+02  0.11732397180E+04  0.11788217944E+04  0.00000000000E+00 0. -1.
         22    1    3    3    0    0 -0.12153428312E+03 -0.93351974644E+02 -0.27969196521E+03  0.31892439315E+03  0.00000000000E+00 0.  1.
         22    1    3    3    0    0 -0.14956062381E+03 -0.23455687564E+03 -0.27414083797E+03  0.39056178404E+03  0.00000000000E+00 0.  1.
</event>
<event>
 7    1  0.7459264E-005  0.1675737E+03  0.7818608E-02  0.1212189E+00
          2   -1    0    0  502    0  0.00000000000E+00  0.00000000000E+00  0.79033273111E+03  0.79033273111E+03  0.00000000000E+00 0. -1.
          1   -1    0    0  501    0 -0.00000000000E+00 -0.00000000000E+00 -0.14307723271E+03  0.14307723271E+03  0.00000000000E+00 0. -1.
         25    2    1    2    0    0 -0.19221617075E+03 -0.67241651195E+02  0.10168005082E+03  0.25967807469E+03  0.12500149514E+03 0.  0.
          2    1    1    2  501    0  0.91631942372E+02  0.12968081385E+03  0.53412824767E+02  0.16753046348E+03  0.00000000000E+00 0. -1.
          1    1    1    2  502    0  0.10058422838E+03 -0.62439162658E+02  0.49216262281E+03  0.50620142565E+03  0.00000000000E+00 0. -1.
         22    1    3    3    0    0 -0.15192736092E+03  0.84149319521E+01  0.53137093591E+02  0.16117160045E+03  0.00000000000E+00 0. -1.
         22    1    3    3    0    0 -0.40288809832E+02 -0.75656583147E+02  0.48542957231E+02  0.98506474243E+02  0.00000000000E+00 0. -1.
</event>
<event>
 7    1  0.7459264E-005  0.1174160E+04  0.7818608E-02  0.1156890E+00
          2   -1    0    0  502    0  0.00000000000E+00  0.00000000000E+00  0.14698000435E+04  0.14698000435E+04  0.00000000000E+00 0. -1.
          1   -1    0    0  501    0 -0.00000000000E+00 -0.00000000000E+00 -0.17505818707E+04  0.17505818707E+04  0.00000000000E+00 0. -1.
         25    2    1    2    0    0 -0.11668258696E+04 -0.24334990534E+03 -0.81754097168E+02  0.12012536679E+04  0.12499942292E+03 0.  0.
          2    1    1    2  501    0  0.24737040219E+02  0.19202371966E+02 -0.73648436882E+03  0.73714983400E+03  0.00000000000E+00 0. -1.
          1    1    1    2  502    0  0.11420888294E+04  0.22414753337E+03  0.53745663876E+03  0.12819784123E+04  0.00000000000E+00 0. -1.
         22    1    3    3    0    0 -0.11322376150E+04 -0.22956037878E+03 -0.57278086870E+02  0.11566938936E+04  0.00000000000E+00 0.  1.
         22    1    3    3    0    0 -0.34588254615E+02 -0.13789526553E+02 -0.24476010298E+02  0.44559774236E+02  0.00000000000E+00 0.  1.
</event>
<event>
 7    1  0.7459264E-005  0.1220490E+03  0.7818608E-02  0.1306277E+00
          2   -1    0    0  502    0  0.00000000000E+00  0.00000000000E+00  0.93146804227E+03  0.93146804227E+03  0.00000000000E+00 0. -1.
          1   -1    0    0  501    0 -0.00000000000E+00 -0.00000000000E+00 -0.10853499668E+03  0.10853499668E+03  0.00000000000E+00 0. -1.
         25    2    1    2    0    0  0.90496605330E+02 -0.81444379433E+02  0.19750592793E+03  0.26354556920E+03  0.12499941183E+03 0.  0.
          2    1    1    2  501    0 -0.38429201198E+02  0.11920549432E+03 -0.20864913066E+02  0.12697282378E+03  0.00000000000E+00 0. -1.
          1    1    1    2  502    0 -0.52067404132E+02 -0.37761114890E+02  0.64629203072E+03  0.64948464597E+03  0.00000000000E+00 0. -1.
         22    1    3    3    0    0  0.68345107753E+02  0.72692690466E+01  0.35114921638E+02  0.77181304394E+02  0.00000000000E+00 0. -1.
         22    1    3    3    0    0  0.22151497577E+02 -0.88713648479E+02  0.16239100629E+03  0.18636426481E+03  0.00000000000E+00 0. -1.
</event>
<event>
 7    1  0.7459264E-005  0.2662226E+03  0.7818608E-02  0.1173821E+00
          2   -1    0    0  502    0  0.00000000000E+00  0.00000000000E+00  0.53319494179E+03  0.53319494179E+03  0.00000000000E+00 0. -1.
          1   -1    0    0  501    0 -0.00000000000E+00 -0.00000000000E+00 -0.51431617898E+03  0.51431617898E+03  0.00000000000E+00 0. -1.
         25    2    1    2    0    0  0.23273212625E+03 -0.76216683817E+00 -0.22767628807E+03  0.34874982692E+03  0.12500050455E+03 0.  0.
          2    1    1    2  501    0 -0.34011264129E+03  0.37892415959E+02 -0.81330044799E+02  0.35174851832E+03  0.00000000000E+00 0. -1.
          1    1    1    2  502    0  0.10738051504E+03 -0.37130249121E+02  0.32788509568E+03  0.34701277553E+03  0.00000000000E+00 0. -1.
         22    1    3    3    0    0  0.21026631041E+03 -0.46474440662E+01 -0.24292644181E+03  0.32132036375E+03  0.00000000000E+00 0.  1.
         22    1    3    3    0    0  0.22465815840E+02  0.38852772280E+01  0.15250153740E+02  0.27429463166E+02  0.00000000000E+00 0.  1.
</event>
<event>
 7    1  0.7459264E-005  0.1144220E+03  0.7818608E-02  0.1301180E+00
          2   -1    0    0  502    0  0.00000000000E+00  0.00000000000E+00  0.64943324846E+02  0.64943324846E+02  0.00000000000E+00 0. -1.
          1   -1    0    0  501    0 -0.00000000000E+00 -0.00000000000E+00 -0.92681073560E+03  0.92681073560E+03  0.00000000000E+00 0. -1.
         25    2    1    2    0    0 -0.88896404903E+01  0.10126932487E+03 -0.11642985457E+03  0.19878191693E+03  0.12499535029E+03 0.  0.
          2    1    1    2  501    0  0.21805627250E+02  0.68499349653E+02 -0.86893124823E+02  0.11277438284E+03  0.00000000000E+00 0. -1.
          1    1    1    2  502    0 -0.12915986760E+02 -0.16976867452E+03 -0.65854443135E+03  0.68019776068E+03  0.00000000000E+00 0. -1.
         22    1    3    3    0    0 -0.14464980808E+02  0.72330498751E+01  0.24446595332E+02  0.29311920845E+02  0.00000000000E+00 0.  1.
         22    1    3    3    0    0  0.55753403181E+01  0.94036274995E+02 -0.14087644991E+03  0.16946999608E+03  0.00000000000E+00 0.  1.
</event>
<event>
 7    1  0.7459264E-005  0.6702588E+03  0.7818608E-02  0.1173680E+00
          2   -1    0    0  502    0  0.00000000000E+00  0.00000000000E+00  0.30285826602E+04  0.30285826602E+04  0.00000000000E+00 0. -1.
          1   -1    0    0  501    0 -0.00000000000E+00 -0.00000000000E+00 -0.37462632133E+03  0.37462632133E+03  0.00000000000E+00 0. -1.
         25    2    1    2    0    0  0.71793203380E+02 -0.67277440527E+03  0.12323655498E+04  0.14114273199E+04  0.12499026614E+03 0.  0.
          2    1    1    2  501    0 -0.26826573876E+02  0.66817700766E+03  0.10796067535E+03  0.67737411085E+03  0.00000000000E+00 0. -1.
          1    1    1    2  502    0 -0.44966629505E+02  0.45973976089E+01  0.13136301137E+04  0.13144075508E+04  0.00000000000E+00 0. -1.
         22    1    3    3    0    0  0.11555282930E+01 -0.12332185556E+03  0.13966354961E+03  0.18632101973E+03  0.00000000000E+00 0. -1.
         22    1    3    3    0    0  0.70637675087E+02 -0.54945254971E+03  0.10927020002E+04  0.12251063002E+04  0.00000000000E+00 0. -1.
</event>
<event>
 7    1  0.7459264E-005  0.2158513E+03  0.7818608E-02  0.1197766E+00
          2   -1    0    0  502    0  0.00000000000E+00  0.00000000000E+00  0.37084054644E+04  0.37084054644E+04  0.00000000000E+00 0. -1.
          1   -1    0    0  501    0 -0.00000000000E+00 -0.00000000000E+00 -0.30571087563E+03  0.30571087563E+03  0.00000000000E+00 0. -1.
         25    2    1    2    0    0 -0.84506465491E+02 -0.26059294377E+03  0.17852577822E+04  0.18104756074E+04  0.12500620450E+03 0.  0.
          2    1    1    2  501    0 -0.31683019491E+02  0.10257117639E+03 -0.27803882771E+03  0.29804403981E+03  0.00000000000E+00 0. -1.
          1    1    1    2  502    0  0.11618948498E+03  0.15802176738E+03  0.18954756343E+04  0.19055966928E+04  0.00000000000E+00 0. -1.
         22    1    3    3    0    0 -0.10314298959E+03 -0.23649350340E+03  0.13687184013E+04  0.13928236484E+04  0.00000000000E+00 0. -1.
         22    1    3    3    0    0  0.18636524098E+02 -0.24099440374E+02  0.41653938089E+03  0.41765195904E+03  0.00000000000E+00 0. -1.
</event>
<event>
 7    1  0.7459264E-005  0.3525125E+03  0.7818608E-02  0.1194190E+00
          2   -1    0    0  502    0  0.00000000000E+00  0.00000000000E+00  0.11048037822E+04  0.11048037822E+04  0.00000000000E+00 0. -1.
          1   -1    0    0  501    0 -0.00000000000E+00 -0.00000000000E+00 -0.10925801730E+04  0.10925801730E+04  0.00000000000E+00 0. -1.
         25    2    1    2    0    0  0.23849761057E+03  0.32664340986E+03  0.11403266360E+03  0.43841261814E+03  0.12500059168E+03 0.  0.
          2    1    1    2  501    0 -0.57285916975E+02 -0.37293496918E+02 -0.89386093078E+03  0.89647077184E+03  0.00000000000E+00 0. -1.
          1    1    1    2  502    0 -0.18121169360E+03 -0.28934991294E+03  0.79205187644E+03  0.86250056521E+03  0.00000000000E+00 0. -1.
         22    1    3    3    0    0  0.22896857997E+03  0.25705512178E+03  0.59179981264E+02  0.34929388262E+03  0.00000000000E+00 0.  1.
         22    1    3    3    0    0  0.95290305989E+01  0.69588288075E+02  0.54852682339E+02  0.89118735523E+02  0.00000000000E+00 0.  1.
</event>
<event>
 7    1  0.7459264E-005  0.1214035E+03  0.7818608E-02  0.1256428E+00
          2   -1    0    0  502    0  0.00000000000E+00  0.00000000000E+00  0.17520092711E+04  0.17520092711E+04  0.00000000000E+00 0. -1.
          1   -1    0    0  501    0 -0.00000000000E+00 -0.00000000000E+00 -0.32464496158E+03  0.32464496158E+03  0.00000000000E+00 0. -1.
         25    2    1    2    0    0 -0.88212370291E+02 -0.17201281752E+03  0.62729520037E+03  0.66820200796E+03  0.12499929345E+03 0.  0.
          2    1    1    2  501    0  0.98937006455E+02  0.68749972563E+02 -0.28969776929E+03  0.31375131475E+03  0.00000000000E+00 0. -1.
          1    1    1    2  502    0 -0.10724636164E+02  0.10326284496E+03  0.10897668784E+04  0.10947009100E+04  0.00000000000E+00 0. -1.
         22    1    3    3    0    0 -0.11951096327E+03 -0.11945853907E+03  0.46726084585E+03  0.49687615254E+03  0.00000000000E+00 0. -1.
         22    1    3    3    0    0  0.31298592983E+02 -0.52554278451E+02  0.16003435452E+03  0.17132585541E+03  0.00000000000E+00 0. -1.
</event>
<event>
 7    1  0.7459264E-005  0.7142733E+02  0.7818608E-02  0.1402632E+00
          2   -1    0    0  502    0  0.00000000000E+00  0.00000000000E+00  0.41241784942E+03  0.41241784942E+03  0.00000000000E+00 0. -1.
          1   -1    0    0  501    0 -0.00000000000E+00 -0.00000000000E+00 -0.11187494096E+04  0.11187494096E+04  0.00000000000E+00 0. -1.
         25    2    1    2    0    0  0.46874250333E+02  0.64241885556E+02  0.30139341302E+03  0.33583390613E+03  0.12498883106E+03 0.  0.
          2    1    1    2  501    0 -0.47916547502E+02  0.76402726138E+01 -0.10871343746E+04  0.10882166685E+04  0.00000000000E+00 0. -1.
          1    1    1    2  502    0  0.10422971695E+01 -0.71882158170E+02  0.79409401359E+02  0.10711668437E+03  0.00000000000E+00 0. -1.
         22    1    3    3    0    0 -0.29471993705E+01  0.75012361866E+02  0.25861217480E+03  0.26928757374E+03  0.00000000000E+00 0.  1.
         22    1    3    3    0    0  0.49821449703E+02 -0.10770476310E+02  0.42781238213E+02  0.66546332382E+02  0.00000000000E+00 0.  1.
</event>
<event>
 7    1  0.1050384E-004  0.1555102E+03  0.7818608E-02  0.1391034E+00
          2   -1    0    0  502    0  0.00000000000E+00  0.00000000000E+00  0.21891052075E+04  0.21891052075E+04  0.00000000000E+00 0. -1.
          1   -1    0    0  501    0 -0.00000000000E+00 -0.00000000000E+00 -0.29229675556E+04  0.29229675556E+04  0.00000000000E+00 0. -1.
         25    2    1    2    0    0 -0.17545681887E+03 -0.36516714508E+02 -0.17235251574E+04  0.17373205713E+04  0.12500093310E+03 0.  0.
          2    1    1    2  501    0  0.22238430385E+02  0.10138466065E+02 -0.11896498392E+04  0.11899008682E+04  0.00000000000E+00 0. -1.
          1    1    1    2  502    0  0.15321838848E+03  0.26378248442E+02  0.21793126485E+04  0.21848513237E+04  0.00000000000E+00 0. -1.
         22    1    3    3    0    0 -0.55480310620E+02  0.14892780573E+02 -0.19643153765E+03  0.20465876176E+03  0.00000000000E+00 0. -1.
         22    1    3    3    0    0 -0.11997650825E+03 -0.51409495081E+02 -0.15270936198E+04  0.15326618095E+04  0.00000000000E+00 0. -1.
</event>
<event>
 7    1  0.7459264E-005  0.2419700E+03  0.7818608E-02  0.1190614E+00
          2   -1    0    0  502    0  0.00000000000E+00  0.00000000000E+00  0.81250135801E+03  0.81250135801E+03  0.00000000000E+00 0. -1.
          1   -1    0    0  501    0 -0.00000000000E+00 -0.00000000000E+00 -0.12834166455E+04  0.12834166455E+04  0.00000000000E+00 0. -1.
         25    2    1    2    0    0 -0.19159040001E+03  0.27242445895E+03  0.23585258803E+03  0.42681916224E+03  0.12500474698E+03 0.  0.
          2    1    1    2  501    0  0.16542784443E+03 -0.17220305008E+03 -0.11701577649E+04  0.11942736105E+04  0.00000000000E+00 0. -1.
          1    1    1    2  502    0  0.26162555580E+02 -0.10022140887E+03  0.46338988939E+03  0.47482523069E+03  0.00000000000E+00 0. -1.
         22    1    3    3    0    0 -0.39193329542E+01  0.50580532549E+02 -0.27867994447E+01  0.50808637995E+02  0.00000000000E+00 0. -1.
         22    1    3    3    0    0 -0.18767106705E+03  0.22184392640E+03  0.23863938747E+03  0.37601052425E+03  0.00000000000E+00 0. -1.
</event>
<event>
 7    1  0.7459264E-005  0.1463284E+03  0.7818608E-02  0.1234873E+00
          2   -1    0    0  502    0  0.00000000000E+00  0.00000000000E+00  0.10391620034E+03  0.10391620034E+03  0.00000000000E+00 0. -1.
          1   -1    0    0  501    0 -0.00000000000E+00 -0.00000000000E+00 -0.94201223336E+03  0.94201223336E+03  0.00000000000E+00 0. -1.
         25    2    1    2    0    0  0.15602017050E+03 -0.17105789250E+03 -0.12237369827E+03  0.29017701867E+03  0.12499713575E+03 0.  0.
          2    1    1    2  501    0 -0.61546953609E+02  0.12082983771E+03 -0.38928829797E+03  0.41222961576E+03  0.00000000000E+00 0. -1.
          1    1    1    2  502    0 -0.94473216895E+02  0.50228054788E+02 -0.32643403678E+03  0.34352179926E+03  0.00000000000E+00 0. -1.
         22    1    3    3    0    0  0.60936589526E+02 -0.88014589344E+02  0.96808244183E+01  0.10748746086E+03  0.00000000000E+00 0.  1.
         22    1    3    3    0    0  0.95083580978E+02 -0.83043303157E+02 -0.13205452269E+03  0.18268955781E+03  0.00000000000E+00 0.  1.
</event>
<event>
 7    1  0.7459264E-005  0.3964055E+03  0.7818608E-02  0.1168490E+00
          2   -1    0    0  502    0  0.00000000000E+00  0.00000000000E+00  0.15935250749E+04  0.15935250749E+04  0.00000000000E+00 0. -1.
          1   -1    0    0  501    0 -0.00000000000E+00 -0.00000000000E+00 -0.98170805779E+03  0.98170805779E+03  0.00000000000E+00 0. -1.
         25    2    1    2    0    0  0.39926450640E+03  0.77093196086E+02 -0.38617244960E+03  0.57455198798E+03  0.12500127642E+03 0.  0.
          2    1    1    2  501    0 -0.39164445748E+03  0.36411840434E+01 -0.42352009514E+03  0.57686039064E+03  0.00000000000E+00 0. -1.
          1    1    1    2  502    0 -0.76200489239E+01 -0.80734380129E+02  0.14215095618E+04  0.14238207541E+04  0.00000000000E+00 0. -1.
         22    1    3    3    0    0  0.31708222776E+03  0.83864591258E+02 -0.36229351710E+03  0.48870338791E+03  0.00000000000E+00 0. -1.
         22    1    3    3    0    0  0.82182278649E+02 -0.67713951725E+01 -0.23878932502E+02  0.85848600069E+02  0.00000000000E+00 0. -1.
</event>
<event>
 7    1  0.7459264E-005  0.1717034E+03  0.7818608E-02  0.1257334E+00
          2   -1    0    0  502    0  0.00000000000E+00  0.00000000000E+00  0.18308259550E+04  0.18308259550E+04  0.00000000000E+00 0. -1.
          1   -1    0    0  501    0 -0.00000000000E+00 -0.00000000000E+00 -0.98930373408E+03  0.98930373408E+03  0.00000000000E+00 0. -1.
         25    2    1    2    0    0  0.12974901675E+03 -0.34379140227E+02  0.46405344977E+01  0.18347341655E+03  0.12499690953E+03 0.  0.
          2    1    1    2  501    0  0.42531089280E+02  0.59024171046E+02 -0.89404623183E+03  0.89700134391E+03  0.00000000000E+00 0. -1.
          1    1    1    2  502    0 -0.17228010603E+03 -0.24645030818E+02  0.17309279183E+04  0.17396549286E+04  0.00000000000E+00 0. -1.
         22    1    3    3    0    0  0.41739573982E+02  0.43316639709E+02  0.23478310034E+02  0.64573635130E+02  0.00000000000E+00 0. -1.
         22    1    3    3    0    0  0.88009442765E+02 -0.77695779936E+02 -0.18837775536E+02  0.11889978142E+03  0.00000000000E+00 0. -1.
</event>
<event>
 7    1  0.7459264E-005  0.4701644E+03  0.7818608E-02  0.1168745E+00
          2   -1    0    0  502    0  0.00000000000E+00  0.00000000000E+00  0.10148995056E+04  0.10148995056E+04  0.00000000000E+00 0. -1.
          1   -1    0    0  501    0 -0.00000000000E+00 -0.00000000000E+00 -0.31463013097E+04  0.31463013097E+04  0.00000000000E+00 0. -1.
         25    2    1    2    0    0  0.17116364478E+03 -0.45533563925E+03 -0.39435150151E+03  0.63856596590E+03  0.12500339352E+03 0.  0.
          2    1    1    2  501    0 -0.22326549195E+03  0.41137231263E+03 -0.26076737274E+04  0.26493465096E+04  0.00000000000E+00 0. -1.
          1    1    1    2  502    0  0.52101847171E+02  0.43963326619E+02  0.87062342482E+03  0.87328833979E+03  0.00000000000E+00 0. -1.
         22    1    3    3    0    0  0.71482763538E+01 -0.14908541629E+03 -0.16388798181E+03  0.22166828774E+03  0.00000000000E+00 0. -1.
         22    1    3    3    0    0  0.16401536843E+03 -0.30625022296E+03 -0.23046351970E+03  0.41689767816E+03  0.00000000000E+00 0. -1.
</event>
<event>
 7    1  0.7459264E-005  0.1311002E+03  0.7818608E-02  0.1257390E+00
          2   -1    0    0  502    0  0.00000000000E+00  0.00000000000E+00  0.12509775953E+04  0.12509775953E+04  0.00000000000E+00 0. -1.
          1   -1    0    0  501    0 -0.00000000000E+00 -0.00000000000E+00 -0.22585529105E+03  0.22585529105E+03  0.00000000000E+00 0. -1.
         25    2    1    2    0    0 -0.16170701814E+03 -0.11227162783E+03  0.23924492451E+03  0.33409160191E+03  0.12499994573E+03 0.  0.
          2    1    1    2  501    0  0.66563917793E+02  0.10818408129E+03 -0.15310825188E+03  0.19893890366E+03  0.00000000000E+00 0. -1.
          1    1    1    2  502    0  0.95143100349E+02  0.40875465433E+01  0.93898563163E+03  0.94380238080E+03  0.00000000000E+00 0. -1.
         22    1    3    3    0    0 -0.16835811759E+03 -0.11992286637E+03  0.18032142076E+03  0.27430232304E+03  0.00000000000E+00 0. -1.
         22    1    3    3    0    0  0.66510994496E+01  0.76512385334E+01  0.58923503744E+02  0.59789278876E+02  0.00000000000E+00 0. -1.
</event>
<event>
 7    1  0.7459264E-005  0.2155199E+03  0.7818608E-02  0.1248596E+00
          2   -1    0    0  502    0  0.00000000000E+00  0.00000000000E+00  0.24677280690E+04  0.24677280690E+04  0.00000000000E+00 0. -1.
          1   -1    0    0  501    0 -0.00000000000E+00 -0.00000000000E+00 -0.57706916549E+03  0.57706916549E+03  0.00000000000E+00 0. -1.
         25    2    1    2    0    0  0.44322228809E+02 -0.18282979678E+03  0.32848849173E+03  0.39865872314E+03  0.12503157111E+03 0.  0.
          2    1    1    2  501    0  0.62297004482E+02 -0.10766843380E+02 -0.53431164014E+03  0.53803881874E+03  0.00000000000E+00 0. -1.
          1    1    1    2  502    0 -0.10661923329E+03  0.19359664016E+03  0.20964820519E+04  0.21080996926E+04  0.00000000000E+00 0. -1.
         22    1    3    3    0    0  0.17982967689E+02 -0.18058922218E+03  0.32467057773E+03  0.37195004817E+03  0.00000000000E+00 0. -1.
         22    1    3    3    0    0  0.26339261120E+02 -0.22405745964E+01  0.38179140082E+01  0.26708674962E+02  0.00000000000E+00 0. -1.
</event>
<event>
 7    1  0.7459264E-005  0.5711668E+02  0.7818608E-02  0.1435590E+00
          2   -1    0    0  502    0  0.00000000000E+00  0.00000000000E+00  0.12668649493E+04  0.12668649493E+04  0.00000000000E+00 0. -1.
          1   -1    0    0  501    0 -0.00000000000E+00 -0.00000000000E+00 -0.30843065754E+02  0.30843065754E+02  0.00000000000E+00 0. -1.
         25    2    1    2    0    0  0.51186735135E+01  0.97459087374E+02  0.27700203578E+03  0.31918809664E+03  0.12500575457E+03 0.  0.
          2    1    1    2  501    0  0.13600170984E+02 -0.45069199553E+02  0.53381174416E+02  0.71174062559E+02  0.00000000000E+00 0. -1.
          1    1    1    2  502    0 -0.18718844497E+02 -0.52389887821E+02  0.90563867336E+03  0.90734585587E+03  0.00000000000E+00 0. -1.
         22    1    3    3    0    0  0.48190309634E+02  0.91670647389E+02  0.24253175898E+03  0.26371853869E+03  0.00000000000E+00 0. -1.
         22    1    3    3    0    0 -0.43071636121E+02  0.57884399852E+01  0.34470276800E+02  0.55469557942E+02  0.00000000000E+00 0. -1.
</event>
<event>
 7    1  0.7459264E-005  0.3805320E+03  0.7818608E-02  0.1117107E+00
          2   -1    0    0  502    0  0.00000000000E+00  0.00000000000E+00  0.54505839245E+03  0.54505839245E+03  0.00000000000E+00 0. -1.
          1   -1    0    0  501    0 -0.00000000000E+00 -0.00000000000E+00 -0.12604888714E+04  0.12604888714E+04  0.00000000000E+00 0. -1.
         25    2    1    2    0    0 -0.92868732050E+02  0.40871674033E+03 -0.99371481735E+03  0.10857104404E+04  0.12499618799E+03 0.  0.
          2    1    1    2  501    0 -0.17804343295E+02 -0.29799319027E+03 -0.96447719804E+02  0.31371818363E+03  0.00000000000E+00 0. -1.
          1    1    1    2  502    0  0.11067307534E+03 -0.11072355006E+03  0.37473205820E+03  0.40611863980E+03  0.00000000000E+00 0. -1.
         22    1    3    3    0    0 -0.69371387356E+01  0.10358283619E+03 -0.39303449757E+03  0.40651401467E+03  0.00000000000E+00 0.  1.
         22    1    3    3    0    0 -0.85931593314E+02  0.30513390413E+03 -0.60068031978E+03  0.67919642575E+03  0.00000000000E+00 0.  1.
</event>
<event>
 7    1  0.7459264E-005  0.9571243E+02  0.7818608E-02  0.1392056E+00
          2   -1    0    0  502    0  0.00000000000E+00  0.00000000000E+00  0.44095230766E+03  0.44095230766E+03  0.00000000000E+00 0. -1.
          1   -1    0    0  501    0 -0.00000000000E+00 -0.00000000000E+00 -0.17149098549E+03  0.17149098549E+03  0.00000000000E+00 0. -1.
         25    2    1    2    0    0 -0.66547069992E+02 -0.59764579479E+02  0.10168207429E+03  0.18429495681E+03  0.12500027755E+03 0.  0.
          2    1    1    2  501    0  0.92595580866E+02  0.30222248158E+02 -0.11038200614E+03  0.14721247624E+03  0.00000000000E+00 0. -1.
          1    1    1    2  502    0 -0.26048510874E+02  0.29542331321E+02  0.27816125401E+03  0.28093586010E+03  0.00000000000E+00 0. -1.
         22    1    3    3    0    0 -0.84447616282E+02 -0.85686715961E+02  0.91632240197E+02  0.15122857082E+03  0.00000000000E+00 0. -1.
         22    1    3    3    0    0  0.17900546290E+02  0.25922136482E+02  0.10049834098E+02  0.33066385994E+02  0.00000000000E+00 0. -1.
</event>
<event>
 7    1  0.7459264E-005  0.6477609E+03  0.7818608E-02  0.1179101E+00
          2   -1    0    0  502    0  0.00000000000E+00  0.00000000000E+00  0.21915568591E+04  0.21915568591E+04  0.00000000000E+00 0. -1.
          1   -1    0    0  501    0 -0.00000000000E+00 -0.00000000000E+00 -0.10090026159E+04  0.10090026159E+04  0.00000000000E+00 0. -1.
         25    2    1    2    0    0 -0.38351985244E+03 -0.51313436429E+03  0.17201663085E+04  0.18398345259E+04  0.12499840324E+03 0.  0.
          2    1    1    2  501    0 -0.11381814810E+02 -0.42491441166E+02 -0.66568158655E+03  0.66713345213E+03  0.00000000000E+00 0. -1.
          1    1    1    2  502    0  0.39490166725E+03  0.55562580546E+03  0.12806952124E+03  0.69359149703E+03  0.00000000000E+00 0. -1.
         22    1    3    3    0    0 -0.37062248910E+03 -0.43720867953E+03  0.15638928639E+04  0.16656150061E+04  0.00000000000E+00 0. -1.
         22    1    3    3    0    0 -0.12897363336E+02 -0.75925684758E+02  0.15627344464E+03  0.17421951982E+03  0.00000000000E+00 0. -1.
</event>
<event>
 7    1  0.7459264E-005  0.1281549E+03  0.7818608E-02  0.1301867E+00
          2   -1    0    0  502    0  0.00000000000E+00  0.00000000000E+00  0.13475737086E+03  0.13475737086E+03  0.00000000000E+00 0. -1.
          1   -1    0    0  501    0 -0.00000000000E+00 -0.00000000000E+00 -0.50211775603E+03  0.50211775603E+03  0.00000000000E+00 0. -1.
         25    2    1    2    0    0  0.18338406075E+03 -0.13153726098E+01 -0.66621714145E+02  0.23172405070E+03  0.12500455566E+03 0.  0.
          2    1    1    2  501    0 -0.12044983175E+03 -0.90310973256E+01 -0.31708382802E+03  0.33931088500E+03  0.00000000000E+00 0. -1.
          1    1    1    2  502    0 -0.62934228991E+02  0.10346469935E+02  0.16345156988E+02  0.65840191189E+02  0.00000000000E+00 0. -1.
         22    1    3    3    0    0  0.75964114555E+02  0.90747287856E+01  0.34414743930E+02  0.83888449756E+02  0.00000000000E+00 0.  1.
         22    1    3    3    0    0  0.10741994619E+03 -0.10390101395E+02 -0.10103645807E+03  0.14783560094E+03  0.00000000000E+00 0.  1.
</event>
<event>
 7    1  0.7459264E-005  0.9119257E+02  0.7818608E-02  0.1402400E+00
          2   -1    0    0  502    0  0.00000000000E+00  0.00000000000E+00  0.19729954644E+04  0.19729954644E+04  0.00000000000E+00 0. -1.
          1   -1    0    0  501    0 -0.00000000000E+00 -0.00000000000E+00 -0.26772127500E+02  0.26772127500E+02  0.00000000000E+00 0. -1.
         25    2    1    2    0    0  0.51594654518E+02  0.79950040078E+02  0.75477255639E+03  0.77094693989E+03  0.12499421970E+03 0.  0.
          2    1    1    2  501    0 -0.36585102690E+02  0.10546356976E+02  0.45107634831E+01  0.38341131589E+02  0.00000000000E+00 0. -1.
          1    1    1    2  502    0 -0.15009551827E+02 -0.90496397054E+02  0.11869400170E+04  0.11904795204E+04  0.00000000000E+00 0. -1.
         22    1    3    3    0    0  0.17059142361E+02  0.86348514114E+01  0.56464561622E+03  0.56496924422E+03  0.00000000000E+00 0. -1.
         22    1    3    3    0    0  0.34535512157E+02  0.71315188667E+02  0.19012694017E+03  0.20597769567E+03  0.00000000000E+00 0. -1.
</event>
<event>
 7    1  0.7459264E-005  0.7114339E+03  0.7818608E-02  0.1215960E+00
          2   -1    0    0  502    0  0.00000000000E+00  0.00000000000E+00  0.20657845399E+04  0.20657845399E+04  0.00000000000E+00 0. -1.
          1   -1    0    0  501    0 -0.00000000000E+00 -0.00000000000E+00 -0.21712554895E+04  0.21712554895E+04  0.00000000000E+00 0. -1.
         25    2    1    2    0    0  0.27655098937E+03  0.67753481258E+03  0.11091674815E+04  0.13346957015E+04  0.12500496588E+03 0.  0.
          2    1    1    2  501    0 -0.25367557919E+03 -0.66358612108E+03 -0.19969605937E+04  0.21195635052E+04  0.00000000000E+00 0. -1.
          1    1    1    2  502    0 -0.22875410177E+02 -0.13948691502E+02  0.78232216264E+03  0.78278082280E+03  0.00000000000E+00 0. -1.
         22    1    3    3    0    0  0.11364876118E+03  0.43603077426E+03  0.64973229655E+03  0.79069016321E+03  0.00000000000E+00 0.  1.
         22    1    3    3    0    0  0.16290222818E+03  0.24150403832E+03  0.45943518496E+03  0.54400553826E+03  0.00000000000E+00 0.  1.
</event>
<event>
 7    1  0.1113428E-004  0.1754164E+03  0.7818608E-02  0.1295719E+00
          2   -1    0    0  502    0  0.00000000000E+00  0.00000000000E+00  0.10981330789E+04  0.10981330789E+04  0.00000000000E+00 0. -1.
          1   -1    0    0  501    0 -0.00000000000E+00 -0.00000000000E+00 -0.18719941420E+04  0.18719941420E+04  0.00000000000E+00 0. -1.
         25    2    1    2    0    0  0.13646899838E+03  0.11707320740E+02 -0.60221980328E+03  0.63012113765E+03  0.12499243084E+03 0.  0.
          2    1    1    2  501    0  0.32522952908E+02  0.37073680190E+02 -0.12481995980E+04  0.12491735015E+04  0.00000000000E+00 0. -1.
          1    1    1    2  502    0 -0.16899195129E+03 -0.48781000930E+02  0.10765583382E+04  0.10908325817E+04  0.00000000000E+00 0. -1.
         22    1    3    3    0    0  0.25922653571E+02  0.51111780844E+02 -0.30932048063E+03  0.31458473874E+03  0.00000000000E+00 0.  1.
         22    1    3    3    0    0  0.11054634481E+03 -0.39404460104E+02 -0.29289932265E+03  0.31553639891E+03  0.00000000000E+00 0.  1.
</event>
<event>
 7    1  0.7459264E-005  0.2325345E+03  0.7818608E-02  0.1199510E+00
          2   -1    0    0  502    0  0.00000000000E+00  0.00000000000E+00  0.76694208824E+03  0.76694208824E+03  0.00000000000E+00 0. -1.
          1   -1    0    0  501    0 -0.00000000000E+00 -0.00000000000E+00 -0.39973030264E+03  0.39973030264E+03  0.00000000000E+00 0. -1.
         25    2    1    2    0    0  0.27771004336E+03 -0.12065641076E+03  0.35970283791E+03  0.48650921812E+03  0.12499700025E+03 0.  0.
          2    1    1    2  501    0 -0.18119039231E+03  0.13628675442E+03 -0.28936115035E+03  0.36760564879E+03  0.00000000000E+00 0. -1.
          1    1    1    2  502    0 -0.96519651060E+02 -0.15630343662E+02  0.29687009803E+03  0.31255752397E+03  0.00000000000E+00 0. -1.
         22    1    3    3    0    0  0.15060558707E+03 -0.26801902313E+00  0.19259015726E+03  0.24448534387E+03  0.00000000000E+00 0.  1.
         22    1    3    3    0    0  0.12710445629E+03 -0.12038839174E+03  0.16711268065E+03  0.24202387426E+03  0.00000000000E+00 0.  1.
</event>
<event>
 7    1  0.7459264E-005  0.6213020E+03  0.7818608E-02  0.1130826E+00
          2   -1    0    0  502    0  0.00000000000E+00  0.00000000000E+00  0.16457697875E+04  0.16457697875E+04  0.00000000000E+00 0. -1.
          1   -1    0    0  501    0 -0.00000000000E+00 -0.00000000000E+00 -0.72406723253E+03  0.72406723253E+03  0.00000000000E+00 0. -1.
         25    2    1    2    0    0  0.57258382193E+03 -0.15050815861E+03 -0.17392877057E+03  0.62958818985E+03  0.12500053049E+03 0.  0.
          2    1    1    2  501    0 -0.63484550601E+03  0.20211349655E+03  0.25149386771E+02  0.66671671169E+03  0.00000000000E+00 0. -1.
          1    1    1    2  502    0  0.62261684085E+02 -0.51605337942E+02  0.10704819388E+04  0.10735321185E+04  0.00000000000E+00 0. -1.
         22    1    3    3    0    0  0.34903281204E+02 -0.34458386850E+02 -0.40419251709E+02  0.63555765843E+02  0.00000000000E+00 0. -1.
         22    1    3    3    0    0  0.53768054073E+03 -0.11604977176E+03 -0.13350951886E+03  0.56603242401E+03  0.00000000000E+00 0. -1.
</event>
<event>
 7    1  0.7459264E-005  0.5363689E+03  0.7818608E-02  0.1260636E+00
          2   -1    0    0  502    0  0.00000000000E+00  0.00000000000E+00  0.39946090997E+03  0.39946090997E+03  0.00000000000E+00 0. -1.
          1   -1    0    0  501    0 -0.00000000000E+00 -0.00000000000E+00 -0.17311343767E+04  0.17311343767E+04  0.00000000000E+00 0. -1.
         25    2    1    2    0    0 -0.45089509659E+03 -0.29371682847E+03 -0.87837528914E+03  0.10376628683E+04  0.12500046497E+03 0.  0.
          2    1    1    2  501    0  0.14358310229E+02 -0.17380738002E+02 -0.54810322846E+03  0.54856667796E+03  0.00000000000E+00 0. -1.
          1    1    1    2  502    0  0.43653678636E+03  0.31109756647E+03  0.94805050825E+02  0.54436574045E+03  0.00000000000E+00 0. -1.
         22    1    3    3    0    0 -0.69750977069E+02 -0.10494989028E+03 -0.17411588195E+03  0.21493259087E+03  0.00000000000E+00 0.  1.
         22    1    3    3    0    0 -0.38114411952E+03 -0.18876693819E+03 -0.70425940719E+03  0.82273027744E+03  0.00000000000E+00 0.  1.
</event>
<event>
 7    1  0.7459264E-005  0.8922044E+02  0.7818608E-02  0.1391618E+00
          2   -1    0    0  502    0  0.00000000000E+00  0.00000000000E+00  0.45234754355E+03  0.45234754355E+03  0.00000000000E+00 0. -1.
          1   -1    0    0  501    0 -0.00000000000E+00 -0.00000000000E+00 -0.17035302357E+04  0.17035302357E+04  0.00000000000E+00 0. -1.
         25    2    1    2    0    0 -0.45438647225E+02 -0.15280996225E+02 -0.15164432836E+03  0.20228406005E+03  0.12499863646E+03 0.  0.
          2    1    1    2  501    0 -0.39917963135E+02 -0.14295911325E+02 -0.15214898616E+04  0.15220805550E+04  0.00000000000E+00 0. -1.
          1    1    1    2  502    0  0.85356610360E+02  0.29576907549E+02  0.42195149782E+03  0.43151316423E+03  0.00000000000E+00 0. -1.
         22    1    3    3    0    0 -0.33411532764E+02  0.51845203618E+02 -0.96758978176E+02  0.11474561219E+03  0.00000000000E+00 0.  1.
         22    1    3    3    0    0 -0.12027114461E+02 -0.67126199843E+02 -0.54885350188E+02  0.87538447855E+02  0.00000000000E+00 0.  1.
</event>
<event>
 7    1  0.7459264E-005  0.1445837E+03  0.7818608E-02  0.1268115E+00
          2   -1    0    0  502    0  0.00000000000E+00  0.00000000000E+00  0.19231311775E+03  0.19231311775E+03  0.00000000000E+00 0. -1.
          1   -1    0    0  501    0 -0.00000000000E+00 -0.00000000000E+00 -0.18576891094E+04  0.18576891094E+04  0.00000000000E+00 0. -1.
         25    2    1    2    0    0 -0.28680906347E+02 -0.17786383010E+03 -0.14643123137E+04  0.14806396284E+04  0.12500008282E+03 0.  0.
          2    1    1    2  501    0 -0.10317477734E+02  0.11060360995E+03 -0.36843381813E+03  0.38481565356E+03  0.00000000000E+00 0. -1.
          1    1    1    2  502    0  0.38998384081E+02  0.67260220148E+02  0.16737014015E+03  0.18454694521E+03  0.00000000000E+00 0. -1.
         22    1    3    3    0    0 -0.38801112210E+02 -0.12515184208E+03 -0.13230721051E+04  0.13295443976E+04  0.00000000000E+00 0. -1.
         22    1    3    3    0    0  0.10120205863E+02 -0.52711988019E+02 -0.14124020858E+03  0.15109523079E+03  0.00000000000E+00 0. -1.
</event>
<event>
 7    1  0.7459264E-005  0.1190487E+04  0.7818608E-02  0.1051187E+00
          2   -1    0    0  502    0  0.00000000000E+00  0.00000000000E+00  0.24594914525E+04  0.24594914525E+04  0.00000000000E+00 0. -1.
          1   -1    0    0  501    0 -0.00000000000E+00 -0.00000000000E+00 -0.91142723819E+03  0.91142723819E+03  0.00000000000E+00 0. -1.
         25    2    1    2    0    0 -0.63635097844E+03  0.10742052955E+04  0.10140504314E+04  0.16133144652E+04  0.12500280692E+03 0.  0.
          2    1    1    2  501    0  0.22123116109E+02 -0.11881576746E+03 -0.31641135746E+03  0.33870749327E+03  0.00000000000E+00 0. -1.
          1    1    1    2  502    0  0.61422786233E+03 -0.95538952804E+03  0.85042514038E+03  0.14188967322E+04  0.00000000000E+00 0. -1.
         22    1    3    3    0    0 -0.47739552319E+03  0.83686978781E+03  0.84416433279E+03  0.12809648504E+04  0.00000000000E+00 0.  1.
         22    1    3    3    0    0 -0.15895545525E+03  0.23733550770E+03  0.16988609859E+03  0.33234961481E+03  0.00000000000E+00 0.  1.
</event>
<event>
 7    1  0.7459264E-005  0.1043846E+03  0.7818608E-02  0.1397142E+00
          2   -1    0    0  502    0  0.00000000000E+00  0.00000000000E+00  0.30632099546E+03  0.30632099546E+03  0.00000000000E+00 0. -1.
          1   -1    0    0  501    0 -0.00000000000E+00 -0.00000000000E+00 -0.41115332209E+03  0.41115332209E+03  0.00000000000E+00 0. -1.
         25    2    1    2    0    0 -0.50556163195E+02  0.96498263676E+02  0.54370952967E+02  0.17450092498E+03  0.12500612691E+03 0.  0.
          2    1    1    2  501    0  0.75378032664E+02 -0.72282736377E+02 -0.34165260990E+03  0.35725781676E+03  0.00000000000E+00 0. -1.
          1    1    1    2  502    0 -0.24821869469E+02 -0.24215527299E+02  0.18244933031E+03  0.18571557580E+03  0.00000000000E+00 0. -1.
         22    1    3    3    0    0 -0.35260960950E+02  0.11166911081E+03  0.79395119639E+02  0.14148113195E+03  0.00000000000E+00 0. -1.
         22    1    3    3    0    0 -0.15295202245E+02 -0.15170847130E+02 -0.25024166671E+02  0.33019793033E+02  0.00000000000E+00 0. -1.
</event>
<event>
 7    1  0.7459264E-005  0.1633164E+03  0.7818608E-02  0.1207192E+00
          2   -1    0    0  502    0  0.00000000000E+00  0.00000000000E+00  0.10151221199E+04  0.10151221199E+04  0.00000000000E+00 0. -1.
          1   -1    0    0  501    0 -0.00000000000E+00 -0.00000000000E+00 -0.54665636725E+03  0.54665636725E+03  0.00000000000E+00 0. -1.
         25    2    1    2    0    0  0.77147552648E+01  0.26698761999E+03  0.11197334035E+03  0.31542831115E+03  0.12496032910E+03 0.  0.
          2    1    1    2  501    0  0.45231893728E+02 -0.11988696095E+03 -0.42782562630E+03  0.44660225496E+03  0.00000000000E+00 0. -1.
          1    1    1    2  502    0 -0.52946648993E+02 -0.14710065904E+03  0.78431803859E+03  0.79974792103E+03  0.00000000000E+00 0. -1.
         22    1    3    3    0    0  0.57021332731E+02  0.69498163159E+02  0.20166680191E+02  0.92131004873E+02  0.00000000000E+00 0. -1.
         22    1    3    3    0    0 -0.49306577466E+02  0.19748945683E+03  0.91806660163E+02  0.22329730628E+03  0.00000000000E+00 0. -1.
</event>
<event>
 7    1  0.7459264E-005  0.2499692E+03  0.7818608E-02  0.1270499E+00
          2   -1    0    0  502    0  0.00000000000E+00  0.00000000000E+00  0.70437507950E+03  0.70437507950E+03  0.00000000000E+00 0. -1.
          1   -1    0    0  501    0 -0.00000000000E+00 -0.00000000000E+00 -0.17146996082E+04  0.17146996082E+04  0.00000000000E+00 0. -1.
         25    2    1    2    0    0 -0.10499018423E+03  0.26166384926E+03 -0.58672373373E+02  0.31393958058E+03  0.12499881625E+03 0.  0.
          2    1    1    2  501    0 -0.74889266777E+01 -0.43301133891E+02 -0.15019047918E+04  0.15025475287E+04  0.00000000000E+00 0. -1.
          1    1    1    2  502    0  0.11247911091E+03 -0.21836271537E+03  0.55025263644E+03  0.60258757850E+03  0.00000000000E+00 0. -1.
         22    1    3    3    0    0 -0.85548908596E+02  0.14915800383E+03  0.23112816752E+02  0.17349619064E+03  0.00000000000E+00 0.  1.
         22    1    3    3    0    0 -0.19441275635E+02  0.11250584543E+03 -0.81785190125E+02  0.14044338994E+03  0.00000000000E+00 0.  1.
</event>
<event>
 7    1  0.7459264E-005  0.1220634E+04  0.7818608E-02  0.9824138E-01
          2   -1    0    0  502    0  0.00000000000E+00  0.00000000000E+00  0.11941679029E+04  0.11941679029E+04  0.00000000000E+00 0. -1.
          1   -1    0    0  501    0 -0.00000000000E+00 -0.00000000000E+00 -0.22793754937E+04  0.22793754937E+04  0.00000000000E+00 0. -1.
         25    2    1    2    0    0  0.82708642758E+03 -0.65082763938E+03 -0.68676192478E+03  0.12629002519E+04  0.12500611996E+03 0.  0.
          2    1    1    2  501    0  0.33408424170E+03  0.39703418394E+02 -0.77553376656E+03  0.84536457523E+03  0.00000000000E+00 0. -1.
          1    1    1    2  502    0 -0.11611706693E+04  0.61112422099E+03  0.37708810062E+03  0.13652785695E+04  0.00000000000E+00 0. -1.
         22    1    3    3    0    0  0.19677769604E+02 -0.47722442869E+02 -0.25917413634E+02  0.57761219684E+02  0.00000000000E+00 0. -1.
         22    1    3    3    0    0  0.80740865798E+03 -0.60310519652E+03 -0.66084451114E+03  0.12051390322E+04  0.00000000000E+00 0. -1.
</event>
<event>
 7    1  0.7459264E-005  0.3332769E+03  0.7818608E-02  0.1276313E+00
          2   -1    0    0  502    0  0.00000000000E+00  0.00000000000E+00  0.66995274028E+03  0.66995274028E+03  0.00000000000E+00 0. -1.
          1   -1    0    0  501    0 -0.00000000000E+00 -0.00000000000E+00 -0.14862653958E+04  0.14862653958E+04  0.00000000000E+00 0. -1.
         25    2    1    2    0    0  0.17912793791E+03 -0.28774936856E+03 -0.56476063065E+02  0.36565254646E+03  0.12500288711E+03 0.  0.
          2    1    1    2  501    0  0.21198028985E+02  0.22848425463E+02 -0.12214743817E+04  0.12218719541E+04  0.00000000000E+00 0. -1.
          1    1    1    2  502    0 -0.20032596690E+03  0.26490094309E+03  0.46163778925E+03  0.56869363556E+03  0.00000000000E+00 0. -1.
         22    1    3    3    0    0  0.19457167919E+03 -0.24033175152E+03 -0.34443812141E+02  0.31113319547E+03  0.00000000000E+00 0.  1.
         22    1    3    3    0    0 -0.15443741283E+02 -0.47417617042E+02 -0.22032250925E+02  0.54519350982E+02  0.00000000000E+00 0.  1.
</event>
<event>
 7    1  0.7459264E-005  0.1414963E+03  0.7818608E-02  0.1226899E+00
          2   -1    0    0  502    0  0.00000000000E+00  0.00000000000E+00  0.24614980947E+04  0.24614980947E+04  0.00000000000E+00 0. -1.
          1   -1    0    0  501    0 -0.00000000000E+00 -0.00000000000E+00 -0.32254840220E+04  0.32254840220E+04  0.00000000000E+00 0. -1.
         25    2    1    2    0    0  0.68405289329E+02 -0.22030299509E+03  0.49735784354E+03  0.56231453737E+03  0.12498048309E+03 0.  0.
          2    1    1    2  501    0  0.21726586714E+02  0.11814828839E+03 -0.31894715295E+04  0.31917330246E+04  0.00000000000E+00 0. -1.
          1    1    1    2  502    0 -0.90131876043E+02  0.10215470671E+03  0.19281277587E+04  0.19329345548E+04  0.00000000000E+00 0. -1.
         22    1    3    3    0    0  0.22764758866E+02 -0.97970729085E+02  0.35576344381E+03  0.36970816322E+03  0.00000000000E+00 0.  1.
         22    1    3    3    0    0  0.45640530463E+02 -0.12233226601E+03  0.14159439973E+03  0.19260637415E+03  0.00000000000E+00 0.  1.
</event>
<event>
 7    1  0.7459264E-005  0.3169206E+03  0.7818608E-02  0.1153334E+00
          2   -1    0    0  502    0  0.00000000000E+00  0.00000000000E+00  0.69048440607E+02  0.69048440607E+02  0.00000000000E+00 0. -1.
          1   -1    0    0  501    0 -0.00000000000E+00 -0.00000000000E+00 -0.35078526774E+04  0.35078526774E+04  0.00000000000E+00 0. -1.
         25    2    1    2    0    0  0.34832682371E+03  0.19785019820E+02 -0.99951969629E+03  0.10660153402E+04  0.12500423609E+03 0.  0.
          2    1    1    2  501    0 -0.69036086629E+02  0.99331694560E+02 -0.17903347895E+04  0.17944167368E+04  0.00000000000E+00 0. -1.
          1    1    1    2  502    0 -0.27929073709E+03 -0.11911671438E+03 -0.64894975099E+03  0.71646904105E+03  0.00000000000E+00 0. -1.
         22    1    3    3    0    0  0.17633859235E+03  0.55741710048E+02 -0.63458045860E+03  0.66098017809E+03  0.00000000000E+00 0. -1.
         22    1    3    3    0    0  0.17198823137E+03 -0.35956690229E+02 -0.36493923769E+03  0.40503516206E+03  0.00000000000E+00 0. -1.
</event>
<event>
 7    1  0.7459264E-005  0.3620043E+03  0.7818608E-02  0.1291343E+00
          2   -1    0    0  502    0  0.00000000000E+00  0.00000000000E+00  0.47304250076E+03  0.47304250076E+03  0.00000000000E+00 0. -1.
          1   -1    0    0  501    0 -0.00000000000E+00 -0.00000000000E+00 -0.91969188944E+03  0.91969188944E+03  0.00000000000E+00 0. -1.
         25    2    1    2    0    0  0.35716772351E+03  0.85170060934E+02 -0.80766643559E+02  0.39619981584E+03  0.12501328474E+03 0.  0.
          2    1    1    2  501    0 -0.34450539947E+03 -0.10660064665E+03 -0.63286230929E+03  0.72839712428E+03  0.00000000000E+00 0. -1.
          1    1    1    2  502    0 -0.12662324036E+02  0.21430585720E+02  0.26697956417E+03  0.26813745009E+03  0.00000000000E+00 0. -1.
         22    1    3    3    0    0  0.25897884976E+03  0.25585754519E+01 -0.43860737815E+02  0.26267918694E+03  0.00000000000E+00 0. -1.
         22    1    3    3    0    0  0.98188873748E+02  0.82611485482E+02 -0.36905905745E+02  0.13352062889E+03  0.00000000000E+00 0. -1.
</event>
<event>
 7    1  0.7459264E-005  0.1030566E+03  0.7818608E-02  0.1310622E+00
          2   -1    0    0  502    0  0.00000000000E+00  0.00000000000E+00  0.68616732424E+03  0.68616732424E+03  0.00000000000E+00 0. -1.
          1   -1    0    0  501    0 -0.00000000000E+00 -0.00000000000E+00 -0.93677815530E+03  0.93677815530E+03  0.00000000000E+00 0. -1.
         25    2    1    2    0    0  0.12536775200E+03  0.57212731223E+02 -0.77956376694E+02  0.20172488231E+03  0.12500144648E+03 0.  0.
          2    1    1    2  501    0 -0.10150047905E+03  0.12008537375E+02 -0.79149321828E+03  0.79806520210E+03  0.00000000000E+00 0. -1.
          1    1    1    2  502    0 -0.23867272942E+02 -0.69221268598E+02  0.61883876392E+03  0.62315539512E+03  0.00000000000E+00 0. -1.
         22    1    3    3    0    0  0.47644057407E+02  0.39087823998E+02 -0.10129927097E+03  0.11857215731E+03  0.00000000000E+00 0. -1.
         22    1    3    3    0    0  0.77723694590E+02  0.18124907225E+02  0.23342894272E+02  0.83152725004E+02  0.00000000000E+00 0. -1.
</event>
<event>
 7    1  0.7459264E-005  0.3012307E+03  0.7818608E-02  0.1247069E+00
          2   -1    0    0  502    0  0.00000000000E+00  0.00000000000E+00  0.24194404181E+04  0.24194404181E+04  0.00000000000E+00 0. -1.
          1   -1    0    0  501    0 -0.00000000000E+00 -0.00000000000E+00 -0.28157544380E+03  0.28157544380E+03  0.00000000000E+00 0. -1.
         25    2    1    2    0    0  0.33776212271E+03 -0.43539653743E+01  0.16632780728E+04  0.17018286847E+04  0.12499886382E+03 0.  0.
          2    1    1    2  501    0 -0.29814543344E+03  0.27592657207E+02 -0.17577763039E+03  0.34720286513E+03  0.00000000000E+00 0. -1.
          1    1    1    2  502    0 -0.39616689270E+02 -0.23238691833E+02  0.65036453188E+03  0.65198431208E+03  0.00000000000E+00 0. -1.
         22    1    3    3    0    0  0.97298170219E+02 -0.51726703071E+02  0.39474934475E+03  0.40984098248E+03  0.00000000000E+00 0. -1.
         22    1    3    3    0    0  0.24046395249E+03  0.47372737697E+02  0.12685287281E+04  0.12919877022E+04  0.00000000000E+00 0. -1.
</event>
<event>
 7    1  0.7459264E-005  0.3540805E+03  0.7818608E-02  0.1134780E+00
          2   -1    0    0  502    0  0.00000000000E+00  0.00000000000E+00  0.28522093253E+04  0.28522093253E+04  0.00000000000E+00 0. -1.
          1   -1    0    0  501    0 -0.00000000000E+00 -0.00000000000E+00 -0.81279057047E+03  0.81279057047E+03  0.00000000000E+00 0. -1.
         25    2    1    2    0    0 -0.79087719221E+01 -0.42971559034E+03  0.72448725749E+03  0.85160122514E+03  0.12499929254E+03 0.  0.
          2    1    1    2  501    0  0.10445638766E+03  0.33506131157E+03 -0.70574900758E+03  0.78819977235E+03  0.00000000000E+00 0. -1.
          1    1    1    2  502    0 -0.96547615739E+02  0.94654278777E+02  0.20206805049E+04  0.20251988983E+04  0.00000000000E+00 0. -1.
         22    1    3    3    0    0  0.21549595588E+02 -0.28174140141E+03  0.56698053963E+03  0.63348996413E+03  0.00000000000E+00 0.  1.
         22    1    3    3    0    0 -0.29458367510E+02 -0.14797418893E+03  0.15750671786E+03  0.21811126100E+03  0.00000000000E+00 0.  1.
</event>
<event>
 7    1  0.7459264E-005  0.4956217E+03  0.7818608E-02  0.1262337E+00
          2   -1    0    0  502    0  0.00000000000E+00  0.00000000000E+00  0.31704035723E+03  0.31704035723E+03  0.00000000000E+00 0. -1.
          1   -1    0    0  501    0 -0.00000000000E+00 -0.00000000000E+00 -0.10287892266E+04  0.10287892266E+04  0.00000000000E+00 0. -1.
         25    2    1    2    0    0  0.13086567573E+03  0.47262762296E+03 -0.82733131376E+02  0.51280866867E+03  0.12500105826E+03 0.  0.
          2    1    1    2  501    0 -0.10864060440E+02  0.21394019230E+02  0.31936458395E+00  0.23996538538E+02  0.00000000000E+00 0. -1.
          1    1    1    2  502    0 -0.12000161529E+03 -0.49402164219E+03 -0.62933510260E+03  0.80902437663E+03  0.00000000000E+00 0. -1.
         22    1    3    3    0    0  0.11240954044E+03  0.17573518159E+03 -0.35969054384E+02  0.21168970618E+03  0.00000000000E+00 0. -1.
         22    1    3    3    0    0  0.18456135290E+02  0.29689244137E+03 -0.46764076991E+02  0.30111896249E+03  0.00000000000E+00 0. -1.
</event>
<event>
 7    1  0.7459264E-005  0.3646669E+03  0.7818608E-02  0.1127960E+00
          2   -1    0    0  502    0  0.00000000000E+00  0.00000000000E+00  0.11587520161E+04  0.11587520161E+04  0.00000000000E+00 0. -1.
          1   -1    0    0  501    0 -0.00000000000E+00 -0.00000000000E+00 -0.48506158146E+03  0.48506158146E+03  0.00000000000E+00 0. -1.
         25    2    1    2    0    0 -0.17453094886E+02 -0.29923662187E+03  0.73972653125E+02  0.33308261955E+03  0.12499964660E+03 0.  0.
          2    1    1    2  501    0  0.12107307704E+03 -0.75565653325E+02 -0.29909746353E+03  0.33140330511E+03  0.00000000000E+00 0. -1.
          1    1    1    2  502    0 -0.10361998216E+03  0.37480227519E+03  0.89881524504E+03  0.97932767290E+03  0.00000000000E+00 0. -1.
         22    1    3    3    0    0 -0.52474023607E+02 -0.18745647237E+03  0.22407595760E+00  0.19466253465E+03  0.00000000000E+00 0. -1.
         22    1    3    3    0    0  0.35020928721E+02 -0.11178014950E+03  0.73748577167E+02  0.13842008490E+03  0.00000000000E+00 0. -1.
</event>
<event>
 7    1  0.7459264E-005  0.9795053E+02  0.7818608E-02  0.1303481E+00
          2   -1    0    0  502    0  0.00000000000E+00  0.00000000000E+00  0.28175656121E+04  0.28175656121E+04  0.00000000000E+00 0. -1.
          1   -1    0    0  501    0 -0.00000000000E+00 -0.00000000000E+00 -0.41446584247E+03  0.41446584247E+03  0.00000000000E+00 0. -1.
         25    2    1    2    0    0 -0.16000609857E+03  0.43574347581E+02  0.13294663842E+04  0.13455877425E+04  0.12499932280E+03 0.  0.
          2    1    1    2  501    0  0.72684861172E+02 -0.38429144614E+02 -0.40093741840E+03  0.40928071256E+03  0.00000000000E+00 0. -1.
          1    1    1    2  502    0  0.87321237394E+02 -0.51452029667E+01  0.14745708038E+04  0.14771629995E+04  0.00000000000E+00 0. -1.
         22    1    3    3    0    0  0.96988071149E+01 -0.21126706603E+02  0.23583873338E+03  0.23698167177E+03  0.00000000000E+00 0. -1.
         22    1    3    3    0    0 -0.16970490568E+03  0.64701054183E+02  0.10936276508E+04  0.11086060707E+04  0.00000000000E+00 0. -1.
</event>
<event>
 7    1  0.7459264E-005  0.1156682E+03  0.7818608E-02  0.1389838E+00
          2   -1    0    0  502    0  0.00000000000E+00  0.00000000000E+00  0.22511986741E+04  0.22511986741E+04  0.00000000000E+00 0. -1.
          1   -1    0    0  501    0 -0.00000000000E+00 -0.00000000000E+00 -0.10911310014E+04  0.10911310014E+04  0.00000000000E+00 0. -1.
         25    2    1    2    0    0  0.77665423479E+02 -0.78117286235E+02  0.61729083391E+03  0.63938055683E+03  0.12500117764E+03 0.  0.
          2    1    1    2  501    0 -0.54642245632E+02  0.10200444886E+03 -0.10768163243E+04  0.10830161951E+04  0.00000000000E+00 0. -1.
          1    1    1    2  502    0 -0.23023177848E+02 -0.23887162621E+02  0.16195931630E+04  0.16199329236E+04  0.00000000000E+00 0. -1.
         22    1    3    3    0    0 -0.42928808998E+01 -0.90355818121E+01  0.36658773971E+03  0.36672420355E+03  0.00000000000E+00 0.  1.
         22    1    3    3    0    0  0.81958304379E+02 -0.69081704423E+02  0.25070309421E+03  0.27265635329E+03  0.00000000000E+00 0.  1.
</event>
<event>
 7    1  0.7459264E-005  0.4123769E+03  0.7818608E-02  0.1282459E+00
          2   -1    0    0  502    0  0.00000000000E+00  0.00000000000E+00  0.16707400691E+03  0.16707400691E+03  0.00000000000E+00 0. -1.
          1   -1    0    0  501    0 -0.00000000000E+00 -0.00000000000E+00 -0.26233504115E+04  0.26233504115E+04  0.00000000000E+00 0. -1.
         25    2    1    2    0    0 -0.28663061802E+03 -0.31035635919E+03 -0.65409291288E+03  0.78863201684E+03  0.12499895372E+03 0.  0.
          2    1    1    2  501    0  0.29154904014E+03  0.28711425004E+03 -0.18781448305E+04  0.19222027572E+04  0.00000000000E+00 0. -1.
          1    1    1    2  502    0 -0.49184221190E+01  0.23242109149E+02  0.75961338756E+02  0.79589644423E+02  0.00000000000E+00 0. -1.
         22    1    3    3    0    0 -0.16656762640E+03 -0.25838677039E+03 -0.42041509193E+03  0.52082371951E+03  0.00000000000E+00 0.  1.
         22    1    3    3    0    0 -0.12006299162E+03 -0.51969588795E+02 -0.23367782095E+03  0.26780829733E+03  0.00000000000E+00 0.  1.
</event>
<event>
 7    1  0.7459264E-005  0.1007329E+03  0.7818608E-02  0.1321188E+00
          2   -1    0    0  502    0  0.00000000000E+00  0.00000000000E+00  0.15908799830E+04  0.15908799830E+04  0.00000000000E+00 0. -1.
          1   -1    0    0  501    0 -0.00000000000E+00 -0.00000000000E+00 -0.59487416277E+02  0.59487416277E+02  0.00000000000E+00 0. -1.
         25    2    1    2    0    0 -0.11670780071E+03  0.43976910836E+02  0.16556396656E+03  0.24205050679E+03  0.12498936506E+03 0.  0.
          2    1    1    2  501    0  0.18560427495E+02 -0.65543326247E+02  0.40637056029E+02  0.79320787988E+02  0.00000000000E+00 0. -1.
          1    1    1    2  502    0  0.98147373216E+02  0.21566415411E+02  0.13251915441E+04  0.13289961045E+04  0.00000000000E+00 0. -1.
         22    1    3    3    0    0 -0.62933099441E+01  0.42258549316E+02  0.11087567185E+03  0.11882257929E+03  0.00000000000E+00 0. -1.
         22    1    3    3    0    0 -0.11041449077E+03  0.17183615205E+01  0.54688294713E+02  0.12322792750E+03  0.00000000000E+00 0. -1.
</event>
<event>
 7    1  0.7459264E-005  0.1499522E+03  0.7818608E-02  0.1238340E+00
          2   -1    0    0  502    0  0.00000000000E+00  0.00000000000E+00  0.12941762820E+04  0.12941762820E+04  0.00000000000E+00 0. -1.
          1   -1    0    0  501    0 -0.00000000000E+00 -0.00000000000E+00 -0.77411542245E+02  0.77411542245E+02  0.00000000000E+00 0. -1.
         25    2    1    2    0    0 -0.17136446622E+03 -0.66363688612E+02  0.21782654126E+03  0.31119558875E+03  0.12499749170E+03 0.  0.
          2    1    1    2  501    0  0.13552127721E+03 -0.27824301126E+02  0.14457287148E+03  0.20010378176E+03  0.00000000000E+00 0. -1.
          1    1    1    2  502    0  0.35843189017E+02  0.94187989737E+02  0.85436532704E+03  0.86028845375E+03  0.00000000000E+00 0. -1.
         22    1    3    3    0    0  0.46288743353E+01  0.20417017924E+01  0.73140745971E+02  0.73315508216E+02  0.00000000000E+00 0. -1.
         22    1    3    3    0    0 -0.17599334056E+03 -0.68405390404E+02  0.14468579529E+03  0.23788008054E+03  0.00000000000E+00 0. -1.
</event>
<event>
 7    1  0.7459264E-005  0.1200332E+03  0.7818608E-02  0.1305841E+00
          2   -1    0    0  502    0  0.00000000000E+00  0.00000000000E+00  0.17531751045E+04  0.17531751045E+04  0.00000000000E+00 0. -1.
          1   -1    0    0  501    0 -0.00000000000E+00 -0.00000000000E+00 -0.13523548191E+04  0.13523548191E+04  0.00000000000E+00 0. -1.
         25    2    1    2    0    0  0.17349172153E+03  0.56039768761E+02  0.24022600074E+03  0.32645640128E+03  0.12500166952E+03 0.  0.
          2    1    1    2  501    0 -0.61990749591E+02 -0.21640784385E+02 -0.13060977711E+04  0.13077471331E+04  0.00000000000E+00 0. -1.
          1    1    1    2  502    0 -0.11150097194E+03 -0.34398984375E+02  0.14666920558E+04  0.14713263891E+04  0.00000000000E+00 0. -1.
         22    1    3    3    0    0  0.70876857062E+02  0.88533310030E+02  0.12178402974E+03  0.16641221635E+03  0.00000000000E+00 0.  1.
         22    1    3    3    0    0  0.10261486447E+03 -0.32493541269E+02  0.11844197100E+03  0.16004418492E+03  0.00000000000E+00 0.  1.
</event>
<event>
 7    1  0.7459264E-005  0.3887681E+03  0.7818608E-02  0.1136885E+00
          2   -1    0    0  502    0  0.00000000000E+00  0.00000000000E+00  0.12054159685E+04  0.12054159685E+04  0.00000000000E+00 0. -1.
          1   -1    0    0  501    0 -0.00000000000E+00 -0.00000000000E+00 -0.37521413303E+03  0.37521413303E+03  0.00000000000E+00 0. -1.
         25    2    1    2    0    0 -0.44776845090E+03 -0.62383737690E+02  0.34179684243E+03  0.58037841732E+03  0.12500283773E+03 0.  0.
          2    1    1    2  501    0  0.37092559536E+03 -0.29829244474E+02 -0.11149001772E+03  0.38846570655E+03  0.00000000000E+00 0. -1.
          1    1    1    2  502    0  0.76842855548E+02  0.92212982164E+02  0.59989501080E+03  0.61178597770E+03  0.00000000000E+00 0. -1.
         22    1    3    3    0    0 -0.40433603364E+03 -0.31547878789E+02  0.25667174810E+03  0.47996175163E+03  0.00000000000E+00 0.  1.
         22    1    3    3    0    0 -0.43432417269E+02 -0.30835858901E+02  0.85125094331E+02  0.10041666569E+03  0.00000000000E+00 0.  1.
</event>
<event>
 7    1  0.7459264E-005  0.9970447E+03  0.7818608E-02  0.1172095E+00
          2   -1    0    0  502    0  0.00000000000E+00  0.00000000000E+00  0.23006383919E+04  0.23006383919E+04  0.00000000000E+00 0. -1.
          1   -1    0    0  501    0 -0.00000000000E+00 -0.00000000000E+00 -0.71484630807E+03  0.71484630807E+03  0.00000000000E+00 0. -1.
         25    2    1    2    0    0  0.87438097482E+03 -0.46384527880E+03  0.13424149657E+03  0.10066485922E+04  0.12500430768E+03 0.  0.
          2    1    1    2  501    0 -0.90247772174E+03  0.45089115903E+03  0.63576098391E+03  0.11924600221E+04  0.00000000000E+00 0. -1.
          1    1    1    2  502    0  0.28096746919E+02  0.12954119771E+02  0.81578960331E+03  0.81637608568E+03  0.00000000000E+00 0. -1.
         22    1    3    3    0    0  0.42521521552E+03 -0.16808042578E+03  0.25312353201E+02  0.45792982460E+03  0.00000000000E+00 0.  1.
         22    1    3    3    0    0  0.44916575931E+03 -0.29576485302E+03  0.10892914337E+03  0.54871876758E+03  0.00000000000E+00 0.  1.
</event>
<event>
 7    1  0.7459264E-005  0.3362666E+03  0.7818608E-02  0.1232956E+00
          2   -1    0    0  502    0  0.00000000000E+00  0.00000000000E+00  0.14659892401E+04  0.14659892401E+04  0.00000000000E+00 0. -1.
          1   -1    0    0  501    0 -0.00000000000E+00 -0.00000000000E+00 -0.44342217671E+03  0.44342217671E+03  0.00000000000E+00 0. -1.
         25    2    1    2    0    0  0.17913505237E+03  0.32507059136E+03 -0.10557778723E+03  0.40562565772E+03  0.12500099476E+03 0.  0.
          2    1    1    2  501    0 -0.42689769545E+02 -0.20792800636E+02 -0.16325773075E+03  0.17002306794E+03  0.00000000000E+00 0. -1.
          1    1    1    2  502    0 -0.13644528282E+03 -0.30427779073E+03  0.12914025814E+04  0.13337626912E+04  0.00000000000E+00 0. -1.
         22    1    3    3    0    0  0.74551434293E+02  0.10291633008E+03  0.21917252387E+02  0.12895756397E+03  0.00000000000E+00 0.  1.
         22    1    3    3    0    0  0.10458361807E+03  0.22215426128E+03 -0.12749503962E+03  0.27666809376E+03  0.00000000000E+00 0.  1.
</event>
<event>
 7    1  0.7459264E-005  0.4646387E+03  0.7818608E-02  0.1088839E+00
          2   -1    0    0  502    0  0.00000000000E+00  0.00000000000E+00  0.13941383253E+04  0.13941383253E+04  0.00000000000E+00 0. -1.
          1   -1    0    0  501    0 -0.00000000000E+00 -0.00000000000E+00 -0.99029071858E+03  0.99029071858E+03  0.00000000000E+00 0. -1.
         25    2    1    2    0    0  0.49477766156E+03  0.31403451843E+03  0.35975762990E+03  0.69890671011E+03  0.12498969567E+03 0.  0.
          2    1    1    2  501    0 -0.31068030959E+03 -0.32833478833E+03 -0.74702730794E+03  0.87314133266E+03  0.00000000000E+00 0. -1.
          1    1    1    2  502    0 -0.18409735197E+03  0.14300269893E+02  0.79111728474E+03  0.81238100109E+03  0.00000000000E+00 0. -1.
         22    1    3    3    0    0 -0.10620499290E+01 -0.67913764806E+01 -0.86433037609E+00  0.69280452909E+01  0.00000000000E+00 0. -1.
         22    1    3    3    0    0  0.49583971149E+03  0.32082589492E+03  0.36062196028E+03  0.69197866482E+03  0.00000000000E+00 0. -1.
</event>
<event>
 7    1  0.7459264E-005  0.2994917E+03  0.7818608E-02  0.1281145E+00
          2   -1    0    0  502    0  0.00000000000E+00  0.00000000000E+00  0.93392453413E+03  0.93392453413E+03  0.00000000000E+00 0. -1.
          1   -1    0    0  501    0 -0.00000000000E+00 -0.00000000000E+00 -0.43193358762E+03  0.43193358762E+03  0.00000000000E+00 0. -1.
         25    2    1    2    0    0 -0.30344179403E+03 -0.13899862067E+02  0.66188064577E+03  0.73890496692E+03  0.12499772943E+03 0.  0.
          2    1    1    2  501    0  0.13386227375E+02  0.30296034100E+02 -0.30181064735E+03  0.30362264017E+03  0.00000000000E+00 0. -1.
          1    1    1    2  502    0  0.29005556665E+03 -0.16396172033E+02  0.14192094809E+03  0.32333051466E+03  0.00000000000E+00 0. -1.
         22    1    3    3    0    0 -0.62602427956E+02 -0.54521763512E+02  0.14143695857E+03  0.16400030467E+03  0.00000000000E+00 0. -1.
         22    1    3    3    0    0 -0.24083936607E+03  0.40621901444E+02  0.52044368721E+03  0.57490466226E+03  0.00000000000E+00 0. -1.
</event>
<event>
 7    1  0.7459264E-005  0.1513319E+03  0.7818608E-02  0.1254673E+00
          2   -1    0    0  502    0  0.00000000000E+00  0.00000000000E+00  0.51511176968E+03  0.51511176968E+03  0.00000000000E+00 0. -1.
          1   -1    0    0  501    0 -0.00000000000E+00 -0.00000000000E+00 -0.20635028952E+03  0.20635028952E+03  0.00000000000E+00 0. -1.
         25    2    1    2    0    0 -0.50439930546E+02  0.93122562431E+02  0.98389202645E+02  0.19110752965E+03  0.12500261783E+03 0.  0.
          2    1    1    2  501    0 -0.82161430242E+02  0.20770128051E+02 -0.12566629739E+03  0.15157149184E+03  0.00000000000E+00 0. -1.
          1    1    1    2  502    0  0.13260136079E+03 -0.11389269048E+03  0.33603857490E+03  0.37878303770E+03  0.00000000000E+00 0. -1.
         22    1    3    3    0    0 -0.58597385901E+02  0.44223020123E+02  0.11702479604E+03  0.13814532939E+03  0.00000000000E+00 0.  1.
         22    1    3    3    0    0  0.81574553549E+01  0.48899542308E+02 -0.18635593395E+02  0.52962200265E+02  0.00000000000E+00 0.  1.
</event>
<event>
 7    1  0.7459264E-005  0.1444840E+04  0.7818608E-02  0.1146787E+00
          2   -1    0    0  502    0  0.00000000000E+00  0.00000000000E+00  0.33265470608E+04  0.33265470608E+04  0.00000000000E+00 0. -1.
          1   -1    0    0  501    0 -0.00000000000E+00 -0.00000000000E+00 -0.25117847811E+04  0.25117847811E+04  0.00000000000E+00 0. -1.
         25    2    1    2    0    0 -0.14396792178E+04 -0.87956408685E+02  0.12638170704E+04  0.19217881963E+04  0.12499481460E+03 0.  0.
          2    1    1    2  501    0 -0.28705330148E+01 -0.28529049276E+02 -0.18806484906E+04  0.18808670585E+04  0.00000000000E+00 0. -1.
          1    1    1    2  502    0  0.14425497508E+04  0.11648545796E+03  0.14315936999E+04  0.20356765871E+04  0.00000000000E+00 0. -1.
         22    1    3    3    0    0 -0.10753467419E+04 -0.98938836184E+02  0.10004997476E+04  0.14721274584E+04  0.00000000000E+00 0. -1.
         22    1    3    3    0    0 -0.36433247591E+03  0.10982427499E+02  0.26331732283E+03  0.44966073790E+03  0.00000000000E+00 0. -1.
</event>
<event>
 7    1  0.7459264E-005  0.1461197E+03  0.7818608E-02  0.1304658E+00
          2   -1    0    0  502    0  0.00000000000E+00  0.00000000000E+00  0.14423733399E+04  0.14423733399E+04  0.00000000000E+00 0. -1.
          1   -1    0    0  501    0 -0.00000000000E+00 -0.00000000000E+00 -0.22789534668E+03  0.22789534668E+03  0.00000000000E+00 0. -1.
         25    2    1    2    0    0  0.91033343235E+02 -0.48021321805E+02  0.84970956884E+02  0.18286719887E+03  0.12500892760E+03 0.  0.
          2    1    1    2  501    0 -0.14124019557E+03  0.69285043834E+02 -0.14367450514E+03  0.21305298301E+03  0.00000000000E+00 0. -1.
          1    1    1    2  502    0  0.50206852335E+02 -0.21263722029E+02  0.12731815415E+04  0.12743485047E+04  0.00000000000E+00 0. -1.
         22    1    3    3    0    0 -0.31352882920E+02 -0.49052760655E+01  0.22158529045E+02  0.38704849956E+02  0.00000000000E+00 0. -1.
         22    1    3    3    0    0  0.12238622615E+03 -0.43116045739E+02  0.62812427839E+02  0.14416234891E+03  0.00000000000E+00 0. -1.
</event>
<event>
 7    1  0.7459264E-005  0.4772684E+03  0.7818608E-02  0.1139032E+00
          2   -1    0    0  502    0  0.00000000000E+00  0.00000000000E+00  0.81306637297E+03  0.81306637297E+03  0.00000000000E+00 0. -1.
          1   -1    0    0  501    0 -0.00000000000E+00 -0.00000000000E+00 -0.21508066042E+04  0.21508066042E+04  0.00000000000E+00 0. -1.
         25    2    1    2    0    0  0.47008182062E+03 -0.73000392470E+02 -0.25132925614E+03  0.55234904442E+03  0.12496838199E+03 0.  0.
          2    1    1    2  501    0 -0.44962830052E+03  0.16604580906E+03 -0.17124572229E+04  0.17782706655E+04  0.00000000000E+00 0. -1.
          1    1    1    2  502    0 -0.20453520106E+02 -0.93045416593E+02  0.62604624786E+03  0.63325326725E+03  0.00000000000E+00 0. -1.
         22    1    3    3    0    0  0.10876104989E+02 -0.12056974555E+02 -0.40036701525E+02  0.43204140590E+02  0.00000000000E+00 0. -1.
         22    1    3    3    0    0  0.45920571563E+03 -0.60943417915E+02 -0.21129255462E+03  0.50914490383E+03  0.00000000000E+00 0. -1.
</event>
<event>
 7    1  0.7459264E-005  0.5390545E+03  0.7818608E-02  0.1143699E+00
          2   -1    0    0  502    0  0.00000000000E+00  0.00000000000E+00  0.64705511315E+03  0.64705511315E+03  0.00000000000E+00 0. -1.
          1   -1    0    0  501    0 -0.00000000000E+00 -0.00000000000E+00 -0.15166336884E+04  0.15166336884E+04  0.00000000000E+00 0. -1.
         25    2    1    2    0    0  0.14126304606E+03 -0.49913674489E+03 -0.27454887807E+03  0.60007890664E+03  0.12499947786E+03 0.  0.
          2    1    1    2  501    0  0.79718721680E+02 -0.19089871921E+01 -0.92224358850E+03  0.92568458740E+03  0.00000000000E+00 0. -1.
          1    1    1    2  502    0 -0.22098176774E+03  0.50104573208E+03  0.32721389130E+03  0.63792530752E+03  0.00000000000E+00 0. -1.
         22    1    3    3    0    0  0.53767625428E+02 -0.57185021275E+02 -0.70462385459E+02  0.10548000743E+03  0.00000000000E+00 0. -1.
         22    1    3    3    0    0  0.87495420630E+02 -0.44195172362E+03 -0.20408649261E+03  0.49459889922E+03  0.00000000000E+00 0. -1.
</event>
<event>
 7    1  0.7459264E-005  0.5800985E+02  0.7818608E-02  0.1436941E+00
          2   -1    0    0  502    0  0.00000000000E+00  0.00000000000E+00  0.22727994041E+03  0.22727994041E+03  0.00000000000E+00 0. -1.
          1   -1    0    0  501    0 -0.00000000000E+00 -0.00000000000E+00 -0.89274895247E+03  0.89274895247E+03  0.00000000000E+00 0. -1.
         25    2    1    2    0    0  0.14443218398E+02 -0.68918091974E+01  0.90085560641E+02  0.15490912504E+03  0.12500130077E+03 0.  0.
          2    1    1    2  501    0 -0.30068962087E+02  0.50032584769E+02 -0.85426996338E+03  0.85626197647E+03  0.00000000000E+00 0. -1.
          1    1    1    2  502    0  0.15625743689E+02 -0.43140775571E+02  0.98715390681E+02  0.10885779136E+03  0.00000000000E+00 0. -1.
         22    1    3    3    0    0  0.24270183700E+02  0.53933817718E+02  0.66344549066E+02  0.88879118477E+02  0.00000000000E+00 0.  1.
         22    1    3    3    0    0 -0.98269653016E+01 -0.60825626916E+02  0.23741011574E+02  0.66030006567E+02  0.00000000000E+00 0.  1.
</event>
<event>
 7    1  0.8251887E-005  0.3145234E+03  0.7818608E-02  0.1226256E+00
          2   -1    0    0  502    0  0.00000000000E+00  0.00000000000E+00  0.10484627815E+04  0.10484627815E+04  0.00000000000E+00 0. -1.
          1   -1    0    0  501    0 -0.00000000000E+00 -0.00000000000E+00 -0.75363325584E+03  0.75363325584E+03  0.00000000000E+00 0. -1.
         25    2    1    2    0    0 -0.25346527114E+03 -0.11887433332E+03 -0.10243904226E+03  0.32325683990E+03  0.12500190544E+03 0.  0.
          2    1    1    2  501    0 -0.16176281112E+02 -0.51945072520E+02 -0.51214921018E+03  0.51503084967E+03  0.00000000000E+00 0. -1.
          1    1    1    2  502    0  0.26964155226E+03  0.17081940584E+03  0.90941777808E+03  0.96380834776E+03  0.00000000000E+00 0. -1.
         22    1    3    3    0    0 -0.90618980395E+02 -0.10748088557E+03 -0.25859625514E+02  0.14294285782E+03  0.00000000000E+00 0.  1.
         22    1    3    3    0    0 -0.16284629075E+03 -0.11393447751E+02 -0.76579416745E+02  0.18031398208E+03  0.00000000000E+00 0.  1.
</event>
<event>
 7    1  0.7459264E-005  0.1593263E+04  0.7818608E-02  0.1165279E+00
          2   -1    0    0  502    0  0.00000000000E+00  0.00000000000E+00  0.15348458051E+04  0.15348458051E+04  0.00000000000E+00 0. -1.
          1   -1    0    0  501    0 -0.00000000000E+00 -0.00000000000E+00 -0.21405644753E+04  0.21405644753E+04  0.00000000000E+00 0. -1.
         25    2    1    2    0    0  0.13560634368E+04  0.85861877293E+03 -0.40101349660E+03  0.16590873492E+04  0.12499906357E+03 0.  0.
          2    1    1    2  501    0 -0.12875260190E+02 -0.16507437483E+02 -0.41638620886E+03  0.41691215231E+03  0.00000000000E+00 0. -1.
          1    1    1    2  502    0 -0.13431881766E+04 -0.84211133545E+03  0.21168103527E+03  0.15994107789E+04  0.00000000000E+00 0. -1.
         22    1    3    3    0    0  0.37883282309E+03  0.23090388422E+03 -0.54249630126E+02  0.44696077453E+03  0.00000000000E+00 0.  1.
         22    1    3    3    0    0  0.97723061371E+03  0.62771488871E+03 -0.34676386647E+03  0.12121265747E+04  0.00000000000E+00 0.  1.
</event>
<event>
 7    1  0.7459264E-005  0.1208908E+03  0.7818608E-02  0.1274115E+00
          2   -1    0    0  502    0  0.00000000000E+00  0.00000000000E+00  0.54757889333E+03  0.54757889333E+03  0.00000000000E+00 0. -1.
          1   -1    0    0  501    0 -0.00000000000E+00 -0.00000000000E+00 -0.57150233450E+03  0.57150233450E+03  0.00000000000E+00 0. -1.
         25    2    1    2    0    0 -0.13108893410E+03  0.13367278087E+03 -0.23304962078E+03  0.32402052970E+03  0.12499782771E+03 0.  0.
          2    1    1    2  501    0  0.53219516734E+02 -0.93213388804E+02 -0.27909097497E+03  0.29901977380E+03  0.00000000000E+00 0. -1.
          1    1    1    2  502    0  0.77869417365E+02 -0.40459392066E+02  0.48821715459E+03  0.49604092433E+03  0.00000000000E+00 0. -1.
         22    1    3    3    0    0 -0.79751852981E+02 -0.13519371274E+01 -0.69327072484E+02  0.10568078712E+03  0.00000000000E+00 0.  1.
         22    1    3    3    0    0 -0.51337081118E+02  0.13502471800E+03 -0.16372254830E+03  0.21833974258E+03  0.00000000000E+00 0.  1.
</event>
<event>
 7    1  0.7459264E-005  0.2329271E+03  0.7818608E-02  0.1234938E+00
          2   -1    0    0  502    0  0.00000000000E+00  0.00000000000E+00  0.22051589865E+04  0.22051589865E+04  0.00000000000E+00 0. -1.
          1   -1    0    0  501    0 -0.00000000000E+00 -0.00000000000E+00 -0.42727267707E+03  0.42727267707E+03  0.00000000000E+00 0. -1.
         25    2    1    2    0    0 -0.24588725703E+03 -0.23510112034E+01  0.17290831294E+04  0.17509481865E+04  0.12500005110E+03 0.  0.
          2    1    1    2  501    0  0.42432583759E+02  0.52071876609E+02 -0.38974400044E+03  0.39549006356E+03  0.00000000000E+00 0. -1.
          1    1    1    2  502    0  0.20345467327E+03 -0.49720865406E+02  0.43854718045E+03  0.48599341355E+03  0.00000000000E+00 0. -1.
         22    1    3    3    0    0 -0.85756320695E-01 -0.13573388860E+02  0.33790637120E+03  0.33817888747E+03  0.00000000000E+00 0.  1.
         22    1    3    3    0    0 -0.24580150071E+03  0.11222377657E+02  0.13911767583E+04  0.14127692990E+04  0.00000000000E+00 0.  1.
</event>
<event>
 7    1  0.7459264E-005  0.2038358E+03  0.7818608E-02  0.1197368E+00
          2   -1    0    0  502    0  0.00000000000E+00  0.00000000000E+00  0.25998331584E+04  0.25998331584E+04  0.00000000000E+00 0. -1.
          1   -1    0    0  501    0 -0.00000000000E+00 -0.00000000000E+00 -0.38753243464E+03  0.38753243464E+03  0.00000000000E+00 0. -1.
         25    2    1    2    0    0  0.15234345371E+03 -0.23314501427E+03 -0.55733257593E+02  0.31031716854E+03  0.12500169408E+03 0.  0.
          2    1    1    2  501    0 -0.54895723176E+02  0.17364627418E+03 -0.16235505396E+03  0.24397895915E+03  0.00000000000E+00 0. -1.
          1    1    1    2  502    0 -0.97447730537E+02  0.59498740087E+02  0.24303890353E+04  0.24330694653E+04  0.00000000000E+00 0. -1.
         22    1    3    3    0    0  0.16320848830E+03 -0.24099361618E+03 -0.48451475404E+02  0.29506351716E+03  0.00000000000E+00 0.  1.
         22    1    3    3    0    0 -0.10865034591E+02  0.78486019081E+01 -0.72817821893E+01  0.15253651380E+02  0.00000000000E+00 0.  1.
</event>
<event>
 7    1  0.7459264E-005  0.3139885E+03  0.7818608E-02  0.1202022E+00
          2   -1    0    0  502    0  0.00000000000E+00  0.00000000000E+00  0.18138819352E+03  0.18138819352E+03  0.00000000000E+00 0. -1.
          1   -1    0    0  501    0 -0.00000000000E+00 -0.00000000000E+00 -0.12921942958E+04  0.12921942958E+04  0.00000000000E+00 0. -1.
         25    2    1    2    0    0  0.81742917318E+02 -0.35582148714E+03 -0.26527274027E+03  0.46827941987E+03  0.12500061242E+03 0.  0.
          2    1    1    2  501    0 -0.40187866101E+02  0.29891222352E+03 -0.87752979010E+03  0.92791277309E+03  0.00000000000E+00 0. -1.
          1    1    1    2  502    0 -0.41555051217E+02  0.56909263624E+02  0.31996428053E+02  0.77390296394E+02  0.00000000000E+00 0. -1.
         22    1    3    3    0    0  0.10862760386E+03 -0.30340690777E+03 -0.19535592386E+03  0.37685493892E+03  0.00000000000E+00 0.  1.
         22    1    3    3    0    0 -0.26884686541E+02 -0.52414579377E+02 -0.69916816407E+02  0.91424480956E+02  0.00000000000E+00 0.  1.
</event>
<event>
 7    1  0.7459264E-005  0.8405654E+03  0.7818608E-02  0.1222439E+00
          2   -1    0    0  502    0  0.00000000000E+00  0.00000000000E+00  0.33705160626E+04  0.33705160626E+04  0.00000000000E+00 0. -1.
          1   -1    0    0  501    0 -0.00000000000E+00 -0.00000000000E+00 -0.65790861565E+03  0.65790861565E+03  0.00000000000E+00 0. -1.
         25    2    1    2    0    0  0.30000333331E+03 -0.77302321395E+03  0.95215851291E+03  0.12687777265E+04  0.12499678506E+03 0.  0.
          2    1    1    2  501    0  0.17937413610E+02 -0.11269211718E+02 -0.42009868848E+03  0.42063244525E+03  0.00000000000E+00 0. -1.
          1    1    1    2  502    0 -0.31794074692E+03  0.78429242567E+03  0.21805476225E+04  0.23390145065E+04  0.00000000000E+00 0. -1.
         22    1    3    3    0    0  0.14781290490E+03 -0.49923815092E+03  0.52845076206E+03  0.74185415960E+03  0.00000000000E+00 0.  1.
         22    1    3    3    0    0  0.15219042841E+03 -0.27378506303E+03  0.42370775084E+03  0.52692356691E+03  0.00000000000E+00 0.  1.
</event>
<event>
 7    1  0.7459264E-005  0.2783896E+03  0.7818608E-02  0.1230927E+00
          2   -1    0    0  502    0  0.00000000000E+00  0.00000000000E+00  0.32265070048E+04  0.32265070048E+04  0.00000000000E+00 0. -1.
          1   -1    0    0  501    0 -0.00000000000E+00 -0.00000000000E+00 -0.10226541797E+04  0.10226541797E+04  0.00000000000E+00 0. -1.
         25    2    1    2    0    0 -0.13442793048E+03  0.20137648639E+03  0.26373030319E+03  0.37921237523E+03  0.12499997978E+03 0.  0.
          2    1    1    2  501    0 -0.58261007701E+02  0.59702885719E+01 -0.95712087098E+03  0.95891102352E+03  0.00000000000E+00 0. -1.
          1    1    1    2  502    0  0.19268893819E+03 -0.20734677496E+03  0.28972433929E+04  0.29110377857E+04  0.00000000000E+00 0. -1.
         22    1    3    3    0    0 -0.71411173089E+02  0.25020622633E+02  0.12511694944E+03  0.14621846065E+03  0.00000000000E+00 0.  1.
         22    1    3    3    0    0 -0.63016757396E+02  0.17635586375E+03  0.13861335375E+03  0.23299391458E+03  0.00000000000E+00 0.  1.
</event>
<event>
 7    1  0.7459264E-005  0.4080739E+03  0.7818608E-02  0.1124211E+00
          2   -1    0    0  502    0  0.00000000000E+00  0.00000000000E+00  0.56653829192E+03  0.56653829192E+03  0.00000000000E+00 0. -1.
          1   -1    0    0  501    0 -0.00000000000E+00 -0.00000000000E+00 -0.11611927712E+04  0.11611927712E+04  0.00000000000E+00 0. -1.
         25    2    1    2    0    0  0.28568431648E+03  0.28173078883E+03 -0.96644406317E+03  0.10538627992E+04  0.12499962484E+03 0.  0.
          2    1    1    2  501    0  0.84901929421E+02 -0.10314130373E+03  0.16842250184E+03  0.21497117314E+03  0.00000000000E+00 0. -1.
          1    1    1    2  502    0 -0.37058624590E+03 -0.17858948510E+03  0.20336708208E+03  0.45889709077E+03  0.00000000000E+00 0. -1.
         22    1    3    3    0    0  0.24512697577E+03  0.25855612447E+03 -0.92563443921E+03  0.99183547970E+03  0.00000000000E+00 0.  1.
         22    1    3    3    0    0  0.40557340712E+02  0.23174664367E+02 -0.40809623959E+02  0.62027319480E+02  0.00000000000E+00 0.  1.
</event>
<event>
 7    1  0.7459264E-005  0.4582861E+03  0.7818608E-02  0.1200101E+00
          2   -1    0    0  502    0  0.00000000000E+00  0.00000000000E+00  0.36561522068E+03  0.36561522068E+03  0.00000000000E+00 0. -1.
          1   -1    0    0  501    0 -0.00000000000E+00 -0.00000000000E+00 -0.16744349991E+04  0.16744349991E+04  0.00000000000E+00 0. -1.
         25    2    1    2    0    0 -0.35613608039E+03 -0.33527415997E+03 -0.27541541155E+03  0.57508304585E+03  0.12500076242E+03 0.  0.
          2    1    1    2  501    0  0.25292814665E+02  0.42311229736E+02 -0.10217139910E+04  0.10229024617E+04  0.00000000000E+00 0. -1.
          1    1    1    2  502    0  0.33084326573E+03  0.29296293023E+03 -0.11690375882E+02  0.44206471230E+03  0.00000000000E+00 0. -1.
         22    1    3    3    0    0 -0.85813051318E+02 -0.97611904231E+02 -0.15035619270E+02  0.13083590284E+03  0.00000000000E+00 0. -1.
         22    1    3    3    0    0 -0.27032302908E+03 -0.23766225574E+03 -0.26037979228E+03  0.44424714302E+03  0.00000000000E+00 0. -1.
</event>
<event>
 7    1  0.7459264E-005  0.1579519E+03  0.7818608E-02  0.1202907E+00
          2   -1    0    0  502    0  0.00000000000E+00  0.00000000000E+00  0.10862715130E+04  0.10862715130E+04  0.00000000000E+00 0. -1.
          1   -1    0    0  501    0 -0.00000000000E+00 -0.00000000000E+00 -0.72145110984E+03  0.72145110984E+03  0.00000000000E+00 0. -1.
         25    2    1    2    0    0 -0.11291107464E+03  0.47487356485E+02 -0.21948456377E+03  0.28072265850E+03  0.12501110935E+03 0.  0.
          2    1    1    2  501    0 -0.19679117251E+02 -0.13734015216E+03 -0.45486754009E+03  0.47555658347E+03  0.00000000000E+00 0. -1.
          1    1    1    2  502    0  0.13259019189E+03  0.89852795675E+02  0.10391725070E+04  0.10514433809E+04  0.00000000000E+00 0. -1.
         22    1    3    3    0    0  0.18016298267E+02 -0.16230298228E+02 -0.60270849488E+02  0.64966028675E+02  0.00000000000E+00 0.  1.
         22    1    3    3    0    0 -0.13092737291E+03  0.63717654712E+02 -0.15921371428E+03  0.21575662982E+03  0.00000000000E+00 0.  1.
</event>
<event>
 7    1  0.7459264E-005  0.3844288E+03  0.7818608E-02  0.1174176E+00
          2   -1    0    0  502    0  0.00000000000E+00  0.00000000000E+00  0.10703558361E+04  0.10703558361E+04  0.00000000000E+00 0. -1.
          1   -1    0    0  501    0 -0.00000000000E+00 -0.00000000000E+00 -0.50579789257E+03  0.50579789257E+03  0.00000000000E+00 0. -1.
         25    2    1    2    0    0  0.11174526516E+03 -0.38162387977E+03 -0.34158804039E+03  0.53891629208E+03  0.12499836255E+03 0.  0.
          2    1    1    2  501    0 -0.60033315627E+02  0.32274106043E+03  0.36688200542E+03  0.49230904620E+03  0.00000000000E+00 0. -1.
          1    1    1    2  502    0 -0.51711949531E+02  0.58882819342E+02  0.53926397848E+03  0.54492839036E+03  0.00000000000E+00 0. -1.
         22    1    3    3    0    0  0.44882978091E+02 -0.28149426497E+03 -0.17896777302E+03  0.33657535072E+03  0.00000000000E+00 0.  1.
         22    1    3    3    0    0  0.66862287067E+02 -0.10012961480E+03 -0.16262026738E+03  0.20234094137E+03  0.00000000000E+00 0.  1.
</event>
<event>
 7    1  0.7459264E-005  0.3208383E+03  0.7818608E-02  0.1206205E+00
          2   -1    0    0  502    0  0.00000000000E+00  0.00000000000E+00  0.64521369229E+03  0.64521369229E+03  0.00000000000E+00 0. -1.
          1   -1    0    0  501    0 -0.00000000000E+00 -0.00000000000E+00 -0.13923074879E+04  0.13923074879E+04  0.00000000000E+00 0. -1.
         25    2    1    2    0    0 -0.29536496491E+03 -0.96624783228E+02 -0.35844878446E+03  0.49059832606E+03  0.12499750088E+03 0.  0.
          2    1    1    2  501    0 -0.25185956751E+02  0.60918500480E+02 -0.92160896295E+03  0.92396346070E+03  0.00000000000E+00 0. -1.
          1    1    1    2  502    0  0.32055092166E+03  0.35706282748E+02  0.53296395177E+03  0.62295939345E+03  0.00000000000E+00 0. -1.
         22    1    3    3    0    0 -0.31838563930E+02 -0.38960928042E+02 -0.12390535070E+02  0.51818659056E+02  0.00000000000E+00 0. -1.
         22    1    3    3    0    0 -0.26352640098E+03 -0.57663855186E+02 -0.34605824939E+03  0.43877966701E+03  0.00000000000E+00 0. -1.
</event>
<event>
 7    1  0.7459264E-005  0.1805537E+03  0.7818608E-02  0.1191553E+00
          2   -1    0    0  502    0  0.00000000000E+00  0.00000000000E+00  0.22323131627E+03  0.22323131627E+03  0.00000000000E+00 0. -1.
          1   -1    0    0  501    0 -0.00000000000E+00 -0.00000000000E+00 -0.11793098424E+04  0.11793098424E+04  0.00000000000E+00 0. -1.
         25    2    1    2    0    0  0.20124884187E+03  0.92457167427E+02 -0.38152704716E+02  0.25715510431E+03  0.12499477843E+03 0.  0.
          2    1    1    2  501    0 -0.12156646244E+03  0.63998912794E+02 -0.95592161614E+03  0.96574344514E+03  0.00000000000E+00 0. -1.
          1    1    1    2  502    0 -0.79682379428E+02 -0.15645608022E+03  0.37995794719E+02  0.17964260922E+03  0.00000000000E+00 0. -1.
         22    1    3    3    0    0  0.16732412333E+03  0.10555958930E+03  0.84773346919E+01  0.19802033821E+03  0.00000000000E+00 0. -1.
         22    1    3    3    0    0  0.33924718534E+02 -0.13102421873E+02 -0.46630039408E+02  0.59134766101E+02  0.00000000000E+00 0. -1.
</event>
<event>
 7    1  0.7459264E-005  0.1245075E+03  0.7818608E-02  0.1259403E+00
          2   -1    0    0  502    0  0.00000000000E+00  0.00000000000E+00  0.12143107382E+04  0.12143107382E+04  0.00000000000E+00 0. -1.
          1   -1    0    0  501    0 -0.00000000000E+00 -0.00000000000E+00 -0.54779912937E+03  0.54779912937E+03  0.00000000000E+00 0. -1.
         25    2    1    2    0    0 -0.78909981853E+02 -0.16449975729E+03 -0.38616593910E+03  0.44501298752E+03  0.12500188461E+03 0.  0.
          2    1    1    2  501    0  0.89480050840E+02  0.40705104313E+02 -0.11015792644E+03  0.14764265567E+03  0.00000000000E+00 0. -1.
          1    1    1    2  502    0 -0.10570068988E+02  0.12379465298E+03  0.11628354744E+04  0.11694542244E+04  0.00000000000E+00 0. -1.
         22    1    3    3    0    0 -0.35214455961E+01 -0.33844357209E+01 -0.14632999534E+03  0.14641148357E+03  0.00000000000E+00 0.  1.
         22    1    3    3    0    0 -0.75388536257E+02 -0.16111532157E+03 -0.23983594376E+03  0.29860150395E+03  0.00000000000E+00 0.  1.
</event>
<event>
 7    1  0.7459264E-005  0.6454753E+03  0.7818608E-02  0.1056882E+00
          2   -1    0    0  502    0  0.00000000000E+00  0.00000000000E+00  0.30217866201E+04  0.30217866201E+04  0.00000000000E+00 0. -1.
          1   -1    0    0  501    0 -0.00000000000E+00 -0.00000000000E+00 -0.53000878533E+03  0.53000878533E+03  0.00000000000E+00 0. -1.
         25    2    1    2    0    0  0.20066696626E+03 -0.76886472822E+03  0.68682320560E+03  0.10577191847E+04  0.12499422517E+03 0.  0.
          2    1    1    2  501    0 -0.20874169745E+03  0.56337971502E+03 -0.72703439533E+02  0.60519053997E+03  0.00000000000E+00 0. -1.
          1    1    1    2  502    0  0.80747311836E+01  0.20548501320E+03  0.18776580687E+04  0.18888856807E+04  0.00000000000E+00 0. -1.
         22    1    3    3    0    0  0.80762618855E+02 -0.43916730774E+03  0.45320816771E+03  0.63622965042E+03  0.00000000000E+00 0.  1.
         22    1    3    3    0    0  0.11990434741E+03 -0.32969742048E+03  0.23361503789E+03  0.42148953430E+03  0.00000000000E+00 0.  1.
</event>
<event>
 7    1  0.7459264E-005  0.1589227E+03  0.7818608E-02  0.1255330E+00
          2   -1    0    0  502    0  0.00000000000E+00  0.00000000000E+00  0.20712775371E+04  0.20712775371E+04  0.00000000000E+00 0. -1.
          1   -1    0    0  501    0 -0.00000000000E+00 -0.00000000000E+00 -0.28704250238E+03  0.28704250238E+03  0.00000000000E+00 0. -1.
         25    2    1    2    0    0  0.10477209019E+03 -0.20991655306E+03  0.45344835364E+02  0.26967182375E+03  0.12499835318E+03 0.  0.
          2    1    1    2  501    0 -0.49164172537E+02  0.63331897326E+02 -0.16229036379E+03  0.18101438413E+03  0.00000000000E+00 0. -1.
          1    1    1    2  502    0 -0.55607917649E+02  0.14658465574E+03  0.19011805632E+04  0.19076338316E+04  0.00000000000E+00 0. -1.
         22    1    3    3    0    0  0.67620729874E+01 -0.10202413387E+03 -0.28673841616E+02  0.10619246073E+03  0.00000000000E+00 0. -1.
         22    1    3    3    0    0  0.98010017198E+02 -0.10789241919E+03  0.74018676980E+02  0.16347936302E+03  0.00000000000E+00 0. -1.
</event>
<event>
 7    1  0.7459264E-005  0.1623068E+03  0.7818608E-02  0.1306642E+00
          2   -1    0    0  502    0  0.00000000000E+00  0.00000000000E+00  0.46529939083E+03  0.46529939083E+03  0.00000000000E+00 0. -1.
          1   -1    0    0  501    0 -0.00000000000E+00 -0.00000000000E+00 -0.36095791845E+03  0.36095791845E+03  0.00000000000E+00 0. -1.
         25    2    1    2    0    0 -0.19330351602E+03  0.39606233456E+02  0.36359606444E+03  0.43215923503E+03  0.12499841323E+03 0.  0.
          2    1    1    2  501    0  0.14930408887E+03 -0.59297006679E+02 -0.29375932208E+03  0.33481694291E+03  0.00000000000E+00 0. -1.
          1    1    1    2  502    0  0.43999427146E+02  0.19690773223E+02  0.34504730021E+02  0.59281131342E+02  0.00000000000E+00 0. -1.
         22    1    3    3    0    0 -0.18739708689E+03 -0.43830765268E+01  0.31316732978E+03  0.36498035012E+03  0.00000000000E+00 0.  1.
         22    1    3    3    0    0 -0.59064291299E+01  0.43989309982E+02  0.50428734657E+02  0.67178884904E+02  0.00000000000E+00 0.  1.
</event>
<event>
 7    1  0.7459264E-005  0.4810664E+03  0.7818608E-02  0.1035874E+00
          2   -1    0    0  502    0  0.00000000000E+00  0.00000000000E+00  0.10824153467E+04  0.10824153467E+04  0.00000000000E+00 0. -1.
          1   -1    0    0  501    0 -0.00000000000E+00 -0.00000000000E+00 -0.11144727011E+04  0.11144727011E+04  0.00000000000E+00 0. -1.
         25    2    1    2    0    0  0.64878415622E+03 -0.27148628518E+03 -0.25934914400E+03  0.75994612091E+03  0.12502177332E+03 0.  0.
          2    1    1    2  501    0 -0.27886465949E+03  0.32045266284E+03 -0.47771756384E+03  0.63927261652E+03  0.00000000000E+00 0. -1.
          1    1    1    2  502    0 -0.36991949673E+03 -0.48966377667E+02  0.70500935350E+03  0.79766931038E+03  0.00000000000E+00 0. -1.
         22    1    3    3    0    0  0.27639346804E+03 -0.65176303437E+02 -0.14642756388E+03  0.31950325690E+03  0.00000000000E+00 0. -1.
         22    1    3    3    0    0  0.37239068817E+03 -0.20630998174E+03 -0.11292158012E+03  0.44044286401E+03  0.00000000000E+00 0. -1.
</event>
<event>
 7    1  0.7459264E-005  0.1180215E+04  0.7818608E-02  0.1187856E+00
          2   -1    0    0  502    0  0.00000000000E+00  0.00000000000E+00  0.23018948063E+04  0.23018948063E+04  0.00000000000E+00 0. -1.
          1   -1    0    0  501    0 -0.00000000000E+00 -0.00000000000E+00 -0.14638887163E+04  0.14638887163E+04  0.00000000000E+00 0. -1.
         25    2    1    2    0    0 -0.18141286978E+03 -0.11738048067E+04 -0.51513199951E+03  0.13006593094E+04  0.12500123442E+03 0.  0.
          2    1    1    2  501    0  0.16826341054E+03  0.11562994620E+04  0.58121645835E+02  0.11699227097E+04  0.00000000000E+00 0. -1.
          1    1    1    2  502    0  0.13149459238E+02  0.17505344744E+02  0.12950164436E+04  0.12952015035E+04  0.00000000000E+00 0. -1.
         22    1    3    3    0    0 -0.42797367616E+02 -0.67783806893E+03 -0.30282638329E+03  0.74363961754E+03  0.00000000000E+00 0. -1.
         22    1    3    3    0    0 -0.13861550217E+03 -0.49596673778E+03 -0.21230561622E+03  0.55701969185E+03  0.00000000000E+00 0. -1.
</event>
<event>
 7    1  0.7459264E-005  0.1896029E+03  0.7818608E-02  0.1229316E+00
          2   -1    0    0  502    0  0.00000000000E+00  0.00000000000E+00  0.59686430410E+03  0.59686430410E+03  0.00000000000E+00 0. -1.
          1   -1    0    0  501    0 -0.00000000000E+00 -0.00000000000E+00 -0.22571446292E+04  0.22571446292E+04  0.00000000000E+00 0. -1.
         25    2    1    2    0    0 -0.90099649413E+02  0.55329861177E+02 -0.50394570016E+03  0.52987288700E+03  0.12499866920E+03 0.  0.
          2    1    1    2  501    0 -0.63791166380E+02  0.59793949515E+02 -0.17232826737E+04  0.17254992908E+04  0.00000000000E+00 0. -1.
          1    1    1    2  502    0  0.15389081579E+03 -0.11512381069E+03  0.56694804876E+03  0.59863675544E+03  0.00000000000E+00 0. -1.
         22    1    3    3    0    0 -0.11773835300E+02 -0.24354018822E+02 -0.21208723785E+02  0.34373702085E+02  0.00000000000E+00 0.  1.
         22    1    3    3    0    0 -0.78325814113E+02  0.79683879999E+02 -0.48273697637E+03  0.49549918491E+03  0.00000000000E+00 0.  1.
</event>
<event>
 7    1  0.7459264E-005  0.1269246E+03  0.7818608E-02  0.1300755E+00
          2   -1    0    0  502    0  0.00000000000E+00  0.00000000000E+00  0.62801058914E+03  0.62801058914E+03  0.00000000000E+00 0. -1.
          1   -1    0    0  501    0 -0.00000000000E+00 -0.00000000000E+00 -0.60642706276E+03  0.60642706276E+03  0.00000000000E+00 0. -1.
         25    2    1    2    0    0  0.13869218776E+03  0.82081294659E+02  0.15533295884E+03  0.25637270857E+03  0.12500310283E+03 0.  0.
          2    1    1    2  501    0 -0.76279125728E+02 -0.10044794141E+03 -0.54617000083E+03  0.56054434594E+03  0.00000000000E+00 0. -1.
          1    1    1    2  502    0 -0.62413062034E+02  0.18366646756E+02  0.41242056837E+03  0.41752059739E+03  0.00000000000E+00 0. -1.
         22    1    3    3    0    0  0.90518779436E+02  0.27523665840E+01  0.13301485767E+03  0.16091667817E+03  0.00000000000E+00 0. -1.
         22    1    3    3    0    0  0.48173408325E+02  0.79328928075E+02  0.22318101172E+02  0.95456030396E+02  0.00000000000E+00 0. -1.
</event>
<event>
 7    1  0.7459264E-005  0.8337631E+03  0.7818608E-02  0.1174804E+00
          2   -1    0    0  502    0  0.00000000000E+00  0.00000000000E+00  0.11622962832E+04  0.11622962832E+04  0.00000000000E+00 0. -1.
          1   -1    0    0  501    0 -0.00000000000E+00 -0.00000000000E+00 -0.11174152842E+04  0.11174152842E+04  0.00000000000E+00 0. -1.
         25    2    1    2    0    0 -0.80352283380E+03  0.14983629730E+03  0.29945958515E+03  0.87943260297E+03  0.12500319836E+03 0.  0.
          2    1    1    2  501    0 -0.35634815361E+02 -0.41570247351E+01 -0.50987131965E+03  0.51113196292E+03  0.00000000000E+00 0. -1.
          1    1    1    2  502    0  0.83915764916E+03 -0.14567927256E+03  0.25529273349E+03  0.88914700156E+03  0.00000000000E+00 0. -1.
         22    1    3    3    0    0  0.80947311346E+00  0.64027049416E+01  0.11432403300E+02  0.13128203323E+02  0.00000000000E+00 0. -1.
         22    1    3    3    0    0 -0.80433230692E+03  0.14343359236E+03  0.28802718185E+03  0.86630439965E+03  0.00000000000E+00 0. -1.
</event>
<event>
 7    1  0.7459264E-005  0.6244767E+03  0.7818608E-02  0.1189054E+00
          2   -1    0    0  502    0  0.00000000000E+00  0.00000000000E+00  0.19567712983E+04  0.19567712983E+04  0.00000000000E+00 0. -1.
          1   -1    0    0  501    0 -0.00000000000E+00 -0.00000000000E+00 -0.81187892203E+03  0.81187892203E+03  0.00000000000E+00 0. -1.
         25    2    1    2    0    0 -0.26195944587E+03 -0.59668345604E+03 -0.24264217548E+03  0.70650802367E+03  0.12499785676E+03 0.  0.
          2    1    1    2  501    0  0.36865007057E+02  0.17557515310E+02 -0.27981878723E+03  0.28278233463E+03  0.00000000000E+00 0. -1.
          1    1    1    2  502    0  0.22509443881E+03  0.57912594073E+03  0.16673533389E+04  0.17793598620E+04  0.00000000000E+00 0. -1.
         22    1    3    3    0    0  0.51392671948E+01 -0.18776087207E+02  0.96091957650E+01  0.21709218349E+02  0.00000000000E+00 0.  1.
         22    1    3    3    0    0 -0.26709871306E+03 -0.57790736884E+03 -0.25225137125E+03  0.68479880532E+03  0.00000000000E+00 0.  1.
</event>
<event>
 7    1  0.7459264E-005  0.9207528E+02  0.7818608E-02  0.1387876E+00
          2   -1    0    0  502    0  0.00000000000E+00  0.00000000000E+00  0.65441255231E+02  0.65441255231E+02  0.00000000000E+00 0. -1.
          1   -1    0    0  501    0 -0.00000000000E+00 -0.00000000000E+00 -0.15886408670E+04  0.15886408670E+04  0.00000000000E+00 0. -1.
         25    2    1    2    0    0 -0.53618990953E+02 -0.61846976600E+02 -0.38815791907E+03  0.41592376977E+03  0.12500386960E+03 0.  0.
          2    1    1    2  501    0  0.23467781090E+02  0.91572947558E+02 -0.11756780242E+04  0.11794724066E+04  0.00000000000E+00 0. -1.
          1    1    1    2  502    0  0.30151209863E+02 -0.29725970957E+02  0.40636331460E+02  0.58685945848E+02  0.00000000000E+00 0. -1.
         22    1    3    3    0    0 -0.43670844101E+02  0.10975757148E+02 -0.40439926313E+02  0.60522702432E+02  0.00000000000E+00 0. -1.
         22    1    3    3    0    0 -0.99481468525E+01 -0.72822733748E+02 -0.34771799276E+03  0.35540106734E+03  0.00000000000E+00 0. -1.
</event>
<event>
 7    1  0.7459264E-005  0.8986052E+03  0.7818608E-02  0.1137895E+00
          2   -1    0    0  502    0  0.00000000000E+00  0.00000000000E+00  0.87062239608E+03  0.87062239608E+03  0.00000000000E+00 0. -1.
          1   -1    0    0  501    0 -0.00000000000E+00 -0.00000000000E+00 -0.34707778064E+04  0.34707778064E+04  0.00000000000E+00 0. -1.
         25    2    1    2    0    0  0.54301682803E+03  0.68345985664E+03 -0.90155742598E+03  0.12611167264E+04  0.12499981695E+03 0.  0.
          2    1    1    2  501    0  0.51298325184E+02  0.17020848860E+00 -0.20920492217E+04  0.20926780673E+04  0.00000000000E+00 0. -1.
          1    1    1    2  502    0 -0.59431515321E+03 -0.68363006512E+03  0.39345123735E+03  0.98760540878E+03  0.00000000000E+00 0. -1.
         22    1    3    3    0    0  0.13997753563E+03  0.24460222039E+03 -0.34810132149E+03  0.44788222417E+03  0.00000000000E+00 0. -1.
         22    1    3    3    0    0  0.40303929239E+03  0.43885763625E+03 -0.55345610449E+03  0.81323450228E+03  0.00000000000E+00 0. -1.
</event>
<event>
 7    1  0.7459264E-005  0.2278606E+03  0.7818608E-02  0.1316867E+00
          2   -1    0    0  502    0  0.00000000000E+00  0.00000000000E+00  0.20836595818E+04  0.20836595818E+04  0.00000000000E+00 0. -1.
          1   -1    0    0  501    0 -0.00000000000E+00 -0.00000000000E+00 -0.11904370084E+04  0.11904370084E+04  0.00000000000E+00 0. -1.
         25    2    1    2    0    0  0.17352663811E+03  0.93756645202E+02  0.56345369700E+03  0.60992349921E+03  0.12499921426E+03 0.  0.
          2    1    1    2  501    0 -0.20220349320E+03 -0.10630421509E+03 -0.11558579021E+04  0.11782165882E+04  0.00000000000E+00 0. -1.
          1    1    1    2  502    0  0.28676855089E+02  0.12547569891E+02  0.14856267785E+04  0.14859565029E+04  0.00000000000E+00 0. -1.
         22    1    3    3    0    0  0.10313461516E+03 -0.76525523726E+01  0.18628096133E+03  0.21306315251E+03  0.00000000000E+00 0.  1.
         22    1    3    3    0    0  0.70392022950E+02  0.10140919758E+03  0.37717273567E+03  0.39686034670E+03  0.00000000000E+00 0.  1.
</event>
<event>
 7    1  0.7459264E-005  0.3100649E+03  0.7818608E-02  0.1120856E+00
          2   -1    0    0  502    0  0.00000000000E+00  0.00000000000E+00  0.93967032228E+03  0.93967032228E+03  0.00000000000E+00 0. -1.
          1   -1    0    0  501    0 -0.00000000000E+00 -0.00000000000E+00 -0.18458025384E+04  0.18458025384E+04  0.00000000000E+00 0. -1.
         25    2    1    2    0    0 -0.34189305178E+03  0.94251737100E+02  0.13827298227E+03  0.40064715029E+03  0.12499789040E+03 0.  0.
          2    1    1    2  501    0  0.44767959570E+02 -0.17776494154E+03 -0.16738111483E+04  0.16838195582E+04  0.00000000000E+00 0. -1.
          1    1    1    2  502    0  0.29712509221E+03  0.83513204442E+02  0.62940594982E+03  0.70100615219E+03  0.00000000000E+00 0. -1.
         22    1    3    3    0    0 -0.33260269021E+03  0.92551983239E+02  0.15731455525E+03  0.37939199838E+03  0.00000000000E+00 0.  1.
         22    1    3    3    0    0 -0.92903615678E+01  0.16997538606E+01 -0.19041572979E+02  0.21255151911E+02  0.00000000000E+00 0.  1.
</event>
<event>
 7    1  0.7459264E-005  0.6308067E+03  0.7818608E-02  0.1096347E+00
          2   -1    0    0  502    0  0.00000000000E+00  0.00000000000E+00  0.57857689521E+03  0.57857689521E+03  0.00000000000E+00 0. -1.
          1   -1    0    0  501    0 -0.00000000000E+00 -0.00000000000E+00 -0.24369418204E+04  0.24369418204E+04  0.00000000000E+00 0. -1.
         25    2    1    2    0    0 -0.68089824645E+03  0.24474605436E+03 -0.57538661743E+03  0.93285416326E+03  0.12499630900E+03 0.  0.
          2    1    1    2  501    0  0.10645510223E+03 -0.62055265828E+02 -0.14515284256E+04  0.14567492287E+04  0.00000000000E+00 0. -1.
          1    1    1    2  502    0  0.57444314422E+03 -0.18269078853E+03  0.16855011789E+03  0.62591532366E+03  0.00000000000E+00 0. -1.
         22    1    3    3    0    0 -0.59984152975E+03  0.22601889504E+03 -0.45321147222E+03  0.78504461038E+03  0.00000000000E+00 0. -1.
         22    1    3    3    0    0 -0.81056716697E+02  0.18727159316E+02 -0.12217514521E+03  0.14780955289E+03  0.00000000000E+00 0. -1.
</event>
<event>
 7    1  0.7459264E-005  0.2868739E+03  0.7818608E-02  0.1306326E+00
          2   -1    0    0  502    0  0.00000000000E+00  0.00000000000E+00  0.29261612244E+03  0.29261612244E+03  0.00000000000E+00 0. -1.
          1   -1    0    0  501    0 -0.00000000000E+00 -0.00000000000E+00 -0.81574212333E+03  0.81574212333E+03  0.00000000000E+00 0. -1.
         25    2    1    2    0    0  0.89929366600E+02 -0.27592716586E+03  0.16750033216E+03  0.35763790005E+03  0.12500165775E+03 0.  0.
          2    1    1    2  501    0  0.19604285141E+01  0.27281357837E+02 -0.93079444795E+02  0.97014941162E+02  0.00000000000E+00 0. -1.
          1    1    1    2  502    0 -0.91889795114E+02  0.24864580802E+03 -0.59754688826E+03  0.65370540457E+03  0.00000000000E+00 0. -1.
         22    1    3    3    0    0  0.40497732549E+01  0.13453235309E+02  0.91896804215E+01  0.16788103822E+02  0.00000000000E+00 0. -1.
         22    1    3    3    0    0  0.85879593345E+02 -0.28938040117E+03  0.15831065174E+03  0.34084979623E+03  0.00000000000E+00 0. -1.
</event>
<event>
 7    1  0.7459264E-005  0.2011235E+03  0.7818608E-02  0.1193381E+00
          2   -1    0    0  502    0  0.00000000000E+00  0.00000000000E+00  0.16218255357E+04  0.16218255357E+04  0.00000000000E+00 0. -1.
          1   -1    0    0  501    0 -0.00000000000E+00 -0.00000000000E+00 -0.43765638419E+04  0.43765638419E+04  0.00000000000E+00 0. -1.
         25    2    1    2    0    0 -0.28214855121E+03 -0.13274071272E+03 -0.18134509784E+04  0.18443041803E+04  0.12500222598E+03 0.  0.
          2    1    1    2  501    0  0.87560131356E+02  0.83333313329E+02 -0.25399706439E+04  0.25428452744E+04  0.00000000000E+00 0. -1.
          1    1    1    2  502    0  0.19458841985E+03  0.49407399388E+02  0.15986833161E+04  0.16112399230E+04  0.00000000000E+00 0. -1.
         22    1    3    3    0    0  0.57433701381E+01 -0.35380006809E+01 -0.46709357798E+01  0.82049613296E+01  0.00000000000E+00 0. -1.
         22    1    3    3    0    0 -0.28789192134E+03 -0.12920271204E+03 -0.18087800426E+04  0.18360992189E+04  0.00000000000E+00 0. -1.
</event>
<event>
 7    1  0.7459264E-005  0.5090830E+03  0.7818608E-02  0.1121113E+00
          2   -1    0    0  502    0  0.00000000000E+00  0.00000000000E+00  0.11486271365E+04  0.11486271365E+04  0.00000000000E+00 0. -1.
          1   -1    0    0  501    0 -0.00000000000E+00 -0.00000000000E+00 -0.53400234218E+03  0.53400234218E+03  0.00000000000E+00 0. -1.
         25    2    1    2    0    0 -0.85806306185E+02 -0.48785607384E+03  0.28978664468E+03  0.58734070786E+03  0.12500614667E+03 0.  0.
          2    1    1    2  501    0  0.10585102379E+03 -0.34377959578E+02 -0.27681292514E+03  0.29834825099E+03  0.00000000000E+00 0. -1.
          1    1    1    2  502    0 -0.20044717604E+02  0.52223403342E+03  0.60165107477E+03  0.79694051983E+03  0.00000000000E+00 0. -1.
         22    1    3    3    0    0 -0.63377316229E+02 -0.43732491765E+03  0.20745000776E+03  0.48816521130E+03  0.00000000000E+00 0.  1.
         22    1    3    3    0    0 -0.22428989956E+02 -0.50531156196E+02  0.82336636926E+02  0.99175496556E+02  0.00000000000E+00 0.  1.
</event>
<event>
 7    1  0.7459264E-005  0.7733357E+02  0.7818608E-02  0.1461965E+00
          2   -1    0    0  502    0  0.00000000000E+00  0.00000000000E+00  0.21864098086E+04  0.21864098086E+04  0.00000000000E+00 0. -1.
          1   -1    0    0  501    0 -0.00000000000E+00 -0.00000000000E+00 -0.27784590887E+03  0.27784590887E+03  0.00000000000E+00 0. -1.
         25    2    1    2    0    0 -0.31021983829E+02  0.58390484642E+02 -0.86605002678E+02  0.16581708610E+03  0.12499226926E+03 0.  0.
          2    1    1    2  501    0 -0.27547284115E+02 -0.77591479190E+01 -0.14957979510E+03  0.15229304758E+03  0.00000000000E+00 0. -1.
          1    1    1    2  502    0  0.58569267944E+02 -0.50631336723E+02  0.21447486975E+04  0.21461455838E+04  0.00000000000E+00 0. -1.
         22    1    3    3    0    0  0.35799359870E+02  0.64071851993E+02 -0.54793414120E+02  0.91592110009E+02  0.00000000000E+00 0. -1.
         22    1    3    3    0    0 -0.66821343700E+02 -0.56813673507E+01 -0.31811588558E+02  0.74224976089E+02  0.00000000000E+00 0. -1.
</event>
<event>
 7    1  0.7459264E-005  0.7429599E+02  0.7818608E-02  0.1428242E+00
          2   -1    0    0  502    0  0.00000000000E+00  0.00000000000E+00  0.86766464437E+03  0.86766464437E+03  0.00000000000E+00 0. -1.
          1   -1    0    0  501    0 -0.00000000000E+00 -0.00000000000E+00 -0.12548719925E+03  0.12548719925E+03  0.00000000000E+00 0. -1.
         25    2    1    2    0    0  0.74107583349E+02  0.81059757141E+02  0.18596550187E+03  0.24953925551E+03  0.12499621601E+03 0.  0.
          2    1    1    2  501    0 -0.44943959059E+02 -0.56297114934E+02 -0.79193869181E+02  0.10705602982E+03  0.00000000000E+00 0. -1.
          1    1    1    2  502    0 -0.29163624291E+02 -0.24762642207E+02  0.63540581243E+03  0.63655655829E+03  0.00000000000E+00 0. -1.
         22    1    3    3    0    0  0.61830399875E+02  0.11446661454E+03  0.15500302556E+03  0.20236487374E+03  0.00000000000E+00 0. -1.
         22    1    3    3    0    0  0.12277183474E+02 -0.33406857403E+02  0.30962476313E+02  0.47174381766E+02  0.00000000000E+00 0. -1.
</event>
<event>
 7    1  0.7459264E-005  0.2512398E+03  0.7818608E-02  0.1122968E+00
          2   -1    0    0  502    0  0.00000000000E+00  0.00000000000E+00  0.63402553331E+03  0.63402553331E+03  0.00000000000E+00 0. -1.
          1   -1    0    0  501    0 -0.00000000000E+00 -0.00000000000E+00 -0.10433663988E+04  0.10433663988E+04  0.00000000000E+00 0. -1.
         25    2    1    2    0    0  0.21445669375E+03 -0.66940346152E+02 -0.37507971789E+03  0.45473320020E+03  0.12499922061E+03 0.  0.
          2    1    1    2  501    0 -0.15345523577E+03  0.27868825275E+03 -0.56476479754E+03  0.64820901579E+03  0.00000000000E+00 0. -1.
          1    1    1    2  502    0 -0.61001457977E+02 -0.21174790660E+03  0.53050364990E+03  0.57444971615E+03  0.00000000000E+00 0. -1.
         22    1    3    3    0    0  0.74180434252E+02 -0.70671805306E+02 -0.23544068529E+03  0.25676751582E+03  0.00000000000E+00 0.  1.
         22    1    3    3    0    0  0.14027625950E+03  0.37314591544E+01 -0.13963903261E+03  0.19796568438E+03  0.00000000000E+00 0.  1.
</event>
<event>
 7    1  0.7459264E-005  0.8554067E+02  0.7818608E-02  0.1358572E+00
          2   -1    0    0  502    0  0.00000000000E+00  0.00000000000E+00  0.13645474001E+04  0.13645474001E+04  0.00000000000E+00 0. -1.
          1   -1    0    0  501    0 -0.00000000000E+00 -0.00000000000E+00 -0.19884574180E+03  0.19884574180E+03  0.00000000000E+00 0. -1.
         25    2    1    2    0    0 -0.39169112058E+02  0.83196845488E+02  0.45792611561E+02  0.16179815681E+03  0.12500298330E+03 0.  0.
          2    1    1    2  501    0 -0.37400781972E+02 -0.44356660097E+02 -0.13333590842E+03  0.14541250380E+03  0.00000000000E+00 0. -1.
          1    1    1    2  502    0  0.76569894030E+02 -0.38840185391E+02  0.12532449551E+04  0.12561824813E+04  0.00000000000E+00 0. -1.
         22    1    3    3    0    0 -0.72998435833E+01  0.55258137188E+02  0.86585013887E+02  0.10297433696E+03  0.00000000000E+00 0.  1.
         22    1    3    3    0    0 -0.31869268475E+02  0.27938708300E+02 -0.40792402326E+02  0.58823819853E+02  0.00000000000E+00 0.  1.
</event>
<event>
 7    1  0.7459264E-005  0.3369477E+03  0.7818608E-02  0.1180398E+00
          2   -1    0    0  502    0  0.00000000000E+00  0.00000000000E+00  0.16488253694E+04  0.16488253694E+04  0.00000000000E+00 0. -1.
          1   -1    0    0  501    0 -0.00000000000E+00 -0.00000000000E+00 -0.12323621662E+04  0.12323621662E+04  0.00000000000E+00 0. -1.
         25    2    1    2    0    0 -0.31096783151E+02 -0.38574737321E+03  0.84936678742E+03  0.94170986318E+03  0.12500192385E+03 0.  0.
          2    1    1    2  501    0  0.42257439559E+01  0.83235497950E+02 -0.11540156455E+04  0.11570212249E+04  0.00000000000E+00 0. -1.
          1    1    1    2  502    0  0.26871039195E+02  0.30251187526E+03  0.72111206125E+03  0.78245644755E+03  0.00000000000E+00 0. -1.
         22    1    3    3    0    0  0.47886239982E+02 -0.13608583097E+03  0.27833541578E+03  0.31350127439E+03  0.00000000000E+00 0. -1.
         22    1    3    3    0    0 -0.78983023133E+02 -0.24966154225E+03  0.57103137165E+03  0.62820858878E+03  0.00000000000E+00 0. -1.
</event>
<event>
 7    1  0.7459264E-005  0.2878349E+03  0.7818608E-02  0.1096961E+00
          2   -1    0    0  502    0  0.00000000000E+00  0.00000000000E+00  0.12237882105E+04  0.12237882105E+04  0.00000000000E+00 0. -1.
          1   -1    0    0  501    0 -0.00000000000E+00 -0.00000000000E+00 -0.96319327342E+03  0.96319327342E+03  0.00000000000E+00 0. -1.
         25    2    1    2    0    0 -0.17771254144E+03 -0.60488768660E+02  0.10388321548E+04  0.10630323923E+04  0.12499993030E+03 0.  0.
          2    1    1    2  501    0  0.20847073845E+03 -0.20562942457E+03 -0.80318758086E+03  0.85489987665E+03  0.00000000000E+00 0. -1.
          1    1    1    2  502    0 -0.30758197014E+02  0.26611819323E+03  0.24950363060E+02  0.26904921496E+03  0.00000000000E+00 0. -1.
         22    1    3    3    0    0 -0.47771880593E+02 -0.63024741453E+02  0.60512802909E+03  0.61027387475E+03  0.00000000000E+00 0.  1.
         22    1    3    3    0    0 -0.12994066084E+03  0.25359727935E+01  0.43370412575E+03  0.45275851752E+03  0.00000000000E+00 0.  1.
</event>
<event>
 7    1  0.7459264E-005  0.4703713E+03  0.7818608E-02  0.1145680E+00
          2   -1    0    0  502    0  0.00000000000E+00  0.00000000000E+00  0.26517551677E+04  0.26517551677E+04  0.00000000000E+00 0. -1.
          1   -1    0    0  501    0 -0.00000000000E+00 -0.00000000000E+00 -0.57102063816E+03  0.57102063816E+03  0.00000000000E+00 0. -1.
         25    2    1    2    0    0 -0.46339418449E+03  0.20768594994E+03 -0.19563543532E+03  0.55836026968E+03  0.12500137272E+03 0.  0.
          2    1    1    2  501    0  0.10228948127E+02 -0.88658033920E+02 -0.16010533625E+03  0.18329920091E+03  0.00000000000E+00 0. -1.
          1    1    1    2  502    0  0.45316523636E+03 -0.11902791602E+03  0.24364753011E+04  0.24811163353E+04  0.00000000000E+00 0. -1.
         22    1    3    3    0    0 -0.11324909627E+03  0.53460480090E+02  0.69591326426E+01  0.12542651341E+03  0.00000000000E+00 0. -1.
         22    1    3    3    0    0 -0.35014508822E+03  0.15422546985E+03 -0.20259456796E+03  0.43293375628E+03  0.00000000000E+00 0. -1.
</event>
<event>
 7    1  0.7459264E-005  0.2097873E+03  0.7818608E-02  0.1145683E+00
          2   -1    0    0  502    0  0.00000000000E+00  0.00000000000E+00  0.96964608968E+03  0.96964608968E+03  0.00000000000E+00 0. -1.
          1   -1    0    0  501    0 -0.00000000000E+00 -0.00000000000E+00 -0.41528887275E+03  0.41528887275E+03  0.00000000000E+00 0. -1.
         25    2    1    2    0    0  0.18823810243E+03 -0.14927993714E+03 -0.33277219273E+02  0.27282948724E+03  0.12494187827E+03 0.  0.
          2    1    1    2  501    0  0.20738213925E+02  0.19901569951E+03 -0.20762194149E+03  0.28834734740E+03  0.00000000000E+00 0. -1.
          1    1    1    2  502    0 -0.20897631636E+03 -0.49735762367E+02  0.79525637769E+03  0.82375812779E+03  0.00000000000E+00 0. -1.
         22    1    3    3    0    0  0.55951272534E+02  0.15247912885E+02  0.52486286683E+01  0.58228788829E+02  0.00000000000E+00 0.  1.
         22    1    3    3    0    0  0.13228682990E+03 -0.16452785003E+03 -0.38525847941E+02  0.21460069841E+03  0.00000000000E+00 0.  1.
</event>
<event>
 7    1  0.7459264E-005  0.3441874E+03  0.7818608E-02  0.1089844E+00
          2   -1    0    0  502    0  0.00000000000E+00  0.00000000000E+00  0.10160746455E+04  0.10160746455E+04  0.00000000000E+00 0. -1.
          1   -1    0    0  501    0 -0.00000000000E+00 -0.00000000000E+00 -0.92487411158E+03  0.92487411158E+03  0.00000000000E+00 0. -1.
         25    2    1    2    0    0 -0.27383007190E+03  0.36693354533E+03  0.31382317523E+03  0.56897529836E+03  0.12499907944E+03 0.  0.
          2    1    1    2  501    0 -0.20882350091E+02 -0.24509291519E+03 -0.73131947302E+03  0.77157940695E+03  0.00000000000E+00 0. -1.
          1    1    1    2  502    0  0.29471242199E+03 -0.12184063014E+03  0.50869683172E+03  0.60039405180E+03  0.00000000000E+00 0. -1.
         22    1    3    3    0    0 -0.16403825707E+03  0.27865179709E+03  0.27051941678E+03  0.42158762868E+03  0.00000000000E+00 0.  1.
         22    1    3    3    0    0 -0.10979181483E+03  0.88281748243E+02  0.43303758455E+02  0.14738766968E+03  0.00000000000E+00 0.  1.
</event>
<event>
 7    1  0.7459264E-005  0.5577200E+03  0.7818608E-02  0.1089796E+00
          2   -1    0    0  502    0  0.00000000000E+00  0.00000000000E+00  0.24239919169E+04  0.24239919169E+04  0.00000000000E+00 0. -1.
          1   -1    0    0  501    0 -0.00000000000E+00 -0.00000000000E+00 -0.60455799285E+03  0.60455799285E+03  0.00000000000E+00 0. -1.
         25    2    1    2    0    0 -0.43820632213E+03 -0.38567018454E+03  0.43292695586E+03  0.73743919215E+03  0.12499816399E+03 0.  0.
          2    1    1    2  501    0  0.49720273681E+03  0.24569694391E+03 -0.27752558999E+03  0.62015965915E+03  0.00000000000E+00 0. -1.
          1    1    1    2  502    0 -0.58996414677E+02  0.13997324063E+03  0.16640325582E+04  0.16709510585E+04  0.00000000000E+00 0. -1.
         22    1    3    3    0    0 -0.21236757112E+03 -0.11308298093E+03  0.20793494021E+03  0.31800107736E+03  0.00000000000E+00 0.  1.
         22    1    3    3    0    0 -0.22583875101E+03 -0.27258720361E+03  0.22499201565E+03  0.41943811479E+03  0.00000000000E+00 0.  1.
</event>
<event>
 7    1  0.7459264E-005  0.1722225E+03  0.7818608E-02  0.1181018E+00
          2   -1    0    0  502    0  0.00000000000E+00  0.00000000000E+00  0.21665410354E+04  0.21665410354E+04  0.00000000000E+00 0. -1.
          1   -1    0    0  501    0 -0.00000000000E+00 -0.00000000000E+00 -0.12723059131E+03  0.12723059131E+03  0.00000000000E+00 0. -1.
         25    2    1    2    0    0  0.12987633011E+03  0.19366915543E+03  0.18271222110E+03  0.32153305424E+03  0.12499658533E+03 0.  0.
          2    1    1    2  501    0  0.38465822180E+02 -0.15729196974E+03  0.68425381936E+02  0.17579083057E+03  0.00000000000E+00 0. -1.
          1    1    1    2  502    0 -0.16834215229E+03 -0.36377185698E+02  0.17881728410E+04  0.17964477419E+04  0.00000000000E+00 0. -1.
         22    1    3    3    0    0  0.13493834781E+03  0.96305645019E+02  0.13019270695E+03  0.21079202052E+03  0.00000000000E+00 0. -1.
         22    1    3    3    0    0 -0.50620177049E+01  0.97363510415E+02  0.52519514151E+02  0.11074103372E+03  0.00000000000E+00 0. -1.
</event>
<event>
 7    1  0.7459264E-005  0.1071340E+03  0.7818608E-02  0.1441678E+00
          2   -1    0    0  502    0  0.00000000000E+00  0.00000000000E+00  0.39466568859E+03  0.39466568859E+03  0.00000000000E+00 0. -1.
          1   -1    0    0  501    0 -0.00000000000E+00 -0.00000000000E+00 -0.33080004741E+03  0.33080004741E+03  0.00000000000E+00 0. -1.
         25    2    1    2    0    0 -0.92548455785E+02  0.91031570787E+02  0.12737007908E+03  0.22067524511E+03  0.12498985243E+03 0.  0.
          2    1    1    2  501    0  0.75917427901E+02 -0.73756335588E+02 -0.27358459227E+03  0.29334618120E+03  0.00000000000E+00 0. -1.
          1    1    1    2  502    0  0.16631027883E+02 -0.17275235199E+02  0.21008015437E+03  0.21144430969E+03  0.00000000000E+00 0. -1.
         22    1    3    3    0    0 -0.53340388847E+02 -0.22527665449E+02  0.57965358278E+02  0.81930919397E+02  0.00000000000E+00 0.  1.
         22    1    3    3    0    0 -0.39208066937E+02  0.11355923624E+03  0.69404720799E+02  0.13874432571E+03  0.00000000000E+00 0.  1.
</event>
<event>
 7    1  0.7459264E-005  0.2317803E+03  0.7818608E-02  0.1143520E+00
          2   -1    0    0  502    0  0.00000000000E+00  0.00000000000E+00  0.41715697262E+03  0.41715697262E+03  0.00000000000E+00 0. -1.
          1   -1    0    0  501    0 -0.00000000000E+00 -0.00000000000E+00 -0.44966825947E+03  0.44966825947E+03  0.00000000000E+00 0. -1.
         25    2    1    2    0    0  0.21829308551E+03 -0.13943772486E+03  0.18394350802E+03  0.34139860954E+03  0.12499218438E+03 0.  0.
          2    1    1    2  501    0  0.11333898884E+02  0.18550942272E+03 -0.22404734527E+03  0.29110035401E+03  0.00000000000E+00 0. -1.
          1    1    1    2  502    0 -0.22962698440E+03 -0.46071697853E+02  0.75925504011E+01  0.23432626854E+03  0.00000000000E+00 0. -1.
         22    1    3    3    0    0  0.17573234840E+03 -0.42397600971E+02  0.12862826994E+03  0.22186628106E+03  0.00000000000E+00 0. -1.
         22    1    3    3    0    0  0.42560737110E+02 -0.97040123893E+02  0.55315238078E+02  0.11953232848E+03  0.00000000000E+00 0. -1.
</event>
<event>
 7    1  0.7459264E-005  0.2063391E+03  0.7818608E-02  0.1295659E+00
          2   -1    0    0  502    0  0.00000000000E+00  0.00000000000E+00  0.18044529923E+04  0.18044529923E+04  0.00000000000E+00 0. -1.
          1   -1    0    0  501    0 -0.00000000000E+00 -0.00000000000E+00 -0.89121701187E+02  0.89121701187E+02  0.00000000000E+00 0. -1.
         25    2    1    2    0    0  0.19419649651E+03 -0.12128001606E+03  0.34834158277E+03  0.43518624568E+03  0.12499635429E+03 0.  0.
          2    1    1    2  501    0 -0.15224707297E+03  0.12145934039E+03  0.16384525326E+03  0.25451288693E+03  0.00000000000E+00 0. -1.
          1    1    1    2  502    0 -0.41949423536E+02 -0.17932432857E+00  0.12031444551E+04  0.12038755609E+04  0.00000000000E+00 0. -1.
         22    1    3    3    0    0  0.14328137610E+03 -0.78527655619E+02  0.32668160513E+03  0.36526294168E+03  0.00000000000E+00 0. -1.
         22    1    3    3    0    0  0.50915120412E+02 -0.42752360446E+02  0.21659977640E+02  0.69923303996E+02  0.00000000000E+00 0. -1.
</event>
<event>
 7    1  0.7459264E-005  0.1070203E+03  0.7818608E-02  0.1295734E+00
          2   -1    0    0  502    0  0.00000000000E+00  0.00000000000E+00  0.43253678916E+03  0.43253678916E+03  0.00000000000E+00 0. -1.
          1   -1    0    0  501    0 -0.00000000000E+00 -0.00000000000E+00 -0.23924444361E+03  0.23924444361E+03  0.00000000000E+00 0. -1.
         25    2    1    2    0    0 -0.10149599298E+03  0.99379231123E+02  0.21817536140E+03  0.28881820910E+03  0.12505119519E+03 0.  0.
          2    1    1    2  501    0  0.43100368533E+01 -0.80709786635E+02 -0.18094073819E+03  0.19817213935E+03  0.00000000000E+00 0. -1.
          1    1    1    2  502    0  0.97185956129E+02 -0.18669444488E+02  0.15605772234E+03  0.18479088432E+03  0.00000000000E+00 0. -1.
         22    1    3    3    0    0 -0.23284307312E+02 -0.11755984066E+02 -0.59101079933E+01  0.26744934190E+02  0.00000000000E+00 0. -1.
         22    1    3    3    0    0 -0.78211685671E+02  0.11113521519E+03  0.22408546939E+03  0.26207327491E+03  0.00000000000E+00 0. -1.
</event>
<event>
 7    1  0.7459264E-005  0.5277363E+03  0.7818608E-02  0.1212968E+00
          2   -1    0    0  502    0  0.00000000000E+00  0.00000000000E+00  0.14385803146E+04  0.14385803146E+04  0.00000000000E+00 0. -1.
          1   -1    0    0  501    0 -0.00000000000E+00 -0.00000000000E+00 -0.13944605760E+04  0.13944605760E+04  0.00000000000E+00 0. -1.
         25    2    1    2    0    0  0.22026178433E+03  0.47375490314E+03  0.12834083653E+03  0.55231818698E+03  0.12500018985E+03 0.  0.
          2    1    1    2  501    0  0.35864385283E+02 -0.10184045104E+02 -0.11182919798E+04  0.11189132768E+04  0.00000000000E+00 0. -1.
          1    1    1    2  502    0 -0.25612616961E+03 -0.46357085804E+03  0.10340708820E+04  0.11618094268E+04  0.00000000000E+00 0. -1.
         22    1    3    3    0    0 -0.13235289266E+01  0.11072606746E+03  0.41342431250E+02  0.11819987464E+03  0.00000000000E+00 0. -1.
         22    1    3    3    0    0  0.22158531325E+03  0.36302883569E+03  0.86998405277E+02  0.43411831234E+03  0.00000000000E+00 0. -1.
</event>
<event>
 7    1  0.7459264E-005  0.3265049E+03  0.7818608E-02  0.1261911E+00
          2   -1    0    0  502    0  0.00000000000E+00  0.00000000000E+00  0.92493550805E+03  0.92493550805E+03  0.00000000000E+00 0. -1.
          1   -1    0    0  501    0 -0.00000000000E+00 -0.00000000000E+00 -0.19253073644E+03  0.19253073644E+03  0.00000000000E+00 0. -1.
         25    2    1    2    0    0  0.28403958292E+03  0.10515272657E+03  0.38409607457E+03  0.50486693066E+03  0.12500097041E+03 0.  0.
          2    1    1    2  501    0 -0.31345367223E+03 -0.12689090946E+03  0.87583648563E+02  0.34932134638E+03  0.00000000000E+00 0. -1.
          1    1    1    2  502    0  0.29414089307E+02  0.21738182886E+02  0.26072504847E+03  0.26327796745E+03  0.00000000000E+00 0. -1.
         22    1    3    3    0    0  0.21314460091E+03  0.10994427449E+03  0.21756535083E+03  0.32381020100E+03  0.00000000000E+00 0.  1.
         22    1    3    3    0    0  0.70894982012E+02 -0.47915479183E+01  0.16653072374E+03  0.18105672966E+03  0.00000000000E+00 0.  1.
</event>
<event>
 7    1  0.7459264E-005  0.2424298E+03  0.7818608E-02  0.1142429E+00
          2   -1    0    0  502    0  0.00000000000E+00  0.00000000000E+00  0.92176429580E+03  0.92176429580E+03  0.00000000000E+00 0. -1.
          1   -1    0    0  501    0 -0.00000000000E+00 -0.00000000000E+00 -0.12581276411E+04  0.12581276411E+04  0.00000000000E+00 0. -1.
         25    2    1    2    0    0  0.22867510932E+03  0.20218917130E+03 -0.57243606008E+03  0.66066692580E+03  0.12499990936E+03 0.  0.
          2    1    1    2  501    0 -0.22890062470E+03 -0.22157971419E+02 -0.61120196378E+03  0.65303469450E+03  0.00000000000E+00 0. -1.
          1    1    1    2  502    0  0.22551537597E+00 -0.18003119989E+03  0.84727467852E+03  0.86619031665E+03  0.00000000000E+00 0. -1.
         22    1    3    3    0    0  0.17898863606E+03  0.15754491666E+03 -0.53094941729E+03  0.58203489270E+03  0.00000000000E+00 0. -1.
         22    1    3    3    0    0  0.49686473259E+02  0.44644254645E+02 -0.41486642795E+02  0.78632033091E+02  0.00000000000E+00 0. -1.
</event>
<event>
 7    1  0.7459264E-005  0.4071545E+03  0.7818608E-02  0.1162177E+00
          2   -1    0    0  502    0  0.00000000000E+00  0.00000000000E+00  0.86902778509E+03  0.86902778509E+03  0.00000000000E+00 0. -1.
          1   -1    0    0  501    0 -0.00000000000E+00 -0.00000000000E+00 -0.68006115126E+03  0.68006115126E+03  0.00000000000E+00 0. -1.
         25    2    1    2    0    0 -0.10928512275E+03 -0.36734918527E+03 -0.17486485390E+03  0.43942162203E+03  0.12499993122E+03 0.  0.
          2    1    1    2  501    0  0.19161018289E+03  0.38815596275E+03 -0.24334320590E+03  0.49658375876E+03  0.00000000000E+00 0. -1.
          1    1    1    2  502    0 -0.82325060136E+02 -0.20806777478E+02  0.60717469363E+03  0.61308355556E+03  0.00000000000E+00 0. -1.
         22    1    3    3    0    0 -0.16678388794E+02 -0.19152056367E+03 -0.32521788838E+02  0.19497682352E+03  0.00000000000E+00 0.  1.
         22    1    3    3    0    0 -0.92606733959E+02 -0.17582862161E+03 -0.14234306506E+03  0.24444479851E+03  0.00000000000E+00 0.  1.
</event>
<event>
 7    1  0.7459264E-005  0.6939880E+03  0.7818608E-02  0.1167775E+00
          2   -1    0    0  502    0  0.00000000000E+00  0.00000000000E+00  0.19085678842E+04  0.19085678842E+04  0.00000000000E+00 0. -1.
          1   -1    0    0  501    0 -0.00000000000E+00 -0.00000000000E+00 -0.59025420404E+03  0.59025420404E+03  0.00000000000E+00 0. -1.
         25    2    1    2    0    0 -0.25720646950E+03 -0.64776349824E+03  0.37129231008E+00  0.70808379572E+03  0.12501922374E+03 0.  0.
          2    1    1    2  501    0  0.21152363366E+03  0.65746496149E+03  0.26968235953E+03  0.74143846557E+03  0.00000000000E+00 0. -1.
          1    1    1    2  502    0  0.45682835834E+02 -0.97014632514E+01  0.10482600284E+04  0.10492998270E+04  0.00000000000E+00 0. -1.
         22    1    3    3    0    0 -0.25571821537E+03 -0.62634971851E+03  0.22951617880E+02  0.67692876458E+03  0.00000000000E+00 0. -1.
         22    1    3    3    0    0 -0.14882541223E+01 -0.21413779728E+02 -0.22580325570E+02  0.31155031141E+02  0.00000000000E+00 0. -1.
</event>
<event>
 7    1  0.7459264E-005  0.1837255E+03  0.7818608E-02  0.1196522E+00
          2   -1    0    0  502    0  0.00000000000E+00  0.00000000000E+00  0.13520041276E+04  0.13520041276E+04  0.00000000000E+00 0. -1.
          1   -1    0    0  501    0 -0.00000000000E+00 -0.00000000000E+00 -0.23089686572E+04  0.23089686572E+04  0.00000000000E+00 0. -1.
         25    2    1    2    0    0 -0.45674732452E+02 -0.36077246255E+02  0.31214011982E+03  0.34124015989E+03  0.12500257372E+03 0.  0.
          2    1    1    2  501    0  0.16033104846E+03  0.92639266956E+02 -0.22866760347E+04  0.22941611466E+04  0.00000000000E+00 0. -1.
          1    1    1    2  502    0 -0.11465631601E+03 -0.56562020701E+02  0.10175713853E+04  0.10255714783E+04  0.00000000000E+00 0. -1.
         22    1    3    3    0    0 -0.25438959392E+02 -0.82933497019E+02  0.19010198966E+03  0.20895902004E+03  0.00000000000E+00 0. -1.
         22    1    3    3    0    0 -0.20235773059E+02  0.46856250764E+02  0.12203813016E+03  0.13228113985E+03  0.00000000000E+00 0. -1.
</event>
<event>
 7    1  0.7459264E-005  0.6152022E+02  0.7818608E-02  0.1410146E+00
          2   -1    0    0  502    0  0.00000000000E+00  0.00000000000E+00  0.13215380109E+04  0.13215380109E+04  0.00000000000E+00 0. -1.
          1   -1    0    0  501    0 -0.00000000000E+00 -0.00000000000E+00 -0.96395277037E+02  0.96395277037E+02  0.00000000000E+00 0. -1.
         25    2    1    2    0    0  0.15452824490E+02 -0.11014067653E+03  0.84020524183E+03  0.85670298785E+03  0.12500161033E+03 0.  0.
          2    1    1    2  501    0  0.41523606297E+01  0.60780564804E+02 -0.75909313060E+02  0.97333154505E+02  0.00000000000E+00 0. -1.
          1    1    1    2  502    0 -0.19605185120E+02  0.49360111727E+02  0.46084680512E+03  0.46389714560E+03  0.00000000000E+00 0. -1.
         22    1    3    3    0    0  0.39275845949E+02 -0.65693123173E+02  0.19429379416E+03  0.20882590107E+03  0.00000000000E+00 0. -1.
         22    1    3    3    0    0 -0.23823021458E+02 -0.44447553358E+02  0.64591144766E+03  0.64787708678E+03  0.00000000000E+00 0. -1.
</event>
<event>
 7    1  0.7459264E-005  0.3714800E+03  0.7818608E-02  0.1168187E+00
          2   -1    0    0  502    0  0.00000000000E+00  0.00000000000E+00  0.70424074746E+03  0.70424074746E+03  0.00000000000E+00 0. -1.
          1   -1    0    0  501    0 -0.00000000000E+00 -0.00000000000E+00 -0.88945533763E+03  0.88945533763E+03  0.00000000000E+00 0. -1.
         25    2    1    2    0    0 -0.11340115437E+03  0.39113483508E+03 -0.54684727525E+03  0.69319076826E+03  0.12500087089E+03 0.  0.
          2    1    1    2  501    0  0.69521828711E+02 -0.31620176823E+03 -0.16734589760E+03  0.36444683061E+03  0.00000000000E+00 0. -1.
          1    1    1    2  502    0  0.43879325662E+02 -0.74933066857E+02  0.52897858268E+03  0.53605848623E+03  0.00000000000E+00 0. -1.
         22    1    3    3    0    0 -0.45801265437E+02  0.36139117502E+02 -0.12345619649E+03  0.13654751621E+03  0.00000000000E+00 0.  1.
         22    1    3    3    0    0 -0.67599888936E+02  0.35499571758E+03 -0.42339107876E+03  0.55664325205E+03  0.00000000000E+00 0.  1.
</event>
<event>
 7    1  0.7459264E-005  0.7281580E+03  0.7818608E-02  0.1145370E+00
          2   -1    0    0  502    0  0.00000000000E+00  0.00000000000E+00  0.10346704132E+04  0.10346704132E+04  0.00000000000E+00 0. -1.
          1   -1    0    0  501    0 -0.00000000000E+00 -0.00000000000E+00 -0.75077225356E+03  0.75077225356E+03  0.00000000000E+00 0. -1.
         25    2    1    2    0    0  0.60754676714E+03  0.40770667801E+03  0.26680430559E+03  0.78876300378E+03  0.12499891638E+03 0.  0.
          2    1    1    2  501    0 -0.38693532347E+02  0.43024694185E+02 -0.22443045251E+03  0.23177001913E+03  0.00000000000E+00 0. -1.
          1    1    1    2  502    0 -0.56885323480E+03 -0.45073137219E+03  0.24152430659E+03  0.76490964387E+03  0.00000000000E+00 0. -1.
         22    1    3    3    0    0  0.20307940063E+03  0.16888643810E+03  0.39928673301E+02  0.26712950208E+03  0.00000000000E+00 0.  1.
         22    1    3    3    0    0  0.40446736652E+03  0.23882023991E+03  0.22687563228E+03  0.52163350170E+03  0.00000000000E+00 0.  1.
</event>
<event>
 7    1  0.7459264E-005  0.8469986E+03  0.7818608E-02  0.1122973E+00
          2   -1    0    0  502    0  0.00000000000E+00  0.00000000000E+00  0.23566795399E+04  0.23566795399E+04  0.00000000000E+00 0. -1.
          1   -1    0    0  501    0 -0.00000000000E+00 -0.00000000000E+00 -0.12207764682E+04  0.12207764682E+04  0.00000000000E+00 0. -1.
         25    2    1    2    0    0 -0.76928767162E+03  0.21586149302E+03  0.26484447033E+03  0.85098014574E+03  0.12499963645E+03 0.  0.
          2    1    1    2  501    0  0.83271888784E+03 -0.23162330012E+03 -0.72557348951E+03  0.11285065299E+04  0.00000000000E+00 0. -1.
          1    1    1    2  502    0 -0.63431216221E+02  0.15761807102E+02  0.15966320909E+04  0.15979693324E+04  0.00000000000E+00 0. -1.
         22    1    3    3    0    0 -0.63565726677E+03  0.22545440391E+03  0.21243914193E+03  0.70712109152E+03  0.00000000000E+00 0. -1.
         22    1    3    3    0    0 -0.13363040485E+03 -0.95929108899E+01  0.52405328398E+02  0.14385905423E+03  0.00000000000E+00 0. -1.
</event>
<event>
 7    1  0.7459264E-005  0.5518261E+03  0.7818608E-02  0.1139659E+00
          2   -1    0    0  502    0  0.00000000000E+00  0.00000000000E+00  0.67448687837E+03  0.67448687837E+03  0.00000000000E+00 0. -1.
          1   -1    0    0  501    0 -0.00000000000E+00 -0.00000000000E+00 -0.23132033259E+04  0.23132033259E+04  0.00000000000E+00 0. -1.
         25    2    1    2    0    0 -0.56829681190E+01  0.52135168557E+03 -0.59023339562E+03  0.79739787424E+03  0.12501212889E+03 0.  0.
          2    1    1    2  501    0 -0.63963583661E+02 -0.56420298933E+03 -0.15663059738E+04  0.16660524472E+04  0.00000000000E+00 0. -1.
          1    1    1    2  502    0  0.69646551780E+02  0.42851303765E+02  0.51782292185E+03  0.52423988288E+03  0.00000000000E+00 0. -1.
         22    1    3    3    0    0  0.19934265548E+02  0.11536906467E+03 -0.67884318980E+02  0.13533542326E+03  0.00000000000E+00 0. -1.
         22    1    3    3    0    0 -0.25617233667E+02  0.40598262089E+03 -0.52234907664E+03  0.66206245098E+03  0.00000000000E+00 0. -1.
</event>
<event>
 7    1  0.7459264E-005  0.4210985E+03  0.7818608E-02  0.1167623E+00
          2   -1    0    0  502    0  0.00000000000E+00  0.00000000000E+00  0.23950403195E+04  0.23950403195E+04  0.00000000000E+00 0. -1.
          1   -1    0    0  501    0 -0.00000000000E+00 -0.00000000000E+00 -0.76893577641E+03  0.76893577641E+03  0.00000000000E+00 0. -1.
         25    2    1    2    0    0  0.42675556510E+03 -0.20469952945E+03 -0.13400690802E+03  0.50754682334E+03  0.12499486705E+03 0.  0.
          2    1    1    2  501    0 -0.35460471288E+03  0.17751944266E+03 -0.35959636692E+03  0.53531971944E+03  0.00000000000E+00 0. -1.
          1    1    1    2  502    0 -0.72150852227E+02  0.27180086787E+02  0.21197078180E+04  0.21211095531E+04  0.00000000000E+00 0. -1.
         22    1    3    3    0    0  0.24081843455E+02 -0.45844621568E+02 -0.37789669914E+02  0.64107126461E+02  0.00000000000E+00 0. -1.
         22    1    3    3    0    0  0.40267372165E+03 -0.15885490788E+03 -0.96217238102E+02  0.44343969688E+03  0.00000000000E+00 0. -1.
</event>
<event>
 7    1  0.7459264E-005  0.1094214E+03  0.7818608E-02  0.1307770E+00
          2   -1    0    0  502    0  0.00000000000E+00  0.00000000000E+00  0.42391571346E+04  0.42391571346E+04  0.00000000000E+00 0. -1.
          1   -1    0    0  501    0 -0.00000000000E+00 -0.00000000000E+00 -0.12970069798E+03  0.12970069798E+03  0.00000000000E+00 0. -1.
         25    2    1    2    0    0  0.15041965665E+03  0.55481495261E+02  0.95374572949E+03  0.97516781313E+03  0.12496830724E+03 0.  0.
          2    1    1    2  501    0 -0.69550342756E+02  0.13090052062E+02 -0.10752874490E+03  0.12872851518E+03  0.00000000000E+00 0. -1.
          1    1    1    2  502    0 -0.80869313898E+02 -0.68571547323E+02  0.32632394521E+04  0.32649615043E+04  0.00000000000E+00 0. -1.
         22    1    3    3    0    0  0.34944941203E+02 -0.40053637472E+02  0.22898048695E+03  0.23506915194E+03  0.00000000000E+00 0. -1.
         22    1    3    3    0    0  0.11547471545E+03  0.95535132733E+02  0.72476524254E+03  0.74009866118E+03  0.00000000000E+00 0. -1.
</event>
<event>
 7    1  0.7459264E-005  0.8618691E+03  0.7818608E-02  0.1139620E+00
          2   -1    0    0  502    0  0.00000000000E+00  0.00000000000E+00  0.66773402363E+03  0.66773402363E+03  0.00000000000E+00 0. -1.
          1   -1    0    0  501    0 -0.00000000000E+00 -0.00000000000E+00 -0.20157621676E+04  0.20157621676E+04  0.00000000000E+00 0. -1.
         25    2    1    2    0    0  0.46602667072E+03 -0.73772270712E+03 -0.61450630234E+03  0.10745523803E+04  0.12501668667E+03 0.  0.
          2    1    1    2  501    0 -0.41464305561E+03  0.74789954427E+03 -0.10123760602E+04  0.13252123902E+04  0.00000000000E+00 0. -1.
          1    1    1    2  502    0 -0.51383615106E+02 -0.10176837156E+02  0.27885421856E+03  0.28373142075E+03  0.00000000000E+00 0. -1.
         22    1    3    3    0    0  0.96116075880E+02 -0.13904187873E+03 -0.18268802010E+03  0.24888924599E+03  0.00000000000E+00 0.  1.
         22    1    3    3    0    0  0.36991059484E+03 -0.59868082839E+03 -0.43181828224E+03  0.82566313429E+03  0.00000000000E+00 0.  1.
</event>
<event>
 7    1  0.7459264E-005  0.8560643E+02  0.7818608E-02  0.1325351E+00
          2   -1    0    0  502    0  0.00000000000E+00  0.00000000000E+00  0.69836096412E+03  0.69836096412E+03  0.00000000000E+00 0. -1.
          1   -1    0    0  501    0 -0.00000000000E+00 -0.00000000000E+00 -0.17215262584E+04  0.17215262584E+04  0.00000000000E+00 0. -1.
         25    2    1    2    0    0 -0.67409156936E+02 -0.28617618244E+01 -0.12895438746E+04  0.12973430348E+04  0.12499344535E+03 0.  0.
          2    1    1    2  501    0  0.14105461457E+03 -0.20443453038E+02 -0.41397285027E+03  0.43782172151E+03  0.00000000000E+00 0. -1.
          1    1    1    2  502    0 -0.73645457633E+02  0.23305214863E+02  0.68035143063E+03  0.68472246614E+03  0.00000000000E+00 0. -1.
         22    1    3    3    0    0 -0.42274722973E+02  0.60360426411E+02 -0.71342161163E+03  0.71721749088E+03  0.00000000000E+00 0.  1.
         22    1    3    3    0    0 -0.25134433962E+02 -0.63222188235E+02 -0.57612226297E+03  0.58012554395E+03  0.00000000000E+00 0.  1.
</event>
<event>
 7    1  0.7459264E-005  0.8200424E+02  0.7818608E-02  0.1484210E+00
          2   -1    0    0  502    0  0.00000000000E+00  0.00000000000E+00  0.72943372934E+02  0.72943372934E+02  0.00000000000E+00 0. -1.
          1   -1    0    0  501    0 -0.00000000000E+00 -0.00000000000E+00 -0.91945098158E+03  0.91945098158E+03  0.00000000000E+00 0. -1.
         25    2    1    2    0    0  0.76870105743E+02  0.39902545076E+02 -0.14286397798E+03  0.20862061179E+03  0.12494485663E+03 0.  0.
          2    1    1    2  501    0 -0.17064389938E+02  0.15465003361E+02 -0.70187663650E+03  0.70225435036E+03  0.00000000000E+00 0. -1.
          1    1    1    2  502    0 -0.59805715805E+02 -0.55367548437E+02 -0.17669941666E+01  0.81519392363E+02  0.00000000000E+00 0. -1.
         22    1    3    3    0    0  0.14083170562E+02 -0.35479406438E+02 -0.88680196086E+02  0.96546885771E+02  0.00000000000E+00 0. -1.
         22    1    3    3    0    0  0.62786935181E+02  0.75381951514E+02 -0.54183781890E+02  0.11207372602E+03  0.00000000000E+00 0. -1.
</event>
<event>
 7    1  0.7459264E-005  0.4318865E+02  0.7818608E-02  0.1535495E+00
          2   -1    0    0  502    0  0.00000000000E+00  0.00000000000E+00  0.48858170037E+03  0.48858170037E+03  0.00000000000E+00 0. -1.
          1   -1    0    0  501    0 -0.00000000000E+00 -0.00000000000E+00 -0.10699839516E+04  0.10699839516E+04  0.00000000000E+00 0. -1.
         25    2    1    2    0    0  0.60141352635E+02  0.42109927887E+02  0.26205359720E+03  0.29948025783E+03  0.12500443473E+03 0.  0.
          2    1    1    2  501    0 -0.37805851351E+02 -0.20782613972E+02 -0.10496777475E+04  0.10505639309E+04  0.00000000000E+00 0. -1.
          1    1    1    2  502    0 -0.22335501284E+02 -0.21327313915E+02  0.20622189909E+03  0.20852146317E+03  0.00000000000E+00 0. -1.
         22    1    3    3    0    0 -0.20945152011E+02 -0.29758481939E+02  0.58802287823E+02  0.69151830730E+02  0.00000000000E+00 0.  1.
         22    1    3    3    0    0  0.81086504647E+02  0.71868409826E+02  0.20325130938E+03  0.23032842710E+03  0.00000000000E+00 0.  1.
</event>
<event>
 7    1  0.7459264E-005  0.2717770E+03  0.7818608E-02  0.1230124E+00
          2   -1    0    0  502    0  0.00000000000E+00  0.00000000000E+00  0.22094198314E+04  0.22094198314E+04  0.00000000000E+00 0. -1.
          1   -1    0    0  501    0 -0.00000000000E+00 -0.00000000000E+00 -0.70618520955E+03  0.70618520955E+03  0.00000000000E+00 0. -1.
         25    2    1    2    0    0 -0.19098517009E+03  0.20206410759E+03 -0.42296638064E+02  0.30777706149E+03  0.12502989729E+03 0.  0.
          2    1    1    2  501    0  0.13910760455E+03 -0.23317373149E+03 -0.49597224561E+03  0.56542849514E+03  0.00000000000E+00 0. -1.
          1    1    1    2  502    0  0.51877565544E+02  0.31109623908E+02  0.20415035055E+04  0.20423994843E+04  0.00000000000E+00 0. -1.
         22    1    3    3    0    0 -0.18111230164E+03  0.20762418055E+03 -0.12389189422E+02  0.27579513804E+03  0.00000000000E+00 0.  1.
         22    1    3    3    0    0 -0.98728684483E+01 -0.55600729619E+01 -0.29907448643E+02  0.31981923442E+02  0.00000000000E+00 0.  1.
</event>
<event>
 7    1  0.7459264E-005  0.7310944E+02  0.7818608E-02  0.1462713E+00
          2   -1    0    0  502    0  0.00000000000E+00  0.00000000000E+00  0.59837899854E+02  0.59837899854E+02  0.00000000000E+00 0. -1.
          1   -1    0    0  501    0 -0.00000000000E+00 -0.00000000000E+00 -0.65797430884E+03  0.65797430884E+03  0.00000000000E+00 0. -1.
         25    2    1    2    0    0 -0.15293289450E+02 -0.86746635248E+02 -0.83894889856E+02  0.17441880208E+03  0.12499881018E+03 0.  0.
          2    1    1    2  501    0 -0.12215511254E+02  0.27520048879E+02 -0.45257464957E+03  0.45357511533E+03  0.00000000000E+00 0. -1.
          1    1    1    2  502    0  0.27508800704E+02  0.59226586369E+02 -0.61666869553E+02  0.89818291286E+02  0.00000000000E+00 0. -1.
         22    1    3    3    0    0 -0.44398477196E+01  0.59576999058E+01  0.27848028922E+02  0.28822198923E+02  0.00000000000E+00 0.  1.
         22    1    3    3    0    0 -0.10853441731E+02 -0.92704335154E+02 -0.11174291878E+03  0.14559660316E+03  0.00000000000E+00 0.  1.
</event>
<event>
 7    1  0.7459264E-005  0.5325291E+03  0.7818608E-02  0.1260932E+00
          2   -1    0    0  502    0  0.00000000000E+00  0.00000000000E+00  0.54351417775E+03  0.54351417775E+03  0.00000000000E+00 0. -1.
          1   -1    0    0  501    0 -0.00000000000E+00 -0.00000000000E+00 -0.20271967573E+04  0.20271967573E+04  0.00000000000E+00 0. -1.
         25    2    1    2    0    0  0.24668761770E+03 -0.46689958816E+03  0.42124864872E+02  0.54428731303E+03  0.12499667485E+03 0.  0.
          2    1    1    2  501    0  0.22604557138E+02  0.12849222665E+01 -0.14869706398E+04  0.14871429994E+04  0.00000000000E+00 0. -1.
          1    1    1    2  502    0 -0.26929217484E+03  0.46561466590E+03 -0.38836804596E+02  0.53928062261E+03  0.00000000000E+00 0. -1.
         22    1    3    3    0    0  0.21466435753E+03 -0.28072994318E+03  0.36796728261E+02  0.35530843869E+03  0.00000000000E+00 0. -1.
         22    1    3    3    0    0  0.32023260169E+02 -0.18616964498E+03  0.53281366115E+01  0.18897887433E+03  0.00000000000E+00 0. -1.
</event>
<event>
 7    1  0.7459264E-005  0.6391382E+02  0.7818608E-02  0.1390938E+00
          2   -1    0    0  502    0  0.00000000000E+00  0.00000000000E+00  0.82951676379E+03  0.82951676379E+03  0.00000000000E+00 0. -1.
          1   -1    0    0  501    0 -0.00000000000E+00 -0.00000000000E+00 -0.42726102461E+03  0.42726102461E+03  0.00000000000E+00 0. -1.
         25    2    1    2    0    0 -0.88401928085E+02  0.76862756752E+02  0.57574055386E+03  0.60068745748E+03  0.12500180778E+03 0.  0.
          2    1    1    2  501    0  0.33332843303E+02 -0.54297797482E+02 -0.40861150980E+03  0.41354890302E+03  0.00000000000E+00 0. -1.
          1    1    1    2  502    0  0.55069084782E+02 -0.22564959270E+02  0.23512669513E+03  0.24254142790E+03  0.00000000000E+00 0. -1.
         22    1    3    3    0    0  0.26545834812E+02  0.22527184781E+02  0.22365381722E+03  0.22634748807E+03  0.00000000000E+00 0. -1.
         22    1    3    3    0    0 -0.11494776290E+03  0.54335571970E+02  0.35208673664E+03  0.37433996941E+03  0.00000000000E+00 0. -1.
</event>
<event>
 7    1  0.7459264E-005  0.1500566E+03  0.7818608E-02  0.1204062E+00
          2   -1    0    0  502    0  0.00000000000E+00  0.00000000000E+00  0.36389096460E+04  0.36389096460E+04  0.00000000000E+00 0. -1.
          1   -1    0    0  501    0 -0.00000000000E+00 -0.00000000000E+00 -0.70029772258E+03  0.70029772258E+03  0.00000000000E+00 0. -1.
         25    2    1    2    0    0  0.21478524591E+03  0.17516153850E+03  0.48920017215E+03  0.57598254342E+03  0.12499926184E+03 0.  0.
          2    1    1    2  501    0 -0.13355825257E+03 -0.54456303413E+02 -0.64726079925E+03  0.66313636460E+03  0.00000000000E+00 0. -1.
          1    1    1    2  502    0 -0.81226993342E+02 -0.12070523508E+03  0.30966725505E+04  0.31000884605E+04  0.00000000000E+00 0. -1.
         22    1    3    3    0    0  0.35585141693E+02 -0.45356621857E+00  0.13301001376E+02  0.37992429104E+02  0.00000000000E+00 0. -1.
         22    1    3    3    0    0  0.17920010422E+03  0.17561510471E+03  0.47589917078E+03  0.53799011431E+03  0.00000000000E+00 0. -1.
</event>
<event>
 7    1  0.7459264E-005  0.1051783E+03  0.7818608E-02  0.1310342E+00
          2   -1    0    0  502    0  0.00000000000E+00  0.00000000000E+00  0.30327394565E+04  0.30327394565E+04  0.00000000000E+00 0. -1.
          1   -1    0    0  501    0 -0.00000000000E+00 -0.00000000000E+00 -0.95665622802E+03  0.95665622802E+03  0.00000000000E+00 0. -1.
         25    2    1    2    0    0  0.46248044441E+02  0.14708307850E+03  0.11544013680E+03  0.22961690289E+03  0.12500073325E+03 0.  0.
          2    1    1    2  501    0  0.11291331812E+02 -0.10392623534E+03 -0.89607660015E+03  0.90215377287E+03  0.00000000000E+00 0. -1.
          1    1    1    2  502    0 -0.57539376253E+02 -0.43156843155E+02  0.28567196919E+04  0.28576250088E+04  0.00000000000E+00 0. -1.
         22    1    3    3    0    0 -0.11060371385E+02  0.35629192840E+02  0.95742297207E+02  0.10275387424E+03  0.00000000000E+00 0.  1.
         22    1    3    3    0    0  0.57308415827E+02  0.11145388566E+03  0.19697839589E+02  0.12686302865E+03  0.00000000000E+00 0.  1.
</event>
<event>
 7    1  0.7459264E-005  0.1401891E+03  0.7818608E-02  0.1333778E+00
          2   -1    0    0  502    0  0.00000000000E+00  0.00000000000E+00  0.44121817226E+03  0.44121817226E+03  0.00000000000E+00 0. -1.
          1   -1    0    0  501    0 -0.00000000000E+00 -0.00000000000E+00 -0.86733738337E+03  0.86733738337E+03  0.00000000000E+00 0. -1.
         25    2    1    2    0    0 -0.97895917495E+01 -0.12941529789E+03  0.86893665510E+01  0.18040122730E+03  0.12499976914E+03 0.  0.
          2    1    1    2  501    0  0.42726930721E+02 -0.96239628585E+01 -0.76610601210E+03  0.76735691372E+03  0.00000000000E+00 0. -1.
          1    1    1    2  502    0 -0.32937338971E+02  0.13903926075E+03  0.33129743443E+03  0.36079741461E+03  0.00000000000E+00 0. -1.
         22    1    3    3    0    0 -0.22991131317E+02  0.19704120611E+02 -0.17895701825E+01  0.30332277358E+02  0.00000000000E+00 0. -1.
         22    1    3    3    0    0  0.13201539567E+02 -0.14911941850E+03  0.10478936734E+02  0.15006894994E+03  0.00000000000E+00 0. -1.
</event>
<event>
 7    1  0.7459264E-005  0.1203247E+03  0.7818608E-02  0.1247515E+00
          2   -1    0    0  502    0  0.00000000000E+00  0.00000000000E+00  0.57192320760E+03  0.57192320760E+03  0.00000000000E+00 0. -1.
          1   -1    0    0  501    0 -0.00000000000E+00 -0.00000000000E+00 -0.10183979598E+04  0.10183979598E+04  0.00000000000E+00 0. -1.
         25    2    1    2    0    0  0.13593610181E+03 -0.10469484831E+03 -0.39493040117E+03  0.44836825661E+03  0.12499774687E+03 0.  0.
          2    1    1    2  501    0 -0.16058770093E+02  0.11333844816E+03 -0.58450489977E+03  0.59560848364E+03  0.00000000000E+00 0. -1.
          1    1    1    2  502    0 -0.11987733172E+03 -0.86435998550E+01  0.53296054879E+03  0.54634442712E+03  0.00000000000E+00 0. -1.
         22    1    3    3    0    0  0.41099530832E+02 -0.10986971907E+03 -0.21842256273E+03  0.24792930951E+03  0.00000000000E+00 0. -1.
         22    1    3    3    0    0  0.94836570978E+02  0.51748707624E+01 -0.17650783844E+03  0.20043894710E+03  0.00000000000E+00 0. -1.
</event>
<event>
 7    1  0.7459264E-005  0.8426621E+03  0.7818608E-02  0.1048651E+00
          2   -1    0    0  502    0  0.00000000000E+00  0.00000000000E+00  0.19600416012E+04  0.19600416012E+04  0.00000000000E+00 0. -1.
          1   -1    0    0  501    0 -0.00000000000E+00 -0.00000000000E+00 -0.23653104481E+04  0.23653104481E+04  0.00000000000E+00 0. -1.
         25    2    1    2    0    0  0.79202058217E+03 -0.46847150154E+02 -0.11491981841E+03  0.81137074194E+03  0.12499863262E+03 0.  0.
          2    1    1    2  501    0 -0.83146575901E+03  0.21943390256E+03 -0.17995358217E+04  0.19944462187E+04  0.00000000000E+00 0. -1.
          1    1    1    2  502    0  0.39445176834E+02 -0.17258675241E+03  0.15091867931E+04  0.15195350887E+04  0.00000000000E+00 0. -1.
         22    1    3    3    0    0  0.39013067131E+03  0.38847608318E+02 -0.46917612820E+02  0.39485736635E+03  0.00000000000E+00 0. -1.
         22    1    3    3    0    0  0.40188991086E+03 -0.85694758471E+02 -0.68002205593E+02  0.41651337559E+03  0.00000000000E+00 0. -1.
</event>
<event>
 7    1  0.7459264E-005  0.8317048E+02  0.7818608E-02  0.1364043E+00
          2   -1    0    0  502    0  0.00000000000E+00  0.00000000000E+00  0.13772556388E+04  0.13772556388E+04  0.00000000000E+00 0. -1.
          1   -1    0    0  501    0 -0.00000000000E+00 -0.00000000000E+00 -0.14078039572E+04  0.14078039572E+04  0.00000000000E+00 0. -1.
         25    2    1    2    0    0  0.11163763293E+03 -0.32206439969E+02  0.11683462459E+03  0.20682905593E+03  0.12501085157E+03 0.  0.
          2    1    1    2  501    0 -0.51536230042E+02 -0.24346594728E+02 -0.13608086420E+04  0.13620017987E+04  0.00000000000E+00 0. -1.
          1    1    1    2  502    0 -0.60101402892E+02  0.56553034697E+02  0.12134256990E+04  0.12162287414E+04  0.00000000000E+00 0. -1.
         22    1    3    3    0    0  0.65964904334E+02 -0.61939827927E+02  0.15550383916E+02  0.91813535643E+02  0.00000000000E+00 0. -1.
         22    1    3    3    0    0  0.45672728600E+02  0.29733387958E+02  0.10128424067E+03  0.11501552028E+03  0.00000000000E+00 0. -1.
</event>
<event>
 7    1  0.7459264E-005  0.9926253E+02  0.7818608E-02  0.1397997E+00
          2   -1    0    0  502    0  0.00000000000E+00  0.00000000000E+00  0.45016948535E+02  0.45016948535E+02  0.00000000000E+00 0. -1.
          1   -1    0    0  501    0 -0.00000000000E+00 -0.00000000000E+00 -0.16154237328E+04  0.16154237328E+04  0.00000000000E+00 0. -1.
         25    2    1    2    0    0  0.58770792195E+02  0.71541630659E+02 -0.10836092402E+03  0.18957519223E+03  0.12499781087E+03 0.  0.
          2    1    1    2  501    0 -0.31078236444E+02 -0.94886851910E+02 -0.13358062028E+04  0.13395325986E+04  0.00000000000E+00 0. -1.
          1    1    1    2  502    0 -0.27692555752E+02  0.23345221250E+02 -0.12623965748E+03  0.13133289047E+03  0.00000000000E+00 0. -1.
         22    1    3    3    0    0  0.63412875482E+02 -0.17407940841E+02 -0.37071547956E+02  0.75488600789E+02  0.00000000000E+00 0. -1.
         22    1    3    3    0    0 -0.46420832864E+01  0.88949571501E+02 -0.71289376060E+02  0.11408659144E+03  0.00000000000E+00 0. -1.
</event>
<event>
 7    1  0.7459264E-005  0.2828409E+03  0.7818608E-02  0.1293895E+00
          2   -1    0    0  502    0  0.00000000000E+00  0.00000000000E+00  0.26816963314E+04  0.26816963314E+04  0.00000000000E+00 0. -1.
          1   -1    0    0  501    0 -0.00000000000E+00 -0.00000000000E+00 -0.10105208749E+04  0.10105208749E+04  0.00000000000E+00 0. -1.
         25    2    1    2    0    0 -0.18699710276E+03 -0.22250751118E+03 -0.19315339626E+03  0.37068958366E+03  0.12500009587E+03 0.  0.
          2    1    1    2  501    0  0.28804359159E+02 -0.11751686574E+02 -0.72055889653E+03  0.72123014122E+03  0.00000000000E+00 0. -1.
          1    1    1    2  502    0  0.15819274360E+03  0.23425919776E+03  0.25848877492E+04  0.26002974814E+04  0.00000000000E+00 0. -1.
         22    1    3    3    0    0 -0.24819787359E+02 -0.12432470092E+03 -0.79902930504E+02  0.14985703656E+03  0.00000000000E+00 0. -1.
         22    1    3    3    0    0 -0.16217731540E+03 -0.98182810269E+02 -0.11325046576E+03  0.22083254710E+03  0.00000000000E+00 0. -1.
</event>
<event>
 7    1  0.7459264E-005  0.2761603E+03  0.7818608E-02  0.1242644E+00
          2   -1    0    0  502    0  0.00000000000E+00  0.00000000000E+00  0.10668576658E+04  0.10668576658E+04  0.00000000000E+00 0. -1.
          1   -1    0    0  501    0 -0.00000000000E+00 -0.00000000000E+00 -0.41057548240E+03  0.41057548240E+03  0.00000000000E+00 0. -1.
         25    2    1    2    0    0 -0.27213216760E+03  0.69473371120E+02  0.78605086141E+03  0.84402132910E+03  0.12495431693E+03 0.  0.
          2    1    1    2  501    0  0.48667688122E+01 -0.52156157854E+02 -0.30753192811E+03  0.31196127491E+03  0.00000000000E+00 0. -1.
          1    1    1    2  502    0  0.26726539879E+03 -0.17317213266E+02  0.17776325006E+03  0.32145054415E+03  0.00000000000E+00 0. -1.
         22    1    3    3    0    0 -0.17247426482E+03  0.38171279058E+02  0.64343193072E+03  0.66723988792E+03  0.00000000000E+00 0.  1.
         22    1    3    3    0    0 -0.99657902776E+02  0.31302092061E+02  0.14261893069E+03  0.17678144118E+03  0.00000000000E+00 0.  1.
</event>
<event>
 7    1  0.7459264E-005  0.5376471E+02  0.7818608E-02  0.1477895E+00
          2   -1    0    0  502    0  0.00000000000E+00  0.00000000000E+00  0.42406495549E+03  0.42406495549E+03  0.00000000000E+00 0. -1.
          1   -1    0    0  501    0 -0.00000000000E+00 -0.00000000000E+00 -0.11609007234E+04  0.11609007234E+04  0.00000000000E+00 0. -1.
         25    2    1    2    0    0 -0.61645413281E+02 -0.26525127877E+02 -0.69090790278E+02  0.15781677683E+03  0.12501543248E+03 0.  0.
          2    1    1    2  501    0  0.52938005667E+02 -0.91533141341E+01 -0.10458678243E+04  0.10472467338E+04  0.00000000000E+00 0. -1.
          1    1    1    2  502    0  0.87074076140E+01  0.35678442011E+02  0.37812284672E+03  0.37990216818E+03  0.00000000000E+00 0. -1.
         22    1    3    3    0    0  0.37655188304E+02  0.25954539617E+01 -0.25364235461E+02  0.45475202341E+02  0.00000000000E+00 0. -1.
         22    1    3    3    0    0 -0.99300601584E+02 -0.29120581838E+02 -0.43726554817E+02  0.11234157449E+03  0.00000000000E+00 0. -1.
</event>
<event>
 7    1  0.7459264E-005  0.2684518E+03  0.7818608E-02  0.1144437E+00
          2   -1    0    0  502    0  0.00000000000E+00  0.00000000000E+00  0.67022341797E+03  0.67022341797E+03  0.00000000000E+00 0. -1.
          1   -1    0    0  501    0 -0.00000000000E+00 -0.00000000000E+00 -0.13582198748E+04  0.13582198748E+04  0.00000000000E+00 0. -1.
         25    2    1    2    0    0  0.38556980520E+03 -0.52129249946E+02 -0.48238082907E+03  0.63221679642E+03  0.12500112015E+03 0.  0.
          2    1    1    2  501    0 -0.12632406838E+03  0.96084872710E+02 -0.76331879502E+03  0.77964457020E+03  0.00000000000E+00 0. -1.
          1    1    1    2  502    0 -0.25924573682E+03 -0.43955622764E+02  0.55770316728E+03  0.61658192613E+03  0.00000000000E+00 0. -1.
         22    1    3    3    0    0  0.63984524614E+02  0.56387586997E+01 -0.22446826466E+02  0.68041715205E+02  0.00000000000E+00 0.  1.
         22    1    3    3    0    0  0.32158528058E+03 -0.57768008645E+02 -0.45993400260E+03  0.56417508121E+03  0.00000000000E+00 0.  1.
</event>
<event>
 7    1  0.7459264E-005  0.1987005E+03  0.7818608E-02  0.1210871E+00
          2   -1    0    0  502    0  0.00000000000E+00  0.00000000000E+00  0.40567685083E+03  0.40567685083E+03  0.00000000000E+00 0. -1.
          1   -1    0    0  501    0 -0.00000000000E+00 -0.00000000000E+00 -0.89459213944E+03  0.89459213944E+03  0.00000000000E+00 0. -1.
         25    2    1    2    0    0 -0.64970900501E+02  0.18409418263E+03 -0.69359703359E+02  0.24196619369E+03  0.12499993779E+03 0.  0.
          2    1    1    2  501    0 -0.88258816294E+02 -0.49627462555E+02 -0.70239181897E+03  0.70965257067E+03  0.00000000000E+00 0. -1.
          1    1    1    2  502    0  0.15322971680E+03 -0.13446672008E+03  0.28283623372E+03  0.34865022591E+03  0.00000000000E+00 0. -1.
         22    1    3    3    0    0 -0.43011328315E+02  0.19964829594E+03 -0.67064990093E+02  0.21495843628E+03  0.00000000000E+00 0. -1.
         22    1    3    3    0    0 -0.21959572186E+02 -0.15554113301E+02 -0.22947132669E+01  0.27007757407E+02  0.00000000000E+00 0. -1.
</event>
<event>
 7    1  0.7459264E-005  0.8800041E+03  0.7818608E-02  0.1184949E+00
          2   -1    0    0  502    0  0.00000000000E+00  0.00000000000E+00  0.35157580135E+04  0.35157580135E+04  0.00000000000E+00 0. -1.
          1   -1    0    0  501    0 -0.00000000000E+00 -0.00000000000E+00 -0.51432105908E+03  0.51432105908E+03  0.00000000000E+00 0. -1.
         25    2    1    2    0    0  0.13379803812E+03 -0.89313103349E+03  0.63644266460E+03  0.11118763471E+04  0.12499915133E+03 0.  0.
          2    1    1    2  501    0 -0.80547090284E+01  0.29238202986E+02 -0.20332182104E+03  0.20557118904E+03  0.00000000000E+00 0. -1.
          1    1    1    2  502    0 -0.12574332909E+03  0.86389283050E+03  0.25683161109E+04  0.27126315365E+04  0.00000000000E+00 0. -1.
         22    1    3    3    0    0  0.11034229920E+03 -0.50464925620E+03  0.42516120812E+03  0.66903538596E+03  0.00000000000E+00 0. -1.
         22    1    3    3    0    0  0.23455738922E+02 -0.38848177729E+03  0.21128145649E+03  0.44284096110E+03  0.00000000000E+00 0. -1.
</event>
<event>
 7    1  0.7459264E-005  0.2355015E+03  0.7818608E-02  0.1247550E+00
          2   -1    0    0  502    0  0.00000000000E+00  0.00000000000E+00  0.15717739869E+04  0.15717739869E+04  0.00000000000E+00 0. -1.
          1   -1    0    0  501    0 -0.00000000000E+00 -0.00000000000E+00 -0.11054512045E+04  0.11054512045E+04  0.00000000000E+00 0. -1.
         25    2    1    2    0    0  0.13637367507E+03 -0.13407914430E+03  0.19024731745E+02  0.22926654054E+03  0.12500483992E+03 0.  0.
          2    1    1    2  501    0 -0.14575166387E+03  0.19178782931E+03 -0.98522361663E+03  0.10142443955E+04  0.00000000000E+00 0. -1.
          1    1    1    2  502    0  0.93779888044E+01 -0.57708685007E+02  0.14325216672E+04  0.14337142554E+04  0.00000000000E+00 0. -1.
         22    1    3    3    0    0  0.45921357344E+02 -0.30464972441E+02 -0.50858852422E+02  0.74990055847E+02  0.00000000000E+00 0.  1.
         22    1    3    3    0    0  0.90452317722E+02 -0.10361417186E+03  0.69883584167E+02  0.15427648469E+03  0.00000000000E+00 0.  1.
</event>
<event>
 7    1  0.1398762E-004  0.2422150E+03  0.7818608E-02  0.1274262E+00
          2   -1    0    0  502    0  0.00000000000E+00  0.00000000000E+00  0.13021463455E+04  0.13021463455E+04  0.00000000000E+00 0. -1.
          1   -1    0    0  501    0 -0.00000000000E+00 -0.00000000000E+00 -0.18959030274E+04  0.18959030274E+04  0.00000000000E+00 0. -1.
         25    2    1    2    0    0 -0.23958971880E+03 -0.25435521975E+02 -0.16015879607E+04  0.16244256488E+04  0.12499797413E+03 0.  0.
          2    1    1    2  501    0  0.72444053347E+01 -0.43132234367E+02 -0.26975256653E+03  0.27327516938E+03  0.00000000000E+00 0. -1.
          1    1    1    2  502    0  0.23234531347E+03  0.68567756342E+02  0.12775838454E+04  0.13003485547E+04  0.00000000000E+00 0. -1.
         22    1    3    3    0    0  0.92264188181E+01 -0.67178850794E+01 -0.23288484383E+03  0.23316433533E+03  0.00000000000E+00 0.  1.
         22    1    3    3    0    0 -0.24881613762E+03 -0.18717636896E+02 -0.13687031169E+04  0.13912613135E+04  0.00000000000E+00 0.  1.
</event>
<event>
 7    1  0.7459264E-005  0.1800960E+03  0.7818608E-02  0.1326641E+00
          2   -1    0    0  502    0  0.00000000000E+00  0.00000000000E+00  0.32412797051E+02  0.32412797051E+02  0.00000000000E+00 0. -1.
          1   -1    0    0  501    0 -0.00000000000E+00 -0.00000000000E+00 -0.33739275466E+04  0.33739275466E+04  0.00000000000E+00 0. -1.
         25    2    1    2    0    0  0.15242543182E+03 -0.11461712042E+02 -0.14608469026E+04  0.14741316375E+04  0.12500211498E+03 0.  0.
          2    1    1    2  501    0  0.34079928934E+02  0.12502431791E+02 -0.15659969834E+04  0.15664176660E+04  0.00000000000E+00 0. -1.
          1    1    1    2  502    0 -0.18650536075E+03 -0.10407197486E+01 -0.31467086362E+03  0.36579104021E+03  0.00000000000E+00 0. -1.
         22    1    3    3    0    0  0.16302405367E+03 -0.12558057768E+02 -0.10092438604E+04  0.10224029130E+04  0.00000000000E+00 0. -1.
         22    1    3    3    0    0 -0.10598621849E+02  0.10963457263E+01 -0.45160304224E+03  0.45172872448E+03  0.00000000000E+00 0. -1.
</event>
<event>
 7    1  0.7459264E-005  0.2031072E+03  0.7818608E-02  0.1252634E+00
          2   -1    0    0  502    0  0.00000000000E+00  0.00000000000E+00  0.51785618041E+03  0.51785618041E+03  0.00000000000E+00 0. -1.
          1   -1    0    0  501    0 -0.00000000000E+00 -0.00000000000E+00 -0.27594827099E+03  0.27594827099E+03  0.00000000000E+00 0. -1.
         25    2    1    2    0    0 -0.18126433191E+03 -0.17612668693E+02  0.71135469199E+02  0.23205994528E+03  0.12499839640E+03 0.  0.
          2    1    1    2  501    0 -0.16823612386E+02 -0.62199702134E+02 -0.15746985375E+03  0.17014285679E+03  0.00000000000E+00 0. -1.
          1    1    1    2  502    0  0.19808794429E+03  0.79812370827E+02  0.32824229396E+03  0.39160164933E+03  0.00000000000E+00 0. -1.
         22    1    3    3    0    0 -0.14184334269E+03  0.21742077648E+02  0.23113757068E+01  0.14351861992E+03  0.00000000000E+00 0. -1.
         22    1    3    3    0    0 -0.39420989214E+02 -0.39354746341E+02  0.68824093492E+02  0.88541325353E+02  0.00000000000E+00 0. -1.
</event>
<event>
 7    1  0.7459264E-005  0.1921226E+03  0.7818608E-02  0.1291900E+00
          2   -1    0    0  502    0  0.00000000000E+00  0.00000000000E+00  0.18478279715E+03  0.18478279715E+03  0.00000000000E+00 0. -1.
          1   -1    0    0  501    0 -0.00000000000E+00 -0.00000000000E+00 -0.11969927011E+04  0.11969927011E+04  0.00000000000E+00 0. -1.
         25    2    1    2    0    0 -0.89006940771E+02 -0.14396136735E+03 -0.22674428286E+03  0.30933121576E+03  0.12500288172E+03 0.  0.
          2    1    1    2  501    0 -0.46641568370E+02 -0.12535130974E+01 -0.85921782794E+03  0.86048374944E+03  0.00000000000E+00 0. -1.
          1    1    1    2  502    0  0.13564850914E+03  0.14521488045E+03  0.73752206893E+02  0.21196053302E+03  0.00000000000E+00 0. -1.
         22    1    3    3    0    0 -0.11181618725E+02 -0.65666973629E+02 -0.17531905777E+03  0.18754719950E+03  0.00000000000E+00 0. -1.
         22    1    3    3    0    0 -0.77825322046E+02 -0.78294393726E+02 -0.51425225089E+02  0.12178401626E+03  0.00000000000E+00 0. -1.
</event>
<event>
 7    1  0.7459264E-005  0.1216683E+03  0.7818608E-02  0.1273034E+00
          2   -1    0    0  502    0  0.00000000000E+00  0.00000000000E+00  0.21940016401E+04  0.21940016401E+04  0.00000000000E+00 0. -1.
          1   -1    0    0  501    0 -0.00000000000E+00 -0.00000000000E+00 -0.11081192465E+04  0.11081192465E+04  0.00000000000E+00 0. -1.
         25    2    1    2    0    0  0.19690388731E+03  0.28450676518E+00  0.46525570476E+03  0.52044210378E+03  0.12500356313E+03 0.  0.
          2    1    1    2  501    0 -0.83691090207E+02  0.27531988571E+02 -0.10767273633E+04  0.10803258878E+04  0.00000000000E+00 0. -1.
          1    1    1    2  502    0 -0.11321279710E+03 -0.27816495337E+02  0.16973540522E+04  0.17013528950E+04  0.00000000000E+00 0. -1.
         22    1    3    3    0    0  0.14984295876E+03  0.39220235152E+02  0.40921935678E+03  0.43755184961E+03  0.00000000000E+00 0. -1.
         22    1    3    3    0    0  0.47060928555E+02 -0.38935728386E+02  0.56036347977E+02  0.82890254168E+02  0.00000000000E+00 0. -1.
</event>
<event>
 7    1  0.7459264E-005  0.9278679E+03  0.7818608E-02  0.1193743E+00
          2   -1    0    0  502    0  0.00000000000E+00  0.00000000000E+00  0.21814152079E+04  0.21814152079E+04  0.00000000000E+00 0. -1.
          1   -1    0    0  501    0 -0.00000000000E+00 -0.00000000000E+00 -0.81481712414E+03  0.81481712414E+03  0.00000000000E+00 0. -1.
         25    2    1    2    0    0 -0.63456330448E+03 -0.67610356568E+03  0.85828073628E+03  0.12696682451E+04  0.12500004616E+03 0.  0.
          2    1    1    2  501    0  0.18319943384E+02 -0.18586149485E+02 -0.41571389943E+03  0.41653224540E+03  0.00000000000E+00 0. -1.
          1    1    1    2  502    0  0.61624336110E+03  0.69468971517E+03  0.92403124691E+03  0.13100318415E+04  0.00000000000E+00 0. -1.
         22    1    3    3    0    0 -0.59829475296E+03 -0.58516353866E+03  0.78432862922E+03  0.11469718292E+04  0.00000000000E+00 0.  1.
         22    1    3    3    0    0 -0.36268551523E+02 -0.90940027017E+02  0.73952107054E+02  0.12269641593E+03  0.00000000000E+00 0.  1.
</event>
<event>
 7    1  0.7459264E-005  0.5829004E+03  0.7818608E-02  0.1132481E+00
          2   -1    0    0  502    0  0.00000000000E+00  0.00000000000E+00  0.24115383784E+04  0.24115383784E+04  0.00000000000E+00 0. -1.
          1   -1    0    0  501    0 -0.00000000000E+00 -0.00000000000E+00 -0.13304141330E+04  0.13304141330E+04  0.00000000000E+00 0. -1.
         25    2    1    2    0    0 -0.45554700159E+03 -0.31598425309E+03 -0.45397663586E+03  0.72738651962E+03  0.12500897630E+03 0.  0.
          2    1    1    2  501    0  0.53653202280E+03  0.29198498885E+03 -0.61266049145E+03  0.86514433651E+03  0.00000000000E+00 0. -1.
          1    1    1    2  502    0 -0.80985021210E+02  0.23999264240E+02  0.21477613727E+04  0.21494216553E+04  0.00000000000E+00 0. -1.
         22    1    3    3    0    0 -0.24374331049E+03 -0.24299748145E+03 -0.28236348386E+03  0.44518278765E+03  0.00000000000E+00 0.  1.
         22    1    3    3    0    0 -0.21180369110E+03 -0.72986771636E+02 -0.17161315200E+03  0.28220373197E+03  0.00000000000E+00 0.  1.
</event>
<event>
 7    1  0.7459264E-005  0.3246727E+03  0.7818608E-02  0.1220611E+00
          2   -1    0    0  502    0  0.00000000000E+00  0.00000000000E+00  0.81082366686E+03  0.81082366686E+03  0.00000000000E+00 0. -1.
          1   -1    0    0  501    0 -0.00000000000E+00 -0.00000000000E+00 -0.26103974402E+03  0.26103974402E+03  0.00000000000E+00 0. -1.
         25    2    1    2    0    0 -0.29817965654E+03  0.75019897566E+02  0.52665382104E+03  0.62251207578E+03  0.12497177549E+03 0.  0.
          2    1    1    2  501    0  0.30230966235E+03 -0.13077054209E+03 -0.73715092870E+02  0.33752923065E+03  0.00000000000E+00 0. -1.
          1    1    1    2  502    0 -0.41300058026E+01  0.55750644523E+02  0.96845194672E+02  0.11182210445E+03  0.00000000000E+00 0. -1.
         22    1    3    3    0    0  0.48183561122E+01 -0.67383254820E+01  0.57336020434E+02  0.57931345791E+02  0.00000000000E+00 0.  1.
         22    1    3    3    0    0 -0.30299801266E+03  0.81758223048E+02  0.46931780060E+03  0.56458072999E+03  0.00000000000E+00 0.  1.
</event>
<event>
 7    1  0.7459264E-005  0.3001206E+03  0.7818608E-02  0.1196313E+00
          2   -1    0    0  502    0  0.00000000000E+00  0.00000000000E+00  0.23107301988E+04  0.23107301988E+04  0.00000000000E+00 0. -1.
          1   -1    0    0  501    0 -0.00000000000E+00 -0.00000000000E+00 -0.17949582495E+04  0.17949582495E+04  0.00000000000E+00 0. -1.
         25    2    1    2    0    0  0.23874650491E+03  0.17948744298E+03  0.16329264507E+04  0.16647203481E+04  0.12501763108E+03 0.  0.
          2    1    1    2  501    0 -0.45856474248E+02  0.63644285604E+02 -0.17417503486E+04  0.17435158985E+04  0.00000000000E+00 0. -1.
          1    1    1    2  502    0 -0.19289003066E+03 -0.24313172858E+03  0.62459584725E+03  0.69745220179E+03  0.00000000000E+00 0. -1.
         22    1    3    3    0    0  0.53783614911E+02  0.55621552218E+02  0.19714027979E+03  0.21177989569E+03  0.00000000000E+00 0. -1.
         22    1    3    3    0    0  0.18496289000E+03  0.12386589076E+03  0.14357861709E+04  0.14529404524E+04  0.00000000000E+00 0. -1.
</event>
<event>
 7    1  0.7459264E-005  0.3038737E+03  0.7818608E-02  0.1228717E+00
          2   -1    0    0  502    0  0.00000000000E+00  0.00000000000E+00  0.10478763648E+04  0.10478763648E+04  0.00000000000E+00 0. -1.
          1   -1    0    0  501    0 -0.00000000000E+00 -0.00000000000E+00 -0.47758837990E+03  0.47758837990E+03  0.00000000000E+00 0. -1.
         25    2    1    2    0    0 -0.25597209837E+03 -0.18302241301E+03  0.90711725066E+03  0.96824867673E+03  0.12499949897E+03 0.  0.
          2    1    1    2  501    0  0.27374930634E+03  0.13108717739E+03 -0.38074453272E+03  0.48691778566E+03  0.00000000000E+00 0. -1.
          1    1    1    2  502    0 -0.17777207966E+02  0.51935235616E+02  0.43915266943E+02  0.70298282285E+02  0.00000000000E+00 0. -1.
         22    1    3    3    0    0 -0.19275250874E+03 -0.18349737255E+03  0.80787031270E+03  0.85057583877E+03  0.00000000000E+00 0. -1.
         22    1    3    3    0    0 -0.63219589632E+02  0.47495954052E+00  0.99246937956E+02  0.11767283796E+03  0.00000000000E+00 0. -1.
</event>
<event>
 7    1  0.7459264E-005  0.8516502E+03  0.7818608E-02  0.1105741E+00
          2   -1    0    0  502    0  0.00000000000E+00  0.00000000000E+00  0.16475312695E+04  0.16475312695E+04  0.00000000000E+00 0. -1.
          1   -1    0    0  501    0 -0.00000000000E+00 -0.00000000000E+00 -0.18199642365E+04  0.18199642365E+04  0.00000000000E+00 0. -1.
         25    2    1    2    0    0 -0.71893909822E+03 -0.57518988655E+03  0.43536648061E+03  0.10261020006E+04  0.12499804297E+03 0.  0.
          2    1    1    2  501    0  0.64966194545E+03  0.53357533786E+03 -0.14065087088E+04  0.16386061249E+04  0.00000000000E+00 0. -1.
          1    1    1    2  502    0  0.69277152777E+02  0.41614548683E+02  0.79870926115E+03  0.80278738057E+03  0.00000000000E+00 0. -1.
         22    1    3    3    0    0 -0.27669513385E+03 -0.16562573766E+03  0.10740409169E+03  0.33989369070E+03  0.00000000000E+00 0.  1.
         22    1    3    3    0    0 -0.44224396438E+03 -0.40956414889E+03  0.32796238892E+03  0.68620830994E+03  0.00000000000E+00 0.  1.
</event>
<event>
 7    1  0.7459264E-005  0.7152802E+03  0.7818608E-02  0.1044882E+00
          2   -1    0    0  502    0  0.00000000000E+00  0.00000000000E+00  0.15083329729E+04  0.15083329729E+04  0.00000000000E+00 0. -1.
          1   -1    0    0  501    0 -0.00000000000E+00 -0.00000000000E+00 -0.81391331890E+03  0.81391331890E+03  0.00000000000E+00 0. -1.
         25    2    1    2    0    0  0.73316242861E+03  0.61537455439E+02  0.92645014962E+03  0.11896410743E+04  0.12498800227E+03 0.  0.
          2    1    1    2  501    0 -0.56824027423E+02 -0.21270096418E+03 -0.36565160276E+03  0.42681584419E+03  0.00000000000E+00 0. -1.
          1    1    1    2  502    0 -0.67633840118E+03  0.15116350874E+03  0.13362110718E+03  0.70578937338E+03  0.00000000000E+00 0. -1.
         22    1    3    3    0    0  0.29028129702E+03  0.84651757959E+02  0.39539550662E+03  0.49776174841E+03  0.00000000000E+00 0.  1.
         22    1    3    3    0    0  0.44288113159E+03 -0.23114302519E+02  0.53105464300E+03  0.69187932585E+03  0.00000000000E+00 0.  1.
</event>
<event>
 7    1  0.7459264E-005  0.4393372E+03  0.7818608E-02  0.1085096E+00
          2   -1    0    0  502    0  0.00000000000E+00  0.00000000000E+00  0.86878178237E+03  0.86878178237E+03  0.00000000000E+00 0. -1.
          1   -1    0    0  501    0 -0.00000000000E+00 -0.00000000000E+00 -0.51603158440E+03  0.51603158440E+03  0.00000000000E+00 0. -1.
         25    2    1    2    0    0 -0.26506220822E+02 -0.39569061874E+03 -0.41542853318E+02  0.41788126752E+03  0.12500119832E+03 0.  0.
          2    1    1    2  501    0  0.21929407906E+03  0.46611993655E+03 -0.81257163871E+01  0.51519289167E+03  0.00000000000E+00 0. -1.
          1    1    1    2  502    0 -0.19278785823E+03 -0.70429317806E+02  0.40241876767E+03  0.45173920758E+03  0.00000000000E+00 0. -1.
         22    1    3    3    0    0  0.49345142408E+02 -0.18592486661E+03 -0.10204778430E+02  0.19263212766E+03  0.00000000000E+00 0.  1.
         22    1    3    3    0    0 -0.75851363229E+02 -0.20976575213E+03 -0.31338074888E+02  0.22524913986E+03  0.00000000000E+00 0.  1.
</event>
<event>
 7    1  0.7459264E-005  0.8387708E+02  0.7818608E-02  0.1360325E+00
          2   -1    0    0  502    0  0.00000000000E+00  0.00000000000E+00  0.17436993113E+04  0.17436993113E+04  0.00000000000E+00 0. -1.
          1   -1    0    0  501    0 -0.00000000000E+00 -0.00000000000E+00 -0.94312551743E+03  0.94312551743E+03  0.00000000000E+00 0. -1.
         25    2    1    2    0    0 -0.34488447010E+02 -0.66423998711E+02  0.97642556005E+02  0.17538377289E+03  0.12499519379E+03 0.  0.
          2    1    1    2  501    0 -0.21859576563E+02  0.81402760710E+02 -0.90176020259E+03  0.90569073834E+03  0.00000000000E+00 0. -1.
          1    1    1    2  502    0  0.56348023574E+02 -0.14978761999E+02  0.16046914405E+04  0.16057503175E+04  0.00000000000E+00 0. -1.
         22    1    3    3    0    0  0.18985185059E+02 -0.86424791263E+02  0.55973126165E+02  0.10470278243E+03  0.00000000000E+00 0. -1.
         22    1    3    3    0    0 -0.53473632070E+02  0.20000792552E+02  0.41669429840E+02  0.70680990461E+02  0.00000000000E+00 0. -1.
</event>
<event>
 7    1  0.7459264E-005  0.7003703E+02  0.7818608E-02  0.1409049E+00
          2   -1    0    0  502    0  0.00000000000E+00  0.00000000000E+00  0.12600595112E+03  0.12600595112E+03  0.00000000000E+00 0. -1.
          1   -1    0    0  501    0 -0.00000000000E+00 -0.00000000000E+00 -0.17984445146E+04  0.17984445146E+04  0.00000000000E+00 0. -1.
         25    2    1    2    0    0  0.30787279423E+02  0.64181723530E+02 -0.85898458667E+02  0.16754667861E+03  0.12500477632E+03 0.  0.
          2    1    1    2  501    0 -0.46720905980E+02  0.55865689892E+01 -0.16562975710E+04  0.16569658103E+04  0.00000000000E+00 0. -1.
          1    1    1    2  502    0  0.15933626557E+02 -0.69768292519E+02  0.69757466252E+02  0.99937976736E+02  0.00000000000E+00 0. -1.
         22    1    3    3    0    0 -0.23399493277E+02  0.83099858749E+02 -0.48146444360E+02  0.98849395113E+02  0.00000000000E+00 0.  1.
         22    1    3    3    0    0  0.54186772701E+02 -0.18918135219E+02 -0.37752014307E+02  0.68697283499E+02  0.00000000000E+00 0.  1.
</event>
<event>
 7    1  0.7459264E-005  0.5907810E+03  0.7818608E-02  0.1114803E+00
          2   -1    0    0  502    0  0.00000000000E+00  0.00000000000E+00  0.12757970011E+04  0.12757970011E+04  0.00000000000E+00 0. -1.
          1   -1    0    0  501    0 -0.00000000000E+00 -0.00000000000E+00 -0.13961181204E+04  0.13961181204E+04  0.00000000000E+00 0. -1.
         25    2    1    2    0    0 -0.58638045296E+02  0.54522555470E+03 -0.55229398410E+03  0.78826531018E+03  0.12499691395E+03 0.  0.
          2    1    1    2  501    0  0.22669382534E+02 -0.64260208121E+03 -0.58025656418E+03  0.86611143391E+03  0.00000000000E+00 0. -1.
          1    1    1    2  502    0  0.35968662763E+02  0.97376526516E+02  0.10122294290E+04  0.10175383774E+04  0.00000000000E+00 0. -1.
         22    1    3    3    0    0 -0.44640720717E+02  0.21798733421E+03 -0.14490245272E+03  0.26553341150E+03  0.00000000000E+00 0.  1.
         22    1    3    3    0    0 -0.13997324579E+02  0.32723822049E+03 -0.40739153139E+03  0.52273189868E+03  0.00000000000E+00 0.  1.
</event>
<event>
 7    1  0.7459264E-005  0.5201129E+02  0.7818608E-02  0.1475815E+00
          2   -1    0    0  502    0  0.00000000000E+00  0.00000000000E+00  0.59441357731E+03  0.59441357731E+03  0.00000000000E+00 0. -1.
          1   -1    0    0  501    0 -0.00000000000E+00 -0.00000000000E+00 -0.96200411422E+03  0.96200411422E+03  0.00000000000E+00 0. -1.
         25    2    1    2    0    0 -0.65841265367E+01 -0.88040493803E+02  0.24690103102E+02  0.15501533911E+03  0.12500269956E+03 0.  0.
          2    1    1    2  501    0 -0.53862224589E+01  0.38149747885E+02 -0.89512174087E+03  0.89595052633E+03  0.00000000000E+00 0. -1.
          1    1    1    2  502    0  0.11970348996E+02  0.49890745918E+02  0.50284110086E+03  0.50545182609E+03  0.00000000000E+00 0. -1.
         22    1    3    3    0    0  0.24812819223E+02 -0.28186914651E+02  0.65904185526E+02  0.75852091765E+02  0.00000000000E+00 0. -1.
         22    1    3    3    0    0 -0.31396945760E+02 -0.59853579152E+02 -0.41214082424E+02  0.79163247346E+02  0.00000000000E+00 0. -1.
</event>
<event>
 7    1  0.7459264E-005  0.4523950E+03  0.7818608E-02  0.1238498E+00
          2   -1    0    0  502    0  0.00000000000E+00  0.00000000000E+00  0.13482558528E+04  0.13482558528E+04  0.00000000000E+00 0. -1.
          1   -1    0    0  501    0 -0.00000000000E+00 -0.00000000000E+00 -0.20901708411E+03  0.20901708411E+03  0.00000000000E+00 0. -1.
         25    2    1    2    0    0 -0.45405762334E+03 -0.12029173647E+03  0.58016782269E+03  0.75687610874E+03  0.12501325657E+03 0.  0.
          2    1    1    2  501    0  0.33227502508E+02 -0.28586539520E+01 -0.43725615725E+02  0.54992438534E+02  0.00000000000E+00 0. -1.
          1    1    1    2  502    0  0.42083012084E+03  0.12315039042E+03  0.60279656171E+03  0.74540438962E+03  0.00000000000E+00 0. -1.
         22    1    3    3    0    0 -0.40223894713E+03 -0.60506040076E+02  0.49338977585E+03  0.63944555858E+03  0.00000000000E+00 0. -1.
         22    1    3    3    0    0 -0.51818676211E+02 -0.59785696391E+02  0.86778046841E+02  0.11743055016E+03  0.00000000000E+00 0. -1.
</event>
<event>
 7    1  0.7459264E-005  0.9008969E+03  0.7818608E-02  0.1209874E+00
          2   -1    0    0  502    0  0.00000000000E+00  0.00000000000E+00  0.10147323402E+04  0.10147323402E+04  0.00000000000E+00 0. -1.
          1   -1    0    0  501    0 -0.00000000000E+00 -0.00000000000E+00 -0.17725270949E+04  0.17725270949E+04  0.00000000000E+00 0. -1.
         25    2    1    2    0    0  0.66275858274E+03  0.60466600377E+03 -0.80587556868E+02  0.90938971717E+03  0.12500155306E+03 0.  0.
          2    1    1    2  501    0 -0.10071729297E+02  0.20199579857E+02 -0.93732287701E+03  0.93759460244E+03  0.00000000000E+00 0. -1.
          1    1    1    2  502    0 -0.65268685345E+03 -0.62486558363E+03  0.26011567913E+03  0.94027511548E+03  0.00000000000E+00 0. -1.
         22    1    3    3    0    0  0.20425229129E+03  0.11546141761E+03 -0.52573410065E+01  0.23468697681E+03  0.00000000000E+00 0.  1.
         22    1    3    3    0    0  0.45850629145E+03  0.48920458616E+03 -0.75330215861E+02  0.67470274036E+03  0.00000000000E+00 0.  1.
</event>
<event>
 7    1  0.7459264E-005  0.5074449E+02  0.7818608E-02  0.1547431E+00
          2   -1    0    0  502    0  0.00000000000E+00  0.00000000000E+00  0.16511214542E+04  0.16511214542E+04  0.00000000000E+00 0. -1.
          1   -1    0    0  501    0 -0.00000000000E+00 -0.00000000000E+00 -0.12602705782E+04  0.12602705782E+04  0.00000000000E+00 0. -1.
         25    2    1    2    0    0  0.65460267232E+02  0.35533004960E+02  0.96292030885E+03  0.97385246367E+03  0.12500183512E+03 0.  0.
          2    1    1    2  501    0 -0.46488220081E+02 -0.20312254280E+02 -0.12540748395E+04  0.12551005718E+04  0.00000000000E+00 0. -1.
          1    1    1    2  502    0 -0.18972047151E+02 -0.15220750680E+02  0.68200540667E+03  0.68243899694E+03  0.00000000000E+00 0. -1.
         22    1    3    3    0    0  0.51977088044E-01 -0.42521284891E+02  0.23091890695E+03  0.23480120093E+03  0.00000000000E+00 0.  1.
         22    1    3    3    0    0  0.65408290144E+02  0.78054289851E+02  0.73200140190E+03  0.73905126275E+03  0.00000000000E+00 0.  1.
</event>
<event>
 7    1  0.7459264E-005  0.9352966E+02  0.7818608E-02  0.1309814E+00
          2   -1    0    0  502    0  0.00000000000E+00  0.00000000000E+00  0.21868166965E+04  0.21868166965E+04  0.00000000000E+00 0. -1.
          1   -1    0    0  501    0 -0.00000000000E+00 -0.00000000000E+00 -0.45326019818E+03  0.45326019818E+03  0.00000000000E+00 0. -1.
         25    2    1    2    0    0 -0.12853651202E+03 -0.97046450154E+02  0.25076503076E+02  0.20540959711E+03  0.12499849265E+03 0.  0.
          2    1    1    2  501    0  0.79164094291E+02  0.18390151774E+02 -0.35748961383E+03  0.36661147760E+03  0.00000000000E+00 0. -1.
          1    1    1    2  502    0  0.49372417731E+02  0.78656298380E+02  0.20659696091E+04  0.20680558200E+04  0.00000000000E+00 0. -1.
         22    1    3    3    0    0 -0.14586434122E+03 -0.89202153544E+02 -0.35797119179E+01  0.17101533433E+03  0.00000000000E+00 0. -1.
         22    1    3    3    0    0  0.17327829203E+02 -0.78442966103E+01  0.28656214994E+02  0.34394262777E+02  0.00000000000E+00 0. -1.
</event>
<event>
 7    1  0.7459264E-005  0.1181776E+04  0.7818608E-02  0.1065589E+00
          2   -1    0    0  502    0  0.00000000000E+00  0.00000000000E+00  0.14923858983E+04  0.14923858983E+04  0.00000000000E+00 0. -1.
          1   -1    0    0  501    0 -0.00000000000E+00 -0.00000000000E+00 -0.11413944378E+04  0.11413944378E+04  0.00000000000E+00 0. -1.
         25    2    1    2    0    0  0.74763551976E+03 -0.84642233274E+03  0.48974566717E+03  0.12372817203E+04  0.12500240478E+03 0.  0.
          2    1    1    2  501    0 -0.75851104265E+03  0.94529140317E+03 -0.26011371918E+03  0.12395862155E+04  0.00000000000E+00 0. -1.
          1    1    1    2  502    0  0.10875522885E+02 -0.98869070424E+02  0.12135951247E+03  0.15691240025E+03  0.00000000000E+00 0. -1.
         22    1    3    3    0    0  0.45988404148E+03 -0.59995876426E+03  0.35515892695E+03  0.83521357377E+03  0.00000000000E+00 0.  1.
         22    1    3    3    0    0  0.28775147828E+03 -0.24646356848E+03  0.13458674022E+03  0.40206814657E+03  0.00000000000E+00 0.  1.
</event>
<event>
 7    1  0.7459264E-005  0.2183996E+03  0.7818608E-02  0.1209519E+00
          2   -1    0    0  502    0  0.00000000000E+00  0.00000000000E+00  0.28543193326E+03  0.28543193326E+03  0.00000000000E+00 0. -1.
          1   -1    0    0  501    0 -0.00000000000E+00 -0.00000000000E+00 -0.11078089048E+04  0.11078089048E+04  0.00000000000E+00 0. -1.
         25    2    1    2    0    0 -0.96930662733E+02  0.11713191653E+03 -0.82036018727E+03  0.84364207827E+03  0.12500272046E+03 0.  0.
          2    1    1    2  501    0 -0.93443193015E+02 -0.17754232270E+01 -0.21939219666E+03  0.23846953349E+03  0.00000000000E+00 0. -1.
          1    1    1    2  502    0  0.19037385575E+03 -0.11535649331E+03  0.21737541243E+03  0.31112922626E+03  0.00000000000E+00 0. -1.
         22    1    3    3    0    0 -0.10427297041E+03  0.44951520690E+02 -0.62529037035E+03  0.63551674945E+03  0.00000000000E+00 0. -1.
         22    1    3    3    0    0  0.73423076757E+01  0.72180395843E+02 -0.19506981692E+03  0.20812532882E+03  0.00000000000E+00 0. -1.
</event>
<event>
 7    1  0.7459264E-005  0.7634631E+02  0.7818608E-02  0.1368204E+00
          2   -1    0    0  502    0  0.00000000000E+00  0.00000000000E+00  0.96729244946E+03  0.96729244946E+03  0.00000000000E+00 0. -1.
          1   -1    0    0  501    0 -0.00000000000E+00 -0.00000000000E+00 -0.42621190949E+03  0.42621190949E+03  0.00000000000E+00 0. -1.
         25    2    1    2    0    0 -0.62859686900E+02  0.11925612968E+03  0.28548256512E+03  0.33955711599E+03  0.12500150130E+03 0.  0.
          2    1    1    2  501    0  0.28452671200E+02 -0.70128330561E+02 -0.39419395081E+03  0.40139308427E+03  0.00000000000E+00 0. -1.
          1    1    1    2  502    0  0.34407015700E+02 -0.49127799123E+02  0.64979192566E+03  0.65255415869E+03  0.00000000000E+00 0. -1.
         22    1    3    3    0    0 -0.12414216484E+02  0.41075842268E+02  0.22391332569E+03  0.22798797120E+03  0.00000000000E+00 0.  1.
         22    1    3    3    0    0 -0.50445470417E+02  0.78180287416E+02  0.61569239428E+02  0.11156914479E+03  0.00000000000E+00 0.  1.
</event>
<event>
 7    1  0.7459264E-005  0.2977854E+03  0.7818608E-02  0.1186175E+00
          2   -1    0    0  502    0  0.00000000000E+00  0.00000000000E+00  0.10597330385E+04  0.10597330385E+04  0.00000000000E+00 0. -1.
          1   -1    0    0  501    0 -0.00000000000E+00 -0.00000000000E+00 -0.12273642908E+04  0.12273642908E+04  0.00000000000E+00 0. -1.
         25    2    1    2    0    0 -0.44287511191E+02  0.33428429507E+03  0.73060144426E+02  0.36697432967E+03  0.12500000142E+03 0.  0.
          2    1    1    2  501    0 -0.33921887515E+02 -0.29306293450E+03 -0.10578386307E+04  0.10982072421E+04  0.00000000000E+00 0. -1.
          1    1    1    2  502    0  0.78209398707E+02 -0.41221360567E+02  0.81714723393E+03  0.82191575756E+03  0.00000000000E+00 0. -1.
         22    1    3    3    0    0 -0.70305566841E+02  0.11047767365E+03  0.51192445177E+02  0.14060176224E+03  0.00000000000E+00 0.  1.
         22    1    3    3    0    0  0.26018055649E+02  0.22380662142E+03  0.21867699249E+02  0.22637256742E+03  0.00000000000E+00 0.  1.
</event>
<event>
 7    1  0.7459264E-005  0.2150381E+03  0.7818608E-02  0.1252132E+00
          2   -1    0    0  502    0  0.00000000000E+00  0.00000000000E+00  0.13685518872E+04  0.13685518872E+04  0.00000000000E+00 0. -1.
          1   -1    0    0  501    0 -0.00000000000E+00 -0.00000000000E+00 -0.13200877069E+03  0.13200877069E+03  0.00000000000E+00 0. -1.
         25    2    1    2    0    0 -0.14886581456E+02  0.21417468561E+03  0.10431536555E+04  0.10723277016E+04  0.12499897722E+03 0.  0.
          2    1    1    2  501    0 -0.46186720475E+02 -0.21084378226E+03 -0.97717482378E+01  0.21606434396E+03  0.00000000000E+00 0. -1.
          1    1    1    2  502    0  0.61073301931E+02 -0.33309033452E+01  0.20316120917E+03  0.21216861228E+03  0.00000000000E+00 0. -1.
         22    1    3    3    0    0 -0.58316576574E+02  0.93505732463E+02  0.63527436385E+03  0.64476170984E+03  0.00000000000E+00 0. -1.
         22    1    3    3    0    0  0.43429995118E+02  0.12066895315E+03  0.40787929169E+03  0.42756599177E+03  0.00000000000E+00 0. -1.
</event>
<event>
 7    1  0.7459264E-005  0.5308954E+02  0.7818608E-02  0.1517422E+00
          2   -1    0    0  502    0  0.00000000000E+00  0.00000000000E+00  0.14552897382E+04  0.14552897382E+04  0.00000000000E+00 0. -1.
          1   -1    0    0  501    0 -0.00000000000E+00 -0.00000000000E+00 -0.91053753417E+03  0.91053753417E+03  0.00000000000E+00 0. -1.
         25    2    1    2    0    0 -0.72887424814E+02 -0.76916784651E+01 -0.12039837686E+03  0.18839620146E+03  0.12500248382E+03 0.  0.
          2    1    1    2  501    0  0.21056987871E+02  0.18938200044E+02 -0.75538002395E+03  0.75591073067E+03  0.00000000000E+00 0. -1.
          1    1    1    2  502    0  0.51830436943E+02 -0.11246521579E+02  0.14205306048E+04  0.14215203402E+04  0.00000000000E+00 0. -1.
         22    1    3    3    0    0  0.10420040113E+02  0.36935768322E+02 -0.73444764085E+02  0.82867132139E+02  0.00000000000E+00 0.  1.
         22    1    3    3    0    0 -0.83307464927E+02 -0.44627446787E+02 -0.46953612772E+02  0.10552906932E+03  0.00000000000E+00 0.  1.
</event>
<event>
 7    1  0.7459264E-005  0.8577350E+02  0.7818608E-02  0.1414605E+00
          2   -1    0    0  502    0  0.00000000000E+00  0.00000000000E+00  0.10434317123E+03  0.10434317123E+03  0.00000000000E+00 0. -1.
          1   -1    0    0  501    0 -0.00000000000E+00 -0.00000000000E+00 -0.10097306836E+04  0.10097306836E+04  0.00000000000E+00 0. -1.
         25    2    1    2    0    0  0.95591795559E+02 -0.54669791900E+02 -0.55919844249E+02  0.17572289547E+03  0.12499971795E+03 0.  0.
          2    1    1    2  501    0 -0.36730646505E+02  0.21813515166E+01 -0.85821411430E+03  0.85900254055E+03  0.00000000000E+00 0. -1.
          1    1    1    2  502    0 -0.58861149054E+02  0.52488440384E+02  0.87464461972E+01  0.79348418780E+02  0.00000000000E+00 0. -1.
         22    1    3    3    0    0  0.86263975081E+02 -0.33417265557E+02  0.21434932875E+02  0.94961273061E+02  0.00000000000E+00 0.  1.
         22    1    3    3    0    0  0.93278204775E+01 -0.21252526343E+02 -0.77354777124E+02  0.80761622412E+02  0.00000000000E+00 0.  1.
</event>
<event>
 7    1  0.7459264E-005  0.5664226E+03  0.7818608E-02  0.1092826E+00
          2   -1    0    0  502    0  0.00000000000E+00  0.00000000000E+00  0.29798861138E+04  0.29798861138E+04  0.00000000000E+00 0. -1.
          1   -1    0    0  501    0 -0.00000000000E+00 -0.00000000000E+00 -0.72663032850E+03  0.72663032850E+03  0.00000000000E+00 0. -1.
         25    2    1    2    0    0 -0.68018348650E+03 -0.81199286643E+01  0.44482750462E+03  0.82232079318E+03  0.12499787790E+03 0.  0.
          2    1    1    2  501    0  0.54127046349E+03 -0.28690641516E+02 -0.39839848894E+03  0.67269474767E+03  0.00000000000E+00 0. -1.
          1    1    1    2  502    0  0.13891302301E+03  0.36810570180E+02  0.22068267696E+04  0.22115009014E+04  0.00000000000E+00 0. -1.
         22    1    3    3    0    0 -0.14294199351E+03  0.47912077955E+02  0.11268631019E+03  0.18821845081E+03  0.00000000000E+00 0. -1.
         22    1    3    3    0    0 -0.53724149299E+03 -0.56032006620E+02  0.33214119443E+03  0.63410234236E+03  0.00000000000E+00 0. -1.
</event>
<event>
 7    1  0.7459264E-005  0.6168371E+03  0.7818608E-02  0.1141552E+00
          2   -1    0    0  502    0  0.00000000000E+00  0.00000000000E+00  0.97427077601E+03  0.97427077601E+03  0.00000000000E+00 0. -1.
          1   -1    0    0  501    0 -0.00000000000E+00 -0.00000000000E+00 -0.61169530611E+03  0.61169530611E+03  0.00000000000E+00 0. -1.
         25    2    1    2    0    0 -0.56600698660E+03 -0.32904558114E+03  0.30300227857E+03  0.73216839378E+03  0.12500109078E+03 0.  0.
          2    1    1    2  501    0  0.64774273306E+02  0.30287629538E+02 -0.20203957737E+03  0.21431994263E+03  0.00000000000E+00 0. -1.
          1    1    1    2  502    0  0.50123271329E+03  0.29875795160E+03  0.26161276870E+03  0.63947774571E+03  0.00000000000E+00 0. -1.
         22    1    3    3    0    0 -0.37504692490E+03 -0.27730733084E+03  0.23985595185E+03  0.52449063791E+03  0.00000000000E+00 0. -1.
         22    1    3    3    0    0 -0.19096006170E+03 -0.51738250291E+02  0.63146326716E+02  0.20767775587E+03  0.00000000000E+00 0. -1.
</event>
<event>
 7    1  0.7459264E-005  0.1313580E+03  0.7818608E-02  0.1251838E+00
          2   -1    0    0  502    0  0.00000000000E+00  0.00000000000E+00  0.21251615491E+03  0.21251615491E+03  0.00000000000E+00 0. -1.
          1   -1    0    0  501    0 -0.00000000000E+00 -0.00000000000E+00 -0.70579050291E+03  0.70579050291E+03  0.00000000000E+00 0. -1.
         25    2    1    2    0    0  0.21214022464E+02 -0.19604692835E+03 -0.42265035503E+03  0.48284862437E+03  0.12500015433E+03 0.  0.
          2    1    1    2  501    0  0.21210029491E+02  0.10502645819E+03 -0.22619607481E+03  0.25029000485E+03  0.00000000000E+00 0. -1.
          1    1    1    2  502    0 -0.42424051955E+02  0.91020470157E+02  0.15557208183E+03  0.18516802860E+03  0.00000000000E+00 0. -1.
         22    1    3    3    0    0  0.78806359930E+00 -0.14240922550E+03 -0.39349521998E+03  0.41847281476E+03  0.00000000000E+00 0.  1.
         22    1    3    3    0    0  0.20425958865E+02 -0.53637702844E+02 -0.29155135052E+02  0.64375809601E+02  0.00000000000E+00 0.  1.
</event>
<event>
 7    1  0.7459264E-005  0.2488367E+03  0.7818608E-02  0.1141565E+00
          2   -1    0    0  502    0  0.00000000000E+00  0.00000000000E+00  0.12241920387E+04  0.12241920387E+04  0.00000000000E+00 0. -1.
          1   -1    0    0  501    0 -0.00000000000E+00 -0.00000000000E+00 -0.67461753541E+03  0.67461753541E+03  0.00000000000E+00 0. -1.
         25    2    1    2    0    0  0.31605352321E+03 -0.22640245380E+03 -0.18887720010E+03  0.44994269744E+03  0.12500373452E+03 0.  0.
          2    1    1    2  501    0 -0.16058906823E+03  0.14131267071E+03 -0.31491442439E+03  0.38069569793E+03  0.00000000000E+00 0. -1.
          1    1    1    2  502    0 -0.15546445498E+03  0.85089783088E+02  0.10533661277E+04  0.10681711787E+04  0.00000000000E+00 0. -1.
         22    1    3    3    0    0  0.21888247640E+03 -0.11354867042E+03 -0.61894555062E+02  0.25423173479E+03  0.00000000000E+00 0.  1.
         22    1    3    3    0    0  0.97171046813E+02 -0.11285378338E+03 -0.12698264504E+03  0.19571096265E+03  0.00000000000E+00 0.  1.
</event>
<event>
 7    1  0.7459264E-005  0.2944452E+03  0.7818608E-02  0.1301372E+00
          2   -1    0    0  502    0  0.00000000000E+00  0.00000000000E+00  0.26074730187E+03  0.26074730187E+03  0.00000000000E+00 0. -1.
          1   -1    0    0  501    0 -0.00000000000E+00 -0.00000000000E+00 -0.97631160117E+03  0.97631160117E+03  0.00000000000E+00 0. -1.
         25    2    1    2    0    0 -0.22568770904E+03 -0.20418433091E+03 -0.54129743943E+03  0.63344773800E+03  0.12500774315E+03 0.  0.
          2    1    1    2  501    0  0.22196328466E+03  0.17654832199E+03 -0.33588289087E+03  0.43960701326E+03  0.00000000000E+00 0. -1.
          1    1    1    2  502    0  0.37244243797E+01  0.27636008921E+02  0.16161603100E+03  0.16400415178E+03  0.00000000000E+00 0. -1.
         22    1    3    3    0    0 -0.40606052392E+02 -0.85956989652E+02 -0.25823637525E+03  0.27517899823E+03  0.00000000000E+00 0. -1.
         22    1    3    3    0    0 -0.18508165665E+03 -0.11822734126E+03 -0.28306106417E+03  0.35826873977E+03  0.00000000000E+00 0. -1.
</event>
<event>
 7    1  0.7459264E-005  0.3405876E+03  0.7818608E-02  0.1122287E+00
          2   -1    0    0  502    0  0.00000000000E+00  0.00000000000E+00  0.25055115095E+04  0.25055115095E+04  0.00000000000E+00 0. -1.
          1   -1    0    0  501    0 -0.00000000000E+00 -0.00000000000E+00 -0.11861637422E+04  0.11861637422E+04  0.00000000000E+00 0. -1.
         25    2    1    2    0    0  0.12588604574E+03  0.17222584326E+03  0.21904135104E+03  0.33034253969E+03  0.12505215899E+03 0.  0.
          2    1    1    2  501    0  0.90087830882E+02  0.13696342632E+03 -0.11085010363E+04  0.11205576045E+04  0.00000000000E+00 0. -1.
          1    1    1    2  502    0 -0.21597387662E+03 -0.30918926958E+03  0.22088074526E+04  0.22407751076E+04  0.00000000000E+00 0. -1.
         22    1    3    3    0    0  0.11106525426E+03  0.17189270137E+03  0.23290602925E+03  0.31004485152E+03  0.00000000000E+00 0.  1.
         22    1    3    3    0    0  0.14820791471E+02  0.33314188798E+00 -0.13864678213E+02  0.20297688176E+02  0.00000000000E+00 0.  1.
</event>
<event>
 7    1  0.7459264E-005  0.7731890E+03  0.7818608E-02  0.1085278E+00
          2   -1    0    0  502    0  0.00000000000E+00  0.00000000000E+00  0.16252003451E+04  0.16252003451E+04  0.00000000000E+00 0. -1.
          1   -1    0    0  501    0 -0.00000000000E+00 -0.00000000000E+00 -0.18857608323E+04  0.18857608323E+04  0.00000000000E+00 0. -1.
         25    2    1    2    0    0 -0.45030067721E+03 -0.64125237362E+03  0.12217093284E+04  0.14567721562E+04  0.12504449365E+03 0.  0.
          2    1    1    2  501    0  0.11537058958E+03 -0.15007846523E+02 -0.12866170400E+04  0.12918664854E+04  0.00000000000E+00 0. -1.
          1    1    1    2  502    0  0.33493008763E+03  0.65626022014E+03 -0.19565277554E+03  0.76232253589E+03  0.00000000000E+00 0. -1.
         22    1    3    3    0    0 -0.16983762990E+03 -0.34499396618E+03  0.62922067720E+03  0.73741732950E+03  0.00000000000E+00 0. -1.
         22    1    3    3    0    0 -0.28046304732E+03 -0.29625840744E+03  0.59248865118E+03  0.71935482668E+03  0.00000000000E+00 0. -1.
</event>
<event>
 7    1  0.7459264E-005  0.2596971E+03  0.7818608E-02  0.1166370E+00
          2   -1    0    0  502    0  0.00000000000E+00  0.00000000000E+00  0.12806363114E+04  0.12806363114E+04  0.00000000000E+00 0. -1.
          1   -1    0    0  501    0 -0.00000000000E+00 -0.00000000000E+00 -0.49682521075E+03  0.49682521075E+03  0.00000000000E+00 0. -1.
         25    2    1    2    0    0  0.37739555072E+03  0.57001903901E+02  0.94938528042E+03  0.10308414411E+04  0.12500018930E+03 0.  0.
          2    1    1    2  501    0 -0.25326024796E+03 -0.30980034756E+02 -0.40326678306E+03  0.47720500214E+03  0.00000000000E+00 0. -1.
          1    1    1    2  502    0 -0.12413530276E+03 -0.26021869144E+02  0.23769260332E+03  0.26941507890E+03  0.00000000000E+00 0. -1.
         22    1    3    3    0    0  0.13612984790E+03  0.15067838387E+02  0.19953617124E+03  0.24201871596E+03  0.00000000000E+00 0. -1.
         22    1    3    3    0    0  0.24126570283E+03  0.41934065514E+02  0.74984910918E+03  0.78882272517E+03  0.00000000000E+00 0. -1.
</event>
<event>
 7    1  0.7459264E-005  0.5515058E+03  0.7818608E-02  0.1132771E+00
          2   -1    0    0  502    0  0.00000000000E+00  0.00000000000E+00  0.11799163759E+04  0.11799163759E+04  0.00000000000E+00 0. -1.
          1   -1    0    0  501    0 -0.00000000000E+00 -0.00000000000E+00 -0.10326912357E+04  0.10326912357E+04  0.00000000000E+00 0. -1.
         25    2    1    2    0    0  0.14830379168E+03  0.49751769082E+03 -0.39171288865E+03  0.66225506368E+03  0.12499965972E+03 0.  0.
          2    1    1    2  501    0 -0.21749015260E+03 -0.55343771048E+03 -0.32783787866E+03  0.67902351987E+03  0.00000000000E+00 0. -1.
          1    1    1    2  502    0  0.69186360920E+02  0.55920019661E+02  0.86677590750E+03  0.87132902796E+03  0.00000000000E+00 0. -1.
         22    1    3    3    0    0  0.55180708572E+02  0.44479298758E+02 -0.63059955756E+02  0.94867679620E+02  0.00000000000E+00 0. -1.
         22    1    3    3    0    0  0.93123083105E+02  0.45303839206E+03 -0.32865293289E+03  0.56738738406E+03  0.00000000000E+00 0. -1.
</event>
<event>
 7    1  0.7459264E-005  0.1250620E+03  0.7818608E-02  0.1235191E+00
          2   -1    0    0  502    0  0.00000000000E+00  0.00000000000E+00  0.17354286997E+03  0.17354286997E+03  0.00000000000E+00 0. -1.
          1   -1    0    0  501    0 -0.00000000000E+00 -0.00000000000E+00 -0.72160348344E+03  0.72160348344E+03  0.00000000000E+00 0. -1.
         25    2    1    2    0    0  0.15083494596E+03 -0.20764307450E+02 -0.15994273792E+03  0.25374992135E+03  0.12500002314E+03 0.  0.
          2    1    1    2  501    0 -0.58175723550E+02  0.11039140446E+03 -0.47158902823E+03  0.48781849959E+03  0.00000000000E+00 0. -1.
          1    1    1    2  502    0 -0.92659222412E+02 -0.89627097008E+02  0.83471152678E+02  0.15357793248E+03  0.00000000000E+00 0. -1.
         22    1    3    3    0    0 -0.29557732110E+01 -0.29159046479E+02  0.30882395401E+01  0.29470728024E+02  0.00000000000E+00 0.  1.
         22    1    3    3    0    0  0.15379071917E+03  0.83947390286E+01 -0.16303097746E+03  0.22427919332E+03  0.00000000000E+00 0.  1.
</event>
<event>
 7    1  0.7459264E-005  0.1962629E+03  0.7818608E-02  0.1209209E+00
          2   -1    0    0  502    0  0.00000000000E+00  0.00000000000E+00  0.26565163263E+04  0.26565163263E+04  0.00000000000E+00 0. -1.
          1   -1    0    0  501    0 -0.00000000000E+00 -0.00000000000E+00 -0.53434085168E+02  0.53434085168E+02  0.00000000000E+00 0. -1.
         25    2    1    2    0    0 -0.37173697384E+02  0.23685542555E+03  0.42603215485E+03  0.50458929375E+03  0.12499832804E+03 0.  0.
          2    1    1    2  501    0  0.71875755253E+02 -0.13844819323E+03  0.47176551973E+03  0.49688704150E+03  0.00000000000E+00 0. -1.
          1    1    1    2  502    0 -0.34702057869E+02 -0.98407232312E+02  0.17052845666E+04  0.17084740763E+04  0.00000000000E+00 0. -1.
         22    1    3    3    0    0 -0.70153812246E+02  0.21579411710E+03  0.32618472085E+03  0.39734761918E+03  0.00000000000E+00 0. -1.
         22    1    3    3    0    0  0.32980114861E+02  0.21061308447E+02  0.99847433995E+02  0.10724167457E+03  0.00000000000E+00 0. -1.
</event>
<event>
 7    1  0.7459264E-005  0.1380510E+03  0.7818608E-02  0.1274513E+00
          2   -1    0    0  502    0  0.00000000000E+00  0.00000000000E+00  0.31454829883E+03  0.31454829883E+03  0.00000000000E+00 0. -1.
          1   -1    0    0  501    0 -0.00000000000E+00 -0.00000000000E+00 -0.36068957624E+03  0.36068957624E+03  0.00000000000E+00 0. -1.
         25    2    1    2    0    0 -0.58028894266E+01  0.12946030341E+03 -0.15072249026E+03  0.23480910723E+03  0.12499761631E+03 0.  0.
          2    1    1    2  501    0 -0.70358510741E+02 -0.13718698990E+03 -0.12496053205E+03  0.19845837045E+03  0.00000000000E+00 0. -1.
          1    1    1    2  502    0  0.76161400167E+02  0.77266864845E+01  0.22954174490E+03  0.24197039739E+03  0.00000000000E+00 0. -1.
         22    1    3    3    0    0  0.14450231267E+02 -0.65989656566E+01 -0.77234797823E+02  0.78851566416E+02  0.00000000000E+00 0.  1.
         22    1    3    3    0    0 -0.20253120694E+02  0.13605926907E+03 -0.73487692433E+02  0.15595754082E+03  0.00000000000E+00 0.  1.
</event>
<event>
 7    1  0.7459264E-005  0.1610659E+03  0.7818608E-02  0.1295570E+00
          2   -1    0    0  502    0  0.00000000000E+00  0.00000000000E+00  0.58539716224E+03  0.58539716224E+03  0.00000000000E+00 0. -1.
          1   -1    0    0  501    0 -0.00000000000E+00 -0.00000000000E+00 -0.14964330604E+04  0.14964330604E+04  0.00000000000E+00 0. -1.
         25    2    1    2    0    0 -0.17045692009E+03  0.98464463734E+02 -0.34916089599E+03  0.41986806821E+03  0.12500020476E+03 0.  0.
          2    1    1    2  501    0  0.11689317180E+03 -0.10334882319E+03 -0.11051102900E+04  0.11160706725E+04  0.00000000000E+00 0. -1.
          1    1    1    2  502    0  0.53563748294E+02  0.48843594564E+01  0.54323528785E+03  0.54589148195E+03  0.00000000000E+00 0. -1.
         22    1    3    3    0    0 -0.66821674179E+02  0.52118534142E+02 -0.26591355451E+03  0.27909048033E+03  0.00000000000E+00 0. -1.
         22    1    3    3    0    0 -0.10363524591E+03  0.46345929592E+02 -0.83247341485E+02  0.14077758788E+03  0.00000000000E+00 0. -1.
</event>
<event>
 7    1  0.7459264E-005  0.1037628E+04  0.7818608E-02  0.1096726E+00
          2   -1    0    0  502    0  0.00000000000E+00  0.00000000000E+00  0.75207179774E+03  0.75207179774E+03  0.00000000000E+00 0. -1.
          1   -1    0    0  501    0 -0.00000000000E+00 -0.00000000000E+00 -0.30322836723E+04  0.30322836723E+04  0.00000000000E+00 0. -1.
         25    2    1    2    0    0 -0.80294818251E+03 -0.61743417433E+03 -0.15095791986E+04  0.18221973715E+04  0.12499264165E+03 0.  0.
          2    1    1    2  501    0  0.87745038660E+03  0.61505466326E+03 -0.11521522478E+04  0.15734249972E+04  0.00000000000E+00 0. -1.
          1    1    1    2  502    0 -0.74502204092E+02  0.23795110698E+01  0.38151957176E+03  0.38873310140E+03  0.00000000000E+00 0. -1.
         22    1    3    3    0    0 -0.46207678966E+03 -0.27785980484E+03 -0.81747158523E+03  0.97927566259E+03  0.00000000000E+00 0. -1.
         22    1    3    3    0    0 -0.34087139284E+03 -0.33957436949E+03 -0.69210761334E+03  0.84292170889E+03  0.00000000000E+00 0. -1.
</event>
<event>
 7    1  0.7459264E-005  0.4855747E+02  0.7818608E-02  0.1530015E+00
          2   -1    0    0  502    0  0.00000000000E+00  0.00000000000E+00  0.41024656665E+02  0.41024656665E+02  0.00000000000E+00 0. -1.
          1   -1    0    0  501    0 -0.00000000000E+00 -0.00000000000E+00 -0.38920359089E+03  0.38920359089E+03  0.00000000000E+00 0. -1.
         25    2    1    2    0    0  0.61674536954E+02 -0.18317448719E+02 -0.29219818907E+03  0.32426053967E+03  0.12500335378E+03 0.  0.
          2    1    1    2  501    0 -0.14455755823E+02  0.24533274162E+02 -0.50568959069E+02  0.58035075936E+02  0.00000000000E+00 0. -1.
          1    1    1    2  502    0 -0.47218781131E+02 -0.62158254426E+01 -0.54117860926E+01  0.47932631955E+02  0.00000000000E+00 0. -1.
         22    1    3    3    0    0  0.94951291143E+02 -0.67657056020E+00 -0.15311310000E+03  0.18016610899E+03  0.00000000000E+00 0. -1.
         22    1    3    3    0    0 -0.33276754188E+02 -0.17640878159E+02 -0.13908508907E+03  0.14409443068E+03  0.00000000000E+00 0. -1.
</event>
<event>
 7    1  0.7459264E-005  0.6366722E+03  0.7818608E-02  0.1089457E+00
          2   -1    0    0  502    0  0.00000000000E+00  0.00000000000E+00  0.19734045433E+04  0.19734045433E+04  0.00000000000E+00 0. -1.
          1   -1    0    0  501    0 -0.00000000000E+00 -0.00000000000E+00 -0.45569114410E+03  0.45569114410E+03  0.00000000000E+00 0. -1.
         25    2    1    2    0    0  0.70574501822E+03  0.58239153564E+02  0.37099971482E+03  0.80915572145E+03  0.12499745365E+03 0.  0.
          2    1    1    2  501    0 -0.58214374077E+03 -0.10910905305E+03  0.14556173285E+03  0.60990518808E+03  0.00000000000E+00 0. -1.
          1    1    1    2  502    0 -0.12360127745E+03  0.50869899489E+02  0.10011519516E+04  0.10100347779E+04  0.00000000000E+00 0. -1.
         22    1    3    3    0    0  0.10337204780E+03  0.36182773573E+02  0.19090066745E+02  0.11117285648E+03  0.00000000000E+00 0.  1.
         22    1    3    3    0    0  0.60237297041E+03  0.22056379991E+02  0.35190964807E+03  0.69798286497E+03  0.00000000000E+00 0.  1.
</event>
<event>
 7    1  0.7459264E-005  0.7566615E+03  0.7818608E-02  0.1091480E+00
          2   -1    0    0  502    0  0.00000000000E+00  0.00000000000E+00  0.10896187489E+04  0.10896187489E+04  0.00000000000E+00 0. -1.
          1   -1    0    0  501    0 -0.00000000000E+00 -0.00000000000E+00 -0.11000182085E+04  0.11000182085E+04  0.00000000000E+00 0. -1.
         25    2    1    2    0    0 -0.58133512959E+03 -0.52064213867E+03  0.61136956889E+03  0.99920821938E+03  0.12500218579E+03 0.  0.
          2    1    1    2  501    0  0.91111960476E+01  0.10911994324E+03 -0.45249201296E+03  0.46555257243E+03  0.00000000000E+00 0. -1.
          1    1    1    2  502    0  0.57222393354E+03  0.41152219543E+03 -0.16927701545E+03  0.72487616557E+03  0.00000000000E+00 0. -1.
         22    1    3    3    0    0 -0.35896686197E+03 -0.26116286039E+03  0.29102884985E+03  0.53081167949E+03  0.00000000000E+00 0.  1.
         22    1    3    3    0    0 -0.22236826762E+03 -0.25947927828E+03  0.32034071904E+03  0.46839653988E+03  0.00000000000E+00 0.  1.
</event>
<event>
 7    1  0.7459264E-005  0.2232563E+03  0.7818608E-02  0.1160263E+00
          2   -1    0    0  502    0  0.00000000000E+00  0.00000000000E+00  0.13721656929E+04  0.13721656929E+04  0.00000000000E+00 0. -1.
          1   -1    0    0  501    0 -0.00000000000E+00 -0.00000000000E+00 -0.23392305078E+03  0.23392305078E+03  0.00000000000E+00 0. -1.
         25    2    1    2    0    0  0.32758336760E+03 -0.73718988044E+02  0.16792960700E+03  0.39569042329E+03  0.12500082499E+03 0.  0.
          2    1    1    2  501    0 -0.17018333238E+03  0.90928935865E+02 -0.32059388669E+02  0.19559714313E+03  0.00000000000E+00 0. -1.
          1    1    1    2  502    0 -0.15740003522E+03 -0.17209947821E+02  0.10023724238E+04  0.10148011773E+04  0.00000000000E+00 0. -1.
         22    1    3    3    0    0  0.81227798779E+02 -0.71650376554E+02  0.77793519737E+02  0.13335502791E+03  0.00000000000E+00 0. -1.
         22    1    3    3    0    0  0.24635556882E+03 -0.20686114897E+01  0.90136087267E+02  0.26233539538E+03  0.00000000000E+00 0. -1.
</event>
<event>
 7    1  0.7459264E-005  0.1480394E+03  0.7818608E-02  0.1305544E+00
          2   -1    0    0  502    0  0.00000000000E+00  0.00000000000E+00  0.12742198598E+04  0.12742198598E+04  0.00000000000E+00 0. -1.
          1   -1    0    0  501    0 -0.00000000000E+00 -0.00000000000E+00 -0.55602423015E+03  0.55602423015E+03  0.00000000000E+00 0. -1.
         25    2    1    2    0    0 -0.12321790620E+03  0.13471488394E+03  0.25347598831E+03  0.33645241479E+03  0.12497759161E+03 0.  0.
          2    1    1    2  501    0  0.12243773024E+03 -0.81337981570E+02 -0.50328735007E+03  0.52431385808E+03  0.00000000000E+00 0. -1.
          1    1    1    2  502    0  0.78017596603E+00 -0.53376902370E+02  0.96800699136E+03  0.96947781703E+03  0.00000000000E+00 0. -1.
         22    1    3    3    0    0 -0.76348718646E+02  0.33297691615E+01  0.56295187166E+02  0.94917660631E+02  0.00000000000E+00 0. -1.
         22    1    3    3    0    0 -0.46869187557E+02  0.13138511478E+03  0.19718080115E+03  0.24153475416E+03  0.00000000000E+00 0. -1.
</event>
<event>
 7    1  0.7459264E-005  0.3276996E+03  0.7818608E-02  0.1272549E+00
          2   -1    0    0  502    0  0.00000000000E+00  0.00000000000E+00  0.22467016105E+04  0.22467016105E+04  0.00000000000E+00 0. -1.
          1   -1    0    0  501    0 -0.00000000000E+00 -0.00000000000E+00 -0.16162055169E+03  0.16162055169E+03  0.00000000000E+00 0. -1.
         25    2    1    2    0    0  0.30657343271E+03 -0.14511762634E+03  0.66625375355E+03  0.75800044592E+03  0.12499686703E+03 0.  0.
          2    1    1    2  501    0 -0.30427189607E+03  0.11233421135E+03  0.11208577314E+03  0.34316698897E+03  0.00000000000E+00 0. -1.
          1    1    1    2  502    0 -0.23015366387E+01  0.32783414991E+02  0.13067415322E+04  0.13071547274E+04  0.00000000000E+00 0. -1.
         22    1    3    3    0    0  0.13920182853E+03 -0.13202404031E+03  0.39225562683E+03  0.43666002000E+03  0.00000000000E+00 0. -1.
         22    1    3    3    0    0  0.16737160418E+03 -0.13093586033E+02  0.27399812672E+03  0.32134042592E+03  0.00000000000E+00 0. -1.
</event>
<event>
 7    1  0.7459264E-005  0.5334466E+02  0.7818608E-02  0.1457929E+00
          2   -1    0    0  502    0  0.00000000000E+00  0.00000000000E+00  0.37246983779E+02  0.37246983779E+02  0.00000000000E+00 0. -1.
          1   -1    0    0  501    0 -0.00000000000E+00 -0.00000000000E+00 -0.25522492002E+04  0.25522492002E+04  0.00000000000E+00 0. -1.
         25    2    1    2    0    0  0.88530406033E+02  0.23613473428E+02 -0.14722133561E+04  0.14803493574E+04  0.12500730062E+03 0.  0.
          2    1    1    2  501    0 -0.35695809759E+02 -0.23475795470E+02 -0.10542234985E+04  0.10550888534E+04  0.00000000000E+00 0. -1.
          1    1    1    2  502    0 -0.52834596274E+02 -0.13767795819E+00  0.11434638117E+02  0.54057973209E+02  0.00000000000E+00 0. -1.
         22    1    3    3    0    0  0.53960502120E+02 -0.43686482631E+02 -0.96852457302E+03  0.97100983162E+03  0.00000000000E+00 0. -1.
         22    1    3    3    0    0  0.34569903913E+02  0.67299956059E+02 -0.50368878303E+03  0.50933952575E+03  0.00000000000E+00 0. -1.
</event>
<event>
 7    1  0.7459264E-005  0.4378812E+03  0.7818608E-02  0.1152748E+00
          2   -1    0    0  502    0  0.00000000000E+00  0.00000000000E+00  0.17581089731E+04  0.17581089731E+04  0.00000000000E+00 0. -1.
          1   -1    0    0  501    0 -0.00000000000E+00 -0.00000000000E+00 -0.42574361037E+03  0.42574361037E+03  0.00000000000E+00 0. -1.
         25    2    1    2    0    0  0.44116979969E+03 -0.20573170626E+03  0.80084695416E+03  0.94548252793E+03  0.12500015809E+03 0.  0.
          2    1    1    2  501    0 -0.35927904306E+03  0.23837443741E+03 -0.21837472869E+03  0.48331286484E+03  0.00000000000E+00 0. -1.
          1    1    1    2  502    0 -0.81890756629E+02 -0.32642731147E+02  0.74989313726E+03  0.75505719070E+03  0.00000000000E+00 0. -1.
         22    1    3    3    0    0  0.32880602113E+03 -0.15032408479E+03  0.68640851818E+03  0.77580112389E+03  0.00000000000E+00 0.  1.
         22    1    3    3    0    0  0.11236377856E+03 -0.55407621475E+02  0.11443843599E+03  0.16968140405E+03  0.00000000000E+00 0.  1.
</event>
<event>
 7    1  0.7459264E-005  0.6178490E+02  0.7818608E-02  0.1404845E+00
          2   -1    0    0  502    0  0.00000000000E+00  0.00000000000E+00  0.29654224188E+04  0.29654224188E+04  0.00000000000E+00 0. -1.
          1   -1    0    0  501    0 -0.00000000000E+00 -0.00000000000E+00 -0.12711158137E+03  0.12711158137E+03  0.00000000000E+00 0. -1.
         25    2    1    2    0    0  0.54310549529E+02  0.97736933018E+02  0.80041777595E+02  0.18584035849E+03  0.12501123476E+03 0.  0.
          2    1    1    2  501    0 -0.34104736783E+02 -0.46448405519E+02 -0.62716168299E+02  0.85169860939E+02  0.00000000000E+00 0. -1.
          1    1    1    2  502    0 -0.20205812747E+02 -0.51288527499E+02  0.28209852282E+04  0.28215237808E+04  0.00000000000E+00 0. -1.
         22    1    3    3    0    0 -0.35719325767E+02  0.56730518740E+02  0.19339217804E+02  0.69772683301E+02  0.00000000000E+00 0.  1.
         22    1    3    3    0    0  0.90029875297E+02  0.41006414278E+02  0.60702559791E+02  0.11606767519E+03  0.00000000000E+00 0.  1.
</event>
<event>
 7    1  0.7459264E-005  0.1645524E+03  0.7818608E-02  0.1236279E+00
          2   -1    0    0  502    0  0.00000000000E+00  0.00000000000E+00  0.16305146315E+04  0.16305146315E+04  0.00000000000E+00 0. -1.
          1   -1    0    0  501    0 -0.00000000000E+00 -0.00000000000E+00 -0.13533037525E+03  0.13533037525E+03  0.00000000000E+00 0. -1.
         25    2    1    2    0    0  0.33108001808E+01  0.17777257479E+03  0.84054747296E+03  0.86819264334E+03  0.12499744763E+03 0.  0.
          2    1    1    2  501    0 -0.87227807420E+02 -0.34456969710E+02 -0.92828881134E+02  0.13195898727E+03  0.00000000000E+00 0. -1.
          1    1    1    2  502    0  0.83917007239E+02 -0.14331560508E+03  0.74746566441E+03  0.76569337612E+03  0.00000000000E+00 0. -1.
         22    1    3    3    0    0  0.37780590775E+02  0.15506185632E+03  0.49269553373E+03  0.51790003020E+03  0.00000000000E+00 0. -1.
         22    1    3    3    0    0 -0.34469790594E+02  0.22710718472E+02  0.34785193923E+03  0.35029261314E+03  0.00000000000E+00 0. -1.
</event>
<event>
 7    1  0.7459264E-005  0.5067637E+03  0.7818608E-02  0.1159893E+00
          2   -1    0    0  502    0  0.00000000000E+00  0.00000000000E+00  0.50197615874E+03  0.50197615874E+03  0.00000000000E+00 0. -1.
          1   -1    0    0  501    0 -0.00000000000E+00 -0.00000000000E+00 -0.22570558556E+04  0.22570558556E+04  0.00000000000E+00 0. -1.
         25    2    1    2    0    0 -0.27308497400E+03 -0.36769596332E+03 -0.38819859802E+03  0.61326942867E+03  0.12500206466E+03 0.  0.
          2    1    1    2  501    0  0.33249533393E+03  0.40482357206E+03 -0.17136770973E+04  0.17919610669E+04  0.00000000000E+00 0. -1.
          1    1    1    2  502    0 -0.59410359930E+02 -0.37127608740E+02  0.34679599840E+03  0.35380151880E+03  0.00000000000E+00 0. -1.
         22    1    3    3    0    0 -0.17857392174E+03 -0.15353306606E+03 -0.23981128623E+03  0.33611084615E+03  0.00000000000E+00 0. -1.
         22    1    3    3    0    0 -0.94511052266E+02 -0.21416289725E+03 -0.14838731179E+03  0.27715858251E+03  0.00000000000E+00 0. -1.
</event>
<event>
 7    1  0.7459264E-005  0.1181518E+03  0.7818608E-02  0.1301070E+00
          2   -1    0    0  502    0  0.00000000000E+00  0.00000000000E+00  0.91882088908E+03  0.91882088908E+03  0.00000000000E+00 0. -1.
          1   -1    0    0  501    0 -0.00000000000E+00 -0.00000000000E+00 -0.77982635357E+03  0.77982635357E+03  0.00000000000E+00 0. -1.
         25    2    1    2    0    0  0.18466044083E+03 -0.16506661120E+02 -0.57905819596E+03  0.62072909535E+03  0.12499706893E+03 0.  0.
          2    1    1    2  501    0 -0.66969505591E+02  0.19273918724E+02 -0.16914799150E+03  0.18294108793E+03  0.00000000000E+00 0. -1.
          1    1    1    2  502    0 -0.11769093524E+03 -0.27672576043E+01  0.88720072298E+03  0.89497705937E+03  0.00000000000E+00 0. -1.
         22    1    3    3    0    0  0.12014310456E+03  0.41622233336E+02 -0.25095007333E+03  0.28132315082E+03  0.00000000000E+00 0.  1.
         22    1    3    3    0    0  0.64517336264E+02 -0.58128894456E+02 -0.32810812263E+03  0.33940594453E+03  0.00000000000E+00 0.  1.
</event>
<event>
 7    1  0.7459264E-005  0.1290154E+03  0.7818608E-02  0.1320138E+00
          2   -1    0    0  502    0  0.00000000000E+00  0.00000000000E+00  0.29125058929E+03  0.29125058929E+03  0.00000000000E+00 0. -1.
          1   -1    0    0  501    0 -0.00000000000E+00 -0.00000000000E+00 -0.34258277369E+03  0.34258277369E+03  0.00000000000E+00 0. -1.
         25    2    1    2    0    0 -0.12121338815E+03  0.12713323068E+03  0.49002189255E+02  0.22109192093E+03  0.12499951656E+03 0.  0.
          2    1    1    2  501    0  0.76565040608E+02 -0.97318380401E+02 -0.23617959944E+03  0.26667185041E+03  0.00000000000E+00 0. -1.
          1    1    1    2  502    0  0.44648347547E+02 -0.29814850275E+02  0.13584522579E+03  0.14606959165E+03  0.00000000000E+00 0. -1.
         22    1    3    3    0    0 -0.12046483085E+03  0.11815315026E+03 -0.25525070343E+01  0.16875561526E+03  0.00000000000E+00 0. -1.
         22    1    3    3    0    0 -0.74855730577E+00  0.89800804137E+01  0.51554696289E+02  0.52336305675E+02  0.00000000000E+00 0. -1.
</event>
<event>
 7    1  0.7459264E-005  0.3282763E+03  0.7818608E-02  0.1163501E+00
          2   -1    0    0  502    0  0.00000000000E+00  0.00000000000E+00  0.36182337850E+03  0.36182337850E+03  0.00000000000E+00 0. -1.
          1   -1    0    0  501    0 -0.00000000000E+00 -0.00000000000E+00 -0.87348468358E+03  0.87348468358E+03  0.00000000000E+00 0. -1.
         25    2    1    2    0    0 -0.65461542087E+02 -0.30430432212E+03 -0.33461859711E+03  0.47379398331E+03  0.12499919654E+03 0.  0.
          2    1    1    2  501    0  0.16909902885E+03  0.30828040747E+03 -0.38972158041E+03  0.52489446694E+03  0.00000000000E+00 0. -1.
          1    1    1    2  502    0 -0.10363748676E+03 -0.39760853489E+01  0.21267887244E+03  0.23661961182E+03  0.00000000000E+00 0. -1.
         22    1    3    3    0    0 -0.89548005474E+02 -0.13164755567E+03 -0.18484419589E+03  0.24396167927E+03  0.00000000000E+00 0. -1.
         22    1    3    3    0    0  0.24086463387E+02 -0.17265676645E+03 -0.14977440122E+03  0.22983230405E+03  0.00000000000E+00 0. -1.
</event>
<event>
 7    1  0.7459264E-005  0.1147226E+03  0.7818608E-02  0.1287815E+00
          2   -1    0    0  502    0  0.00000000000E+00  0.00000000000E+00  0.93369186907E+03  0.93369186907E+03  0.00000000000E+00 0. -1.
          1   -1    0    0  501    0 -0.00000000000E+00 -0.00000000000E+00 -0.44163912671E+03  0.44163912671E+03  0.00000000000E+00 0. -1.
         25    2    1    2    0    0 -0.12961111047E+03  0.12917535728E+03  0.46232870601E+03  0.51269601447E+03  0.12499623178E+03 0.  0.
          2    1    1    2  501    0  0.10042645578E+03 -0.53416624895E+02 -0.40485837187E+03  0.42053431502E+03  0.00000000000E+00 0. -1.
          1    1    1    2  502    0  0.29184654686E+02 -0.75758732390E+02  0.43458240821E+03  0.44210066629E+03  0.00000000000E+00 0. -1.
         22    1    3    3    0    0 -0.27301028504E+02  0.10930209516E+03  0.18716908462E+03  0.21845951662E+03  0.00000000000E+00 0.  1.
         22    1    3    3    0    0 -0.10231008196E+03  0.19873262121E+02  0.27515962140E+03  0.29423649785E+03  0.00000000000E+00 0.  1.
</event>
<event>
 7    1  0.7459264E-005  0.1161422E+03  0.7818608E-02  0.1326480E+00
          2   -1    0    0  502    0  0.00000000000E+00  0.00000000000E+00  0.21834151597E+04  0.21834151597E+04  0.00000000000E+00 0. -1.
          1   -1    0    0  501    0 -0.00000000000E+00 -0.00000000000E+00 -0.39037532852E+03  0.39037532852E+03  0.00000000000E+00 0. -1.
         25    2    1    2    0    0 -0.11615521753E+03 -0.63161915907E+02 -0.31867778857E+03  0.36696308269E+03  0.12499963579E+03 0.  0.
          2    1    1    2  501    0  0.60028754187E+02  0.68398048837E+02 -0.32949969083E+01  0.91063721748E+02  0.00000000000E+00 0. -1.
          1    1    1    2  502    0  0.56126463339E+02 -0.52361329308E+01  0.21150126167E+04  0.21157636838E+04  0.00000000000E+00 0. -1.
         22    1    3    3    0    0  0.77767657618E+01 -0.51782119083E+02 -0.13773138404E+03  0.14734924530E+03  0.00000000000E+00 0. -1.
         22    1    3    3    0    0 -0.12393198329E+03 -0.11379796824E+02 -0.18094640453E+03  0.21961383739E+03  0.00000000000E+00 0. -1.
</event>
<event>
 7    1  0.7459264E-005  0.1828267E+03  0.7818608E-02  0.1256977E+00
          2   -1    0    0  502    0  0.00000000000E+00  0.00000000000E+00  0.32184891992E+03  0.32184891992E+03  0.00000000000E+00 0. -1.
          1   -1    0    0  501    0 -0.00000000000E+00 -0.00000000000E+00 -0.74466307984E+03  0.74466307984E+03  0.00000000000E+00 0. -1.
         25    2    1    2    0    0  0.11902642594E+03 -0.14826035352E+03 -0.48642569922E+02  0.23267771839E+03  0.12499759408E+03 0.  0.
          2    1    1    2  501    0  0.39621406761E+02  0.55960029779E+02 -0.56495181360E+03  0.56909747188E+03  0.00000000000E+00 0. -1.
          1    1    1    2  502    0 -0.15864783270E+03  0.92300323739E+02  0.19078022361E+03  0.26473680950E+03  0.00000000000E+00 0. -1.
         22    1    3    3    0    0  0.49578227761E+02 -0.80764997923E+02 -0.86873331076E+02  0.12856111858E+03  0.00000000000E+00 0.  1.
         22    1    3    3    0    0  0.69448198180E+02 -0.67495355595E+02  0.38230761154E+02  0.10411659981E+03  0.00000000000E+00 0.  1.
</event>
<event>
 7    1  0.7459264E-005  0.3457162E+03  0.7818608E-02  0.1100874E+00
          2   -1    0    0  502    0  0.00000000000E+00  0.00000000000E+00  0.34183491418E+04  0.34183491418E+04  0.00000000000E+00 0. -1.
          1   -1    0    0  501    0 -0.00000000000E+00 -0.00000000000E+00 -0.18108447256E+04  0.18108447256E+04  0.00000000000E+00 0. -1.
         25    2    1    2    0    0  0.32099001068E+03 -0.86648179165E+02  0.13429260918E+04  0.13891069324E+04  0.12500035085E+03 0.  0.
          2    1    1    2  501    0  0.41428050898E+02  0.20788987913E+03 -0.17635618173E+04  0.17762558286E+04  0.00000000000E+00 0. -1.
          1    1    1    2  502    0 -0.36241806158E+03 -0.12124169996E+03  0.20281401417E+04  0.20638311064E+04  0.00000000000E+00 0. -1.
         22    1    3    3    0    0  0.13560600494E+03  0.26100691007E+02  0.50425107219E+03  0.52281868602E+03  0.00000000000E+00 0. -1.
         22    1    3    3    0    0  0.18538400574E+03 -0.11274887017E+03  0.83867501959E+03  0.86628824636E+03  0.00000000000E+00 0. -1.
</event>
<event>
 7    1  0.7459264E-005  0.2666671E+03  0.7818608E-02  0.1216041E+00
          2   -1    0    0  502    0  0.00000000000E+00  0.00000000000E+00  0.28066596428E+03  0.28066596428E+03  0.00000000000E+00 0. -1.
          1   -1    0    0  501    0 -0.00000000000E+00 -0.00000000000E+00 -0.65720122937E+03  0.65720122937E+03  0.00000000000E+00 0. -1.
         25    2    1    2    0    0 -0.28375317691E+03  0.10288728874E+03 -0.17141593626E+03  0.36893024872E+03  0.12499778246E+03 0.  0.
          2    1    1    2  501    0  0.21747546761E+03 -0.12949262539E+03 -0.33550626118E+03  0.42027178151E+03  0.00000000000E+00 0. -1.
          1    1    1    2  502    0  0.66277709304E+02  0.26605336642E+02  0.13038693235E+03  0.14866516343E+03  0.00000000000E+00 0. -1.
         22    1    3    3    0    0 -0.46088457408E+02  0.73819818838E+02 -0.51845848189E+02  0.10129907963E+03  0.00000000000E+00 0. -1.
         22    1    3    3    0    0 -0.23766471951E+03  0.29067469906E+02 -0.11957008807E+03  0.26763116909E+03  0.00000000000E+00 0. -1.
</event>
<event>
 7    1  0.7459264E-005  0.4464608E+02  0.7818608E-02  0.1524738E+00
          2   -1    0    0  502    0  0.00000000000E+00  0.00000000000E+00  0.54871930846E+03  0.54871930846E+03  0.00000000000E+00 0. -1.
          1   -1    0    0  501    0 -0.00000000000E+00 -0.00000000000E+00 -0.51479664952E+02  0.51479664952E+02  0.00000000000E+00 0. -1.
         25    2    1    2    0    0 -0.27123561606E+02  0.32100188284E+02  0.13969414283E+03  0.19211101881E+03  0.12500432122E+03 0.  0.
          2    1    1    2  501    0  0.45886341660E+02 -0.60904001341E+01 -0.27476521037E+01  0.46370237403E+02  0.00000000000E+00 0. -1.
          1    1    1    2  502    0 -0.18762780055E+02 -0.26009788150E+02  0.36029315278E+03  0.36171771720E+03  0.00000000000E+00 0. -1.
         22    1    3    3    0    0 -0.61220002905E+02  0.61173934118E+02  0.99984902014E+02  0.13223887326E+03  0.00000000000E+00 0.  1.
         22    1    3    3    0    0  0.34096441300E+02 -0.29073745834E+02  0.39709240819E+02  0.59872145548E+02  0.00000000000E+00 0.  1.
</event>
<event>
 7    1  0.7459264E-005  0.8791068E+03  0.7818608E-02  0.1165503E+00
          2   -1    0    0  502    0  0.00000000000E+00  0.00000000000E+00  0.10173062039E+04  0.10173062039E+04  0.00000000000E+00 0. -1.
          1   -1    0    0  501    0 -0.00000000000E+00 -0.00000000000E+00 -0.11637660311E+04  0.11637660311E+04  0.00000000000E+00 0. -1.
         25    2    1    2    0    0 -0.80921627616E+03 -0.31900466680E+03 -0.54414775271E+03  0.10335942506E+04  0.12500135616E+03 0.  0.
          2    1    1    2  501    0  0.84547288973E+03  0.30815941870E+03  0.16891684614E+03  0.91559791149E+03  0.00000000000E+00 0. -1.
          1    1    1    2  502    0 -0.36256613575E+02  0.10845248097E+02  0.22877107938E+03  0.23188007287E+03  0.00000000000E+00 0. -1.
         22    1    3    3    0    0 -0.63609175946E+03 -0.30321999108E+03 -0.44622658918E+03  0.83407029580E+03  0.00000000000E+00 0.  1.
         22    1    3    3    0    0 -0.17312451670E+03 -0.15784675717E+02 -0.97921163528E+02  0.19952395479E+03  0.00000000000E+00 0.  1.
</event>
<event>
 7    1  0.7459264E-005  0.2255779E+03  0.7818608E-02  0.1220833E+00
          2   -1    0    0  502    0  0.00000000000E+00  0.00000000000E+00  0.58575072857E+03  0.58575072857E+03  0.00000000000E+00 0. -1.
          1   -1    0    0  501    0 -0.00000000000E+00 -0.00000000000E+00 -0.46361868996E+04  0.46361868996E+04  0.00000000000E+00 0. -1.
         25    2    1    2    0    0  0.26363244058E+03 -0.59914077343E+02 -0.30030850995E+04  0.30178197438E+04  0.12499652239E+03 0.  0.
          2    1    1    2  501    0 -0.18907885261E+03  0.30151548299E+02 -0.16172744330E+04  0.16285688564E+04  0.00000000000E+00 0. -1.
          1    1    1    2  502    0 -0.74553587962E+02  0.29762529044E+02  0.56992336151E+03  0.57554902798E+03  0.00000000000E+00 0. -1.
         22    1    3    3    0    0  0.57143094390E+02 -0.21171115653E+02 -0.13589819290E+04  0.13603475412E+04  0.00000000000E+00 0. -1.
         22    1    3    3    0    0  0.20648934619E+03 -0.38742961690E+02 -0.16441031705E+04  0.16574722026E+04  0.00000000000E+00 0. -1.
</event>
<event>
 7    1  0.7459264E-005  0.1825674E+03  0.7818608E-02  0.1322023E+00
          2   -1    0    0  502    0  0.00000000000E+00  0.00000000000E+00  0.16385025443E+04  0.16385025443E+04  0.00000000000E+00 0. -1.
          1   -1    0    0  501    0 -0.00000000000E+00 -0.00000000000E+00 -0.25800972436E+03  0.25800972436E+03  0.00000000000E+00 0. -1.
         25    2    1    2    0    0  0.17949672008E+03  0.10638549657E+03  0.72501984323E+03  0.76473257956E+03  0.12500079503E+03 0.  0.
          2    1    1    2  501    0 -0.34292437981E+02 -0.14692378018E+02 -0.22837513158E+03  0.23140232929E+03  0.00000000000E+00 0. -1.
          1    1    1    2  502    0 -0.14520428209E+03 -0.91693118551E+02  0.88384810827E+03  0.90037735979E+03  0.00000000000E+00 0. -1.
         22    1    3    3    0    0  0.10890730583E+03  0.11750479957E+03  0.59694530175E+03  0.61807109014E+03  0.00000000000E+00 0.  1.
         22    1    3    3    0    0  0.70589414242E+02 -0.11119303004E+02  0.12807454149E+03  0.14666148942E+03  0.00000000000E+00 0.  1.
</event>
<event>
 7    1  0.7459264E-005  0.1424891E+03  0.7818608E-02  0.1272912E+00
          2   -1    0    0  502    0  0.00000000000E+00  0.00000000000E+00  0.14013313995E+04  0.14013313995E+04  0.00000000000E+00 0. -1.
          1   -1    0    0  501    0 -0.00000000000E+00 -0.00000000000E+00 -0.15719054920E+03  0.15719054920E+03  0.00000000000E+00 0. -1.
         25    2    1    2    0    0 -0.91849883666E+02 -0.16303367968E+03  0.30969511851E+03  0.38282218351E+03  0.12500150369E+03 0.  0.
          2    1    1    2  501    0  0.70495023074E+02  0.26518398791E+02 -0.10382950331E+03  0.12827057149E+03  0.00000000000E+00 0. -1.
          1    1    1    2  502    0  0.21354860592E+02  0.13651528089E+03  0.10382752351E+04  0.10474291937E+04  0.00000000000E+00 0. -1.
         22    1    3    3    0    0 -0.42531797121E+02 -0.12196958527E+03  0.99508918859E+02  0.16305691776E+03  0.00000000000E+00 0. -1.
         22    1    3    3    0    0 -0.49318086545E+02 -0.41064094416E+02  0.21018619965E+03  0.21976526576E+03  0.00000000000E+00 0. -1.
</event>
<event>
 7    1  0.7459264E-005  0.2414206E+03  0.7818608E-02  0.1236830E+00
          2   -1    0    0  502    0  0.00000000000E+00  0.00000000000E+00  0.86728367422E+02  0.86728367422E+02  0.00000000000E+00 0. -1.
          1   -1    0    0  501    0 -0.00000000000E+00 -0.00000000000E+00 -0.16173296107E+04  0.16173296107E+04  0.00000000000E+00 0. -1.
         25    2    1    2    0    0  0.18131182019E+03 -0.11390346377E+03 -0.35355803166E+03  0.43182991294E+03  0.12500326699E+03 0.  0.
          2    1    1    2  501    0 -0.17902459834E+03  0.17742899957E+03 -0.11818984339E+04  0.12084762160E+04  0.00000000000E+00 0. -1.
          1    1    1    2  502    0 -0.22872218484E+01 -0.63525535799E+02  0.48552222945E+01  0.63751849117E+02  0.00000000000E+00 0. -1.
         22    1    3    3    0    0  0.41863003858E+01 -0.51293525995E+02 -0.13000417418E+03  0.13982001367E+03  0.00000000000E+00 0. -1.
         22    1    3    3    0    0  0.17712551981E+03 -0.62609937777E+02 -0.22355385748E+03  0.29200989927E+03  0.00000000000E+00 0. -1.
</event>
<event>
 7    1  0.7459264E-005  0.9230908E+03  0.7818608E-02  0.1074697E+00
          2   -1    0    0  502    0  0.00000000000E+00  0.00000000000E+00  0.19768789075E+04  0.19768789075E+04  0.00000000000E+00 0. -1.
          1   -1    0    0  501    0 -0.00000000000E+00 -0.00000000000E+00 -0.31537434437E+04  0.31537434437E+04  0.00000000000E+00 0. -1.
         25    2    1    2    0    0  0.77279407303E+03 -0.33532949679E+03  0.16964048453E+03  0.86836599876E+03  0.12500025235E+03 0.  0.
          2    1    1    2  501    0 -0.82965700170E+03  0.43225795260E+03 -0.27240100592E+04  0.28801750781E+04  0.00000000000E+00 0. -1.
          1    1    1    2  502    0  0.56862928663E+02 -0.96928455814E+02  0.13775050384E+04  0.13820812743E+04  0.00000000000E+00 0. -1.
         22    1    3    3    0    0  0.41627396176E+03 -0.14188325075E+03  0.14055490811E+03  0.46170396390E+03  0.00000000000E+00 0. -1.
         22    1    3    3    0    0  0.35652011127E+03 -0.19344624604E+03  0.29085576421E+02  0.40666203487E+03  0.00000000000E+00 0. -1.
</event>
<event>
 7    1  0.7459264E-005  0.4961436E+03  0.7818608E-02  0.1131708E+00
          2   -1    0    0  502    0  0.00000000000E+00  0.00000000000E+00  0.26450806878E+04  0.26450806878E+04  0.00000000000E+00 0. -1.
          1   -1    0    0  501    0 -0.00000000000E+00 -0.00000000000E+00 -0.13393160236E+04  0.13393160236E+04  0.00000000000E+00 0. -1.
         25    2    1    2    0    0 -0.31670720929E+03 -0.28412795995E+03  0.41944137171E+03  0.61040030643E+03  0.12500126298E+03 0.  0.
          2    1    1    2  501    0  0.41687145802E+03  0.28236854633E+03 -0.11916263345E+04  0.12936333057E+04  0.00000000000E+00 0. -1.
          1    1    1    2  502    0 -0.10016424872E+03  0.17594136129E+01  0.20779496270E+04  0.20803630992E+04  0.00000000000E+00 0. -1.
         22    1    3    3    0    0 -0.19842784107E+03 -0.17209033091E+03  0.17138291219E+03  0.31362524244E+03  0.00000000000E+00 0. -1.
         22    1    3    3    0    0 -0.11827936823E+03 -0.11203762903E+03  0.24805845952E+03  0.29677506399E+03  0.00000000000E+00 0. -1.
</event>
<event>
 7    1  0.7459264E-005  0.4476107E+03  0.7818608E-02  0.1147033E+00
          2   -1    0    0  502    0  0.00000000000E+00  0.00000000000E+00  0.27453428165E+04  0.27453428165E+04  0.00000000000E+00 0. -1.
          1   -1    0    0  501    0 -0.00000000000E+00 -0.00000000000E+00 -0.34768010679E+03  0.34768010679E+03  0.00000000000E+00 0. -1.
         25    2    1    2    0    0  0.37018159185E+03  0.28257294027E+02  0.90165939551E+03  0.98308055977E+03  0.12499934356E+03 0.  0.
          2    1    1    2  501    0 -0.46154577548E+03 -0.15267248915E+02 -0.13123959737E+03  0.48008480883E+03  0.00000000000E+00 0. -1.
          1    1    1    2  502    0  0.91364183623E+02 -0.12990045112E+02  0.16272429116E+04  0.16298575547E+04  0.00000000000E+00 0. -1.
         22    1    3    3    0    0  0.28031960393E+03  0.58396168456E+02  0.56615694188E+03  0.63444690532E+03  0.00000000000E+00 0.  1.
         22    1    3    3    0    0  0.89861987922E+02 -0.30138874430E+02  0.33550245363E+03  0.34863365445E+03  0.00000000000E+00 0.  1.
</event>
<event>
 7    1  0.7459264E-005  0.4252186E+03  0.7818608E-02  0.1142774E+00
          2   -1    0    0  502    0  0.00000000000E+00  0.00000000000E+00  0.15823877293E+04  0.15823877293E+04  0.00000000000E+00 0. -1.
          1   -1    0    0  501    0 -0.00000000000E+00 -0.00000000000E+00 -0.35223536263E+03  0.35223536263E+03  0.00000000000E+00 0. -1.
         25    2    1    2    0    0 -0.44615779883E+03  0.24313358818E+03  0.76938463552E+03  0.93045654410E+03  0.12500375966E+03 0.  0.
          2    1    1    2  501    0  0.37169314293E+03 -0.17311050217E+03 -0.10983224263E+03  0.42448340366E+03  0.00000000000E+00 0. -1.
          1    1    1    2  502    0  0.74464655898E+02 -0.70023086011E+02  0.57059997378E+03  0.57968314417E+03  0.00000000000E+00 0. -1.
         22    1    3    3    0    0 -0.36681318711E+03  0.23722067705E+03  0.69875391604E+03  0.82406468134E+03  0.00000000000E+00 0. -1.
         22    1    3    3    0    0 -0.79344611716E+02  0.59129111278E+01  0.70630719483E+02  0.10639186276E+03  0.00000000000E+00 0. -1.
</event>
<event>
 7    1  0.7459264E-005  0.8577822E+03  0.7818608E-02  0.1043004E+00
          2   -1    0    0  502    0  0.00000000000E+00  0.00000000000E+00  0.44306800725E+04  0.44306800725E+04  0.00000000000E+00 0. -1.
          1   -1    0    0  501    0 -0.00000000000E+00 -0.00000000000E+00 -0.12620273118E+04  0.12620273118E+04  0.00000000000E+00 0. -1.
         25    2    1    2    0    0 -0.10073788909E+04 -0.18964702836E+03  0.11050780251E+04  0.15124817214E+04  0.12500116331E+03 0.  0.
          2    1    1    2  501    0  0.82086974989E+03  0.16143210654E+03 -0.88951587851E+03  0.12211166895E+04  0.00000000000E+00 0. -1.
          1    1    1    2  502    0  0.18650914104E+03  0.28214921815E+02  0.29530906140E+04  0.29591089733E+04  0.00000000000E+00 0. -1.
         22    1    3    3    0    0 -0.89169568333E+03 -0.16053652092E+03  0.10288264410E+04  0.13709037209E+04  0.00000000000E+00 0.  1.
         22    1    3    3    0    0 -0.11568320759E+03 -0.29110507433E+02  0.76251584147E+02  0.14157800058E+03  0.00000000000E+00 0.  1.
</event>
<event>
 7    1  0.7459264E-005  0.4704940E+03  0.7818608E-02  0.1114826E+00
          2   -1    0    0  502    0  0.00000000000E+00  0.00000000000E+00  0.28586091578E+04  0.28586091578E+04  0.00000000000E+00 0. -1.
          1   -1    0    0  501    0 -0.00000000000E+00 -0.00000000000E+00 -0.13633812638E+04  0.13633812638E+04  0.00000000000E+00 0. -1.
         25    2    1    2    0    0 -0.42857257076E+03 -0.16157823161E+03  0.23748567519E+04  0.24218489710E+04  0.12500349321E+03 0.  0.
          2    1    1    2  501    0 -0.72248599181E+02 -0.10844691433E+03 -0.11589824675E+04  0.11662851081E+04  0.00000000000E+00 0. -1.
          1    1    1    2  502    0  0.50082116994E+03  0.27002514594E+03  0.27935360966E+03  0.63385634250E+03  0.00000000000E+00 0. -1.
         22    1    3    3    0    0 -0.10160076037E+03 -0.24479253032E+02  0.32012655256E+03  0.33675355676E+03  0.00000000000E+00 0. -1.
         22    1    3    3    0    0 -0.32697181039E+03 -0.13709897858E+03  0.20547301993E+04  0.20850954143E+04  0.00000000000E+00 0. -1.
</event>
<event>
 7    1  0.7459264E-005  0.1035151E+04  0.7818608E-02  0.1069451E+00
          2   -1    0    0  502    0  0.00000000000E+00  0.00000000000E+00  0.22795106938E+04  0.22795106938E+04  0.00000000000E+00 0. -1.
          1   -1    0    0  501    0 -0.00000000000E+00 -0.00000000000E+00 -0.92887176276E+03  0.92887176276E+03  0.00000000000E+00 0. -1.
         25    2    1    2    0    0  0.53350910334E+03 -0.95126820362E+03  0.89731436528E+03  0.14178650463E+04  0.12500024363E+03 0.  0.
          2    1    1    2  501    0 -0.42992256896E+03  0.92192291919E+03 -0.27541826319E+03  0.10538645567E+04  0.00000000000E+00 0. -1.
          1    1    1    2  502    0 -0.10358653439E+03  0.29345284431E+02  0.72874282898E+03  0.73665285353E+03  0.00000000000E+00 0. -1.
         22    1    3    3    0    0  0.76129314010E+02 -0.12493038168E+03  0.17953433683E+03  0.23159415109E+03  0.00000000000E+00 0.  1.
         22    1    3    3    0    0  0.45737978933E+03 -0.82633782193E+03  0.71778002845E+03  0.11862708952E+04  0.00000000000E+00 0.  1.
</event>
<event>
 7    1  0.7459264E-005  0.1192711E+04  0.7818608E-02  0.1172133E+00
          2   -1    0    0  502    0  0.00000000000E+00  0.00000000000E+00  0.20710367335E+04  0.20710367335E+04  0.00000000000E+00 0. -1.
          1   -1    0    0  501    0 -0.00000000000E+00 -0.00000000000E+00 -0.25391701509E+04  0.25391701509E+04  0.00000000000E+00 0. -1.
         25    2    1    2    0    0 -0.13421641071E+03  0.11774249099E+04 -0.19599976729E+03  0.12076360212E+04  0.12500155037E+03 0.  0.
          2    1    1    2  501    0  0.11189954049E+03 -0.11904752566E+04 -0.16426776072E+04  0.20317830998E+04  0.00000000000E+00 0. -1.
          1    1    1    2  502    0  0.22316870226E+02  0.13050346712E+02  0.13705439570E+04  0.13707877634E+04  0.00000000000E+00 0. -1.
         22    1    3    3    0    0 -0.13624179233E+03  0.11788153228E+04 -0.19082469080E+03  0.12019074231E+04  0.00000000000E+00 0.  1.
         22    1    3    3    0    0  0.20253816193E+01 -0.13904129115E+01 -0.51750764886E+01  0.57285980336E+01  0.00000000000E+00 0.  1.
</event>
<event>
 7    1  0.7459264E-005  0.7665928E+03  0.7818608E-02  0.1113196E+00
          2   -1    0    0  502    0  0.00000000000E+00  0.00000000000E+00  0.27797099142E+04  0.27797099142E+04  0.00000000000E+00 0. -1.
          1   -1    0    0  501    0 -0.00000000000E+00 -0.00000000000E+00 -0.82175464485E+03  0.82175464485E+03  0.00000000000E+00 0. -1.
         25    2    1    2    0    0  0.78966295194E+03  0.54342954904E+02  0.21884119256E+02  0.80163816947E+03  0.12499642261E+03 0.  0.
          2    1    1    2  501    0 -0.74813327116E+03  0.15946574672E+02 -0.10630739224E+03  0.75581674122E+03  0.00000000000E+00 0. -1.
          1    1    1    2  502    0 -0.41529680776E+02 -0.70289529576E+02  0.20423785423E+04  0.20440096483E+04  0.00000000000E+00 0. -1.
         22    1    3    3    0    0  0.53225229211E+03 -0.20973264203E+02  0.27524152585E+02  0.53337600175E+03  0.00000000000E+00 0.  1.
         22    1    3    3    0    0  0.25741065983E+03  0.75316219107E+02 -0.56400333293E+01  0.26826216772E+03  0.00000000000E+00 0.  1.
</event>
<event>
 7    1  0.7459264E-005  0.1123563E+03  0.7818608E-02  0.1287114E+00
          2   -1    0    0  502    0  0.00000000000E+00  0.00000000000E+00  0.99352431303E+03  0.99352431303E+03  0.00000000000E+00 0. -1.
          1   -1    0    0  501    0 -0.00000000000E+00 -0.00000000000E+00 -0.21999128895E+04  0.21999128895E+04  0.00000000000E+00 0. -1.
         25    2    1    2    0    0  0.15226274458E+03  0.62222531098E+02  0.53597393603E+03  0.57441156015E+03  0.12499997425E+03 0.  0.
          2    1    1    2  501    0 -0.52568306747E+02 -0.64803317890E+02 -0.21742109307E+04  0.21758115884E+04  0.00000000000E+00 0. -1.
          1    1    1    2  502    0 -0.99694437828E+02  0.25807867921E+01  0.43184841819E+03  0.44321405403E+03  0.00000000000E+00 0. -1.
         22    1    3    3    0    0 -0.10832854990E+02  0.34520360887E+02  0.55464446281E+02  0.66221679715E+02  0.00000000000E+00 0.  1.
         22    1    3    3    0    0  0.16309559956E+03  0.27702170211E+02  0.48050948975E+03  0.50818988043E+03  0.00000000000E+00 0.  1.
</event>
<event>
 7    1  0.7459264E-005  0.5098115E+02  0.7818608E-02  0.1491594E+00
          2   -1    0    0  502    0  0.00000000000E+00  0.00000000000E+00  0.11196709611E+03  0.11196709611E+03  0.00000000000E+00 0. -1.
          1   -1    0    0  501    0 -0.00000000000E+00 -0.00000000000E+00 -0.61718156419E+03  0.61718156419E+03  0.00000000000E+00 0. -1.
         25    2    1    2    0    0 -0.25269381582E+02 -0.71674526935E+02 -0.26334409964E+03  0.30125009770E+03  0.12500290835E+03 0.  0.
          2    1    1    2  501    0 -0.16270517876E+01  0.48996630663E+02 -0.32967919111E+03  0.33330419464E+03  0.00000000000E+00 0. -1.
          1    1    1    2  502    0  0.26896433369E+02  0.22677896272E+02  0.87808822672E+02  0.94594367943E+02  0.00000000000E+00 0. -1.
         22    1    3    3    0    0  0.45148678038E+02 -0.54319057797E+02 -0.16101644821E+03  0.17582735784E+03  0.00000000000E+00 0. -1.
         22    1    3    3    0    0 -0.70418059620E+02 -0.17355469138E+02 -0.10232765143E+03  0.12542273987E+03  0.00000000000E+00 0. -1.
</event>
<event>
 7    1  0.7459264E-005  0.2189234E+03  0.7818608E-02  0.1220141E+00
          2   -1    0    0  502    0  0.00000000000E+00  0.00000000000E+00  0.21227924667E+04  0.21227924667E+04  0.00000000000E+00 0. -1.
          1   -1    0    0  501    0 -0.00000000000E+00 -0.00000000000E+00 -0.47438823708E+03  0.47438823708E+03  0.00000000000E+00 0. -1.
         25    2    1    2    0    0  0.83665966008E+02 -0.24684127013E+03  0.32509217699E+03  0.43502001072E+03  0.12500751851E+03 0.  0.
          2    1    1    2  501    0 -0.60524065259E+01  0.21654553192E+03 -0.39037254099E+03  0.44645192325E+03  0.00000000000E+00 0. -1.
          1    1    1    2  502    0 -0.77613559482E+02  0.30295738210E+02  0.17136845937E+04  0.17157087698E+04  0.00000000000E+00 0. -1.
         22    1    3    3    0    0  0.98683980321E+02 -0.25197981245E+03  0.31820859560E+03  0.41771888175E+03  0.00000000000E+00 0. -1.
         22    1    3    3    0    0 -0.15018014313E+02  0.51385423206E+01  0.68835813822E+01  0.17301128973E+02  0.00000000000E+00 0. -1.
</event>
<event>
 7    1  0.7459264E-005  0.7310244E+02  0.7818608E-02  0.1448962E+00
          2   -1    0    0  502    0  0.00000000000E+00  0.00000000000E+00  0.24551631195E+03  0.24551631195E+03  0.00000000000E+00 0. -1.
          1   -1    0    0  501    0 -0.00000000000E+00 -0.00000000000E+00 -0.52562240663E+03  0.52562240663E+03  0.00000000000E+00 0. -1.
         25    2    1    2    0    0  0.72907255248E+02 -0.30533004401E+02  0.13131691275E+02  0.14847506573E+03  0.12499868640E+03 0.  0.
          2    1    1    2  501    0 -0.73091472657E+02 -0.27613351877E+01 -0.45330610714E+03  0.45916926631E+03  0.00000000000E+00 0. -1.
          1    1    1    2  502    0  0.18421740898E+00  0.33294339589E+02  0.16006832119E+03  0.16349438655E+03  0.00000000000E+00 0. -1.
         22    1    3    3    0    0  0.68892318183E+02  0.34055263535E+02  0.28496362655E+02  0.81963132954E+02  0.00000000000E+00 0. -1.
         22    1    3    3    0    0  0.40149370648E+01 -0.64588267936E+02 -0.15364671380E+02  0.66511932773E+02  0.00000000000E+00 0. -1.
</event>
<event>
 7    1  0.7459264E-005  0.2803052E+03  0.7818608E-02  0.1189575E+00
          2   -1    0    0  502    0  0.00000000000E+00  0.00000000000E+00  0.25431135756E+04  0.25431135756E+04  0.00000000000E+00 0. -1.
          1   -1    0    0  501    0 -0.00000000000E+00 -0.00000000000E+00 -0.11791128729E+04  0.11791128729E+04  0.00000000000E+00 0. -1.
         25    2    1    2    0    0  0.10232821783E+02  0.33997851477E+03  0.29342478713E+03  0.46627481419E+03  0.12499598192E+03 0.  0.
          2    1    1    2  501    0 -0.67091607543E+02 -0.26964024250E+03 -0.10740547692E+04  0.11094146166E+04  0.00000000000E+00 0. -1.
          1    1    1    2  502    0  0.56858785760E+02 -0.70338272276E+02  0.21446306848E+04  0.21465370177E+04  0.00000000000E+00 0. -1.
         22    1    3    3    0    0  0.38230805330E+02  0.11449209984E+03  0.43011892332E+02  0.12814077526E+03  0.00000000000E+00 0. -1.
         22    1    3    3    0    0 -0.27997983547E+02  0.22548641493E+03  0.25041289480E+03  0.33813403893E+03  0.00000000000E+00 0. -1.
</event>
<event>
 7    1  0.7459264E-005  0.6926611E+02  0.7818608E-02  0.1501454E+00
          2   -1    0    0  502    0  0.00000000000E+00  0.00000000000E+00  0.17516445995E+04  0.17516445995E+04  0.00000000000E+00 0. -1.
          1   -1    0    0  501    0 -0.00000000000E+00 -0.00000000000E+00 -0.55410213227E+02  0.55410213227E+02  0.00000000000E+00 0. -1.
         25    2    1    2    0    0  0.26683589059E+02  0.83637946132E+02  0.30577038218E+03  0.34180008527E+03  0.12499780682E+03 0.  0.
          2    1    1    2  501    0  0.59751073394E+01 -0.23440125136E+02 -0.32571885075E+02  0.40571776784E+02  0.00000000000E+00 0. -1.
          1    1    1    2  502    0 -0.32658696399E+02 -0.60197820996E+02  0.14230358892E+04  0.14246829507E+04  0.00000000000E+00 0. -1.
         22    1    3    3    0    0  0.52243495645E+02  0.63310632775E+02  0.83303956909E+02  0.11694942623E+03  0.00000000000E+00 0.  1.
         22    1    3    3    0    0 -0.25559906585E+02  0.20327313357E+02  0.22246642528E+03  0.22485065903E+03  0.00000000000E+00 0.  1.
</event>
<event>
 7    1  0.7459264E-005  0.2485957E+03  0.7818608E-02  0.1168280E+00
          2   -1    0    0  502    0  0.00000000000E+00  0.00000000000E+00  0.89192008387E+03  0.89192008387E+03  0.00000000000E+00 0. -1.
          1   -1    0    0  501    0 -0.00000000000E+00 -0.00000000000E+00 -0.90940821500E+03  0.90940821500E+03  0.00000000000E+00 0. -1.
         25    2    1    2    0    0 -0.23221241511E+03  0.44247181175E+02 -0.76160749668E+02  0.27803590275E+03  0.12499233838E+03 0.  0.
          2    1    1    2  501    0  0.19467791078E+03 -0.16831491746E+03 -0.70406220081E+03  0.74962189336E+03  0.00000000000E+00 0. -1.
          1    1    1    2  502    0  0.37534504323E+02  0.12406773629E+03  0.76273481935E+03  0.77367050277E+03  0.00000000000E+00 0. -1.
         22    1    3    3    0    0 -0.10234322169E+03  0.45498637751E+02 -0.94919796381E+02  0.14681290409E+03  0.00000000000E+00 0. -1.
         22    1    3    3    0    0 -0.12986919341E+03 -0.12514565762E+01  0.18759046713E+02  0.13122299865E+03  0.00000000000E+00 0. -1.
</event>
<event>
 7    1  0.7459264E-005  0.5930826E+03  0.7818608E-02  0.1189496E+00
          2   -1    0    0  502    0  0.00000000000E+00  0.00000000000E+00  0.26840503517E+04  0.26840503517E+04  0.00000000000E+00 0. -1.
          1   -1    0    0  501    0 -0.00000000000E+00 -0.00000000000E+00 -0.84983839536E+03  0.84983839536E+03  0.00000000000E+00 0. -1.
         25    2    1    2    0    0  0.26091468018E+03  0.54972921806E+03 -0.26428808896E+03  0.67509349591E+03  0.12499740289E+03 0.  0.
          2    1    1    2  501    0 -0.22165423324E+03 -0.53272594342E+03 -0.16088214591E+03  0.59900800894E+03  0.00000000000E+00 0. -1.
          1    1    1    2  502    0 -0.39260446941E+02 -0.17003274644E+02  0.22593821912E+04  0.22597872422E+04  0.00000000000E+00 0. -1.
         22    1    3    3    0    0  0.51093307201E+00  0.11043919177E+03 -0.42420472850E+02  0.11830711157E+03  0.00000000000E+00 0.  1.
         22    1    3    3    0    0  0.26040374711E+03  0.43929002629E+03 -0.22186761611E+03  0.55678638434E+03  0.00000000000E+00 0.  1.
</event>
<event>
 7    1  0.7459264E-005  0.1108539E+03  0.7818608E-02  0.1282962E+00
          2   -1    0    0  502    0  0.00000000000E+00  0.00000000000E+00  0.21833416875E+03  0.21833416875E+03  0.00000000000E+00 0. -1.
          1   -1    0    0  501    0 -0.00000000000E+00 -0.00000000000E+00 -0.20706922114E+04  0.20706922114E+04  0.00000000000E+00 0. -1.
         25    2    1    2    0    0 -0.15767403039E+03 -0.72889913248E+02 -0.31439284271E+03  0.38031921081E+03  0.12500321295E+03 0.  0.
          2    1    1    2  501    0  0.70245868503E+02  0.82501969989E+02 -0.17110918808E+04  0.17145193151E+04  0.00000000000E+00 0. -1.
          1    1    1    2  502    0  0.87428161889E+02 -0.96120567409E+01  0.17312668087E+03  0.19418785429E+03  0.00000000000E+00 0. -1.
         22    1    3    3    0    0 -0.41171428644E+02 -0.75938507575E+02 -0.76385299078E+02  0.11531026574E+03  0.00000000000E+00 0. -1.
         22    1    3    3    0    0 -0.11650260175E+03  0.30485943270E+01 -0.23800754363E+03  0.26500894507E+03  0.00000000000E+00 0. -1.
</event>
<event>
 7    1  0.7459264E-005  0.2416775E+03  0.7818608E-02  0.1233943E+00
          2   -1    0    0  502    0  0.00000000000E+00  0.00000000000E+00  0.36878404077E+04  0.36878404077E+04  0.00000000000E+00 0. -1.
          1   -1    0    0  501    0 -0.00000000000E+00 -0.00000000000E+00 -0.99453054413E+02  0.99453054413E+02  0.00000000000E+00 0. -1.
         25    2    1    2    0    0 -0.14527551406E+03  0.16386112350E+03  0.21324936237E+03  0.33023582830E+03  0.12499987584E+03 0.  0.
          2    1    1    2  501    0  0.17664109029E+03 -0.22125213620E+03  0.45304292603E+03  0.53423073234E+03  0.00000000000E+00 0. -1.
          1    1    1    2  502    0 -0.31365576232E+02  0.57391012703E+02  0.29220950648E+04  0.29228269014E+04  0.00000000000E+00 0. -1.
         22    1    3    3    0    0 -0.13698533899E+03  0.66894271753E+02  0.10760690198E+03  0.18659869251E+03  0.00000000000E+00 0. -1.
         22    1    3    3    0    0 -0.82901750678E+01  0.96966851749E+02  0.10564246039E+03  0.14363713579E+03  0.00000000000E+00 0. -1.
</event>
<event>
 7    1  0.7459264E-005  0.2415376E+03  0.7818608E-02  0.1265839E+00
          2   -1    0    0  502    0  0.00000000000E+00  0.00000000000E+00  0.15624862790E+04  0.15624862790E+04  0.00000000000E+00 0. -1.
          1   -1    0    0  501    0 -0.00000000000E+00 -0.00000000000E+00 -0.10664059695E+03  0.10664059695E+03  0.00000000000E+00 0. -1.
         25    2    1    2    0    0  0.60403035420E+02  0.19075583260E+03  0.13061582331E+04  0.13272943141E+04  0.12499820813E+03 0.  0.
          2    1    1    2  501    0 -0.66001109838E+02 -0.23800594625E+03  0.84324896397E+02  0.26098594810E+03  0.00000000000E+00 0. -1.
          1    1    1    2  502    0  0.55980744182E+01  0.47250113652E+02  0.65362552604E+02  0.80846613783E+02  0.00000000000E+00 0. -1.
         22    1    3    3    0    0  0.56149000871E+02  0.13508310941E+03  0.55145559102E+03  0.57052907517E+03  0.00000000000E+00 0.  1.
         22    1    3    3    0    0  0.42540345493E+01  0.55672723186E+02  0.75470264204E+03  0.75676523891E+03  0.00000000000E+00 0.  1.
</event>
<event>
 7    1  0.7459264E-005  0.5909893E+03  0.7818608E-02  0.1149206E+00
          2   -1    0    0  502    0  0.00000000000E+00  0.00000000000E+00  0.21776745607E+03  0.21776745607E+03  0.00000000000E+00 0. -1.
          1   -1    0    0  501    0 -0.00000000000E+00 -0.00000000000E+00 -0.27799909073E+04  0.27799909073E+04  0.00000000000E+00 0. -1.
         25    2    1    2    0    0  0.56513110162E+03  0.45929121971E+02 -0.13745863007E+04  0.14921780318E+04  0.12500053699E+03 0.  0.
          2    1    1    2  501    0 -0.62127556571E+03 -0.73664472883E+01 -0.12608247053E+04  0.14056018393E+04  0.00000000000E+00 0. -1.
          1    1    1    2  502    0  0.56144464096E+02 -0.38562674682E+02  0.73187554831E+02  0.99978492234E+02  0.00000000000E+00 0. -1.
         22    1    3    3    0    0  0.41144657664E+03  0.43154586280E+01 -0.11044909590E+04  0.11786463368E+04  0.00000000000E+00 0.  1.
         22    1    3    3    0    0  0.15368452498E+03  0.41613663343E+02 -0.27009534171E+03  0.31353169506E+03  0.00000000000E+00 0.  1.
</event>
<event>
 7    1  0.7459264E-005  0.6479907E+02  0.7818608E-02  0.1386071E+00
          2   -1    0    0  502    0  0.00000000000E+00  0.00000000000E+00  0.10480162945E+03  0.10480162945E+03  0.00000000000E+00 0. -1.
          1   -1    0    0  501    0 -0.00000000000E+00 -0.00000000000E+00 -0.59186286814E+03  0.59186286814E+03  0.00000000000E+00 0. -1.
         25    2    1    2    0    0  0.81958105202E+02  0.62807722767E+02 -0.53266383000E+02  0.17065656150E+03  0.12499765349E+03 0.  0.
          2    1    1    2  501    0 -0.63791205840E+02 -0.45274577723E+01 -0.45643902476E+03  0.46089738461E+03  0.00000000000E+00 0. -1.
          1    1    1    2  502    0 -0.18166899362E+02 -0.58280264995E+02  0.22644169072E+02  0.65110551474E+02  0.00000000000E+00 0. -1.
         22    1    3    3    0    0  0.80783455629E+02  0.44581109347E+02  0.20621591980E+02  0.94544656484E+02  0.00000000000E+00 0.  1.
         22    1    3    3    0    0  0.11746495731E+01  0.18226613420E+02 -0.73887974980E+02  0.76111905015E+02  0.00000000000E+00 0.  1.
</event>
<event>
 7    1  0.7459264E-005  0.2399690E+03  0.7818608E-02  0.1161059E+00
          2   -1    0    0  502    0  0.00000000000E+00  0.00000000000E+00  0.17643363562E+04  0.17643363562E+04  0.00000000000E+00 0. -1.
          1   -1    0    0  501    0 -0.00000000000E+00 -0.00000000000E+00 -0.86795112611E+03  0.86795112611E+03  0.00000000000E+00 0. -1.
         25    2    1    2    0    0  0.16010464871E+03 -0.26888185209E+03 -0.18999745156E+03  0.38685340717E+03  0.12500231245E+03 0.  0.
          2    1    1    2  501    0 -0.20062024809E+02  0.22776245304E+03 -0.55360571992E+03  0.59896369922E+03  0.00000000000E+00 0. -1.
          1    1    1    2  502    0 -0.14004262390E+03  0.41119399049E+02  0.16399884016E+04  0.16464703759E+04  0.00000000000E+00 0. -1.
         22    1    3    3    0    0  0.17491750472E+03 -0.19639452098E+03 -0.14820022288E+03  0.30187786833E+03  0.00000000000E+00 0.  1.
         22    1    3    3    0    0 -0.14812856013E+02 -0.72487331116E+02 -0.41797228684E+02  0.84975538841E+02  0.00000000000E+00 0.  1.
</event>
<event>
 7    1  0.7459264E-005  0.7803057E+03  0.7818608E-02  0.9963667E-01
          2   -1    0    0  502    0  0.00000000000E+00  0.00000000000E+00  0.34651478667E+04  0.34651478667E+04  0.00000000000E+00 0. -1.
          1   -1    0    0  501    0 -0.00000000000E+00 -0.00000000000E+00 -0.45108386927E+03  0.45108386927E+03  0.00000000000E+00 0. -1.
         25    2    1    2    0    0  0.33106744887E+03  0.84709759885E+03  0.12302808289E+04  0.15350555489E+04  0.12499849083E+03 0.  0.
          2    1    1    2  501    0  0.78760675021E+02 -0.75356443224E+03  0.26088509975E+03  0.80132617126E+03  0.00000000000E+00 0. -1.
          1    1    1    2  502    0 -0.40982812389E+03 -0.93533166610E+02  0.15228980688E+04  0.15798500158E+04  0.00000000000E+00 0. -1.
         22    1    3    3    0    0  0.40978620669E+02  0.55179689324E+02  0.14620012692E+03  0.16155037164E+03  0.00000000000E+00 0.  1.
         22    1    3    3    0    0  0.29008882820E+03  0.79191790953E+03  0.10840807020E+04  0.13735051773E+04  0.00000000000E+00 0.  1.
</event>
<event>
 7    1  0.7459264E-005  0.2764978E+03  0.7818608E-02  0.1259922E+00
          2   -1    0    0  502    0  0.00000000000E+00  0.00000000000E+00  0.69487304840E+03  0.69487304840E+03  0.00000000000E+00 0. -1.
          1   -1    0    0  501    0 -0.00000000000E+00 -0.00000000000E+00 -0.54158149720E+03  0.54158149720E+03  0.00000000000E+00 0. -1.
         25    2    1    2    0    0  0.27501996616E+03  0.10458844932E+03 -0.19857684891E+03  0.37634142120E+03  0.12500149945E+03 0.  0.
          2    1    1    2  501    0 -0.25541713428E+03 -0.65150403480E+02 -0.18462110083E+03  0.32181895287E+03  0.00000000000E+00 0. -1.
          1    1    1    2  502    0 -0.19602831887E+02 -0.39438045839E+02  0.53648950094E+03  0.53829417152E+03  0.00000000000E+00 0. -1.
         22    1    3    3    0    0 -0.26106225756E+01  0.32828828828E+02 -0.20262159754E+02  0.38666554933E+02  0.00000000000E+00 0.  1.
         22    1    3    3    0    0  0.27763058874E+03  0.71759620490E+02 -0.17831468916E+03  0.33767486626E+03  0.00000000000E+00 0.  1.
</event>
<event>
 7    1  0.7459264E-005  0.1375335E+03  0.7818608E-02  0.1382600E+00
          2   -1    0    0  502    0  0.00000000000E+00  0.00000000000E+00  0.94033650863E+03  0.94033650863E+03  0.00000000000E+00 0. -1.
          1   -1    0    0  501    0 -0.00000000000E+00 -0.00000000000E+00 -0.73236185859E+03  0.73236185859E+03  0.00000000000E+00 0. -1.
         25    2    1    2    0    0  0.11624193468E+03 -0.57698864667E+02  0.43086684640E+03  0.46703464238E+03  0.12503508108E+03 0.  0.
          2    1    1    2  501    0 -0.29483494818E+01 -0.29434963051E+02 -0.70356764111E+03  0.70418927528E+03  0.00000000000E+00 0. -1.
          1    1    1    2  502    0 -0.11329358520E+03  0.87133827718E+02  0.48067544474E+03  0.50147444956E+03  0.00000000000E+00 0. -1.
         22    1    3    3    0    0  0.84342981413E+02  0.17858478591E+02  0.13641773718E+03  0.16137677277E+03  0.00000000000E+00 0. -1.
         22    1    3    3    0    0  0.31898953265E+02 -0.75557343257E+02  0.29444910922E+03  0.30565786962E+03  0.00000000000E+00 0. -1.
</event>
<event>
 7    1  0.7459264E-005  0.6583683E+03  0.7818608E-02  0.1204637E+00
          2   -1    0    0  502    0  0.00000000000E+00  0.00000000000E+00  0.53330791857E+03  0.53330791857E+03  0.00000000000E+00 0. -1.
          1   -1    0    0  501    0 -0.00000000000E+00 -0.00000000000E+00 -0.19959061221E+04  0.19959061221E+04  0.00000000000E+00 0. -1.
         25    2    1    2    0    0 -0.66154808257E+03  0.73403657611E+02  0.11229548543E+03  0.68648771970E+03  0.12498460205E+03 0.  0.
          2    1    1    2  501    0  0.28525292822E+02  0.15927411773E+02 -0.94394132713E+03  0.94450653986E+03  0.00000000000E+00 0. -1.
          1    1    1    2  502    0  0.63302278975E+03 -0.89331069384E+02 -0.63095236185E+03  0.89821978114E+03  0.00000000000E+00 0. -1.
         22    1    3    3    0    0 -0.33963662101E+03 -0.15121773290E+02  0.22272703814E+02  0.34070188684E+03  0.00000000000E+00 0.  1.
         22    1    3    3    0    0 -0.32191146155E+03  0.88525430902E+02  0.90022781611E+02  0.34578583286E+03  0.00000000000E+00 0.  1.
</event>
<event>
 7    1  0.7459264E-005  0.1242234E+03  0.7818608E-02  0.1346033E+00
          2   -1    0    0  502    0  0.00000000000E+00  0.00000000000E+00  0.22284525297E+04  0.22284525297E+04  0.00000000000E+00 0. -1.
          1   -1    0    0  501    0 -0.00000000000E+00 -0.00000000000E+00 -0.98343973939E+02  0.98343973939E+02  0.00000000000E+00 0. -1.
         25    2    1    2    0    0 -0.14216427113E+03  0.47607394029E+02  0.14618309599E+03  0.24386104969E+03  0.12498627945E+03 0.  0.
          2    1    1    2  501    0  0.18963926253E+02 -0.40198866152E+02 -0.37251520969E+02  0.57993578553E+02  0.00000000000E+00 0. -1.
          1    1    1    2  502    0  0.12320034488E+03 -0.74085278775E+01  0.20211769808E+04  0.20249418754E+04  0.00000000000E+00 0. -1.
         22    1    3    3    0    0 -0.19631976890E+02 -0.39998319597E+02  0.34027816789E+02  0.56064002735E+02  0.00000000000E+00 0. -1.
         22    1    3    3    0    0 -0.12253229424E+03  0.87605713626E+02  0.11215527920E+03  0.18779704695E+03  0.00000000000E+00 0. -1.
</event>
<event>
 7    1  0.7459264E-005  0.3453055E+03  0.7818608E-02  0.1162026E+00
          2   -1    0    0  502    0  0.00000000000E+00  0.00000000000E+00  0.19807939458E+04  0.19807939458E+04  0.00000000000E+00 0. -1.
          1   -1    0    0  501    0 -0.00000000000E+00 -0.00000000000E+00 -0.76848214231E+03  0.76848214231E+03  0.00000000000E+00 0. -1.
         25    2    1    2    0    0  0.14456375804E+03 -0.28308318323E+03 -0.22221118714E+03  0.40747639198E+03  0.12499771823E+03 0.  0.
          2    1    1    2  501    0 -0.84044243382E+02  0.36306458126E+03 -0.37547863692E+03  0.52902129616E+03  0.00000000000E+00 0. -1.
          1    1    1    2  502    0 -0.60519514659E+02 -0.79981398026E+02  0.18100016275E+04  0.18127783999E+04  0.00000000000E+00 0. -1.
         22    1    3    3    0    0  0.10295768255E+03 -0.95976898418E+02 -0.48731568065E+02  0.14895172088E+03  0.00000000000E+00 0. -1.
         22    1    3    3    0    0  0.41606075491E+02 -0.18710628481E+03 -0.17347961907E+03  0.25852467110E+03  0.00000000000E+00 0. -1.
</event>
<event>
 7    1  0.7459264E-005  0.1249423E+03  0.7818608E-02  0.1288661E+00
          2   -1    0    0  502    0  0.00000000000E+00  0.00000000000E+00  0.26708268034E+04  0.26708268034E+04  0.00000000000E+00 0. -1.
          1   -1    0    0  501    0 -0.00000000000E+00 -0.00000000000E+00 -0.10994853691E+03  0.10994853691E+03  0.00000000000E+00 0. -1.
         25    2    1    2    0    0  0.32123524281E+02 -0.29862072572E+02 -0.10122387312E+02  0.13285263802E+03  0.12499478594E+03 0.  0.
          2    1    1    2  501    0 -0.12691490906E+03  0.11125728745E+03  0.15642971999E+03  0.23012134940E+03  0.00000000000E+00 0. -1.
          1    1    1    2  502    0  0.94791384780E+02 -0.81395214881E+02  0.24145709338E+04  0.24178013529E+04  0.00000000000E+00 0. -1.
         22    1    3    3    0    0 -0.79664661716E+01 -0.33697763728E+02  0.49799450123E+02  0.60654670851E+02  0.00000000000E+00 0.  1.
         22    1    3    3    0    0  0.40089990452E+02  0.38356911560E+01 -0.59921837435E+02  0.72197967165E+02  0.00000000000E+00 0.  1.
</event>
<event>
 7    1  0.7459264E-005  0.1201969E+03  0.7818608E-02  0.1345506E+00
          2   -1    0    0  502    0  0.00000000000E+00  0.00000000000E+00  0.18572579557E+03  0.18572579557E+03  0.00000000000E+00 0. -1.
          1   -1    0    0  501    0 -0.00000000000E+00 -0.00000000000E+00 -0.15117894379E+04  0.15117894379E+04  0.00000000000E+00 0. -1.
         25    2    1    2    0    0 -0.11856236999E+03 -0.10452296013E+03 -0.81260398961E+02  0.21728013037E+03  0.12500127136E+03 0.  0.
          2    1    1    2  501    0  0.10163042211E+03  0.61597052779E+02 -0.13552947094E+04  0.13604950161E+04  0.00000000000E+00 0. -1.
          1    1    1    2  502    0  0.16931947881E+02  0.42925907351E+02  0.11049146599E+03  0.11974008701E+03  0.00000000000E+00 0. -1.
         22    1    3    3    0    0 -0.12941989654E+03 -0.39107740201E+02 -0.55081959431E+02  0.14598954489E+03  0.00000000000E+00 0.  1.
         22    1    3    3    0    0  0.10857526551E+02 -0.65415219929E+02 -0.26178439530E+02  0.71290585475E+02  0.00000000000E+00 0.  1.
</event>
<event>
 7    1  0.7459264E-005  0.6488906E+03  0.7818608E-02  0.1169000E+00
          2   -1    0    0  502    0  0.00000000000E+00  0.00000000000E+00  0.24430159485E+04  0.24430159485E+04  0.00000000000E+00 0. -1.
          1   -1    0    0  501    0 -0.00000000000E+00 -0.00000000000E+00 -0.11136371782E+04  0.11136371782E+04  0.00000000000E+00 0. -1.
         25    2    1    2    0    0  0.12505601316E+03  0.59658100028E+03  0.44617612488E+03  0.76566701447E+03  0.12499978530E+03 0.  0.
          2    1    1    2  501    0 -0.15046847726E+03 -0.63876880144E+03 -0.84062753248E+03  0.10664525272E+04  0.00000000000E+00 0. -1.
          1    1    1    2  502    0  0.25412464100E+02  0.42187801165E+02  0.17238301779E+04  0.17245335851E+04  0.00000000000E+00 0. -1.
         22    1    3    3    0    0  0.12304908973E+03  0.28542062755E+03  0.21210605055E+03  0.37629109715E+03  0.00000000000E+00 0.  1.
         22    1    3    3    0    0  0.20069234302E+01  0.31116037272E+03  0.23407007433E+03  0.38937591732E+03  0.00000000000E+00 0.  1.
</event>
<event>
 7    1  0.7459264E-005  0.1205898E+03  0.7818608E-02  0.1308855E+00
          2   -1    0    0  502    0  0.00000000000E+00  0.00000000000E+00  0.35716474244E+03  0.35716474244E+03  0.00000000000E+00 0. -1.
          1   -1    0    0  501    0 -0.00000000000E+00 -0.00000000000E+00 -0.26217966850E+04  0.26217966850E+04  0.00000000000E+00 0. -1.
         25    2    1    2    0    0 -0.15109076173E+03  0.66702910264E+02 -0.70049767591E+03  0.73047917204E+03  0.12500052124E+03 0.  0.
          2    1    1    2  501    0  0.88117298623E+02 -0.75506775159E+02 -0.19015701601E+04  0.19051076098E+04  0.00000000000E+00 0. -1.
          1    1    1    2  502    0  0.62973463108E+02  0.88038648947E+01  0.33743589338E+03  0.34337464559E+03  0.00000000000E+00 0. -1.
         22    1    3    3    0    0 -0.53234667171E+02  0.91372227284E+02 -0.33398829970E+03  0.35032984179E+03  0.00000000000E+00 0. -1.
         22    1    3    3    0    0 -0.97856094560E+02 -0.24669317020E+02 -0.36650937620E+03  0.38014933025E+03  0.00000000000E+00 0. -1.
</event>
<event>
 7    1  0.7459264E-005  0.1671106E+03  0.7818608E-02  0.1248495E+00
          2   -1    0    0  502    0  0.00000000000E+00  0.00000000000E+00  0.55978025926E+03  0.55978025926E+03  0.00000000000E+00 0. -1.
          1   -1    0    0  501    0 -0.00000000000E+00 -0.00000000000E+00 -0.43731999208E+03  0.43731999208E+03  0.00000000000E+00 0. -1.
         25    2    1    2    0    0  0.96326083174E+02  0.18667537321E+03  0.18464038258E+03  0.30632583202E+03  0.12496813682E+03 0.  0.
          2    1    1    2  501    0 -0.12315935627E+03 -0.10959566905E+03 -0.35252832664E+03  0.38917304480E+03  0.00000000000E+00 0. -1.
          1    1    1    2  502    0  0.26833273094E+02 -0.77079704166E+02  0.29034821124E+03  0.30160137451E+03  0.00000000000E+00 0. -1.
         22    1    3    3    0    0  0.32196955080E+02 -0.93486853292E+01  0.72841456917E+01  0.34308899899E+02  0.00000000000E+00 0.  1.
         22    1    3    3    0    0  0.64129128094E+02  0.19602405854E+03  0.17735623689E+03  0.27201693212E+03  0.00000000000E+00 0.  1.
</event>
<event>
 7    1  0.7459264E-005  0.6408763E+03  0.7818608E-02  0.1103479E+00
          2   -1    0    0  502    0  0.00000000000E+00  0.00000000000E+00  0.14004820526E+04  0.14004820526E+04  0.00000000000E+00 0. -1.
          1   -1    0    0  501    0 -0.00000000000E+00 -0.00000000000E+00 -0.19533826260E+04  0.19533826260E+04  0.00000000000E+00 0. -1.
         25    2    1    2    0    0 -0.53807112671E+03  0.50486648668E+03 -0.53407297493E+03  0.91938524185E+03  0.12499829439E+03 0.  0.
          2    1    1    2  501    0  0.63733879934E+02 -0.90345948490E+02 -0.11416650498E+04  0.11470063137E+04  0.00000000000E+00 0. -1.
          1    1    1    2  502    0  0.47433724677E+03 -0.41452053819E+03  0.11228374513E+04  0.12874731230E+04  0.00000000000E+00 0. -1.
         22    1    3    3    0    0 -0.43303940335E+03  0.39608220912E+03 -0.35860854570E+03  0.68775310271E+03  0.00000000000E+00 0.  1.
         22    1    3    3    0    0 -0.10503172336E+03  0.10878427756E+03 -0.17546442923E+03  0.23163213913E+03  0.00000000000E+00 0.  1.
</event>
<event>
 7    1  0.7459264E-005  0.1962362E+03  0.7818608E-02  0.1322528E+00
          2   -1    0    0  502    0  0.00000000000E+00  0.00000000000E+00  0.81268597239E+03  0.81268597239E+03  0.00000000000E+00 0. -1.
          1   -1    0    0  501    0 -0.00000000000E+00 -0.00000000000E+00 -0.16671334596E+04  0.16671334596E+04  0.00000000000E+00 0. -1.
         25    2    1    2    0    0 -0.22923693275E+03  0.38393485524E+01  0.10763943073E+03  0.28244447116E+03  0.12499728120E+03 0.  0.
          2    1    1    2  501    0  0.19520535456E+03  0.21411099588E+01 -0.15732100103E+04  0.15852758282E+04  0.00000000000E+00 0. -1.
          1    1    1    2  502    0  0.34031578186E+02 -0.59804585112E+01  0.61112309237E+03  0.61209913268E+03  0.00000000000E+00 0. -1.
         22    1    3    3    0    0 -0.17840750917E+02  0.13119163826E+02  0.62194849181E+02  0.66019725214E+02  0.00000000000E+00 0.  1.
         22    1    3    3    0    0 -0.21139618183E+03 -0.92798152737E+01  0.45444581546E+02  0.21642474594E+03  0.00000000000E+00 0.  1.
</event>
<event>
 7    1  0.7459264E-005  0.2954495E+03  0.7818608E-02  0.1181979E+00
          2   -1    0    0  502    0  0.00000000000E+00  0.00000000000E+00  0.18547123709E+04  0.18547123709E+04  0.00000000000E+00 0. -1.
          1   -1    0    0  501    0 -0.00000000000E+00 -0.00000000000E+00 -0.13273380902E+03  0.13273380902E+03  0.00000000000E+00 0. -1.
         25    2    1    2    0    0 -0.25206223501E+03  0.17429051753E+03  0.20162154217E+03  0.38753305510E+03  0.12497226775E+03 0.  0.
          2    1    1    2  501    0  0.17372088653E+03 -0.22510496842E+03  0.49924565908E+03  0.57454105279E+03  0.00000000000E+00 0. -1.
          1    1    1    2  502    0  0.78341348476E+02  0.50814450889E+02  0.10211113606E+04  0.10253720720E+04  0.00000000000E+00 0. -1.
         22    1    3    3    0    0 -0.57820737653E+02  0.10700726959E+03  0.47362073522E+02  0.13052570420E+03  0.00000000000E+00 0. -1.
         22    1    3    3    0    0 -0.19424149735E+03  0.67283247941E+02  0.15425946865E+03  0.25700735090E+03  0.00000000000E+00 0. -1.
</event>
<event>
 7    1  0.7459264E-005  0.4959694E+03  0.7818608E-02  0.1230070E+00
          2   -1    0    0  502    0  0.00000000000E+00  0.00000000000E+00  0.18716744266E+04  0.18716744266E+04  0.00000000000E+00 0. -1.
          1   -1    0    0  501    0 -0.00000000000E+00 -0.00000000000E+00 -0.69027288069E+03  0.69027288069E+03  0.00000000000E+00 0. -1.
         25    2    1    2    0    0  0.49204546739E+03  0.89715696804E+02 -0.49602892614E+03  0.71542107460E+03  0.12499988070E+03 0.  0.
          2    1    1    2  501    0 -0.46040266552E+03 -0.99648912993E+02  0.57377873105E+03  0.74237628766E+03  0.00000000000E+00 0. -1.
          1    1    1    2  502    0 -0.31642801872E+02  0.99332161895E+01  0.11036517410E+04  0.11041499451E+04  0.00000000000E+00 0. -1.
         22    1    3    3    0    0  0.45787917266E+03  0.46374132054E+02 -0.44779591880E+03  0.64212544084E+03  0.00000000000E+00 0.  1.
         22    1    3    3    0    0  0.34166294733E+02  0.43341564750E+02 -0.48233007349E+02  0.73295633763E+02  0.00000000000E+00 0.  1.
</event>
<event>
 7    1  0.7459264E-005  0.1156403E+04  0.7818608E-02  0.1010499E+00
          2   -1    0    0  502    0  0.00000000000E+00  0.00000000000E+00  0.98751793689E+03  0.98751793689E+03  0.00000000000E+00 0. -1.
          1   -1    0    0  501    0 -0.00000000000E+00 -0.00000000000E+00 -0.33009114677E+04  0.33009114677E+04  0.00000000000E+00 0. -1.
         25    2    1    2    0    0  0.60818695668E+03  0.10409133430E+04 -0.11868776724E+04  0.16963772708E+04  0.12500109506E+03 0.  0.
          2    1    1    2  501    0 -0.22405403840E+03  0.38688442139E+02 -0.13964039161E+04  0.14147935908E+04  0.00000000000E+00 0. -1.
          1    1    1    2  502    0 -0.38413291828E+03 -0.10796017851E+04  0.26988805770E+03  0.11772585430E+04  0.00000000000E+00 0. -1.
         22    1    3    3    0    0  0.17381749013E+03  0.40045772098E+03 -0.47056297261E+03  0.64187881828E+03  0.00000000000E+00 0.  1.
         22    1    3    3    0    0  0.43436946655E+03  0.64045562199E+03 -0.71631469978E+03  0.10544984525E+04  0.00000000000E+00 0.  1.
</event>
<event>
 7    1  0.7459264E-005  0.7803345E+03  0.7818608E-02  0.1125919E+00
          2   -1    0    0  502    0  0.00000000000E+00  0.00000000000E+00  0.15636096265E+04  0.15636096265E+04  0.00000000000E+00 0. -1.
          1   -1    0    0  501    0 -0.00000000000E+00 -0.00000000000E+00 -0.33248817456E+04  0.33248817456E+04  0.00000000000E+00 0. -1.
         25    2    1    2    0    0  0.45560515188E+03 -0.63515110843E+03  0.22986081264E+03  0.82429018591E+03  0.12500132978E+03 0.  0.
          2    1    1    2  501    0  0.53162791446E+02  0.43035413525E+02 -0.28802121842E+04  0.28810242199E+04  0.00000000000E+00 0. -1.
          1    1    1    2  502    0 -0.50876794332E+03  0.59211569490E+03  0.88907925254E+03  0.11831769663E+04  0.00000000000E+00 0. -1.
         22    1    3    3    0    0  0.48006295987E+02 -0.11537046261E+03  0.17824155687E+00  0.12495991305E+03  0.00000000000E+00 0. -1.
         22    1    3    3    0    0  0.40759885589E+03 -0.51978064581E+03  0.22968257109E+03  0.69933027286E+03  0.00000000000E+00 0. -1.
</event>
<event>
 7    1  0.7459264E-005  0.3986773E+03  0.7818608E-02  0.1167834E+00
          2   -1    0    0  502    0  0.00000000000E+00  0.00000000000E+00  0.98376038181E+03  0.98376038181E+03  0.00000000000E+00 0. -1.
          1   -1    0    0  501    0 -0.00000000000E+00 -0.00000000000E+00 -0.13147528926E+04  0.13147528926E+04  0.00000000000E+00 0. -1.
         25    2    1    2    0    0  0.21990353220E+03  0.27456853830E+03 -0.13923956797E+03  0.39844221149E+03  0.12499237140E+03 0.  0.
          2    1    1    2  501    0 -0.17267198024E+02  0.79384071724E+02 -0.99547629340E+03  0.99878578168E+03  0.00000000000E+00 0. -1.
          1    1    1    2  502    0 -0.20263633418E+03 -0.35395261003E+03  0.80372335053E+03  0.90128528129E+03  0.00000000000E+00 0. -1.
         22    1    3    3    0    0  0.54382943751E+01  0.56621320859E+02 -0.59773455064E+02  0.82513119877E+02  0.00000000000E+00 0.  1.
         22    1    3    3    0    0  0.21446523783E+03  0.21794721744E+03 -0.79466112904E+02  0.31592909161E+03  0.00000000000E+00 0.  1.
</event>
<event>
 7    1  0.7459264E-005  0.1880530E+03  0.7818608E-02  0.1341657E+00
          2   -1    0    0  502    0  0.00000000000E+00  0.00000000000E+00  0.23494108888E+04  0.23494108888E+04  0.00000000000E+00 0. -1.
          1   -1    0    0  501    0 -0.00000000000E+00 -0.00000000000E+00 -0.23993689566E+04  0.23993689566E+04  0.00000000000E+00 0. -1.
         25    2    1    2    0    0 -0.27812234915E+02  0.20695033274E+03 -0.47454100242E+02  0.24794711361E+03  0.12499567547E+03 0.  0.
          2    1    1    2  501    0  0.45536764604E+01 -0.18723751116E+03 -0.22476699323E+04  0.22554597638E+04  0.00000000000E+00 0. -1.
          1    1    1    2  502    0  0.23258558455E+02 -0.19712821573E+02  0.22451659647E+04  0.22453729679E+04  0.00000000000E+00 0. -1.
         22    1    3    3    0    0 -0.58659747392E+02  0.19430878646E+03 -0.61036792717E+02  0.21194895736E+03  0.00000000000E+00 0. -1.
         22    1    3    3    0    0  0.30847512476E+02  0.12641546271E+02  0.13582692475E+02  0.35998156244E+02  0.00000000000E+00 0. -1.
</event>
<event>
 7    1  0.7459264E-005  0.3627022E+03  0.7818608E-02  0.1058600E+00
          2   -1    0    0  502    0  0.00000000000E+00  0.00000000000E+00  0.27244663209E+04  0.27244663209E+04  0.00000000000E+00 0. -1.
          1   -1    0    0  501    0 -0.00000000000E+00 -0.00000000000E+00 -0.16089611942E+04  0.16089611942E+04  0.00000000000E+00 0. -1.
         25    2    1    2    0    0  0.47600847799E+03 -0.47512951108E+03 -0.70072566841E+03  0.97927226882E+03  0.12500236276E+03 0.  0.
          2    1    1    2  501    0 -0.15085964835E+03  0.32381838311E+03 -0.71413443668E+03  0.79850170469E+03  0.00000000000E+00 0. -1.
          1    1    1    2  502    0 -0.32514882963E+03  0.15131112796E+03  0.25303652317E+04  0.25556535416E+04  0.00000000000E+00 0. -1.
         22    1    3    3    0    0  0.53472228816E+02 -0.99152312464E+01 -0.72835844007E+02  0.90899126714E+02  0.00000000000E+00 0. -1.
         22    1    3    3    0    0  0.42253624917E+03 -0.46521427983E+03 -0.62788982440E+03  0.88837314210E+03  0.00000000000E+00 0. -1.
</event>
<event>
 7    1  0.7459264E-005  0.9688612E+03  0.7818608E-02  0.1065407E+00
          2   -1    0    0  502    0  0.00000000000E+00  0.00000000000E+00  0.26859727425E+04  0.26859727425E+04  0.00000000000E+00 0. -1.
          1   -1    0    0  501    0 -0.00000000000E+00 -0.00000000000E+00 -0.11539097931E+04  0.11539097931E+04  0.00000000000E+00 0. -1.
         25    2    1    2    0    0 -0.45198116848E+03  0.87635374676E+03  0.21993661223E+01  0.99393793824E+03  0.12499968694E+03 0.  0.
          2    1    1    2  501    0  0.11774669007E+03  0.30483509583E+02 -0.54426896101E+03  0.55769366976E+03  0.00000000000E+00 0. -1.
          1    1    1    2  502    0  0.33423447841E+03 -0.90683725634E+03  0.20741325443E+04  0.22882509276E+04  0.00000000000E+00 0. -1.
         22    1    3    3    0    0 -0.22014457791E+03  0.30655661402E+03 -0.24456813274E+02  0.37820461194E+03  0.00000000000E+00 0. -1.
         22    1    3    3    0    0 -0.23183659058E+03  0.56979713274E+03  0.26656179396E+02  0.61573332629E+03  0.00000000000E+00 0. -1.
</event>
<event>
 7    1  0.7459264E-005  0.6182035E+03  0.7818608E-02  0.1203175E+00
          2   -1    0    0  502    0  0.00000000000E+00  0.00000000000E+00  0.10796760222E+04  0.10796760222E+04  0.00000000000E+00 0. -1.
          1   -1    0    0  501    0 -0.00000000000E+00 -0.00000000000E+00 -0.71346142916E+03  0.71346142916E+03  0.00000000000E+00 0. -1.
         25    2    1    2    0    0  0.39268391306E+03  0.44873484985E+03  0.14027619409E+03  0.62519433681E+03  0.12500770818E+03 0.  0.
          2    1    1    2  501    0  0.27487766987E+02  0.22221474354E+02 -0.32696406595E+03  0.32886907985E+03  0.00000000000E+00 0. -1.
          1    1    1    2  502    0 -0.42017168005E+03 -0.47095632420E+03  0.55290246492E+03  0.83907403472E+03  0.00000000000E+00 0. -1.
         22    1    3    3    0    0  0.11692694725E+03  0.10985356436E+03 -0.15892361116E+02  0.16122122608E+03  0.00000000000E+00 0. -1.
         22    1    3    3    0    0  0.27575696581E+03  0.33888128549E+03  0.15616855520E+03  0.46397311073E+03  0.00000000000E+00 0. -1.
</event>
<event>
 7    1  0.7459264E-005  0.1812398E+03  0.7818608E-02  0.1239893E+00
          2   -1    0    0  502    0  0.00000000000E+00  0.00000000000E+00  0.49514514478E+02  0.49514514478E+02  0.00000000000E+00 0. -1.
          1   -1    0    0  501    0 -0.00000000000E+00 -0.00000000000E+00 -0.16142491385E+04  0.16142491385E+04  0.00000000000E+00 0. -1.
         25    2    1    2    0    0  0.16068348440E+02  0.20223788168E+03 -0.33906953176E+03  0.41442880671E+03  0.12499894341E+03 0.  0.
          2    1    1    2  501    0 -0.19433635516E+02 -0.79740252164E+02 -0.19724279485E+03  0.21363729572E+03  0.00000000000E+00 0. -1.
          1    1    1    2  502    0  0.33652870754E+01 -0.12249762951E+03 -0.10284222975E+04  0.10356975506E+04  0.00000000000E+00 0. -1.
         22    1    3    3    0    0 -0.49676090501E+02  0.42384116855E+02 -0.86590072247E+02  0.10845260689E+03  0.00000000000E+00 0.  1.
         22    1    3    3    0    0  0.65744438941E+02  0.15985376482E+03 -0.25247945952E+03  0.30597619982E+03  0.00000000000E+00 0.  1.
</event>
<event>
 7    1  0.7459264E-005  0.8302277E+02  0.7818608E-02  0.1390827E+00
          2   -1    0    0  502    0  0.00000000000E+00  0.00000000000E+00  0.21514244107E+03  0.21514244107E+03  0.00000000000E+00 0. -1.
          1   -1    0    0  501    0 -0.00000000000E+00 -0.00000000000E+00 -0.22152995151E+03  0.22152995151E+03  0.00000000000E+00 0. -1.
         25    2    1    2    0    0 -0.90866802594E+02 -0.12735233865E+02  0.10184056054E+03  0.18550494779E+03  0.12498649482E+03 0.  0.
          2    1    1    2  501    0  0.14551574070E+02  0.43485620626E+02 -0.15144168595E+03  0.15823189234E+03  0.00000000000E+00 0. -1.
          1    1    1    2  502    0  0.76315228524E+02 -0.30750386762E+02  0.43213614974E+02  0.92935552453E+02  0.00000000000E+00 0. -1.
         22    1    3    3    0    0  0.20042356215E+02  0.22669306779E+02 -0.84062655463E+00  0.30270450368E+02  0.00000000000E+00 0.  1.
         22    1    3    3    0    0 -0.11090915881E+03 -0.35404540644E+02  0.10268118709E+03  0.15523449742E+03  0.00000000000E+00 0.  1.
</event>
<event>
 7    1  0.7459264E-005  0.6747360E+03  0.7818608E-02  0.1022021E+00
          2   -1    0    0  502    0  0.00000000000E+00  0.00000000000E+00  0.15097671094E+04  0.15097671094E+04  0.00000000000E+00 0. -1.
          1   -1    0    0  501    0 -0.00000000000E+00 -0.00000000000E+00 -0.16335166849E+04  0.16335166849E+04  0.00000000000E+00 0. -1.
         25    2    1    2    0    0  0.83589656154E+03 -0.31938390490E+03  0.38501749544E+03  0.98213687305E+03  0.12500090117E+03 0.  0.
          2    1    1    2  501    0 -0.24891175624E+03  0.21189955203E+03 -0.12024582557E+04  0.12460996506E+04  0.00000000000E+00 0. -1.
          1    1    1    2  502    0 -0.58698480530E+03  0.10748435287E+03  0.69369118473E+03  0.91504727066E+03  0.00000000000E+00 0. -1.
         22    1    3    3    0    0  0.73436621174E+03 -0.29809056948E+03  0.29799346391E+03  0.84673007806E+03  0.00000000000E+00 0.  1.
         22    1    3    3    0    0  0.10153034980E+03 -0.21293335424E+02  0.87024031536E+02  0.13540679499E+03  0.00000000000E+00 0.  1.
</event>
<event>
 7    1  0.7862304E-005  0.1063688E+03  0.7818608E-02  0.1331115E+00
          2   -1    0    0  502    0  0.00000000000E+00  0.00000000000E+00  0.21690595116E+04  0.21690595116E+04  0.00000000000E+00 0. -1.
          1   -1    0    0  501    0 -0.00000000000E+00 -0.00000000000E+00 -0.66474201484E+03  0.66474201484E+03  0.00000000000E+00 0. -1.
         25    2    1    2    0    0  0.13980328845E+03 -0.66137308834E+02 -0.67015819078E+02  0.20984607977E+03  0.12500061643E+03 0.  0.
          2    1    1    2  501    0 -0.10090924050E+03  0.21657914915E+02 -0.52083034239E+03  0.53095761192E+03  0.00000000000E+00 0. -1.
          1    1    1    2  502    0 -0.38894047949E+02  0.44479393920E+02  0.20921636583E+04  0.20929978348E+04  0.00000000000E+00 0. -1.
         22    1    3    3    0    0  0.38913552800E+02  0.49351140669E+01  0.32792560223E+02  0.51127017792E+02  0.00000000000E+00 0.  1.
         22    1    3    3    0    0  0.10088973565E+03 -0.71072422901E+02 -0.99808379301E+02  0.15871906198E+03  0.00000000000E+00 0.  1.
</event>
<event>
 7    1  0.7459264E-005  0.1305519E+04  0.7818608E-02  0.1144062E+00
          2   -1    0    0  502    0  0.00000000000E+00  0.00000000000E+00  0.31087925848E+04  0.31087925848E+04  0.00000000000E+00 0. -1.
          1   -1    0    0  501    0 -0.00000000000E+00 -0.00000000000E+00 -0.10127227975E+04  0.10127227975E+04  0.00000000000E+00 0. -1.
         25    2    1    2    0    0 -0.86263953780E+03  0.95572761095E+03  0.84431709608E+03  0.15446873234E+04  0.12500131976E+03 0.  0.
          2    1    1    2  501    0  0.86846885570E+03 -0.98798798829E+03 -0.91863209212E+01  0.13154629629E+04  0.00000000000E+00 0. -1.
          1    1    1    2  502    0 -0.58293178976E+01  0.32260377343E+02  0.12609390121E+04  0.12613650959E+04  0.00000000000E+00 0. -1.
         22    1    3    3    0    0 -0.46505022117E+03  0.50387613111E+03  0.37546319286E+03  0.78175154167E+03  0.00000000000E+00 0.  1.
         22    1    3    3    0    0 -0.39758931663E+03  0.45185147984E+03  0.46885390322E+03  0.76293578176E+03  0.00000000000E+00 0.  1.
</event>
<event>
 7    1  0.1065610E-004  0.1755019E+03  0.7818608E-02  0.1273055E+00
          2   -1    0    0  502    0  0.00000000000E+00  0.00000000000E+00  0.21192478943E+04  0.21192478943E+04  0.00000000000E+00 0. -1.
          1   -1    0    0  501    0 -0.00000000000E+00 -0.00000000000E+00 -0.61695127989E+03  0.61695127989E+03  0.00000000000E+00 0. -1.
         25    2    1    2    0    0  0.20059788277E+03 -0.40053333979E+02 -0.22491163618E+03  0.32871494676E+03  0.12499796799E+03 0.  0.
          2    1    1    2  501    0 -0.16563776564E+03 -0.10015367967E+02 -0.31941646376E+03  0.35994868290E+03  0.00000000000E+00 0. -1.
          1    1    1    2  502    0 -0.34960117131E+02  0.50068701946E+02  0.20466247144E+04  0.20475355446E+04  0.00000000000E+00 0. -1.
         22    1    3    3    0    0 -0.62465295181E+01  0.11685183991E+02  0.58900687838E+01  0.14500191936E+02  0.00000000000E+00 0.  1.
         22    1    3    3    0    0  0.20684441229E+03 -0.51738517970E+02 -0.23080170496E+03  0.31421475483E+03  0.00000000000E+00 0.  1.
</event>
<event>
 7    1  0.7459264E-005  0.6105539E+02  0.7818608E-02  0.1454979E+00
          2   -1    0    0  502    0  0.00000000000E+00  0.00000000000E+00  0.13981284291E+04  0.13981284291E+04  0.00000000000E+00 0. -1.
          1   -1    0    0  501    0 -0.00000000000E+00 -0.00000000000E+00 -0.25754413190E+03  0.25754413190E+03  0.00000000000E+00 0. -1.
         25    2    1    2    0    0  0.45316168160E+02  0.33704425514E+02  0.12803652154E+03  0.18764017138E+03  0.12500375862E+03 0.  0.
          2    1    1    2  501    0 -0.28451985922E+02  0.25400730263E+02 -0.22537759420E+03  0.22858209153E+03  0.00000000000E+00 0. -1.
          1    1    1    2  502    0 -0.16864182238E+02 -0.59105155777E+02  0.12379253698E+04  0.12394502981E+04  0.00000000000E+00 0. -1.
         22    1    3    3    0    0  0.86390849207E+02  0.37876369501E+02  0.10148165147E+03  0.13855152030E+03  0.00000000000E+00 0. -1.
         22    1    3    3    0    0 -0.41074681047E+02 -0.41719439872E+01  0.26554870069E+02  0.49088651072E+02  0.00000000000E+00 0. -1.
</event>
<event>
 7    1  0.7459264E-005  0.4131985E+02  0.7818608E-02  0.1540671E+00
          2   -1    0    0  502    0  0.00000000000E+00  0.00000000000E+00  0.16908261364E+04  0.16908261364E+04  0.00000000000E+00 0. -1.
          1   -1    0    0  501    0 -0.00000000000E+00 -0.00000000000E+00 -0.45439204905E+03  0.45439204905E+03  0.00000000000E+00 0. -1.
         25    2    1    2    0    0  0.59952614770E+02  0.99030600037E+01 -0.36181809217E+03  0.38759527179E+03  0.12500150509E+03 0.  0.
          2    1    1    2  501    0 -0.35065284368E+02  0.89254469197E+01 -0.75424873597E+02  0.83654942039E+02  0.00000000000E+00 0. -1.
          1    1    1    2  502    0 -0.24887330403E+02 -0.18828506923E+02  0.16736770531E+04  0.16739679716E+04  0.00000000000E+00 0. -1.
         22    1    3    3    0    0  0.60409761535E+02 -0.15066880940E+02 -0.66027717310E+02  0.90752463565E+02  0.00000000000E+00 0. -1.
         22    1    3    3    0    0 -0.45714676441E+00  0.24969940944E+02 -0.29579037486E+03  0.29684280822E+03  0.00000000000E+00 0. -1.
</event>
<event>
 7    1  0.7459264E-005  0.1626061E+03  0.7818608E-02  0.1260212E+00
          2   -1    0    0  502    0  0.00000000000E+00  0.00000000000E+00  0.38807510235E+03  0.38807510235E+03  0.00000000000E+00 0. -1.
          1   -1    0    0  501    0 -0.00000000000E+00 -0.00000000000E+00 -0.15250092173E+04  0.15250092173E+04  0.00000000000E+00 0. -1.
         25    2    1    2    0    0 -0.32928106687E+02 -0.16343441495E+03 -0.33886889766E+02  0.21111145036E+03  0.12499861989E+03 0.  0.
          2    1    1    2  501    0  0.74551592009E+02  0.42855262725E+01 -0.13788320686E+04  0.13808526999E+04  0.00000000000E+00 0. -1.
          1    1    1    2  502    0 -0.41623485321E+02  0.15914888868E+03  0.27578484341E+03  0.32112016933E+03  0.00000000000E+00 0. -1.
         22    1    3    3    0    0  0.41258877403E+02 -0.18178258306E+02 -0.37045219108E+01  0.45237899180E+02  0.00000000000E+00 0. -1.
         22    1    3    3    0    0 -0.74186984090E+02 -0.14525615664E+03 -0.30182367855E+02  0.16587355118E+03  0.00000000000E+00 0. -1.
</event>
<event>
 7    1  0.7459264E-005  0.7962959E+02  0.7818608E-02  0.1355032E+00
          2   -1    0    0  502    0  0.00000000000E+00  0.00000000000E+00  0.10986472994E+04  0.10986472994E+04  0.00000000000E+00 0. -1.
          1   -1    0    0  501    0 -0.00000000000E+00 -0.00000000000E+00 -0.53880708597E+03  0.53880708597E+03  0.00000000000E+00 0. -1.
         25    2    1    2    0    0 -0.67253397547E+02  0.37842217363E+02  0.25903565374E+02  0.14917232835E+03  0.12500534368E+03 0.  0.
          2    1    1    2  501    0  0.17725181362E+02 -0.78719458238E+02 -0.47273104034E+03  0.47956810952E+03  0.00000000000E+00 0. -1.
          1    1    1    2  502    0  0.49528216185E+02  0.40877240875E+02  0.10066676884E+04  0.10087139475E+04  0.00000000000E+00 0. -1.
         22    1    3    3    0    0 -0.45165782321E+02 -0.25196319937E+02 -0.31961590508E+02  0.60797579712E+02  0.00000000000E+00 0.  1.
         22    1    3    3    0    0 -0.22087615225E+02  0.63038537300E+02  0.57865155882E+02  0.88374748636E+02  0.00000000000E+00 0.  1.
</event>
<event>
 7    1  0.1485965E-004  0.2160306E+03  0.7818608E-02  0.1175282E+00
          2   -1    0    0  502    0  0.00000000000E+00  0.00000000000E+00  0.25010284399E+04  0.25010284399E+04  0.00000000000E+00 0. -1.
          1   -1    0    0  501    0 -0.00000000000E+00 -0.00000000000E+00 -0.13691443656E+04  0.13691443656E+04  0.00000000000E+00 0. -1.
         25    2    1    2    0    0  0.25611959469E+03  0.13454306959E+03 -0.24284887780E+03  0.39786776399E+03  0.12499638321E+03 0.  0.
          2    1    1    2  501    0 -0.13143959797E+03  0.41097340065E+02 -0.10394496308E+04  0.10485327340E+04  0.00000000000E+00 0. -1.
          1    1    1    2  502    0 -0.12467999672E+03 -0.17564040965E+03  0.24141825829E+04  0.24237723076E+04  0.00000000000E+00 0. -1.
         22    1    3    3    0    0  0.16574619807E+03  0.12782265644E+03 -0.10835915357E+03  0.23569501445E+03  0.00000000000E+00 0. -1.
         22    1    3    3    0    0  0.90373396614E+02  0.67204131458E+01 -0.13448972423E+03  0.16217274954E+03  0.00000000000E+00 0. -1.
</event>
<event>
 7    1  0.7459264E-005  0.1348778E+03  0.7818608E-02  0.1351006E+00
          2   -1    0    0  502    0  0.00000000000E+00  0.00000000000E+00  0.17010605124E+04  0.17010605124E+04  0.00000000000E+00 0. -1.
          1   -1    0    0  501    0 -0.00000000000E+00 -0.00000000000E+00 -0.29157016850E+03  0.29157016850E+03  0.00000000000E+00 0. -1.
         25    2    1    2    0    0  0.84694114719E+02 -0.72096686101E+02  0.63435308079E+03  0.65604928516E+03  0.12500323289E+03 0.  0.
          2    1    1    2  501    0  0.12633354628E+02 -0.37142348226E+02 -0.27425107173E+03  0.27704296783E+03  0.00000000000E+00 0. -1.
          1    1    1    2  502    0 -0.97327469347E+02  0.10923903433E+03  0.10493883348E+04  0.10595384279E+04  0.00000000000E+00 0. -1.
         22    1    3    3    0    0  0.44227858926E+02  0.17635774403E+02  0.80584711135E+02  0.93600318977E+02  0.00000000000E+00 0.  1.
         22    1    3    3    0    0  0.40466255794E+02 -0.89732460504E+02  0.55376836965E+03  0.56244896618E+03  0.00000000000E+00 0.  1.
</event>
<event>
 7    1  0.7459264E-005  0.1694384E+03  0.7818608E-02  0.1371074E+00
          2   -1    0    0  502    0  0.00000000000E+00  0.00000000000E+00  0.13805303749E+03  0.13805303749E+03  0.00000000000E+00 0. -1.
          1   -1    0    0  501    0 -0.00000000000E+00 -0.00000000000E+00 -0.53946243999E+03  0.53946243999E+03  0.00000000000E+00 0. -1.
         25    2    1    2    0    0  0.16434353319E+03  0.96875234144E+02 -0.38153869112E+03  0.44451110933E+03  0.12499898240E+03 0.  0.
          2    1    1    2  501    0 -0.25857730828E+02 -0.52747345578E+01 -0.57045995851E+02  0.62854520210E+02  0.00000000000E+00 0. -1.
          1    1    1    2  502    0 -0.13848580236E+03 -0.91600499586E+02  0.37175284467E+02  0.17014984795E+03  0.00000000000E+00 0. -1.
         22    1    3    3    0    0  0.47564980001E+01  0.63118241930E+02 -0.83817672186E+02  0.10503303722E+03  0.00000000000E+00 0. -1.
         22    1    3    3    0    0  0.15958703519E+03  0.33756992214E+02 -0.29772101893E+03  0.33947807210E+03  0.00000000000E+00 0. -1.
</event>
<event>
 7    1  0.7459264E-005  0.8907897E+03  0.7818608E-02  0.1118248E+00
          2   -1    0    0  502    0  0.00000000000E+00  0.00000000000E+00  0.31424645324E+04  0.31424645324E+04  0.00000000000E+00 0. -1.
          1   -1    0    0  501    0 -0.00000000000E+00 -0.00000000000E+00 -0.11006633251E+04  0.11006633251E+04  0.00000000000E+00 0. -1.
         25    2    1    2    0    0  0.21506632705E+03  0.84819874315E+03  0.24502386889E+04  0.26048011635E+04  0.12499934443E+03 0.  0.
          2    1    1    2  501    0 -0.15643743053E+03 -0.87834488843E+03 -0.82585828673E+03  0.12157320110E+04  0.00000000000E+00 0. -1.
          1    1    1    2  502    0 -0.58628896523E+02  0.30146145283E+02  0.41742080512E+03  0.42259468304E+03  0.00000000000E+00 0. -1.
         22    1    3    3    0    0  0.16729304473E+03  0.72106279360E+03  0.21820526052E+04  0.23041857753E+04  0.00000000000E+00 0.  1.
         22    1    3    3    0    0  0.47773282320E+02  0.12713594955E+03  0.26818608366E+03  0.30061538822E+03  0.00000000000E+00 0.  1.
</event>
<event>
 7    1  0.7459264E-005  0.1593401E+03  0.7818608E-02  0.1384228E+00
          2   -1    0    0  502    0  0.00000000000E+00  0.00000000000E+00  0.91450171492E+03  0.91450171492E+03  0.00000000000E+00 0. -1.
          1   -1    0    0  501    0 -0.00000000000E+00 -0.00000000000E+00 -0.88175046105E+02  0.88175046105E+02  0.00000000000E+00 0. -1.
         25    2    1    2    0    0 -0.20134900229E+02 -0.16172997994E+03  0.53408039026E+03  0.57221442141E+03  0.12500192075E+03 0.  0.
          2    1    1    2  501    0  0.24728085150E+02  0.48477299515E+01 -0.48862906176E+02  0.54977834451E+02  0.00000000000E+00 0. -1.
          1    1    1    2  502    0 -0.45931849208E+01  0.15688224999E+03  0.34110918474E+03  0.37548450517E+03  0.00000000000E+00 0. -1.
         22    1    3    3    0    0 -0.53926670743E+02 -0.16025024733E+03  0.47419067593E+03  0.50343323760E+03  0.00000000000E+00 0. -1.
         22    1    3    3    0    0  0.33791770514E+02 -0.14797326126E+01  0.59889714328E+02  0.68781183803E+02  0.00000000000E+00 0. -1.
</event>
<event>
 7    1  0.7459264E-005  0.1488187E+04  0.7818608E-02  0.1050169E+00
          2   -1    0    0  502    0  0.00000000000E+00  0.00000000000E+00  0.45350565584E+04  0.45350565584E+04  0.00000000000E+00 0. -1.
          1   -1    0    0  501    0 -0.00000000000E+00 -0.00000000000E+00 -0.11766140774E+04  0.11766140774E+04  0.00000000000E+00 0. -1.
         25    2    1    2    0    0  0.96393392966E+02 -0.14471781430E+04  0.15137759659E+04  0.21001804622E+04  0.12499614042E+03 0.  0.
          2    1    1    2  501    0  0.78498003304E+02 -0.58826205417E+02 -0.66891199243E+03  0.67606635220E+03  0.00000000000E+00 0. -1.
          1    1    1    2  502    0 -0.17489139627E+03  0.15060043484E+04  0.25135785075E+04  0.29354238214E+04  0.00000000000E+00 0. -1.
         22    1    3    3    0    0  0.84573390586E+02 -0.12600132233E+04  0.13746761597E+04  0.18666870453E+04  0.00000000000E+00 0. -1.
         22    1    3    3    0    0  0.11820002380E+02 -0.18716491975E+03  0.13909980622E+03  0.23349341689E+03  0.00000000000E+00 0. -1.
</event>
<event>
 7    1  0.7459264E-005  0.2535691E+03  0.7818608E-02  0.1124561E+00
          2   -1    0    0  502    0  0.00000000000E+00  0.00000000000E+00  0.46222617886E+04  0.46222617886E+04  0.00000000000E+00 0. -1.
          1   -1    0    0  501    0 -0.00000000000E+00 -0.00000000000E+00 -0.11148252813E+04  0.11148252813E+04  0.00000000000E+00 0. -1.
         25    2    1    2    0    0 -0.30995607710E+03 -0.18720997630E+03  0.14697627177E+03  0.41030141550E+03  0.12499952858E+03 0.  0.
          2    1    1    2  501    0  0.25021479552E+03 -0.18343219106E+02 -0.96446698709E+03  0.99656434152E+03  0.00000000000E+00 0. -1.
          1    1    1    2  502    0  0.59741281577E+02  0.20555319540E+03  0.43249272227E+04  0.43302213128E+04  0.00000000000E+00 0. -1.
         22    1    3    3    0    0 -0.68196832574E+02 -0.65045095563E+02 -0.13892158635E+02  0.95261033489E+02  0.00000000000E+00 0. -1.
         22    1    3    3    0    0 -0.24175924452E+03 -0.12216488073E+03  0.16086843041E+03  0.31504038201E+03  0.00000000000E+00 0. -1.
</event>
<event>
 7    1  0.7459264E-005  0.3753677E+03  0.7818608E-02  0.1125886E+00
          2   -1    0    0  502    0  0.00000000000E+00  0.00000000000E+00  0.23013879902E+04  0.23013879902E+04  0.00000000000E+00 0. -1.
          1   -1    0    0  501    0 -0.00000000000E+00 -0.00000000000E+00 -0.96327786093E+03  0.96327786093E+03  0.00000000000E+00 0. -1.
         25    2    1    2    0    0  0.63798818872E+02 -0.47582318289E+03  0.84367191302E+03  0.97871379412E+03  0.12498161192E+03 0.  0.
          2    1    1    2  501    0  0.13028687339E+02  0.14164996013E+03 -0.86874069245E+03  0.88030951865E+03  0.00000000000E+00 0. -1.
          1    1    1    2  502    0 -0.76827506211E+02  0.33417322276E+03  0.13631789087E+04  0.14056425383E+04  0.00000000000E+00 0. -1.
         22    1    3    3    0    0  0.50479727634E+00 -0.35264525449E+03  0.66432143936E+03  0.75211827868E+03  0.00000000000E+00 0.  1.
         22    1    3    3    0    0  0.63294021596E+02 -0.12317792840E+03  0.17935047366E+03  0.22659551544E+03  0.00000000000E+00 0.  1.
</event>
<event>
 7    1  0.7459264E-005  0.1219620E+03  0.7818608E-02  0.1338223E+00
          2   -1    0    0  502    0  0.00000000000E+00  0.00000000000E+00  0.17683250753E+04  0.17683250753E+04  0.00000000000E+00 0. -1.
          1   -1    0    0  501    0 -0.00000000000E+00 -0.00000000000E+00 -0.19626798294E+03  0.19626798294E+03  0.00000000000E+00 0. -1.
         25    2    1    2    0    0 -0.33981354695E+02  0.15974730701E+03  0.47961491881E+03  0.52185275946E+03  0.12500359055E+03 0.  0.
          2    1    1    2  501    0 -0.12173399207E+01 -0.48414610511E+02 -0.16905274764E+03  0.17585302929E+03  0.00000000000E+00 0. -1.
          1    1    1    2  502    0  0.35198694616E+02 -0.11133269650E+03  0.12614949212E+04  0.12668872695E+04  0.00000000000E+00 0. -1.
         22    1    3    3    0    0  0.16430747420E+02  0.11965860117E+03  0.40815021722E+03  0.42564627346E+03  0.00000000000E+00 0. -1.
         22    1    3    3    0    0 -0.50412102115E+02  0.40088705840E+02  0.71464701589E+02  0.96206486002E+02  0.00000000000E+00 0. -1.
</event>
<event>
 7    1  0.7459264E-005  0.2530405E+03  0.7818608E-02  0.1293272E+00
          2   -1    0    0  502    0  0.00000000000E+00  0.00000000000E+00  0.16447020490E+04  0.16447020490E+04  0.00000000000E+00 0. -1.
          1   -1    0    0  501    0 -0.00000000000E+00 -0.00000000000E+00 -0.95527942878E+03  0.95527942878E+03  0.00000000000E+00 0. -1.
         25    2    1    2    0    0 -0.10052668886E+03 -0.24369249547E+03 -0.85720853651E+03  0.90549603441E+03  0.12499978297E+03 0.  0.
          2    1    1    2  501    0  0.34970021944E+02 -0.61065459409E+00 -0.59251291687E+02  0.68804003520E+02  0.00000000000E+00 0. -1.
          1    1    1    2  502    0  0.65556666911E+02  0.24430315007E+03  0.16058824484E+04  0.16256814398E+04  0.00000000000E+00 0. -1.
         22    1    3    3    0    0 -0.65820319991E+02 -0.52510712063E+02 -0.14931474782E+03  0.17141932016E+03  0.00000000000E+00 0.  1.
         22    1    3    3    0    0 -0.34706368864E+02 -0.19118178341E+03 -0.70789378869E+03  0.73407671426E+03  0.00000000000E+00 0.  1.
</event>
<event>
 7    1  0.7459264E-005  0.9232907E+02  0.7818608E-02  0.1390290E+00
          2   -1    0    0  502    0  0.00000000000E+00  0.00000000000E+00  0.38635896261E+03  0.38635896261E+03  0.00000000000E+00 0. -1.
          1   -1    0    0  501    0 -0.00000000000E+00 -0.00000000000E+00 -0.18286453529E+03  0.18286453529E+03  0.00000000000E+00 0. -1.
         25    2    1    2    0    0  0.52903047492E+02  0.62355762014E+02  0.16687861322E+03  0.22396403263E+03  0.12499777147E+03 0.  0.
          2    1    1    2  501    0  0.36768749989E+02 -0.19052311323E+02 -0.13809043310E+03  0.14416622093E+03  0.00000000000E+00 0. -1.
          1    1    1    2  502    0 -0.89671797482E+02 -0.43303450691E+02  0.17470624720E+03  0.20109324433E+03  0.00000000000E+00 0. -1.
         22    1    3    3    0    0  0.54894540505E+02  0.81900033568E+02  0.60263311129E+02  0.11555385214E+03  0.00000000000E+00 0. -1.
         22    1    3    3    0    0 -0.19914930121E+01 -0.19544271554E+02  0.10661530209E+03  0.10841018050E+03  0.00000000000E+00 0. -1.
</event>
<event>
 7    1  0.7459264E-005  0.8866536E+03  0.7818608E-02  0.1094869E+00
          2   -1    0    0  502    0  0.00000000000E+00  0.00000000000E+00  0.12085793789E+04  0.12085793789E+04  0.00000000000E+00 0. -1.
          1   -1    0    0  501    0 -0.00000000000E+00 -0.00000000000E+00 -0.23172651054E+04  0.23172651054E+04  0.00000000000E+00 0. -1.
         25    2    1    2    0    0 -0.53141582054E+02 -0.83436371564E+03 -0.14141951405E+03  0.85709472477E+03  0.12500020222E+03 0.  0.
          2    1    1    2  501    0  0.11863786077E+03  0.89517756253E+03 -0.17030059047E+04  0.19276013389E+04  0.00000000000E+00 0. -1.
          1    1    1    2  502    0 -0.65496278714E+02 -0.60813846893E+02  0.73573969232E+03  0.74114842060E+03  0.00000000000E+00 0. -1.
         22    1    3    3    0    0  0.28861762419E+01 -0.69484856846E+03 -0.11011927322E+03  0.70352620238E+03  0.00000000000E+00 0.  1.
         22    1    3    3    0    0 -0.56027758296E+02 -0.13951514718E+03 -0.31300240825E+02  0.15356852239E+03  0.00000000000E+00 0.  1.
</event>
<event>
 7    1  0.7459264E-005  0.8186587E+03  0.7818608E-02  0.1116822E+00
          2   -1    0    0  502    0  0.00000000000E+00  0.00000000000E+00  0.41507049685E+04  0.41507049685E+04  0.00000000000E+00 0. -1.
          1   -1    0    0  501    0 -0.00000000000E+00 -0.00000000000E+00 -0.71098000186E+03  0.71098000186E+03  0.00000000000E+00 0. -1.
         25    2    1    2    0    0  0.45123757646E+03 -0.72277181782E+03  0.34241807755E+03  0.92676292178E+03  0.12499968924E+03 0.  0.
          2    1    1    2  501    0  0.29852502726E+02  0.66650407111E+02 -0.36810731390E+03  0.37528181842E+03  0.00000000000E+00 0. -1.
          1    1    1    2  502    0 -0.48109007919E+03  0.65612141071E+03  0.34654142030E+04  0.35596402302E+04  0.00000000000E+00 0. -1.
         22    1    3    3    0    0  0.86960871187E+02 -0.16486909370E+03  0.13063482098E+03  0.22761693177E+03  0.00000000000E+00 0. -1.
         22    1    3    3    0    0  0.36427670528E+03 -0.55790272412E+03  0.21178325656E+03  0.69914599001E+03  0.00000000000E+00 0. -1.
</event>
<event>
 7    1  0.7459264E-005  0.1260283E+03  0.7818608E-02  0.1348394E+00
          2   -1    0    0  502    0  0.00000000000E+00  0.00000000000E+00  0.74578164365E+03  0.74578164365E+03  0.00000000000E+00 0. -1.
          1   -1    0    0  501    0 -0.00000000000E+00 -0.00000000000E+00 -0.15029810274E+03  0.15029810274E+03  0.00000000000E+00 0. -1.
         25    2    1    2    0    0 -0.29623769596E+02 -0.14616882728E+03 -0.22687433692E+02  0.19591747543E+03  0.12500417488E+03 0.  0.
          2    1    1    2  501    0  0.13878603981E+02  0.10622657600E+03  0.31140085929E+02  0.11156346198E+03  0.00000000000E+00 0. -1.
          1    1    1    2  502    0  0.15745165615E+02  0.39942251283E+02  0.58703088867E+03  0.58859880898E+03  0.00000000000E+00 0. -1.
         22    1    3    3    0    0  0.27233036917E+02  0.59352457054E+01  0.11195634443E+02  0.30036771996E+02  0.00000000000E+00 0. -1.
         22    1    3    3    0    0 -0.56856806513E+02 -0.15210407298E+03 -0.33883068135E+02  0.16588070343E+03  0.00000000000E+00 0. -1.
</event>
<event>
 7    1  0.7459264E-005  0.4012357E+02  0.7818608E-02  0.1514661E+00
          2   -1    0    0  502    0  0.00000000000E+00  0.00000000000E+00  0.22570618681E+04  0.22570618681E+04  0.00000000000E+00 0. -1.
          1   -1    0    0  501    0 -0.00000000000E+00 -0.00000000000E+00 -0.25783398695E+03  0.25783398695E+03  0.00000000000E+00 0. -1.
         25    2    1    2    0    0  0.57453793726E+02  0.44348463354E+02  0.62990995880E+03  0.64628097134E+03  0.12499925243E+03 0.  0.
          2    1    1    2  501    0 -0.36530985317E+02 -0.11080511450E+02 -0.24794902182E+03  0.25087050055E+03  0.00000000000E+00 0. -1.
          1    1    1    2  502    0 -0.20922808409E+02 -0.33267951904E+02  0.16172669442E+04  0.16177443832E+04  0.00000000000E+00 0. -1.
         22    1    3    3    0    0 -0.37107312992E+02  0.29485646882E+02  0.25334544450E+03  0.25774070362E+03  0.00000000000E+00 0.  1.
         22    1    3    3    0    0  0.94561106718E+02  0.14862816473E+02  0.37656451430E+03  0.38854026773E+03  0.00000000000E+00 0.  1.
</event>
<event>
 7    1  0.7459264E-005  0.7091690E+03  0.7818608E-02  0.1152962E+00
          2   -1    0    0  502    0  0.00000000000E+00  0.00000000000E+00  0.27477259751E+04  0.27477259751E+04  0.00000000000E+00 0. -1.
          1   -1    0    0  501    0 -0.00000000000E+00 -0.00000000000E+00 -0.23438842247E+04  0.23438842247E+04  0.00000000000E+00 0. -1.
         25    2    1    2    0    0  0.72096596343E+03 -0.14249760477E+03 -0.14358431564E+03  0.75916984547E+03  0.12499964316E+03 0.  0.
          2    1    1    2  501    0 -0.69771052989E+03  0.93434117226E+02 -0.18267265647E+04  0.19576669431E+04  0.00000000000E+00 0. -1.
          1    1    1    2  502    0 -0.23255433539E+02  0.49063487539E+02  0.23741526307E+04  0.23747734113E+04  0.00000000000E+00 0. -1.
         22    1    3    3    0    0  0.38886831024E+03 -0.13782802935E+03 -0.62427462267E+02  0.41726767958E+03  0.00000000000E+00 0. -1.
         22    1    3    3    0    0  0.33209765319E+03 -0.46695754168E+01 -0.81156853370E+02  0.34190216589E+03  0.00000000000E+00 0. -1.
</event>
<event>
 7    1  0.7459264E-005  0.2759838E+03  0.7818608E-02  0.1275458E+00
          2   -1    0    0  502    0  0.00000000000E+00  0.00000000000E+00  0.24029776225E+04  0.24029776225E+04  0.00000000000E+00 0. -1.
          1   -1    0    0  501    0 -0.00000000000E+00 -0.00000000000E+00 -0.98358941954E+02  0.98358941954E+02  0.00000000000E+00 0. -1.
         25    2    1    2    0    0  0.15437863127E+03 -0.21502604579E+03  0.25415266907E+03  0.38766696874E+03  0.12499254898E+03 0.  0.
          2    1    1    2  501    0 -0.16805711750E+03  0.25042180468E+03  0.69429161501E+03  0.75696441242E+03  0.00000000000E+00 0. -1.
          1    1    1    2  502    0  0.13678486230E+02 -0.35395758892E+02  0.13561743964E+04  0.13567051833E+04  0.00000000000E+00 0. -1.
         22    1    3    3    0    0  0.82439793222E+02 -0.68052745625E+02  0.31678047301E+02  0.11149436925E+03  0.00000000000E+00 0. -1.
         22    1    3    3    0    0  0.71938838047E+02 -0.14697330016E+03  0.22247462177E+03  0.27617259949E+03  0.00000000000E+00 0. -1.
</event>
<event>
 7    1  0.7459264E-005  0.1137121E+03  0.7818608E-02  0.1317617E+00
          2   -1    0    0  502    0  0.00000000000E+00  0.00000000000E+00  0.12133779215E+04  0.12133779215E+04  0.00000000000E+00 0. -1.
          1   -1    0    0  501    0 -0.00000000000E+00 -0.00000000000E+00 -0.44333344345E+03  0.44333344345E+03  0.00000000000E+00 0. -1.
         25    2    1    2    0    0 -0.12795145125E+03 -0.30803441365E+02  0.27809300262E+03  0.33208673019E+03  0.12500180951E+03 0.  0.
          2    1    1    2  501    0  0.10992539876E+03 -0.28834766134E+02 -0.40748366523E+03  0.42303424739E+03  0.00000000000E+00 0. -1.
          1    1    1    2  502    0  0.18026052495E+02  0.59638207499E+02  0.89943514065E+03  0.90159038737E+03  0.00000000000E+00 0. -1.
         22    1    3    3    0    0 -0.58058507229E+02  0.16348234309E+02  0.24950293343E+02  0.65273058490E+02  0.00000000000E+00 0.  1.
         22    1    3    3    0    0 -0.69892944023E+02 -0.47151675674E+02  0.25314270928E+03  0.26681367170E+03  0.00000000000E+00 0.  1.
</event>
<event>
 7    1  0.7459264E-005  0.2236091E+03  0.7818608E-02  0.1333334E+00
          2   -1    0    0  502    0  0.00000000000E+00  0.00000000000E+00  0.31233872695E+03  0.31233872695E+03  0.00000000000E+00 0. -1.
          1   -1    0    0  501    0 -0.00000000000E+00 -0.00000000000E+00 -0.15589196025E+04  0.15589196025E+04  0.00000000000E+00 0. -1.
         25    2    1    2    0    0  0.20570299644E+03  0.31570851808E+02 -0.63110217243E+03  0.67618380890E+03  0.12499659973E+03 0.  0.
          2    1    1    2  501    0  0.18721184946E+02 -0.20232439612E+02 -0.86146266714E+03  0.86190356842E+03  0.00000000000E+00 0. -1.
          1    1    1    2  502    0 -0.22442418138E+03 -0.11338412196E+02  0.24598396402E+03  0.33317095212E+03  0.00000000000E+00 0. -1.
         22    1    3    3    0    0  0.40216019792E+02 -0.24595601205E+02 -0.47275445365E+02  0.66762561223E+02  0.00000000000E+00 0. -1.
         22    1    3    3    0    0  0.16548697665E+03  0.56166453013E+02 -0.58382672707E+03  0.60942124768E+03  0.00000000000E+00 0. -1.
</event>
<event>
 7    1  0.7459264E-005  0.4322620E+03  0.7818608E-02  0.1237654E+00
          2   -1    0    0  502    0  0.00000000000E+00  0.00000000000E+00  0.12690502830E+04  0.12690502830E+04  0.00000000000E+00 0. -1.
          1   -1    0    0  501    0 -0.00000000000E+00 -0.00000000000E+00 -0.56027548453E+03  0.56027548453E+03  0.00000000000E+00 0. -1.
         25    2    1    2    0    0  0.43967095306E+03  0.55018964615E+02  0.81255890256E+03  0.93392448750E+03  0.12500137912E+03 0.  0.
          2    1    1    2  501    0 -0.32270018270E+02  0.14072546806E+02 -0.39073693214E+03  0.39231969208E+03  0.00000000000E+00 0. -1.
          1    1    1    2  502    0 -0.40740093479E+03 -0.69091511421E+02  0.28695282807E+03  0.50308158797E+03  0.00000000000E+00 0. -1.
         22    1    3    3    0    0  0.10106557945E+03 -0.12386987988E+02  0.10302061781E+03  0.14484797726E+03  0.00000000000E+00 0. -1.
         22    1    3    3    0    0  0.33860537361E+03  0.67405952603E+02  0.70953828476E+03  0.78907651024E+03  0.00000000000E+00 0. -1.
</event>
<event>
 7    1  0.7459264E-005  0.6238301E+03  0.7818608E-02  0.1168584E+00
          2   -1    0    0  502    0  0.00000000000E+00  0.00000000000E+00  0.51140624080E+03  0.51140624080E+03  0.00000000000E+00 0. -1.
          1   -1    0    0  501    0 -0.00000000000E+00 -0.00000000000E+00 -0.21123189129E+04  0.21123189129E+04  0.00000000000E+00 0. -1.
         25    2    1    2    0    0 -0.41057758664E+03  0.47658027173E+03 -0.64652680950E+03  0.91067308133E+03  0.12500334237E+03 0.  0.
          2    1    1    2  501    0 -0.32921697842E+02 -0.39569235965E+02 -0.10771951749E+04  0.10784243170E+04  0.00000000000E+00 0. -1.
          1    1    1    2  502    0  0.44349928448E+03 -0.43701103577E+03  0.12280931231E+03  0.63462775539E+03  0.00000000000E+00 0. -1.
         22    1    3    3    0    0 -0.16243443929E+03  0.27929188141E+03 -0.29799308149E+03  0.43953245466E+03  0.00000000000E+00 0. -1.
         22    1    3    3    0    0 -0.24814314735E+03  0.19728839032E+03 -0.34853372802E+03  0.47114062667E+03  0.00000000000E+00 0. -1.
</event>
<event>
 7    1  0.7459264E-005  0.8127298E+02  0.7818608E-02  0.1451928E+00
          2   -1    0    0  502    0  0.00000000000E+00  0.00000000000E+00  0.21051783755E+03  0.21051783755E+03  0.00000000000E+00 0. -1.
          1   -1    0    0  501    0 -0.00000000000E+00 -0.00000000000E+00 -0.29789598904E+03  0.29789598904E+03  0.00000000000E+00 0. -1.
         25    2    1    2    0    0  0.50283135908E+02 -0.51805424364E+02  0.33144975421E+02  0.14810661984E+03  0.12499914277E+03 0.  0.
          2    1    1    2  501    0 -0.32958936218E+02  0.75436056440E+02 -0.23140890109E+03  0.24561549135E+03  0.00000000000E+00 0. -1.
          1    1    1    2  502    0 -0.17324199689E+02 -0.23630632076E+02  0.11088577418E+03  0.11469171540E+03  0.00000000000E+00 0. -1.
         22    1    3    3    0    0 -0.36744655862E+00 -0.56765789776E+01 -0.44325981807E+02  0.44689497973E+02  0.00000000000E+00 0. -1.
         22    1    3    3    0    0  0.50650582466E+02 -0.46128845386E+02  0.77470957228E+02  0.10341712186E+03  0.00000000000E+00 0. -1.
</event>
<event>
 7    1  0.7459264E-005  0.1672941E+03  0.7818608E-02  0.1379265E+00
          2   -1    0    0  502    0  0.00000000000E+00  0.00000000000E+00  0.23264267539E+04  0.23264267539E+04  0.00000000000E+00 0. -1.
          1   -1    0    0  501    0 -0.00000000000E+00 -0.00000000000E+00 -0.68121837117E+03  0.68121837117E+03  0.00000000000E+00 0. -1.
         25    2    1    2    0    0 -0.82855158287E+02  0.17129909133E+03  0.11996505351E+04  0.12210629322E+04  0.12499968795E+03 0.  0.
          2    1    1    2  501    0  0.80519255383E+02 -0.14641913523E+03 -0.65995811514E+03  0.68078383308E+03  0.00000000000E+00 0. -1.
          1    1    1    2  502    0  0.23359029039E+01 -0.24879956102E+02  0.11055159628E+04  0.11057983598E+04  0.00000000000E+00 0. -1.
         22    1    3    3    0    0  0.29376559670E+02  0.58606731703E+02  0.26577550428E+03  0.27374139244E+03  0.00000000000E+00 0.  1.
         22    1    3    3    0    0 -0.11223171796E+03  0.11269235963E+03  0.93387503086E+03  0.94732153976E+03  0.00000000000E+00 0.  1.
</event>
<event>
 7    1  0.7459264E-005  0.4302772E+03  0.7818608E-02  0.1286276E+00
          2   -1    0    0  502    0  0.00000000000E+00  0.00000000000E+00  0.18836368666E+04  0.18836368666E+04  0.00000000000E+00 0. -1.
          1   -1    0    0  501    0 -0.00000000000E+00 -0.00000000000E+00 -0.47107591174E+03  0.47107591174E+03  0.00000000000E+00 0. -1.
         25    2    1    2    0    0  0.43059195249E+03 -0.71900964956E+02  0.15884260762E+04  0.16520597353E+04  0.12499916409E+03 0.  0.
          2    1    1    2  501    0 -0.42695408300E+03  0.50242480444E+02 -0.33312786783E+03  0.54386420379E+03  0.00000000000E+00 0. -1.
          1    1    1    2  502    0 -0.36378694863E+01  0.21658484512E+02  0.15726274648E+03  0.15878883926E+03  0.00000000000E+00 0. -1.
         22    1    3    3    0    0  0.25179477885E+03  0.11141976991E+02  0.76888148709E+03  0.80913750099E+03  0.00000000000E+00 0. -1.
         22    1    3    3    0    0  0.17879717364E+03 -0.83042941947E+02  0.81954458911E+03  0.84292223428E+03  0.00000000000E+00 0. -1.
</event>
<event>
 7    1  0.7459264E-005  0.9961984E+02  0.7818608E-02  0.1383082E+00
          2   -1    0    0  502    0  0.00000000000E+00  0.00000000000E+00  0.13992243749E+03  0.13992243749E+03  0.00000000000E+00 0. -1.
          1   -1    0    0  501    0 -0.00000000000E+00 -0.00000000000E+00 -0.13389162273E+04  0.13389162273E+04  0.00000000000E+00 0. -1.
         25    2    1    2    0    0 -0.69415222084E+02  0.51304603740E+02 -0.11314087996E+03  0.18941281406E+03  0.12500287993E+03 0.  0.
          2    1    1    2  501    0  0.50376166079E+02 -0.87255595584E+02 -0.11813427595E+04  0.11856314826E+04  0.00000000000E+00 0. -1.
          1    1    1    2  502    0  0.19039056005E+02  0.35950991844E+02  0.95489849658E+02  0.10379436813E+03  0.00000000000E+00 0. -1.
         22    1    3    3    0    0 -0.83968948090E+02  0.39406461623E+02 -0.13294663005E+03  0.16210632283E+03  0.00000000000E+00 0. -1.
         22    1    3    3    0    0  0.14553726006E+02  0.11898142117E+02  0.19805750092E+02  0.27306491228E+02  0.00000000000E+00 0. -1.
</event>
<event>
 7    1  0.7459264E-005  0.4070181E+03  0.7818608E-02  0.1183358E+00
          2   -1    0    0  502    0  0.00000000000E+00  0.00000000000E+00  0.68927066210E+03  0.68927066210E+03  0.00000000000E+00 0. -1.
          1   -1    0    0  501    0 -0.00000000000E+00 -0.00000000000E+00 -0.12144652767E+04  0.12144652767E+04  0.00000000000E+00 0. -1.
         25    2    1    2    0    0 -0.42704294896E+01 -0.41582873638E+03 -0.21404111419E+03  0.48411966184E+03  0.12500589527E+03 0.  0.
          2    1    1    2  501    0  0.68957845502E+02  0.39938523090E+03 -0.81561192690E+03  0.91076152885E+03  0.00000000000E+00 0. -1.
          1    1    1    2  502    0 -0.64687416012E+02  0.16443505476E+02  0.50445842648E+03  0.50885474814E+03  0.00000000000E+00 0. -1.
         22    1    3    3    0    0  0.23395775482E+02 -0.25968677153E+03 -0.19247639060E+03  0.32408601104E+03  0.00000000000E+00 0.  1.
         22    1    3    3    0    0 -0.27666204972E+02 -0.15614196485E+03 -0.21564723598E+02  0.16003365080E+03  0.00000000000E+00 0.  1.
</event>
<event>
 7    1  0.7459264E-005  0.2744760E+03  0.7818608E-02  0.1276491E+00
          2   -1    0    0  502    0  0.00000000000E+00  0.00000000000E+00  0.11817650935E+04  0.11817650935E+04  0.00000000000E+00 0. -1.
          1   -1    0    0  501    0 -0.00000000000E+00 -0.00000000000E+00 -0.16180748739E+03  0.16180748739E+03  0.00000000000E+00 0. -1.
         25    2    1    2    0    0 -0.27549848076E+03 -0.44671664916E+02  0.92000760473E+03  0.96950190810E+03  0.12499994598E+03 0.  0.
          2    1    1    2  501    0  0.13502238112E+02  0.35284784133E+02 -0.57098457125E+02  0.68465759555E+02  0.00000000000E+00 0. -1.
          1    1    1    2  502    0  0.26199624264E+03  0.93868807835E+01  0.15704845853E+03  0.30560491327E+03  0.00000000000E+00 0. -1.
         22    1    3    3    0    0 -0.14187556276E+03 -0.44582638157E+01  0.27388635981E+03  0.30848385616E+03  0.00000000000E+00 0.  1.
         22    1    3    3    0    0 -0.13362291800E+03 -0.40213401100E+02  0.64612124492E+03  0.66101805193E+03  0.00000000000E+00 0.  1.
</event>
<event>
 7    1  0.7459264E-005  0.1028015E+04  0.7818608E-02  0.1177190E+00
          2   -1    0    0  502    0  0.00000000000E+00  0.00000000000E+00  0.11689498281E+04  0.11689498281E+04  0.00000000000E+00 0. -1.
          1   -1    0    0  501    0 -0.00000000000E+00 -0.00000000000E+00 -0.27706823226E+04  0.27706823226E+04  0.00000000000E+00 0. -1.
         25    2    1    2    0    0  0.95278702968E+03 -0.40973587361E+03 -0.16935966700E+04  0.19898696800E+04  0.12500020989E+03 0.  0.
          2    1    1    2  501    0 -0.93308807816E+03  0.38938697771E+03 -0.65348439603E+03  0.12038760052E+04  0.00000000000E+00 0. -1.
          1    1    1    2  502    0 -0.19698951519E+02  0.20348895897E+02  0.74534857160E+03  0.74588646552E+03  0.00000000000E+00 0. -1.
         22    1    3    3    0    0  0.66893224890E+03 -0.23415766472E+03 -0.12097872773E+04  0.14021003609E+04  0.00000000000E+00 0. -1.
         22    1    3    3    0    0  0.28385478077E+03 -0.17557820888E+03 -0.48380939272E+03  0.58776931911E+03  0.00000000000E+00 0. -1.
</event>
<event>
 7    1  0.7459264E-005  0.8262097E+03  0.7818608E-02  0.1062600E+00
          2   -1    0    0  502    0  0.00000000000E+00  0.00000000000E+00  0.25486990059E+04  0.25486990059E+04  0.00000000000E+00 0. -1.
          1   -1    0    0  501    0 -0.00000000000E+00 -0.00000000000E+00 -0.13201389738E+04  0.13201389738E+04  0.00000000000E+00 0. -1.
         25    2    1    2    0    0  0.71712551806E+03  0.60750433992E+03  0.45014129301E+03  0.10495630336E+04  0.12499938500E+03 0.  0.
          2    1    1    2  501    0 -0.99886805482E+02 -0.10961387137E+03 -0.92684591428E+03  0.93863513866E+03  0.00000000000E+00 0. -1.
          1    1    1    2  502    0 -0.61723871258E+03 -0.49789046855E+03  0.17052646534E+04  0.18806398074E+04  0.00000000000E+00 0. -1.
         22    1    3    3    0    0  0.49238277132E+03  0.47562580790E+03  0.28831086542E+03  0.74282155176E+03  0.00000000000E+00 0.  1.
         22    1    3    3    0    0  0.22474274674E+03  0.13187853202E+03  0.16183042758E+03  0.30674148189E+03  0.00000000000E+00 0.  1.
</event>
<event>
 7    1  0.7459264E-005  0.1704959E+03  0.7818608E-02  0.1271842E+00
          2   -1    0    0  502    0  0.00000000000E+00  0.00000000000E+00  0.42526370782E+04  0.42526370782E+04  0.00000000000E+00 0. -1.
          1   -1    0    0  501    0 -0.00000000000E+00 -0.00000000000E+00 -0.16933375126E+03  0.16933375126E+03  0.00000000000E+00 0. -1.
         25    2    1    2    0    0 -0.13493256390E+03 -0.18728619354E+03  0.45841122738E+03  0.52825409818E+03  0.12501449421E+03 0.  0.
          2    1    1    2  501    0  0.38758428058E+02  0.50422979841E+02 -0.12491900240E+03  0.14017649518E+03  0.00000000000E+00 0. -1.
          1    1    1    2  502    0  0.96174135841E+02  0.13686321370E+03  0.37498111020E+04  0.37535402361E+04  0.00000000000E+00 0. -1.
         22    1    3    3    0    0 -0.12326486928E+03 -0.18299056051E+03  0.46462816641E+03  0.51435309492E+03  0.00000000000E+00 0.  1.
         22    1    3    3    0    0 -0.11667694623E+02 -0.42956330321E+01 -0.62169390213E+01  0.13901003265E+02  0.00000000000E+00 0.  1.
</event>
<event>
 7    1  0.7459264E-005  0.4677125E+03  0.7818608E-02  0.1099691E+00
          2   -1    0    0  502    0  0.00000000000E+00  0.00000000000E+00  0.24172020433E+04  0.24172020433E+04  0.00000000000E+00 0. -1.
          1   -1    0    0  501    0 -0.00000000000E+00 -0.00000000000E+00 -0.65038691811E+03  0.65038691811E+03  0.00000000000E+00 0. -1.
         25    2    1    2    0    0  0.18703482588E+03 -0.34403591879E+03  0.73622033407E+03  0.84320102690E+03  0.12499940784E+03 0.  0.
          2    1    1    2  501    0  0.13906663903E+03 -0.77304802316E+02 -0.54153725748E+03  0.56442728831E+03  0.00000000000E+00 0. -1.
          1    1    1    2  502    0 -0.32610146490E+03  0.42134072110E+03  0.15721320486E+04  0.16599606462E+04  0.00000000000E+00 0. -1.
         22    1    3    3    0    0  0.30726683314E+02 -0.18115616151E+03  0.29407122154E+03  0.34675577466E+03  0.00000000000E+00 0. -1.
         22    1    3    3    0    0  0.15630814256E+03 -0.16287975727E+03  0.44214911253E+03  0.49644525224E+03  0.00000000000E+00 0. -1.
</event>
<event>
 7    1  0.7459264E-005  0.1032406E+04  0.7818608E-02  0.1013565E+00
          2   -1    0    0  502    0  0.00000000000E+00  0.00000000000E+00  0.18188439002E+04  0.18188439002E+04  0.00000000000E+00 0. -1.
          1   -1    0    0  501    0 -0.00000000000E+00 -0.00000000000E+00 -0.13829261002E+04  0.13829261002E+04  0.00000000000E+00 0. -1.
         25    2    1    2    0    0  0.95628597084E+03 -0.39554896750E+03  0.49391707156E+03  0.11534819003E+04  0.12499830808E+03 0.  0.
          2    1    1    2  501    0  0.74081569042E+02  0.23137920433E+03 -0.75526746518E+03  0.79338096715E+03  0.00000000000E+00 0. -1.
          1    1    1    2  502    0 -0.10303675399E+04  0.16416976317E+03  0.69726819365E+03  0.12549071329E+04  0.00000000000E+00 0. -1.
         22    1    3    3    0    0  0.62012487964E+03 -0.28100175057E+03  0.26291607230E+03  0.72982306846E+03  0.00000000000E+00 0. -1.
         22    1    3    3    0    0  0.33616109120E+03 -0.11454721693E+03  0.23100099925E+03  0.42365883185E+03  0.00000000000E+00 0. -1.
</event>
<event>
 7    1  0.7459264E-005  0.9990635E+02  0.7818608E-02  0.1320815E+00
          2   -1    0    0  502    0  0.00000000000E+00  0.00000000000E+00  0.84192080953E+02  0.84192080953E+02  0.00000000000E+00 0. -1.
          1   -1    0    0  501    0 -0.00000000000E+00 -0.00000000000E+00 -0.75754467439E+03  0.75754467439E+03  0.00000000000E+00 0. -1.
         25    2    1    2    0    0 -0.41726376612E+02 -0.10896261081E+03 -0.24352631942E+03  0.29756249662E+03  0.12499772032E+03 0.  0.
          2    1    1    2  501    0 -0.42365210453E+02  0.54352444383E+02 -0.43817346068E+03  0.44355944462E+03  0.00000000000E+00 0. -1.
          1    1    1    2  502    0  0.84091587065E+02  0.54610166426E+02  0.83471866624E+01  0.10061481410E+03  0.00000000000E+00 0. -1.
         22    1    3    3    0    0 -0.33525586265E+02 -0.40205421335E+02 -0.21730164895E+03  0.22351833812E+03  0.00000000000E+00 0. -1.
         22    1    3    3    0    0 -0.82007903469E+01 -0.68757189474E+02 -0.26224670469E+02  0.74044158499E+02  0.00000000000E+00 0. -1.
</event>
<event>
 7    1  0.7459264E-005  0.1249506E+04  0.7818608E-02  0.1117093E+00
          2   -1    0    0  502    0  0.00000000000E+00  0.00000000000E+00  0.12893508008E+04  0.12893508008E+04  0.00000000000E+00 0. -1.
          1   -1    0    0  501    0 -0.00000000000E+00 -0.00000000000E+00 -0.20257817806E+04  0.20257817806E+04  0.00000000000E+00 0. -1.
         25    2    1    2    0    0  0.95230960312E+03 -0.82423418173E+03 -0.12515255580E+04  0.17799427967E+04  0.12499828232E+03 0.  0.
          2    1    1    2  501    0 -0.90469908541E+03  0.82155785768E+03  0.22674072836E+03  0.12429195897E+04  0.00000000000E+00 0. -1.
          1    1    1    2  502    0 -0.47610517709E+02  0.26763240474E+01  0.28835384984E+03  0.29227019490E+03  0.00000000000E+00 0. -1.
         22    1    3    3    0    0  0.36204379377E+03 -0.25529754860E+03 -0.38307717092E+03  0.58566258700E+03  0.00000000000E+00 0. -1.
         22    1    3    3    0    0  0.59026580934E+03 -0.56893663312E+03 -0.86844838710E+03  0.11942802097E+04  0.00000000000E+00 0. -1.
</event>
<event>
 7    1  0.7514480E-005  0.1632211E+03  0.7818608E-02  0.1264354E+00
          2   -1    0    0  502    0  0.00000000000E+00  0.00000000000E+00  0.17526449679E+04  0.17526449679E+04  0.00000000000E+00 0. -1.
          1   -1    0    0  501    0 -0.00000000000E+00 -0.00000000000E+00 -0.88856189990E+03  0.88856189990E+03  0.00000000000E+00 0. -1.
         25    2    1    2    0    0  0.21541680719E+03  0.61064017146E+02 -0.15105998816E+03  0.29761955879E+03  0.12500026696E+03 0.  0.
          2    1    1    2  501    0 -0.14399712259E+03 -0.59496954352E+02 -0.65431110130E+03  0.67260543870E+03  0.00000000000E+00 0. -1.
          1    1    1    2  502    0 -0.71419684594E+02 -0.15670627932E+01  0.16694541575E+04  0.16709818703E+04  0.00000000000E+00 0. -1.
         22    1    3    3    0    0  0.17945386822E+03  0.94104622303E+01 -0.15093796757E+03  0.23467960643E+03  0.00000000000E+00 0.  1.
         22    1    3    3    0    0  0.35962938963E+02  0.51653554915E+02 -0.12202059841E+00  0.62939952362E+02  0.00000000000E+00 0.  1.
</event>
<event>
 7    1  0.7459264E-005  0.9790918E+03  0.7818608E-02  0.1113401E+00
          2   -1    0    0  502    0  0.00000000000E+00  0.00000000000E+00  0.54090496092E+03  0.54090496092E+03  0.00000000000E+00 0. -1.
          1   -1    0    0  501    0 -0.00000000000E+00 -0.00000000000E+00 -0.23710058057E+04  0.23710058057E+04  0.00000000000E+00 0. -1.
         25    2    1    2    0    0  0.49146280812E+03 -0.86324134284E+03 -0.29897641878E+03  0.10448600945E+04  0.12499764154E+03 0.  0.
          2    1    1    2  501    0  0.18757088668E+02  0.60935797950E+02 -0.32516374008E+03  0.33135548541E+03  0.00000000000E+00 0. -1.
          1    1    1    2  502    0 -0.51021989679E+03  0.80230554489E+03 -0.12059606860E+04  0.15356951867E+04  0.00000000000E+00 0. -1.
         22    1    3    3    0    0  0.36768867735E+03 -0.68116522734E+03 -0.28277727947E+03  0.82410194768E+03  0.00000000000E+00 0. -1.
         22    1    3    3    0    0  0.12377413078E+03 -0.18207611550E+03 -0.16199139314E+02  0.22075814685E+03  0.00000000000E+00 0. -1.
</event>
<event>
 7    1  0.9215876E-005  0.1399031E+03  0.7818608E-02  0.1225812E+00
          2   -1    0    0  502    0  0.00000000000E+00  0.00000000000E+00  0.27734006452E+04  0.27734006452E+04  0.00000000000E+00 0. -1.
          1   -1    0    0  501    0 -0.00000000000E+00 -0.00000000000E+00 -0.70578321662E+03  0.70578321662E+03  0.00000000000E+00 0. -1.
         25    2    1    2    0    0  0.16146213090E+03 -0.18894167821E+02 -0.29758809242E+03  0.36140246389E+03  0.12500423539E+03 0.  0.
          2    1    1    2  501    0 -0.54984444754E+02  0.10988790051E+03 -0.36441300405E+03  0.38457181041E+03  0.00000000000E+00 0. -1.
          1    1    1    2  502    0 -0.10647768614E+03 -0.90993732691E+02  0.27296185250E+04  0.27332095875E+04  0.00000000000E+00 0. -1.
         22    1    3    3    0    0  0.36939135364E+02  0.50450860669E+02 -0.89068742991E+02  0.10882568650E+03  0.00000000000E+00 0. -1.
         22    1    3    3    0    0  0.12452299553E+03 -0.69345028491E+02 -0.20851934943E+03  0.25257677739E+03  0.00000000000E+00 0. -1.
</event>
<event>
 7    1  0.7459264E-005  0.3916745E+03  0.7818608E-02  0.1211183E+00
          2   -1    0    0  502    0  0.00000000000E+00  0.00000000000E+00  0.10826865767E+04  0.10826865767E+04  0.00000000000E+00 0. -1.
          1   -1    0    0  501    0 -0.00000000000E+00 -0.00000000000E+00 -0.46279502120E+03  0.46279502120E+03  0.00000000000E+00 0. -1.
         25    2    1    2    0    0 -0.21704164321E+02  0.36481931567E+03  0.25942916555E+03  0.46528750503E+03  0.12499906627E+03 0.  0.
          2    1    1    2  501    0  0.62917337162E+02 -0.39519385159E+03 -0.24720808972E+03  0.47037071685E+03  0.00000000000E+00 0. -1.
          1    1    1    2  502    0 -0.41213172841E+02  0.30374535918E+02  0.60767047964E+03  0.60982337597E+03  0.00000000000E+00 0. -1.
         22    1    3    3    0    0  0.11410461174E+02 -0.58655901338E+01  0.25495344481E+01  0.13080668856E+02  0.00000000000E+00 0.  1.
         22    1    3    3    0    0 -0.33114625495E+02  0.37068490581E+03  0.25687963110E+03  0.45220683618E+03  0.00000000000E+00 0.  1.
</event>
<event>
 7    1  0.7459264E-005  0.3198028E+03  0.7818608E-02  0.1110104E+00
          2   -1    0    0  502    0  0.00000000000E+00  0.00000000000E+00  0.20193659957E+04  0.20193659957E+04  0.00000000000E+00 0. -1.
          1   -1    0    0  501    0 -0.00000000000E+00 -0.00000000000E+00 -0.28481977132E+03  0.28481977132E+03  0.00000000000E+00 0. -1.
         25    2    1    2    0    0  0.35651401224E+03  0.24226164567E+03  0.43214934058E+03  0.62303289289E+03  0.12499594865E+03 0.  0.
          2    1    1    2  501    0 -0.20226942472E+03  0.22691537700E+02 -0.11308967753E+03  0.23284565966E+03  0.00000000000E+00 0. -1.
          1    1    1    2  502    0 -0.15424458752E+03 -0.26495318337E+03  0.14154865614E+04  0.14483072145E+04  0.00000000000E+00 0. -1.
         22    1    3    3    0    0  0.16474841775E+03  0.18611205033E+03  0.25295533090E+03  0.35463521520E+03  0.00000000000E+00 0.  1.
         22    1    3    3    0    0  0.19176559448E+03  0.56149595336E+02  0.17919400968E+03  0.26839767769E+03  0.00000000000E+00 0.  1.
</event>
<event>
 7    1  0.7459264E-005  0.7746544E+03  0.7818608E-02  0.1127626E+00
          2   -1    0    0  502    0  0.00000000000E+00  0.00000000000E+00  0.17087702872E+04  0.17087702872E+04  0.00000000000E+00 0. -1.
          1   -1    0    0  501    0 -0.00000000000E+00 -0.00000000000E+00 -0.24318967373E+04  0.24318967373E+04  0.00000000000E+00 0. -1.
         25    2    1    2    0    0  0.51824230967E+03  0.55751554999E+03  0.39139983451E+03  0.86499478309E+03  0.12499385709E+03 0.  0.
          2    1    1    2  501    0  0.60754416123E+02 -0.29327211789E+02 -0.20523669126E+04  0.20534753781E+04  0.00000000000E+00 0. -1.
          1    1    1    2  502    0 -0.57899672580E+03 -0.52818833820E+03  0.93784062800E+03  0.12221968633E+04  0.00000000000E+00 0. -1.
         22    1    3    3    0    0  0.21803629900E+03  0.30527296248E+03  0.23607686045E+03  0.44324225130E+03  0.00000000000E+00 0. -1.
         22    1    3    3    0    0  0.30020601068E+03  0.25224258750E+03  0.15532297406E+03  0.42175253179E+03  0.00000000000E+00 0. -1.
</event>
<event>
 7    1  0.7459264E-005  0.5643095E+03  0.7818608E-02  0.1056367E+00
          2   -1    0    0  502    0  0.00000000000E+00  0.00000000000E+00  0.13786692112E+04  0.13786692112E+04  0.00000000000E+00 0. -1.
          1   -1    0    0  501    0 -0.00000000000E+00 -0.00000000000E+00 -0.17217993958E+04  0.17217993958E+04  0.00000000000E+00 0. -1.
         25    2    1    2    0    0 -0.63593954370E+03 -0.36487153084E+03 -0.34078923797E+03  0.81811578587E+03  0.12500318839E+03 0.  0.
          2    1    1    2  501    0  0.49316908984E+03  0.17578704122E+03 -0.10686637058E+04  0.11900247691E+04  0.00000000000E+00 0. -1.
          1    1    1    2  502    0  0.14277045386E+03  0.18908448962E+03  0.10663227591E+04  0.10923280521E+04  0.00000000000E+00 0. -1.
         22    1    3    3    0    0 -0.12100081022E+03 -0.51221806059E+02 -0.13541912527E+02  0.13209183504E+03  0.00000000000E+00 0.  1.
         22    1    3    3    0    0 -0.51493873348E+03 -0.31364972478E+03 -0.32724732544E+03  0.68602395083E+03  0.00000000000E+00 0.  1.
</event>
<event>
 7    1  0.7459264E-005  0.1424265E+03  0.7818608E-02  0.1311365E+00
          2   -1    0    0  502    0  0.00000000000E+00  0.00000000000E+00  0.19059892606E+03  0.19059892606E+03  0.00000000000E+00 0. -1.
          1   -1    0    0  501    0 -0.00000000000E+00 -0.00000000000E+00 -0.23619772356E+04  0.23619772356E+04  0.00000000000E+00 0. -1.
         25    2    1    2    0    0  0.71628746517E+02  0.15037739525E+03 -0.32067779790E+03  0.38236530999E+03  0.12499976755E+03 0.  0.
          2    1    1    2  501    0 -0.51475976986E+02 -0.10935952907E+02 -0.19789744957E+04  0.19796740706E+04  0.00000000000E+00 0. -1.
          1    1    1    2  502    0 -0.20152769531E+02 -0.13944144234E+03  0.12827398403E+03  0.19053678107E+03  0.00000000000E+00 0. -1.
         22    1    3    3    0    0  0.98546288027E+02  0.79334998583E+02 -0.15482309459E+03  0.19993899945E+03  0.00000000000E+00 0. -1.
         22    1    3    3    0    0 -0.26917541510E+02  0.71042396669E+02 -0.16585470331E+03  0.18242631054E+03  0.00000000000E+00 0. -1.
</event>
<event>
 7    1  0.7459264E-005  0.1380675E+03  0.7818608E-02  0.1304089E+00
          2   -1    0    0  502    0  0.00000000000E+00  0.00000000000E+00  0.95846936006E+02  0.95846936006E+02  0.00000000000E+00 0. -1.
          1   -1    0    0  501    0 -0.00000000000E+00 -0.00000000000E+00 -0.46340448846E+04  0.46340448846E+04  0.00000000000E+00 0. -1.
         25    2    1    2    0    0  0.15403458705E+03 -0.62792957294E+02 -0.16377536986E+04  0.16509184703E+04  0.12500003437E+03 0.  0.
          2    1    1    2  501    0 -0.16785964599E+02  0.55523055748E+02 -0.29363474213E+04  0.29369202844E+04  0.00000000000E+00 0. -1.
          1    1    1    2  502    0 -0.13724862245E+03  0.72699015459E+01  0.35903171335E+02  0.14205306595E+03  0.00000000000E+00 0. -1.
         22    1    3    3    0    0  0.12854663013E+02 -0.48479068966E+02 -0.77062547914E+03  0.77225584594E+03  0.00000000000E+00 0.  1.
         22    1    3    3    0    0  0.14117992403E+03 -0.14313888328E+02 -0.86712821948E+03  0.87866262432E+03  0.00000000000E+00 0.  1.
</event>
<event>
 7    1  0.7459264E-005  0.2417118E+03  0.7818608E-02  0.1286314E+00
          2   -1    0    0  502    0  0.00000000000E+00  0.00000000000E+00  0.15640730233E+04  0.15640730233E+04  0.00000000000E+00 0. -1.
          1   -1    0    0  501    0 -0.00000000000E+00 -0.00000000000E+00 -0.35510663496E+03  0.35510663496E+03  0.00000000000E+00 0. -1.
         25    2    1    2    0    0  0.25454995251E+03 -0.11333535317E+03  0.74401375087E+03  0.80425328132E+03  0.12500519361E+03 0.  0.
          2    1    1    2  501    0 -0.21956622855E+03  0.95915928797E+02 -0.28024244718E+03  0.36870723253E+03  0.00000000000E+00 0. -1.
          1    1    1    2  502    0 -0.34983723966E+02  0.17419424370E+02  0.74519508466E+03  0.74621914441E+03  0.00000000000E+00 0. -1.
         22    1    3    3    0    0 -0.11527526075E+02 -0.18496194671E+02  0.73628656322E+02  0.76786535971E+02  0.00000000000E+00 0. -1.
         22    1    3    3    0    0  0.26607747859E+03 -0.94839158496E+02  0.67038509454E+03  0.72746674535E+03  0.00000000000E+00 0. -1.
</event>
<event>
 7    1  0.7459264E-005  0.4591026E+03  0.7818608E-02  0.1123812E+00
          2   -1    0    0  502    0  0.00000000000E+00  0.00000000000E+00  0.17073584878E+04  0.17073584878E+04  0.00000000000E+00 0. -1.
          1   -1    0    0  501    0 -0.00000000000E+00 -0.00000000000E+00 -0.14370913908E+04  0.14370913908E+04  0.00000000000E+00 0. -1.
         25    2    1    2    0    0 -0.53154829851E+03 -0.16888290107E+03  0.96098293049E+03  0.11181135378E+04  0.12499865154E+03 0.  0.
          2    1    1    2  501    0  0.41410098200E+03  0.19000421316E+03 -0.13145109631E+04  0.13912297784E+04  0.00000000000E+00 0. -1.
          1    1    1    2  502    0  0.11744731651E+03 -0.21121312094E+02  0.62379512953E+03  0.63510656240E+03  0.00000000000E+00 0. -1.
         22    1    3    3    0    0 -0.62062529470E+02  0.48834860858E+01  0.55230541470E+02  0.83222705505E+02  0.00000000000E+00 0. -1.
         22    1    3    3    0    0 -0.46948576904E+03 -0.17376638715E+03  0.90575238902E+03  0.10348908323E+04  0.00000000000E+00 0. -1.
</event>
<event>
 7    1  0.7459264E-005  0.3345531E+03  0.7818608E-02  0.1306678E+00
          2   -1    0    0  502    0  0.00000000000E+00  0.00000000000E+00  0.10522440025E+04  0.10522440025E+04  0.00000000000E+00 0. -1.
          1   -1    0    0  501    0 -0.00000000000E+00 -0.00000000000E+00 -0.10165278516E+04  0.10165278516E+04  0.00000000000E+00 0. -1.
         25    2    1    2    0    0 -0.29687584490E+03 -0.99430885971E+02  0.77877485804E+03  0.84860887366E+03  0.12499989028E+03 0.  0.
          2    1    1    2  501    0  0.31549195277E+03  0.11357290559E+03 -0.95230579396E+03  0.10096139373E+04  0.00000000000E+00 0. -1.
          1    1    1    2  502    0 -0.18616107866E+02 -0.14142019615E+02  0.20924708688E+03  0.21054904312E+03  0.00000000000E+00 0. -1.
         22    1    3    3    0    0 -0.71224079767E+02  0.18225418214E+02  0.26868879927E+03  0.27856544341E+03  0.00000000000E+00 0. -1.
         22    1    3    3    0    0 -0.22565176514E+03 -0.11765630418E+03  0.51008605876E+03  0.57004343025E+03  0.00000000000E+00 0. -1.
</event>
<event>
 7    1  0.7459264E-005  0.5043301E+02  0.7818608E-02  0.1463405E+00
          2   -1    0    0  502    0  0.00000000000E+00  0.00000000000E+00  0.66531989655E+03  0.66531989655E+03  0.00000000000E+00 0. -1.
          1   -1    0    0  501    0 -0.00000000000E+00 -0.00000000000E+00 -0.11595413705E+03  0.11595413705E+03  0.00000000000E+00 0. -1.
         25    2    1    2    0    0 -0.79890134358E+02  0.24308652172E+02  0.45184565690E+03  0.47619642684E+03  0.12500078054E+03 0.  0.
          2    1    1    2  501    0  0.35644021433E+02 -0.24811987377E+02 -0.96634215485E+02  0.10594480914E+03  0.00000000000E+00 0. -1.
          1    1    1    2  502    0  0.44246112925E+02  0.50333520497E+00  0.19415431808E+03  0.19913279761E+03  0.00000000000E+00 0. -1.
         22    1    3    3    0    0 -0.34579563375E+02 -0.25696176227E+02  0.35814196402E+03  0.36072386401E+03  0.00000000000E+00 0. -1.
         22    1    3    3    0    0 -0.45310570983E+02  0.50004828399E+02  0.93703692883E+02  0.11547256283E+03  0.00000000000E+00 0. -1.
</event>
