<LesHouchesEvents version="3.0">
<header>
<!--
#*********************************************************************
#                                                                    *
#                        MadGraph5_aMC@NLO                           *
#                                                                    *
#                           Going Beyond                             *
#                                                                    *
#                   http://madgraph.hep.uiuc.edu                     *
#                   http://madgraph.phys.ucl.ac.be                   *
#                   http://amcatnlo.cern.ch                          *
#                                                                    *
#                     The MadGraph5_aMC@NLO team                     *
#                                                                    *
#....................................................................*
#                                                                    *
# This file contains all the information necessary to reproduce      *
# the events generated:                                              *
#                                                                    *
# 1. software version                                                *
# 2. proc_card          : code generation info including model       *
# 3. param_card         : model primary parameters in the LH format  *
# 4. run_card           : running parameters (collider and cuts)     *
# 5. pythia_card        : present only if pythia has been run        *
# 6. pgs_card           : present only if pgs has been run           *
# 7. delphes_cards      : present only if delphes has been run       *
#                                                                    *
#                                                                    *
#*********************************************************************
-->
<MGVersion>
3.5.3
</MGVersion>
<MG5ProcCard>
<![CDATA[
#************************************************************
#*                     MadGraph5_aMC@NLO                    *
#*                                                          *
#*                *                       *                 *
#*                  *        * *        *                   *
#*                    * * * * 5 * * * *                     *
#*                  *        * *        *                   *
#*                *                       *                 *
#*                                                          *
#*                                                          *
#*         VERSION 3.5.3                 2023-12-23         *
#*                                                          *
#*    The MadGraph5_aMC@NLO Development Team - Find us at   *
#*    https://server06.fynu.ucl.ac.be/projects/madgraph     *
#*                                                          *
#************************************************************
#*                                                          *
#*               Command File for MadGraph5_aMC@NLO         *
#*                                                          *
#*     run as ./bin/mg5_aMC  filename                       *
#*                                                          *
#************************************************************
set group_subprocesses Auto
set ignore_six_quark_processes False
set low_mem_multicore_nlo_generation False
set complex_mass_scheme False
set include_lepton_initiated_processes False
set gauge unitary
set loop_optimized_output True
set loop_color_flows False
set max_npoint_for_channel 0
set default_unset_couplings 99
set max_t_for_channel 99
set zerowidth_tchannel True
set nlo_mixed_expansion True
import model EWdim6-full
define p = g u c d s u~ c~ d~ s~
define j = g u c d s u~ c~ d~ s~
define l+ = e+ mu+
define l- = e- mu-
define vl = ve vm vt
define vl~ = ve~ vm~ vt~
generate u d > u d h / a z QCD=0 QED=99 NP=2, h > a a QCD=0 QED=99 NP=\
0
output ./mg_processes/signal_5
]]>
</MG5ProcCard>
<MGProcCard>
#*********************************************************************
#                        MadGraph/MadEvent                           *
#                   http://madgraph.hep.uiuc.edu                     *
#                                                                    *
#                          proc_card.dat                             *
#*********************************************************************
#                                                                    *
#            This Files is generated by MADGRAPH 5                   *
#                                                                    *
# WARNING: This Files is generated for MADEVENT (compatibility issue)*
#          This files is NOT a valid MG4 proc_card.dat               *
#          Running this in MG4 will NEVER reproduce the result of MG5*
#                                                                    *
#*********************************************************************
#*********************************************************************
# Process(es) requested : mg2 input                                  *
#*********************************************************************
# Begin PROCESS # This is TAG. Do not modify this line
u d > u d h / a z , h > a a           #Process
# Be carefull the coupling are here in MG5 convention
QCD=0
QED=99
NP=2
QCD=0
QED=99
NP=0
          
end_coup           # End the couplings input

done               # this tells MG there are no more procs
# End PROCESS  # This is TAG. Do not modify this line
#*********************************************************************
# Model information                                                  *
#*********************************************************************
# Begin MODEL  # This is TAG. Do not modify this line
EWdim6-full
# End   MODEL  # This is TAG. Do not modify this line
#*********************************************************************
# Start multiparticle definitions                                    *
#*********************************************************************
# Begin MULTIPARTICLES # This is TAG. Do not modify this line

# End  MULTIPARTICLES # This is TAG. Do not modify this line
</MGProcCard>
<MGRunCard>
<![CDATA[
#*********************************************************************
#                       MadGraph5_aMC@NLO                            *
#                                                                    *
#                     run_card.dat MadEvent                          *
#                                                                    *
#  This file is used to set the parameters of the run.               *
#                                                                    *
#  Some notation/conventions:                                        *
#                                                                    *
#   Lines starting with a '# ' are info or comments                  *
#                                                                    *
#   mind the format:   value    = variable     ! comment             *
#                                                                    *
#   To display more options, you can type the command:               *
#      update full_run_card                                          *
#*********************************************************************


#*******************************
# Running parameters           *
#*******************************

#*********************************************************************
# Tag name for the run (one word)                                    *
#*********************************************************************
  tag_1    = run_tag         ! name of the run

#*********************************************************************
# Number of events and rnd seed                                      *
# Warning: Do not generate more than 1M events in a single run       *
# If you want to run Pythia, avoid more than 50k events in a run.    *
#*********************************************************************
  100  = nevents          ! Number of unweighted events requested
 21 = iseed            ! rnd seed (0=assigned automatically=default)

#*********************************************************************
# Collider type and energy                                           *
# lpp: 0=No PDF, 1=proton, -1=antiproton, 2=photon from proton,      *
#                                         3=photon from electron     *
#*********************************************************************
     1    = lpp1             ! beam 1 type
     1    = lpp2             ! beam 2 type
  6500.0  = ebeam1           ! beam 1 total energy in GeV
  6500.0  = ebeam2           ! beam 2 total energy in GeV

#*********************************************************************
# PDF CHOICE: this automatically fixes also alpha_s and its evol.    *
#*********************************************************************
  nn23lo1 = pdlabel          ! PDF set
  230000  = lhaid            ! if pdlabel=lhapdf, this is the lhapdf number

#*********************************************************************
# Renormalization and factorization scales                           *
#*********************************************************************
   False  = fixed_ren_scale  ! if .true. use fixed ren scale
   False  = fixed_fac_scale  ! if .true. use fixed fac scale
  91.188  = scale            ! fixed ren scale
  91.188  = dsqrt_q2fact1    ! fixed fact scale for pdf1
  91.188  = dsqrt_q2fact2    ! fixed fact scale for pdf2
  -1      = dynamical_scale_choice ! Choose one of the preselected dynamical choices
   1.0    = scalefact        ! scale factor for event-by-event scales

#*********************************************************************
# Type and output format                                             *
#*********************************************************************
  False   = gridpack         ! True = setting up the grid pack
  -1.0    = time_of_flight   ! threshold (in mm) below which the invariant lifetime is not written (-1 means not written)
   3.0    = lhe_version      ! Change the way clustering information pass to shower.
  True    = clusinfo         ! include clustering tag in output
   sum    = event_norm       ! average/sum. Normalization of the weight in the LHEF

#*********************************************************************
# Matching parameter (MLM only)                                      *
#*********************************************************************
  0       = ickkw            ! 0 no matching, 1 MLM
  1.0     = alpsfact         ! scale factor for QCD emission vx
  False   = chcluster        ! cluster only according to channel diag
  4       = asrwgtflavor     ! highest quark flavor for a_s reweight
  False   = auto_ptj_mjj     ! Automatic setting of ptj and mjj if xqcut >0 (turn off for VBF and single top processes)
  0.0     = xqcut            ! minimum kt jet measure between partons

#*********************************************************************
# handling of the helicities:                                        *
#  0: sum over all helicities                                        *
#  1: importance sampling over helicities                            *
#*********************************************************************
  0       = nhel             ! using helicities importance sampling or not.

#*********************************************************************
# Generation bias, check the wiki page below for more information:   *
#  'cp3.irmp.ucl.ac.be/projects/madgraph/wiki/LOEventGenerationBias' *
#*********************************************************************
  None    = bias_module      ! Bias type of bias, [None, ptj_bias, -custom_folder-]
  {}      = bias_parameters  ! Specifies the parameters of the module.


#*******************************
# Parton level cuts definition *
#*******************************

#*********************************************************************
# BW cutoff. Define on/off-shell for "$" and decay                   *
#*********************************************************************
  15.0    = bwcutoff         ! (M+/-bwcutoff*Gamma)

#*********************************************************************
# Apply pt/E/eta/dr/mij/kt_durham cuts on decay products or not
# (note that etmiss/ptll/ptheavy/ht/sorted cuts always apply)
#*********************************************************************
   False  = cut_decays       ! Cut decay products

#*********************************************************************
# Standard Cuts                                                      *
#*********************************************************************
# Minimum and maximum pt's (for max, -1 means no cut)                *
#*********************************************************************
  20.0    = ptj              ! minimum pt for the jets
   0.0    = ptb              ! minimum pt for the b
  10.0    = pta              ! minimum pt for the photons
  10.0    = ptl              ! minimum pt for the charged leptons
   0.0    = misset           ! minimum missing Et (sum of neutrino's momenta)
  -1.0    = ptjmax           ! maximum pt for the jets
  -1.0    = ptbmax           ! maximum pt for the b
  -1.0    = ptamax           ! maximum pt for the photons
  -1.0    = ptlmax           ! maximum pt for the charged leptons
  -1.0    = missetmax        ! maximum missing Et (sum of neutrino's momenta)
   {}     = pt_min_pdg       ! pt cut for other particles (use pdg code). Applied on particle and anti-particle
   {}	  = pt_max_pdg       ! pt cut for other particles (syntax e.g. {6: 100, 25: 50})

#*********************************************************************
# Minimum and maximum E's (in the center of mass frame)              *
#*********************************************************************
   0.0    = ej               ! minimum E for the jets
   0.0    = eb               ! minimum E for the b
   0.0    = ea               ! minimum E for the photons
   0.0    = el               ! minimum E for the charged leptons
  -1.0    = ejmax            ! maximum E for the jets
  -1.0    = ebmax            ! maximum E for the b
  -1.0    = eamax            ! maximum E for the photons
  -1.0    = elmax            ! maximum E for the charged leptons
    {}    = e_min_pdg        ! E cut for other particles (use pdg code). Applied on particle and anti-particle
    {}    = e_max_pdg        ! E cut for other particles (syntax e.g. {6: 100, 25: 50})

#*********************************************************************
# Maximum and minimum absolute rapidity (for max, -1 means no cut)   *
#*********************************************************************
   5.0    = etaj             ! max rap for the jets
  -1.0    = etab             ! max rap for the b
   2.5    = etaa             ! max rap for the photons
   2.5    = etal             ! max rap for the charged leptons
   0.0    = etajmin          ! min rap for the jets
   0.0    = etabmin          ! min rap for the b
   0.0    = etaamin          ! min rap for the photons
   0.0    = etalmin          ! main rap for the charged leptons
    {}    = eta_min_pdg      ! rap cut for other particles (use pdg code). Applied on particle and anti-particle
    {}    = eta_max_pdg      ! rap cut for other particles (syntax e.g. {6: 2.5, 23: 5})

#*********************************************************************
# Minimum and maximum DeltaR distance                                *
#*********************************************************************
   0.4    = drjj             ! min distance between jets
   0.0    = drbb             ! min distance between b's
   0.4    = drll             ! min distance between leptons
   0.4    = draa             ! min distance between gammas
   0.0    = drbj             ! min distance between b and jet
   0.4    = draj             ! min distance between gamma and jet
   0.4    = drjl             ! min distance between jet and lepton
   0.0    = drab             ! min distance between gamma and b
   0.0    = drbl             ! min distance between b and lepton
   0.4    = dral             ! min distance between gamma and lepton
  -1.0    = drjjmax          ! max distance between jets
  -1.0    = drbbmax          ! max distance between b's
  -1.0    = drllmax          ! max distance between leptons
  -1.0    = draamax          ! max distance between gammas
  -1.0    = drbjmax          ! max distance between b and jet
  -1.0    = drajmax          ! max distance between gamma and jet
  -1.0    = drjlmax          ! max distance between jet and lepton
  -1.0    = drabmax          ! max distance between gamma and b
  -1.0    = drblmax          ! max distance between b and lepton
  -1.0    = dralmax          ! max distance between gamma and lepton

#*********************************************************************
# Minimum and maximum invariant mass for pairs                       *
# WARNING: for four lepton final state mmll cut require to have      *
#          different lepton masses for each flavor!                  *
#*********************************************************************
    0.0   = mmjj             ! min invariant mass of a jet pair
    0.0   = mmbb             ! min invariant mass of a b pair
  120.0   = mmaa             ! min invariant mass of gamma gamma pair
    0.0   = mmll             ! min invariant mass of l+l- (same flavour) lepton pair
   -1.0   = mmjjmax          ! max invariant mass of a jet pair
   -1.0   = mmbbmax          ! max invariant mass of a b pair
  130.0   = mmaamax          ! max invariant mass of gamma gamma pair
   -1.0   = mmllmax          ! max invariant mass of l+l- (same flavour) lepton pair
     {}   = mxx_min_pdg      ! min invariant mass of a pair of particles X/X~ (e.g. {6:250})
  {'default': False} = mxx_only_part_antipart ! if True the invariant mass is applied only
                                              ! to pairs of particle/antiparticle and not to pairs of the same pdg codes.

#*********************************************************************
# Minimum and maximum invariant mass for all leptons                 *
#*********************************************************************
   0.0    = mmnl             ! min invariant mass for all leptons (l+- and vl)
  -1.0    = mmnlmax          ! max invariant mass for all leptons (l+- and vl)

#*********************************************************************
# Minimum and maximum pt for 4-momenta sum of leptons                *
#*********************************************************************
   0.0    = ptllmin          ! Minimum pt for 4-momenta sum of leptons(l and vl)
  -1.0    = ptllmax          ! Maximum pt for 4-momenta sum of leptons(l and vl)

#*********************************************************************
# Inclusive cuts                                                     *
#*********************************************************************
   0.0    = ptheavy          ! minimum pt for at least one heavy final state
   0.0    = xptj             ! minimum pt for at least one jet
   0.0    = xptb             ! minimum pt for at least one b
   0.0    = xpta             ! minimum pt for at least one photon
   0.0    = xptl             ! minimum pt for at least one charged lepton

#*********************************************************************
# Control the pt's of the jets sorted by pt                          *
#*********************************************************************
   0.0    = ptj1min          ! minimum pt for the leading jet in pt
   0.0    = ptj2min          ! minimum pt for the second jet in pt
   0.0    = ptj3min          ! minimum pt for the third jet in pt
   0.0    = ptj4min          ! minimum pt for the fourth jet in pt
  -1.0    = ptj1max          ! maximum pt for the leading jet in pt
  -1.0    = ptj2max          ! maximum pt for the second jet in pt
  -1.0    = ptj3max          ! maximum pt for the third jet in pt
  -1.0    = ptj4max          ! maximum pt for the fourth jet in pt
   0      = cutuse           ! reject event if fails any (0) / all (1) jet pt cuts

#*********************************************************************
# Control the pt's of leptons sorted by pt                           *
#*********************************************************************
   0.0    = ptl1min          ! minimum pt for the leading lepton in pt
   0.0    = ptl2min          ! minimum pt for the second lepton in pt
   0.0    = ptl3min          ! minimum pt for the third lepton in pt
   0.0    = ptl4min          ! minimum pt for the fourth lepton in pt
  -1.0    = ptl1max          ! maximum pt for the leading lepton in pt
  -1.0    = ptl2max          ! maximum pt for the second lepton in pt
  -1.0    = ptl3max          ! maximum pt for the third lepton in pt
  -1.0    = ptl4max          ! maximum pt for the fourth lepton in pt

#*********************************************************************
# Control the Ht(k)=Sum of k leading jets                            *
#*********************************************************************
   0.0    = htjmin           ! minimum jet HT=Sum(jet pt)
  -1.0    = htjmax           ! maximum jet HT=Sum(jet pt)
   0.0    = ihtmin           ! inclusive Ht for all partons (including b)
  -1.0    = ihtmax           ! inclusive Ht for all partons (including b)
   0.0    = ht2min           ! minimum Ht for the two leading jets
   0.0    = ht3min           ! minimum Ht for the three leading jets
   0.0    = ht4min           ! minimum Ht for the four leading jets
  -1.0    = ht2max           ! maximum Ht for the two leading jets
  -1.0    = ht3max           ! maximum Ht for the three leading jets
  -1.0    = ht4max           ! maximum Ht for the four leading jets

#*********************************************************************
# Photon-isolation cuts, according to hep-ph/9801442                 *
# When ptgmin=0, all the other parameters are ignored                *
# When ptgmin>0, pta and draj are not going to be used               *
#*********************************************************************
   0.0    = ptgmin           ! Min photon transverse momentum
   0.4    = R0gamma          ! Radius of isolation code
   1.0    = xn               ! n parameter of eq.(3.4) in hep-ph/9801442
   1.0    = epsgamma         ! epsilon_gamma parameter of eq.(3.4) in hep-ph/9801442
  True    = isoEM            ! isolate photons from EM energy (photons and leptons)

#*********************************************************************
# WBF cuts                                                           *
#*********************************************************************
   0.0    = xetamin          ! minimum rapidity for two jets in the WBF case
   0.0    = deltaeta         ! minimum rapidity for two jets in the WBF case

#*********************************************************************
# Turn on either the ktdurham or ptlund cut to activate              *
# CKKW(L) merging with Pythia8 [arXiv:1410.3012, arXiv:1109.4829]    *
#*********************************************************************
  -1.0    = ktdurham
   0.4    = dparameter
  -1.0    = ptlund
   1, 2, 3, 4, 5, 6, 21 = pdgs_for_merging_cut ! PDGs for two cuts above

#*********************************************************************
# maximal pdg code for quark to be considered as a light jet         *
# (otherwise b cuts are applied)                                     *
#*********************************************************************
  4       = maxjetflavor     ! Maximum jet pdg code

#*********************************************************************
# Store info for systematics studies                                 *
# WARNING: Do not use for interference type of computation           *
#*********************************************************************
#         False = use_syst              ! Enable systematics studies # Commented out by MadMiner
#   systematics = systematics_program   ! none, systematics [python], SysCalc [deprecated, C++] # Commented out by MadMiner
#   ['--mur=0.5,1,2', '--muf=0.5,1,2', '--pdf=errorset'] = systematics_arguments ! see: https://cp3.irmp.ucl.ac.be/projects/madgraph/wiki/Systematics#Systematicspythonmodule # Commented out by MadMiner


#*********************************************************************
# MadMiner systematics setup                                         *
#*********************************************************************
False = use_syst
]]>
</MGRunCard>
<slha>
######################################################################
## PARAM_CARD AUTOMATICALY GENERATED BY MG5                       ####
######################################################################
###################################
## INFORMATION FOR DIM6
###################################
BLOCK DIM6 # 
      1 0.000000e+00 # cwwwl2
      2 8.622004e-01 # madminer
      3 0.000000e+00 # cbl2
      4 0.000000e+00 # cpwwwl2
      5 1.494319e+00 # madminer
      6 0.000000e+00 # cphidl2
      7 0.000000e+00 # cphiwl2
      8 0.000000e+00 # cphibl2
###################################
## INFORMATION FOR MASS
###################################
BLOCK MASS # 
      4 1.270000e+00 # mc
      5 4.700000e+00 # mb
      6 1.720000e+02 # mt
      13 1.056600e-01 # mm
      15 1.777000e+00 # mta
      23 9.118760e+01 # mz
      25 1.250000e+02 # mh
      9000006 1.250000e+02 # mp
      1 0.000000e+00 # d : 0.0
      2 0.000000e+00 # u : 0.0
      3 0.000000e+00 # s : 0.0
      11 0.000000e+00 # e- : 0.0
      12 0.000000e+00 # ve : 0.0
      14 0.000000e+00 # vm : 0.0
      16 0.000000e+00 # vt : 0.0
      21 0.000000e+00 # g : 0.0
      22 0.000000e+00 # a : 0.0
      24 7.982436e+01 # w+ : cmath.sqrt(mz__exp__2/2. + cmath.sqrt(mz__exp__4/4. - (aew*cmath.pi*mz__exp__2)/(gf*sqrt__2)))
###################################
## INFORMATION FOR SMINPUTS
###################################
BLOCK SMINPUTS # 
      1 1.279000e+02 # aewm1
      2 1.166370e-05 # gf
      3 1.300000e-01 # as
###################################
## INFORMATION FOR WOLFENSTEIN
###################################
BLOCK WOLFENSTEIN # 
      1 0.000000e+00 # lamws
      2 0.000000e+00 # aws
      3 0.000000e+00 # rhows
      4 0.000000e+00 # etaws
###################################
## INFORMATION FOR YUKAWA
###################################
BLOCK YUKAWA # 
      4 1.270000e+00 # ymc
      5 4.700000e+00 # ymb
      6 1.720000e+02 # ymt
      13 1.056600e-01 # ymm
      15 1.777000e+00 # ymtau
###################################
## INFORMATION FOR DECAY
###################################
DECAY 6 1.508336e+00 # wt
DECAY 15 2.270000e-12 # wtau
DECAY 23 2.495200e+00 # wz
DECAY 24 2.085000e+00 # ww
DECAY 25 4.070000e-03 # wh
DECAY 9000006 4.070000e-03 # wh1
DECAY 1 0.000000e+00 # d : 0.0
DECAY 2 0.000000e+00 # u : 0.0
DECAY 3 0.000000e+00 # s : 0.0
DECAY 4 0.000000e+00 # c : 0.0
DECAY 5 0.000000e+00 # b : 0.0
DECAY 11 0.000000e+00 # e- : 0.0
DECAY 12 0.000000e+00 # ve : 0.0
DECAY 13 0.000000e+00 # mu- : 0.0
DECAY 14 0.000000e+00 # vm : 0.0
DECAY 16 0.000000e+00 # vt : 0.0
DECAY 21 0.000000e+00 # g : 0.0
DECAY 22 0.000000e+00 # a : 0.0
###################################
## INFORMATION FOR QNUMBERS 9000006
###################################
BLOCK QNUMBERS 9000006 #  h1
      1 0 # 3 times electric charge
      2 1 # number of spin states (2s+1)
      3 1 # colour rep (1: singlet, 3: triplet, 8: octet)
      4 0 # particle/antiparticle distinction (0=own anti)
</slha>
<initrwgt>
<weightgroup name='mg_reweighting' weight_name_strategy='includeIdInWeightName'>
<weight id='SM'>set param_card dim6 2 0.0 # orig: 0.8622004
set param_card dim6 5 0.0 # orig: 1.494319
</weight>
<weight id='morphing_basis_vector_1'>set param_card dim6 2 1.617186 # orig: 0.8622004
set param_card dim6 5 -0.2203044 # orig: 1.494319
</weight>
<weight id='morphing_basis_vector_2'>set param_card dim6 2 -1.412419 # orig: 0.8622004
set param_card dim6 5 -1.041613 # orig: 1.494319
</weight>
<weight id='morphing_basis_vector_3'>set param_card dim6 2 -1.30746 # orig: 0.8622004
set param_card dim6 5 1.197328 # orig: 1.494319
</weight>
<weight id='morphing_basis_vector_4'>set param_card dim6 2 0.5652848 # orig: 0.8622004
set param_card dim6 5 -1.575672 # orig: 1.494319
</weight>
</weightgroup>
</initrwgt>
<MGGenerationInfo>
#  Number of Events        :       100
#  Integrated weight (pb)  :       0.001021
</MGGenerationInfo>
</header>
<init>
2212 2212 6.500000e+03 6.500000e+03 0 0 247000 247000 -3 1
1.021000e-03 2.058900e-05 1.021000e-05 1
<generator name='MadGraph5_aMC@NLO' version='3.5.3'>please cite 1405.0301 </generator>
</init>
<event>
 7      1 +1.0210000e-05 2.85194200e+01 7.81860800e-03 1.63559000e-01
        2 -1    0    0  502    0 +0.0000000000e+00 +0.0000000000e+00 +1.3327271495e+03 1.3327271495e+03 0.0000000000e+00 0.0000e+00 -1.0000e+00
        1 -1    0    0  501    0 -0.0000000000e+00 -0.0000000000e+00 -8.3081933370e+00 8.3081933370e+00 0.0000000000e+00 0.0000e+00 -1.0000e+00
       25  2    1    2    0    0 +1.0016767698e+01 +3.0201449728e+01 +1.1703618605e+03 1.1774472921e+03 1.2499111223e+02 0.0000e+00 0.0000e+00
        2  1    1    2  501    0 +1.4730083901e+01 -2.4919419828e+01 +6.8445262293e+01 7.4314916313e+01 0.0000000000e+00 0.0000e+00 -1.0000e+00
        1  1    1    2  502    0 -2.4746851599e+01 -5.2820299004e+00 +8.5611833450e+01 8.9273134429e+01 0.0000000000e+00 0.0000e+00 -1.0000e+00
       22  1    3    3    0    0 -3.4062347723e+01 -3.1125534656e+01 +2.6916129460e+02 2.7308761406e+02 0.0000000000e+00 0.0000e+00 1.0000e+00
       22  1    3    3    0    0 +4.4079115421e+01 +6.1326984385e+01 +9.0120056586e+02 9.0435967808e+02 0.0000000000e+00 0.0000e+00 1.0000e+00
<rwgt>
<wgt id='SM'> +9.6943329e-06 </wgt>
<wgt id='morphing_basis_vector_1'> +9.7104614e-06 </wgt>
<wgt id='morphing_basis_vector_2'> +9.3047588e-06 </wgt>
<wgt id='morphing_basis_vector_3'> +1.0008767e-05 </wgt>
<wgt id='morphing_basis_vector_4'> +9.2490823e-06 </wgt>
</rwgt>
</event>
<event>
 7      1 +1.0210000e-05 1.37186100e+02 7.81860800e-03 1.32258600e-01
        2 -1    0    0  502    0 +0.0000000000e+00 +0.0000000000e+00 +1.5215084387e+03 1.5215084387e+03 0.0000000000e+00 0.0000e+00 -1.0000e+00
        1 -1    0    0  501    0 -0.0000000000e+00 -0.0000000000e+00 -4.2598695977e+01 4.2598695977e+01 0.0000000000e+00 0.0000e+00 -1.0000e+00
       25  2    1    2    0    0 -1.7851491261e+02 -2.9082528991e+01 +3.5260115296e+02 4.1553096135e+02 1.2500015704e+02 0.0000e+00 0.0000e+00
        2  1    1    2  501    0 +4.8870960116e+01 +7.2131538489e+00 +7.9885895838e+01 9.3926336482e+01 0.0000000000e+00 0.0000e+00 -1.0000e+00
        1  1    1    2  502    0 +1.2964395249e+02 +2.1869375142e+01 +1.0464226940e+03 1.0546498369e+03 0.0000000000e+00 0.0000e+00 -1.0000e+00
       22  1    3    3    0    0 -4.0776387014e+01 +1.6201604302e+01 +1.2207128817e+01 4.5543602337e+01 0.0000000000e+00 0.0000e+00 -1.0000e+00
       22  1    3    3    0    0 -1.3773852559e+02 -4.5284133294e+01 +3.4039402414e+02 3.6998735902e+02 0.0000000000e+00 0.0000e+00 -1.0000e+00
<rwgt>
<wgt id='SM'> +1.1280000e-05 </wgt>
<wgt id='morphing_basis_vector_1'> +9.2413106e-06 </wgt>
<wgt id='morphing_basis_vector_2'> +1.3346910e-05 </wgt>
<wgt id='morphing_basis_vector_3'> +1.3105711e-05 </wgt>
<wgt id='morphing_basis_vector_4'> +1.0741862e-05 </wgt>
</rwgt>
</event>
<event>
 7      1 +1.0210000e-05 5.44502400e+01 7.81860800e-03 1.43669200e-01
        2 -1    0    0  502    0 +0.0000000000e+00 +0.0000000000e+00 +1.7041823154e+03 1.7041823154e+03 0.0000000000e+00 0.0000e+00 -1.0000e+00
        1 -1    0    0  501    0 -0.0000000000e+00 -0.0000000000e+00 -1.3155362132e+02 1.3155362132e+02 0.0000000000e+00 0.0000e+00 -1.0000e+00
       25  2    1    2    0    0 -1.8470623555e+01 +1.7174838052e+01 +1.1275951833e+03 1.1347826811e+03 1.2499878764e+02 0.0000e+00 0.0000e+00
        2  1    1    2  501    0 -3.2999171742e+01 +3.6187944096e+01 -1.2076512717e+02 1.3031779838e+02 0.0000000000e+00 0.0000e+00 -1.0000e+00
        1  1    1    2  502    0 +5.1469795297e+01 -5.3362782148e+01 +5.6579863797e+02 5.7063545726e+02 0.0000000000e+00 0.0000e+00 -1.0000e+00
       22  1    3    3    0    0 -1.0768122402e+00 -5.3767410542e+01 +5.3761929167e+02 5.4030231976e+02 0.0000000000e+00 0.0000e+00 1.0000e+00
       22  1    3    3    0    0 -1.7393811315e+01 +7.0942248594e+01 +5.8997589164e+02 5.9448036134e+02 0.0000000000e+00 0.0000e+00 1.0000e+00
<rwgt>
<wgt id='SM'> +1.0231870e-05 </wgt>
<wgt id='morphing_basis_vector_1'> +1.0162987e-05 </wgt>
<wgt id='morphing_basis_vector_2'> +1.0282405e-05 </wgt>
<wgt id='morphing_basis_vector_3'> +1.0297272e-05 </wgt>
<wgt id='morphing_basis_vector_4'> +1.0196578e-05 </wgt>
</rwgt>
</event>
<event>
 7      1 +1.0210000e-05 1.19746400e+02 7.81860800e-03 1.36285400e-01
        2 -1    0    0  502    0 +0.0000000000e+00 +0.0000000000e+00 +5.3751078884e+02 5.3751078884e+02 0.0000000000e+00 0.0000e+00 -1.0000e+00
        1 -1    0    0  501    0 -0.0000000000e+00 -0.0000000000e+00 -1.5119023800e+03 1.5119023800e+03 0.0000000000e+00 0.0000e+00 -1.0000e+00
       25  2    1    2    0    0 +1.9966654113e+01 -1.2460255106e+02 -1.0521858772e+01 1.7793056064e+02 1.2499644751e+02 0.0000e+00 0.0000e+00
        2  1    1    2  501    0 +1.9491986432e+01 +1.1814507118e+02 -1.4142604764e+03 1.4193205735e+03 0.0000000000e+00 0.0000e+00 -1.0000e+00
        1  1    1    2  502    0 -3.9458640545e+01 +6.4574798782e+00 +4.5039074398e+02 4.5216203470e+02 0.0000000000e+00 0.0000e+00 -1.0000e+00
       22  1    3    3    0    0 -1.1297958647e+00 -9.9647676927e+01 -6.1700985884e+01 1.1720899119e+02 0.0000000000e+00 0.0000e+00 1.0000e+00
       22  1    3    3    0    0 +2.1096449978e+01 -2.4954874134e+01 +5.1179127112e+01 6.0721569451e+01 0.0000000000e+00 0.0000e+00 1.0000e+00
<rwgt>
<wgt id='SM'> +1.0710619e-05 </wgt>
<wgt id='morphing_basis_vector_1'> +1.0465946e-05 </wgt>
<wgt id='morphing_basis_vector_2'> +1.1218879e-05 </wgt>
<wgt id='morphing_basis_vector_3'> +1.0672236e-05 </wgt>
<wgt id='morphing_basis_vector_4'> +1.0975274e-05 </wgt>
</rwgt>
</event>
<event>
 7      1 +1.0210000e-05 1.08073500e+02 7.81860800e-03 1.39072300e-01
        2 -1    0    0  502    0 +0.0000000000e+00 +0.0000000000e+00 +7.6586485180e+02 7.6586485180e+02 0.0000000000e+00 0.0000e+00 -1.0000e+00
        1 -1    0    0  501    0 -0.0000000000e+00 -0.0000000000e+00 -2.1511425295e+03 2.1511425295e+03 0.0000000000e+00 0.0000e+00 -1.0000e+00
       25  2    1    2    0    0 -6.2005912951e+01 +7.8601321394e+01 -3.0762106910e+00 1.6017815517e+02 1.2499870941e+02 0.0000e+00 0.0000e+00
        2  1    1    2  501    0 +9.1066867611e+01 -5.8639983607e+01 -2.0676447631e+03 2.0704798208e+03 0.0000000000e+00 0.0000e+00 -1.0000e+00
        1  1    1    2  502    0 -2.9060954660e+01 -1.9961337787e+01 +6.8544329606e+02 6.8634940534e+02 0.0000000000e+00 0.0000e+00 -1.0000e+00
       22  1    3    3    0    0 +1.2126202145e+01 +4.6894545665e+01 +4.5159248479e+01 6.6223114656e+01 0.0000000000e+00 0.0000e+00 1.0000e+00
       22  1    3    3    0    0 -7.4132115095e+01 +3.1706775730e+01 -4.8235459170e+01 9.3955040509e+01 0.0000000000e+00 0.0000e+00 1.0000e+00
<rwgt>
<wgt id='SM'> +1.0070751e-05 </wgt>
<wgt id='morphing_basis_vector_1'> +9.8687840e-06 </wgt>
<wgt id='morphing_basis_vector_2'> +1.0058938e-05 </wgt>
<wgt id='morphing_basis_vector_3'> +1.0393608e-05 </wgt>
<wgt id='morphing_basis_vector_4'> +9.7723794e-06 </wgt>
</rwgt>
</event>
<event>
 7      1 +1.0210000e-05 4.21197800e+01 7.81860800e-03 1.49586300e-01
        2 -1    0    0  502    0 +0.0000000000e+00 +0.0000000000e+00 +1.1317623177e+02 1.1317623177e+02 0.0000000000e+00 0.0000e+00 -1.0000e+00
        1 -1    0    0  501    0 -0.0000000000e+00 -0.0000000000e+00 -1.0475091917e+03 1.0475091917e+03 0.0000000000e+00 0.0000e+00 -1.0000e+00
       25  2    1    2    0    0 -2.0560210094e+00 +2.3345622805e-01 -1.6628520413e+02 2.0803862262e+02 1.2500007066e+02 0.0000e+00 0.0000e+00
        2  1    1    2  501    0 -3.4943214455e+01 +2.2092086774e+01 -8.5476225538e+02 8.5576141637e+02 0.0000000000e+00 0.0000e+00 -1.0000e+00
        1  1    1    2  502    0 +3.6999235464e+01 -2.2325543002e+01 +8.6714499555e+01 9.6885384493e+01 0.0000000000e+00 0.0000e+00 -1.0000e+00
       22  1    3    3    0    0 -5.5889961482e+01 +2.7660406017e+01 -6.4814761613e+01 8.9942977371e+01 0.0000000000e+00 0.0000e+00 -1.0000e+00
       22  1    3    3    0    0 +5.3833940473e+01 -2.7426949789e+01 -1.0147044252e+02 1.1809564525e+02 0.0000000000e+00 0.0000e+00 -1.0000e+00
<rwgt>
<wgt id='SM'> +1.0206422e-05 </wgt>
<wgt id='morphing_basis_vector_1'> +1.0207367e-05 </wgt>
<wgt id='morphing_basis_vector_2'> +1.0203266e-05 </wgt>
<wgt id='morphing_basis_vector_3'> +1.0207604e-05 </wgt>
<wgt id='morphing_basis_vector_4'> +1.0203931e-05 </wgt>
</rwgt>
</event>
<event>
 7      1 +1.0210000e-05 6.22133300e+01 7.81860800e-03 1.54232100e-01
        2 -1    0    0  502    0 +0.0000000000e+00 +0.0000000000e+00 +7.1990837209e+02 7.1990837209e+02 0.0000000000e+00 0.0000e+00 -1.0000e+00
        1 -1    0    0  501    0 -0.0000000000e+00 -0.0000000000e+00 -1.2448427625e+03 1.2448427625e+03 0.0000000000e+00 0.0000e+00 -1.0000e+00
       25  2    1    2    0    0 +7.7933956384e+01 -5.2681849646e+00 -1.7091569305e+02 2.2569779892e+02 1.2500346785e+02 0.0000e+00 0.0000e+00
        2  1    1    2  501    0 -1.7782762179e+01 -1.0210688204e+01 -1.0450425747e+03 1.0452437360e+03 0.0000000000e+00 0.0000e+00 -1.0000e+00
        1  1    1    2  502    0 -6.0151194205e+01 +1.5478873168e+01 +6.9102387728e+02 6.9380959971e+02 0.0000000000e+00 0.0000e+00 -1.0000e+00
       22  1    3    3    0    0 -2.3337304896e+00 +3.0357166785e+00 -1.3878883497e+02 1.3884164572e+02 0.0000000000e+00 0.0000e+00 1.0000e+00
       22  1    3    3    0    0 +8.0267686874e+01 -8.3039016431e+00 -3.2126858080e+01 8.6856153200e+01 0.0000000000e+00 0.0000e+00 1.0000e+00
<rwgt>
<wgt id='SM'> +1.0206903e-05 </wgt>
<wgt id='morphing_basis_vector_1'> +1.0090136e-05 </wgt>
<wgt id='morphing_basis_vector_2'> +1.0259075e-05 </wgt>
<wgt id='morphing_basis_vector_3'> +1.0343469e-05 </wgt>
<wgt id='morphing_basis_vector_4'> +1.0105295e-05 </wgt>
</rwgt>
</event>
<event>
 7      1 +1.0210000e-05 3.71096800e+01 7.81860800e-03 1.58686300e-01
        2 -1    0    0  502    0 +0.0000000000e+00 +0.0000000000e+00 +1.7543905118e+03 1.7543905118e+03 0.0000000000e+00 0.0000e+00 -1.0000e+00
        1 -1    0    0  501    0 -0.0000000000e+00 -0.0000000000e+00 -1.5658390777e+01 1.5658390777e+01 0.0000000000e+00 0.0000e+00 -1.0000e+00
       25  2    1    2    0    0 +3.2803350763e+01 -4.7053393426e+01 +1.3347113599e+03 1.3417786459e+03 1.2500175411e+02 0.0000e+00 0.0000e+00
        2  1    1    2  501    0 -8.0658478608e+00 +2.4679419164e+01 +3.3105694296e+00 2.6174252653e+01 0.0000000000e+00 0.0000e+00 -1.0000e+00
        1  1    1    2  502    0 -2.4737502902e+01 +2.2373974262e+01 +4.0071019169e+02 4.0209600409e+02 0.0000000000e+00 0.0000e+00 -1.0000e+00
       22  1    3    3    0    0 +6.0527358045e+01 -7.4738413056e+01 +1.0477993703e+03 1.0522038357e+03 0.0000000000e+00 0.0000e+00 -1.0000e+00
       22  1    3    3    0    0 -2.7724007282e+01 +2.7685019630e+01 +2.8691198959e+02 2.8957481014e+02 0.0000000000e+00 0.0000e+00 -1.0000e+00
<rwgt>
<wgt id='SM'> +1.0408999e-05 </wgt>
<wgt id='morphing_basis_vector_1'> +1.0237398e-05 </wgt>
<wgt id='morphing_basis_vector_2'> +1.0643848e-05 </wgt>
<wgt id='morphing_basis_vector_3'> +1.0480423e-05 </wgt>
<wgt id='morphing_basis_vector_4'> +1.0449957e-05 </wgt>
</rwgt>
</event>
<event>
 7      1 +1.0210000e-05 6.97250500e+01 7.81860800e-03 1.37058600e-01
        2 -1    0    0  502    0 +0.0000000000e+00 +0.0000000000e+00 +5.0151179438e+02 5.0151179438e+02 0.0000000000e+00 0.0000e+00 -1.0000e+00
        1 -1    0    0  501    0 -0.0000000000e+00 -0.0000000000e+00 -3.7946510576e+02 3.7946510576e+02 0.0000000000e+00 0.0000e+00 -1.0000e+00
       25  2    1    2    0    0 -1.1797029454e+02 +8.4284902896e+00 +1.0314495947e+01 1.7239145661e+02 1.2499758255e+02 0.0000e+00 0.0000e+00
        2  1    1    2  501    0 +5.4584245687e+01 -3.4156587629e+01 -2.9204251854e+02 2.9905675881e+02 0.0000000000e+00 0.0000e+00 -1.0000e+00
        1  1    1    2  502    0 +6.3386048856e+01 +2.5728097339e+01 +4.0377471121e+02 4.0952868471e+02 0.0000000000e+00 0.0000e+00 -1.0000e+00
       22  1    3    3    0    0 -8.2221876069e+01 -5.5044376494e+01 +1.0874552673e+01 9.9541831326e+01 0.0000000000e+00 0.0000e+00 1.0000e+00
       22  1    3    3    0    0 -3.5748418474e+01 +6.3472866784e+01 -5.6005672586e-01 7.2849625288e+01 0.0000000000e+00 0.0000e+00 1.0000e+00
<rwgt>
<wgt id='SM'> +1.0663624e-05 </wgt>
<wgt id='morphing_basis_vector_1'> +1.0403618e-05 </wgt>
<wgt id='morphing_basis_vector_2'> +1.1141683e-05 </wgt>
<wgt id='morphing_basis_vector_3'> +1.0673515e-05 </wgt>
<wgt id='morphing_basis_vector_4'> +1.0869927e-05 </wgt>
</rwgt>
</event>
<event>
 7      1 +1.0210000e-05 8.22233000e+01 7.81860800e-03 1.32838200e-01
        2 -1    0    0  502    0 +0.0000000000e+00 +0.0000000000e+00 +7.2500260042e+02 7.2500260042e+02 0.0000000000e+00 0.0000e+00 -1.0000e+00
        1 -1    0    0  501    0 -0.0000000000e+00 -0.0000000000e+00 -2.0730126378e+02 2.0730126378e+02 0.0000000000e+00 0.0000e+00 -1.0000e+00
       25  2    1    2    0    0 -1.0749399517e+02 +8.0910524431e+01 +2.2212378942e+01 1.8498234583e+02 1.2499442599e+02 0.0000e+00 0.0000e+00
        2  1    1    2  501    0 +2.6699289711e+01 -7.3604506513e+01 -1.1077588202e+02 1.3565312929e+02 0.0000000000e+00 0.0000e+00 -1.0000e+00
        1  1    1    2  502    0 +8.0794705462e+01 -7.3060179177e+00 +6.0626483971e+02 6.1166838908e+02 0.0000000000e+00 0.0000e+00 -1.0000e+00
       22  1    3    3    0    0 -1.3064509777e+02 +7.4275017006e+01 -2.7341580259e+00 1.5030766895e+02 0.0000000000e+00 0.0000e+00 -1.0000e+00
       22  1    3    3    0    0 +2.3151102601e+01 +6.6355074247e+00 +2.4946536968e+01 3.4674676886e+01 0.0000000000e+00 0.0000e+00 -1.0000e+00
<rwgt>
<wgt id='SM'> +1.1016395e-05 </wgt>
<wgt id='morphing_basis_vector_1'> +1.0642826e-05 </wgt>
<wgt id='morphing_basis_vector_2'> +1.1835689e-05 </wgt>
<wgt id='morphing_basis_vector_3'> +1.0929525e-05 </wgt>
<wgt id='morphing_basis_vector_4'> +1.1466577e-05 </wgt>
</rwgt>
</event>
<event>
 7      1 +1.0210000e-05 6.11607500e+01 7.81860800e-03 1.49569400e-01
        2 -1    0    0  502    0 +0.0000000000e+00 +0.0000000000e+00 +6.0627030414e+02 6.0627030414e+02 0.0000000000e+00 0.0000e+00 -1.0000e+00
        1 -1    0    0  501    0 -0.0000000000e+00 -0.0000000000e+00 -2.4525244687e+02 2.4525244687e+02 0.0000000000e+00 0.0000e+00 -1.0000e+00
       25  2    1    2    0    0 -1.9343420697e+01 -3.6624428130e+01 +2.6079469873e+01 1.3424098499e+02 1.2499994657e+02 0.0000e+00 0.0000e+00
        2  1    1    2  501    0 +4.7551204662e+01 +4.0720867615e+01 -1.8564596533e+02 1.9591766273e+02 0.0000000000e+00 0.0000e+00 -1.0000e+00
        1  1    1    2  502    0 -2.8207783965e+01 -4.0964394849e+00 +5.2058435273e+02 5.2136410329e+02 0.0000000000e+00 0.0000e+00 -1.0000e+00
       22  1    3    3    0    0 +3.4608615221e+01 +2.9993338219e+01 +5.9230969404e+00 4.6178346250e+01 0.0000000000e+00 0.0000e+00 -1.0000e+00
       22  1    3    3    0    0 -5.3952035918e+01 -6.6617766348e+01 +2.0156372932e+01 8.8062638745e+01 0.0000000000e+00 0.0000e+00 -1.0000e+00
<rwgt>
<wgt id='SM'> +1.0302438e-05 </wgt>
<wgt id='morphing_basis_vector_1'> +1.0276282e-05 </wgt>
<wgt id='morphing_basis_vector_2'> +1.0385740e-05 </wgt>
<wgt id='morphing_basis_vector_3'> +1.0273850e-05 </wgt>
<wgt id='morphing_basis_vector_4'> +1.0366586e-05 </wgt>
</rwgt>
</event>
<event>
 7      1 +1.0210000e-05 6.17812800e+01 7.81860800e-03 1.45970000e-01
        2 -1    0    0  502    0 +0.0000000000e+00 +0.0000000000e+00 +9.1015400261e+01 9.1015400261e+01 0.0000000000e+00 0.0000e+00 -1.0000e+00
        1 -1    0    0  501    0 -0.0000000000e+00 -0.0000000000e+00 -3.3752366481e+03 3.3752366481e+03 0.0000000000e+00 0.0000e+00 -1.0000e+00
       25  2    1    2    0    0 +1.2266821220e+01 -4.5305525421e+01 -1.0603215182e+03 1.0686953368e+03 1.2499974178e+02 0.0000e+00 0.0000e+00
        2  1    1    2  501    0 +2.0726876497e+01 +6.0720531242e+01 -2.3064439159e+03 2.3073361531e+03 0.0000000000e+00 0.0000e+00 -1.0000e+00
        1  1    1    2  502    0 -3.2993697716e+01 -1.5415005821e+01 +8.2544186209e+01 9.0220558469e+01 0.0000000000e+00 0.0000e+00 -1.0000e+00
       22  1    3    3    0    0 +6.7566870458e+01 -3.3446964729e+01 -5.2312704000e+02 5.2853181684e+02 0.0000000000e+00 0.0000e+00 -1.0000e+00
       22  1    3    3    0    0 -5.5300049239e+01 -1.1858560691e+01 -5.3719447817e+02 5.4016351994e+02 0.0000000000e+00 0.0000e+00 -1.0000e+00
<rwgt>
<wgt id='SM'> +1.0371140e-05 </wgt>
<wgt id='morphing_basis_vector_1'> +1.0335400e-05 </wgt>
<wgt id='morphing_basis_vector_2'> +1.0512162e-05 </wgt>
<wgt id='morphing_basis_vector_3'> +1.0309900e-05 </wgt>
<wgt id='morphing_basis_vector_4'> +1.0491708e-05 </wgt>
</rwgt>
</event>
<event>
 7      1 +1.0210000e-05 1.15248400e+02 7.81860800e-03 1.29685800e-01
        2 -1    0    0  502    0 +0.0000000000e+00 +0.0000000000e+00 +1.9830490295e+02 1.9830490295e+02 0.0000000000e+00 0.0000e+00 -1.0000e+00
        1 -1    0    0  501    0 -0.0000000000e+00 -0.0000000000e+00 -4.0597089002e+02 4.0597089002e+02 0.0000000000e+00 0.0000e+00 -1.0000e+00
       25  2    1    2    0    0 -1.1409769053e+01 +6.4474626469e+01 -3.2681313086e+01 1.4484402322e+02 1.2499825019e+02 0.0000e+00 0.0000e+00
        2  1    1    2  501    0 +7.3309217279e+01 -1.0552846653e+02 -2.9302908211e+02 3.1996334407e+02 0.0000000000e+00 0.0000e+00 -1.0000e+00
        1  1    1    2  502    0 -6.1899448226e+01 +4.1053840065e+01 +1.1804440812e+02 1.3946842568e+02 0.0000000000e+00 0.0000e+00 -1.0000e+00
       22  1    3    3    0    0 +3.7767979583e+01 +3.3654811045e+01 +3.0485657856e+01 5.9063033474e+01 0.0000000000e+00 0.0000e+00 -1.0000e+00
       22  1    3    3    0    0 -4.9177748636e+01 +3.0819815424e+01 -6.3166970942e+01 8.5780989745e+01 0.0000000000e+00 0.0000e+00 -1.0000e+00
<rwgt>
<wgt id='SM'> +9.9424511e-06 </wgt>
<wgt id='morphing_basis_vector_1'> +9.8405504e-06 </wgt>
<wgt id='morphing_basis_vector_2'> +9.7883601e-06 </wgt>
<wgt id='morphing_basis_vector_3'> +1.0230370e-05 </wgt>
<wgt id='morphing_basis_vector_4'> +9.6143253e-06 </wgt>
</rwgt>
</event>
<event>
 7      1 +1.0210000e-05 7.77153700e+01 7.81860800e-03 1.36239900e-01
        2 -1    0    0  502    0 +0.0000000000e+00 +0.0000000000e+00 +2.2431412146e+02 2.2431412146e+02 0.0000000000e+00 0.0000e+00 -1.0000e+00
        1 -1    0    0  501    0 -0.0000000000e+00 -0.0000000000e+00 -1.4333560295e+03 1.4333560295e+03 0.0000000000e+00 0.0000e+00 -1.0000e+00
       25  2    1    2    0    0 +2.4799108652e+01 -4.9882255637e+00 -4.9893821042e+01 1.3694527568e+02 1.2499894787e+02 0.0000e+00 0.0000e+00
        2  1    1    2  501    0 -5.0193719075e+01 +6.1376784096e+01 -1.3334354957e+03 1.3357906798e+03 0.0000000000e+00 0.0000e+00 -1.0000e+00
        1  1    1    2  502    0 +2.5394610423e+01 -5.6388558532e+01 +1.7428740877e+02 1.8493419540e+02 0.0000000000e+00 0.0000e+00 -1.0000e+00
       22  1    3    3    0    0 +1.7416386271e+01 -9.9645762612e+00 +4.0984008739e+01 4.5632359824e+01 0.0000000000e+00 0.0000e+00 -1.0000e+00
       22  1    3    3    0    0 +7.3827223810e+00 +4.9763506975e+00 -9.0877829781e+01 9.1312915853e+01 0.0000000000e+00 0.0000e+00 -1.0000e+00
<rwgt>
<wgt id='SM'> +1.0304848e-05 </wgt>
<wgt id='morphing_basis_vector_1'> +1.0310883e-05 </wgt>
<wgt id='morphing_basis_vector_2'> +1.0375035e-05 </wgt>
<wgt id='morphing_basis_vector_3'> +1.0237913e-05 </wgt>
<wgt id='morphing_basis_vector_4'> +1.0398674e-05 </wgt>
</rwgt>
</event>
<event>
 7      1 +1.0210000e-05 7.44238800e+01 7.81860800e-03 1.41783200e-01
        2 -1    0    0  502    0 +0.0000000000e+00 +0.0000000000e+00 +1.0359899138e+03 1.0359899138e+03 0.0000000000e+00 0.0000e+00 -1.0000e+00
        1 -1    0    0  501    0 -0.0000000000e+00 -0.0000000000e+00 -1.0304726372e+03 1.0304726372e+03 0.0000000000e+00 0.0000e+00 -1.0000e+00
       25  2    1    2    0    0 +2.6775273060e+01 +3.1151417696e+01 +8.2192226562e+01 1.5513755053e+02 1.2499908562e+02 0.0000e+00 0.0000e+00
        2  1    1    2  501    0 -2.0430717448e+01 -7.2023394225e+01 -9.9212270162e+02 9.9494333437e+02 0.0000000000e+00 0.0000e+00 -1.0000e+00
        1  1    1    2  502    0 -6.3445556125e+00 +4.0871976530e+01 +9.1544775173e+02 9.1638166612e+02 0.0000000000e+00 0.0000e+00 -1.0000e+00
       22  1    3    3    0    0 -3.7289238615e+01 +3.7503800254e+01 +2.8519696444e+00 5.2963724197e+01 0.0000000000e+00 0.0000e+00 1.0000e+00
       22  1    3    3    0    0 +6.4064511675e+01 -6.3523825583e+00 +7.9340256918e+01 1.0217382634e+02 0.0000000000e+00 0.0000e+00 1.0000e+00
<rwgt>
<wgt id='SM'> +1.0139131e-05 </wgt>
<wgt id='morphing_basis_vector_1'> +1.0099876e-05 </wgt>
<wgt id='morphing_basis_vector_2'> +1.0103282e-05 </wgt>
<wgt id='morphing_basis_vector_3'> +1.0229085e-05 </wgt>
<wgt id='morphing_basis_vector_4'> +1.0040389e-05 </wgt>
</rwgt>
</event>
<event>
 7      1 +1.0210000e-05 8.92874200e+01 7.81860800e-03 1.33653100e-01
        2 -1    0    0  502    0 +0.0000000000e+00 +0.0000000000e+00 +6.1726156989e+02 6.1726156989e+02 0.0000000000e+00 0.0000e+00 -1.0000e+00
        1 -1    0    0  501    0 -0.0000000000e+00 -0.0000000000e+00 -6.7176698960e+02 6.7176698960e+02 0.0000000000e+00 0.0000e+00 -1.0000e+00
       25  2    1    2    0    0 +9.2124877774e+01 -2.7273921698e+01 -1.7536431417e+02 2.3581464893e+02 1.2500018422e+02 0.0000e+00 0.0000e+00
        2  1    1    2  501    0 -4.8007900990e+01 +7.7875775882e+01 -4.5973632426e+02 4.6875034173e+02 0.0000000000e+00 0.0000e+00 -1.0000e+00
        1  1    1    2  502    0 -4.4116976785e+01 -5.0601854184e+01 +5.8059521872e+02 5.8446356883e+02 0.0000000000e+00 0.0000e+00 -1.0000e+00
       22  1    3    3    0    0 +2.5890460358e+01 +2.6081324903e-01 +1.6688333822e+01 3.0803968038e+01 0.0000000000e+00 0.0000e+00 1.0000e+00
       22  1    3    3    0    0 +6.6234417416e+01 -2.7534734947e+01 -1.9205264799e+02 2.0501068089e+02 0.0000000000e+00 0.0000e+00 1.0000e+00
<rwgt>
<wgt id='SM'> +1.0793541e-05 </wgt>
<wgt id='morphing_basis_vector_1'> +1.0651799e-05 </wgt>
<wgt id='morphing_basis_vector_2'> +1.1319127e-05 </wgt>
<wgt id='morphing_basis_vector_3'> +1.0583377e-05 </wgt>
<wgt id='morphing_basis_vector_4'> +1.1227781e-05 </wgt>
</rwgt>
</event>
<event>
 7      1 +1.0210000e-05 1.70485200e+02 7.81860800e-03 1.36212000e-01
        2 -1    0    0  502    0 +0.0000000000e+00 +0.0000000000e+00 +3.1964113643e+02 3.1964113643e+02 0.0000000000e+00 0.0000e+00 -1.0000e+00
        1 -1    0    0  501    0 -0.0000000000e+00 -0.0000000000e+00 -1.8154914187e+03 1.8154914187e+03 0.0000000000e+00 0.0000e+00 -1.0000e+00
       25  2    1    2    0    0 +1.5363438476e+02 -1.7062738608e+01 +5.5628801178e+01 2.0642906512e+02 1.2499493659e+02 0.0000e+00 0.0000e+00
        2  1    1    2  501    0 +2.2887972484e+01 -1.6570691255e+01 -1.6971457263e+03 1.6973809424e+03 0.0000000000e+00 0.0000e+00 -1.0000e+00
        1  1    1    2  502    0 -1.7652235725e+02 +3.3633429864e+01 +1.4566664287e+02 2.3132254766e+02 0.0000000000e+00 0.0000e+00 -1.0000e+00
       22  1    3    3    0    0 +1.4925111729e+02 -2.8059980629e+01 +2.3846320991e+00 1.5188464371e+02 0.0000000000e+00 0.0000e+00 -1.0000e+00
       22  1    3    3    0    0 +4.3832674773e+00 +1.0997242021e+01 +5.3244169079e+01 5.4544421408e+01 0.0000000000e+00 0.0000e+00 -1.0000e+00
<rwgt>
<wgt id='SM'> +1.0403981e-05 </wgt>
<wgt id='morphing_basis_vector_1'> +9.6716480e-06 </wgt>
<wgt id='morphing_basis_vector_2'> +1.0906283e-05 </wgt>
<wgt id='morphing_basis_vector_3'> +1.1148088e-05 </wgt>
<wgt id='morphing_basis_vector_4'> +9.9603112e-06 </wgt>
</rwgt>
</event>
<event>
 7      1 +1.0210000e-05 4.23108200e+01 7.81860800e-03 1.52990300e-01
        2 -1    0    0  502    0 +0.0000000000e+00 +0.0000000000e+00 +8.2694968625e+02 8.2694968625e+02 0.0000000000e+00 0.0000e+00 -1.0000e+00
        1 -1    0    0  501    0 -0.0000000000e+00 -0.0000000000e+00 -4.5896840523e+02 4.5896840523e+02 0.0000000000e+00 0.0000e+00 -1.0000e+00
       25  2    1    2    0    0 -7.9512651761e+00 +8.5541557660e+00 +1.9578173651e+01 1.2706363881e+02 1.2500186889e+02 0.0000e+00 0.0000e+00
        2  1    1    2  501    0 +1.2474138894e+01 -4.0943461321e+01 -4.0373913955e+02 4.0600155661e+02 0.0000000000e+00 0.0000e+00 -1.0000e+00
        1  1    1    2  502    0 -4.5228737177e+00 +3.2389305555e+01 +7.5214224692e+02 7.5285289606e+02 0.0000000000e+00 0.0000e+00 -1.0000e+00
       22  1    3    3    0    0 -5.8207052331e+01 -1.1737528526e+01 -1.6895709940e+01 6.1735690904e+01 0.0000000000e+00 0.0000e+00 -1.0000e+00
       22  1    3    3    0    0 +5.0255787155e+01 +2.0291684292e+01 +3.6473883591e+01 6.5327947911e+01 0.0000000000e+00 0.0000e+00 -1.0000e+00
<rwgt>
<wgt id='SM'> +1.0226293e-05 </wgt>
<wgt id='morphing_basis_vector_1'> +1.0226066e-05 </wgt>
<wgt id='morphing_basis_vector_2'> +1.0238886e-05 </wgt>
<wgt id='morphing_basis_vector_3'> +1.0216249e-05 </wgt>
<wgt id='morphing_basis_vector_4'> +1.0241268e-05 </wgt>
</rwgt>
</event>
<event>
 7      1 +1.0210000e-05 1.93060200e+02 7.81860800e-03 1.25275100e-01
        2 -1    0    0  502    0 +0.0000000000e+00 +0.0000000000e+00 +1.6029268334e+03 1.6029268334e+03 0.0000000000e+00 0.0000e+00 -1.0000e+00
        1 -1    0    0  501    0 -0.0000000000e+00 -0.0000000000e+00 -9.8203652910e+02 9.8203652910e+02 0.0000000000e+00 0.0000e+00 -1.0000e+00
       25  2    1    2    0    0 +9.6966583811e+00 +1.2733928795e+02 -1.4262462883e+02 2.2864217860e+02 1.2500456650e+02 0.0000e+00 0.0000e+00
        2  1    1    2  501    0 -1.3236786847e+00 +6.7695713275e+01 -7.8883970161e+02 7.9174019512e+02 0.0000000000e+00 0.0000e+00 -1.0000e+00
        1  1    1    2  502    0 -8.3729796965e+00 -1.9503500122e+02 +1.5523546347e+03 1.5645809888e+03 0.0000000000e+00 0.0000e+00 -1.0000e+00
       22  1    3    3    0    0 -3.1809840695e+01 -6.8796200127e+00 -5.2370329773e+01 6.1659115929e+01 0.0000000000e+00 0.0000e+00 -1.0000e+00
       22  1    3    3    0    0 +4.1506499076e+01 +1.3421890796e+02 -9.0254299060e+01 1.6698306267e+02 0.0000000000e+00 0.0000e+00 -1.0000e+00
<rwgt>
<wgt id='SM'> +1.0400209e-05 </wgt>
<wgt id='morphing_basis_vector_1'> +1.0160438e-05 </wgt>
<wgt id='morphing_basis_vector_2'> +1.0660708e-05 </wgt>
<wgt id='morphing_basis_vector_3'> +1.0556228e-05 </wgt>
<wgt id='morphing_basis_vector_4'> +1.0374658e-05 </wgt>
</rwgt>
</event>
<event>
 7      1 +1.0210000e-05 8.23815600e+01 7.81860800e-03 1.37990000e-01
        2 -1    0    0  502    0 +0.0000000000e+00 +0.0000000000e+00 +1.2700147482e+02 1.2700147482e+02 0.0000000000e+00 0.0000e+00 -1.0000e+00
        1 -1    0    0  501    0 -0.0000000000e+00 -0.0000000000e+00 -3.4289068124e+02 3.4289068124e+02 0.0000000000e+00 0.0000e+00 -1.0000e+00
       25  2    1    2    0    0 -3.2458896834e+01 +8.5934969244e+01 -6.0951886280e+01 1.6666804314e+02 1.2499882096e+02 0.0000e+00 0.0000e+00
        2  1    1    2  501    0 -3.4456918079e+01 -3.6897064830e+01 -2.0174776813e+02 2.0796834986e+02 0.0000000000e+00 0.0000e+00 -1.0000e+00
        1  1    1    2  502    0 +6.6915814913e+01 -4.9037904414e+01 +4.6810447994e+01 9.5255763060e+01 0.0000000000e+00 0.0000e+00 -1.0000e+00
       22  1    3    3    0    0 -7.8059129564e+01 +4.3951297099e+01 -5.3233659687e+01 1.0420540652e+02 0.0000000000e+00 0.0000e+00 1.0000e+00
       22  1    3    3    0    0 +4.5600232730e+01 +4.1983672144e+01 -7.7182265927e+00 6.2462636619e+01 0.0000000000e+00 0.0000e+00 1.0000e+00
<rwgt>
<wgt id='SM'> +1.0855417e-05 </wgt>
<wgt id='morphing_basis_vector_1'> +1.0698613e-05 </wgt>
<wgt id='morphing_basis_vector_2'> +1.1439022e-05 </wgt>
<wgt id='morphing_basis_vector_3'> +1.0622944e-05 </wgt>
<wgt id='morphing_basis_vector_4'> +1.1336931e-05 </wgt>
</rwgt>
</event>
<event>
 7      1 +1.0210000e-05 7.53717600e+01 7.81860800e-03 1.36712300e-01
        2 -1    0    0  502    0 +0.0000000000e+00 +0.0000000000e+00 +2.9630791504e+02 2.9630791504e+02 0.0000000000e+00 0.0000e+00 -1.0000e+00
        1 -1    0    0  501    0 -0.0000000000e+00 -0.0000000000e+00 -3.5804773415e+02 3.5804773415e+02 0.0000000000e+00 0.0000e+00 -1.0000e+00
       25  2    1    2    0    0 +9.2473327289e+01 -7.4963975035e+01 +6.4373137148e+00 1.7273637794e+02 1.2500201376e+02 0.0000e+00 0.0000e+00
        2  1    1    2  501    0 -7.1438313678e+01 +1.7384681343e+01 -2.6524017481e+02 2.7524173038e+02 0.0000000000e+00 0.0000e+00 -1.0000e+00
        1  1    1    2  502    0 -2.1035013611e+01 +5.7579293691e+01 +1.9706304199e+02 2.0637754088e+02 0.0000000000e+00 0.0000e+00 -1.0000e+00
       22  1    3    3    0    0 +6.9487580139e+01 -8.6573692050e+01 -4.1341776446e+01 1.1845957297e+02 0.0000000000e+00 0.0000e+00 1.0000e+00
       22  1    3    3    0    0 +2.2985747150e+01 +1.1609717016e+01 +4.7779090161e+01 5.4276804970e+01 0.0000000000e+00 0.0000e+00 1.0000e+00
<rwgt>
<wgt id='SM'> +1.0044825e-05 </wgt>
<wgt id='morphing_basis_vector_1'> +9.6755993e-06 </wgt>
<wgt id='morphing_basis_vector_2'> +1.0092796e-05 </wgt>
<wgt id='morphing_basis_vector_3'> +1.0582720e-05 </wgt>
<wgt id='morphing_basis_vector_4'> +9.5825602e-06 </wgt>
</rwgt>
</event>
<event>
 7      1 +1.0210000e-05 1.46914700e+02 7.81860800e-03 1.31696500e-01
        2 -1    0    0  502    0 +0.0000000000e+00 +0.0000000000e+00 +5.9365088836e+02 5.9365088836e+02 0.0000000000e+00 0.0000e+00 -1.0000e+00
        1 -1    0    0  501    0 -0.0000000000e+00 -0.0000000000e+00 -1.6499800742e+03 1.6499800742e+03 0.0000000000e+00 0.0000e+00 -1.0000e+00
       25  2    1    2    0    0 +9.2867648610e+01 -1.6908139066e+02 -4.2058836828e+02 4.7930858132e+02 1.2501689392e+02 0.0000e+00 0.0000e+00
        2  1    1    2  501    0 -1.3493083345e+01 +4.6591163049e+01 -1.1900908109e+03 1.1910788966e+03 0.0000000000e+00 0.0000e+00 -1.0000e+00
        1  1    1    2  502    0 -7.9374565265e+01 +1.2249022761e+02 +5.5434999337e+02 5.7324348459e+02 0.0000000000e+00 0.0000e+00 -1.0000e+00
       22  1    3    3    0    0 +3.1671083716e+01 -5.6953454228e+01 -2.8766786805e+02 2.9495687109e+02 0.0000000000e+00 0.0000e+00 -1.0000e+00
       22  1    3    3    0    0 +6.1196564893e+01 -1.1212793644e+02 -1.3292050023e+02 1.8435171023e+02 0.0000000000e+00 0.0000e+00 -1.0000e+00
<rwgt>
<wgt id='SM'> +1.0757806e-05 </wgt>
<wgt id='morphing_basis_vector_1'> +1.0056511e-05 </wgt>
<wgt id='morphing_basis_vector_2'> +1.1527983e-05 </wgt>
<wgt id='morphing_basis_vector_3'> +1.1228978e-05 </wgt>
<wgt id='morphing_basis_vector_4'> +1.0671681e-05 </wgt>
</rwgt>
</event>
<event>
 7      1 +1.0210000e-05 6.34638600e+01 7.81860800e-03 1.38590700e-01
        2 -1    0    0  502    0 +0.0000000000e+00 +0.0000000000e+00 +1.2337070756e+03 1.2337070756e+03 0.0000000000e+00 0.0000e+00 -1.0000e+00
        1 -1    0    0  501    0 -0.0000000000e+00 -0.0000000000e+00 -2.1401448389e+02 2.1401448389e+02 0.0000000000e+00 0.0000e+00 -1.0000e+00
       25  2    1    2    0    0 -3.1757934037e+01 -3.0581686661e+01 -1.1981675139e+01 1.3308672982e+02 1.2499884472e+02 0.0000e+00 0.0000e+00
        2  1    1    2  501    0 -1.9225998909e+01 +6.6581963467e+01 -1.3210694128e+02 1.4918123483e+02 0.0000000000e+00 0.0000e+00 -1.0000e+00
        1  1    1    2  502    0 +5.0983932946e+01 -3.6000276806e+01 +1.1637812081e+03 1.1654535948e+03 0.0000000000e+00 0.0000e+00 -1.0000e+00
       22  1    3    3    0    0 -7.8183227321e+01 -3.5491679184e+01 -7.8425738951e+00 8.6219384659e+01 0.0000000000e+00 0.0000e+00 -1.0000e+00
       22  1    3    3    0    0 +4.6425293284e+01 +4.9099925235e+00 -4.1391012441e+00 4.6867345158e+01 0.0000000000e+00 0.0000e+00 -1.0000e+00
<rwgt>
<wgt id='SM'> +1.0021418e-05 </wgt>
<wgt id='morphing_basis_vector_1'> +9.9485488e-06 </wgt>
<wgt id='morphing_basis_vector_2'> +9.9120327e-06 </wgt>
<wgt id='morphing_basis_vector_3'> +1.0224890e-05 </wgt>
<wgt id='morphing_basis_vector_4'> +9.7867302e-06 </wgt>
</rwgt>
</event>
<event>
 7      1 +1.0210000e-05 6.60720800e+01 7.81860800e-03 1.43407600e-01
        2 -1    0    0  502    0 +0.0000000000e+00 +0.0000000000e+00 +8.9119550656e+02 8.9119550656e+02 0.0000000000e+00 0.0000e+00 -1.0000e+00
        1 -1    0    0  501    0 -0.0000000000e+00 -0.0000000000e+00 -7.3181532369e+02 7.3181532369e+02 0.0000000000e+00 0.0000e+00 -1.0000e+00
       25  2    1    2    0    0 +2.8951838896e+01 -1.0218856314e+02 +2.2998882258e+00 1.6404492681e+02 1.2499894846e+02 0.0000e+00 0.0000e+00
        2  1    1    2  501    0 -2.1089513299e+01 +6.1784108681e+01 -6.4877932146e+02 6.5205571205e+02 0.0000000000e+00 0.0000e+00 -1.0000e+00
        1  1    1    2  502    0 -7.8623255963e+00 +4.0404454455e+01 +8.0585961611e+02 8.0691019139e+02 0.0000000000e+00 0.0000e+00 -1.0000e+00
       22  1    3    3    0    0 +5.8292417124e+01 -6.9104875315e+01 +4.6377676134e+01 1.0160894907e+02 0.0000000000e+00 0.0000e+00 1.0000e+00
       22  1    3    3    0    0 -2.9340578229e+01 -3.3083687821e+01 -4.4077787908e+01 6.2435977749e+01 0.0000000000e+00 0.0000e+00 1.0000e+00
<rwgt>
<wgt id='SM'> +1.0296704e-05 </wgt>
<wgt id='morphing_basis_vector_1'> +1.0083588e-05 </wgt>
<wgt id='morphing_basis_vector_2'> +1.0463570e-05 </wgt>
<wgt id='morphing_basis_vector_3'> +1.0488067e-05 </wgt>
<wgt id='morphing_basis_vector_4'> +1.0196674e-05 </wgt>
</rwgt>
</event>
<event>
 7      1 +1.0210000e-05 4.51333000e+01 7.81860800e-03 1.50973400e-01
        2 -1    0    0  502    0 +0.0000000000e+00 +0.0000000000e+00 +4.9875580264e+02 4.9875580264e+02 0.0000000000e+00 0.0000e+00 -1.0000e+00
        1 -1    0    0  501    0 -0.0000000000e+00 -0.0000000000e+00 -9.5307720105e+01 9.5307720105e+01 0.0000000000e+00 0.0000e+00 -1.0000e+00
       25  2    1    2    0    0 -2.0366097576e+01 +7.2829126281e+01 +1.0187967447e+02 1.7811065864e+02 1.2500031634e+02 0.0000e+00 0.0000e+00
        2  1    1    2  501    0 +1.2414081171e+00 -4.3413381181e+01 -4.7940004831e+01 6.4687764090e+01 0.0000000000e+00 0.0000e+00 -1.0000e+00
        1  1    1    2  502    0 +1.9124689459e+01 -2.9415745100e+01 +3.4950841289e+02 3.5126510002e+02 0.0000000000e+00 0.0000e+00 -1.0000e+00
       22  1    3    3    0    0 +3.8011865085e+01 +2.1019050150e+01 +8.8956908042e+01 9.8995120308e+01 0.0000000000e+00 0.0000e+00 -1.0000e+00
       22  1    3    3    0    0 -5.8377962660e+01 +5.1810076131e+01 +1.2922766430e+01 7.9115538330e+01 0.0000000000e+00 0.0000e+00 -1.0000e+00
<rwgt>
<wgt id='SM'> +1.0379144e-05 </wgt>
<wgt id='morphing_basis_vector_1'> +1.0234860e-05 </wgt>
<wgt id='morphing_basis_vector_2'> +1.0577536e-05 </wgt>
<wgt id='morphing_basis_vector_3'> +1.0437783e-05 </wgt>
<wgt id='morphing_basis_vector_4'> +1.0414857e-05 </wgt>
</rwgt>
</event>
<event>
 7      1 +1.0210000e-05 9.15114800e+01 7.81860800e-03 1.30677200e-01
        2 -1    0    0  502    0 +0.0000000000e+00 +0.0000000000e+00 +2.0978524527e+03 2.0978524527e+03 0.0000000000e+00 0.0000e+00 -1.0000e+00
        1 -1    0    0  501    0 -0.0000000000e+00 -0.0000000000e+00 -2.8288971950e+03 2.8288971950e+03 0.0000000000e+00 0.0000e+00 -1.0000e+00
       25  2    1    2    0    0 -3.0060123076e+00 +2.9991195811e+01 -8.9245772871e+01 1.5651734283e+02 1.2499745075e+02 0.0000e+00 0.0000e+00
        2  1    1    2  501    0 -8.5319017603e+01 -3.6060966879e+00 -2.7043121876e+03 2.7056601314e+03 0.0000000000e+00 0.0000e+00 -1.0000e+00
        1  1    1    2  502    0 +8.8325029911e+01 -2.6385099123e+01 +2.0625132182e+03 2.0645721735e+03 0.0000000000e+00 0.0000e+00 -1.0000e+00
       22  1    3    3    0    0 -1.7748731282e+01 +2.6086599262e+01 +2.5619881568e+01 4.0643652084e+01 0.0000000000e+00 0.0000e+00 1.0000e+00
       22  1    3    3    0    0 +1.4742718974e+01 +3.9045965486e+00 -1.1486565444e+02 1.1587369074e+02 0.0000000000e+00 0.0000e+00 1.0000e+00
<rwgt>
<wgt id='SM'> +1.0381894e-05 </wgt>
<wgt id='morphing_basis_vector_1'> +1.0390808e-05 </wgt>
<wgt id='morphing_basis_vector_2'> +1.0510308e-05 </wgt>
<wgt id='morphing_basis_vector_3'> +1.0262873e-05 </wgt>
<wgt id='morphing_basis_vector_4'> +1.0550616e-05 </wgt>
</rwgt>
</event>
<event>
 7      1 +1.0210000e-05 8.27464600e+01 7.81860800e-03 1.35470100e-01
        2 -1    0    0  502    0 +0.0000000000e+00 +0.0000000000e+00 +3.7924658853e+02 3.7924658853e+02 0.0000000000e+00 0.0000e+00 -1.0000e+00
        1 -1    0    0  501    0 -0.0000000000e+00 -0.0000000000e+00 -9.1146375494e+02 9.1146375494e+02 0.0000000000e+00 0.0000e+00 -1.0000e+00
       25  2    1    2    0    0 -3.9789090070e+01 -1.0379702781e+01 -1.6759417793e+02 2.1308385007e+02 1.2500403501e+02 0.0000e+00 0.0000e+00
        2  1    1    2  501    0 -3.3136598256e+00 -6.1884569236e+01 -7.1480034986e+02 7.1748186068e+02 0.0000000000e+00 0.0000e+00 -1.0000e+00
        1  1    1    2  502    0 +4.3102749896e+01 +7.2264272017e+01 +3.5017736137e+02 3.6014463271e+02 0.0000000000e+00 0.0000e+00 -1.0000e+00
       22  1    3    3    0    0 -8.2286467064e+01 -2.0278660469e+01 -8.7119699113e+01 1.2154064631e+02 0.0000000000e+00 0.0000e+00 1.0000e+00
       22  1    3    3    0    0 +4.2497376994e+01 +9.8989576881e+00 -8.0474478812e+01 9.1543203761e+01 0.0000000000e+00 0.0000e+00 1.0000e+00
<rwgt>
<wgt id='SM'> +1.0400092e-05 </wgt>
<wgt id='morphing_basis_vector_1'> +1.0400043e-05 </wgt>
<wgt id='morphing_basis_vector_2'> +1.0546957e-05 </wgt>
<wgt id='morphing_basis_vector_3'> +1.0279709e-05 </wgt>
<wgt id='morphing_basis_vector_4'> +1.0578505e-05 </wgt>
</rwgt>
</event>
<event>
 7      1 +1.0210000e-05 2.23738700e+02 7.81860800e-03 1.29810700e-01
        2 -1    0    0  502    0 +0.0000000000e+00 +0.0000000000e+00 +1.9965869155e+03 1.9965869155e+03 0.0000000000e+00 0.0000e+00 -1.0000e+00
        1 -1    0    0  501    0 -0.0000000000e+00 -0.0000000000e+00 -1.7069805049e+03 1.7069805049e+03 0.0000000000e+00 0.0000e+00 -1.0000e+00
       25  2    1    2    0    0 +1.3790367986e+02 -1.3731055582e+02 -1.0797282380e+03 1.1042242748e+03 1.2500627005e+02 0.0000e+00 0.0000e+00
        2  1    1    2  501    0 +3.7790146151e+01 -1.5037880170e+00 -6.0809821946e+02 6.0927317440e+02 0.0000000000e+00 0.0000e+00 -1.0000e+00
        1  1    1    2  502    0 -1.7569382601e+02 +1.3881434383e+02 +1.9774328680e+03 1.9900699711e+03 0.0000000000e+00 0.0000e+00 -1.0000e+00
       22  1    3    3    0    0 +2.3002780988e+00 +1.7158986316e+01 -3.0669236124e+01 3.5218235832e+01 0.0000000000e+00 0.0000e+00 -1.0000e+00
       22  1    3    3    0    0 +1.3560340177e+02 -1.5446954213e+02 -1.0490590019e+03 1.0690060390e+03 0.0000000000e+00 0.0000e+00 -1.0000e+00
<rwgt>
<wgt id='SM'> +1.1086164e-05 </wgt>
<wgt id='morphing_basis_vector_1'> +1.0675824e-05 </wgt>
<wgt id='morphing_basis_vector_2'> +1.1989754e-05 </wgt>
<wgt id='morphing_basis_vector_3'> +1.0992907e-05 </wgt>
<wgt id='morphing_basis_vector_4'> +1.1581295e-05 </wgt>
</rwgt>
</event>
<event>
 7      1 +1.0210000e-05 9.36242300e+01 7.81860800e-03 1.37309800e-01
        2 -1    0    0  502    0 +0.0000000000e+00 +0.0000000000e+00 +1.1640765558e+02 1.1640765558e+02 0.0000000000e+00 0.0000e+00 -1.0000e+00
        1 -1    0    0  501    0 -0.0000000000e+00 -0.0000000000e+00 -4.6434662979e+02 4.6434662979e+02 0.0000000000e+00 0.0000e+00 -1.0000e+00
       25  2    1    2    0    0 -1.8268888108e+01 +2.2893288704e+01 +4.0024083172e+01 1.3448115948e+02 1.2500160031e+02 0.0000e+00 0.0000e+00
        2  1    1    2  501    0 -7.5928082446e+00 +9.3315835847e+01 -2.3112837524e+02 2.4937085194e+02 0.0000000000e+00 0.0000e+00 -1.0000e+00
        1  1    1    2  502    0 +2.5861696353e+01 -1.1620912455e+02 -1.5683468214e+02 1.9690227396e+02 0.0000000000e+00 0.0000e+00 -1.0000e+00
       22  1    3    3    0    0 -2.4646621326e+01 -3.8177519545e+01 -1.9051480881e+01 4.9274109481e+01 0.0000000000e+00 0.0000e+00 -1.0000e+00
       22  1    3    3    0    0 +6.3777332179e+00 +6.1070808249e+01 +5.9075564053e+01 8.5207049998e+01 0.0000000000e+00 0.0000e+00 -1.0000e+00
<rwgt>
<wgt id='SM'> +9.9011968e-06 </wgt>
<wgt id='morphing_basis_vector_1'> +9.8251752e-06 </wgt>
<wgt id='morphing_basis_vector_2'> +9.8004475e-06 </wgt>
<wgt id='morphing_basis_vector_3'> +1.0196705e-05 </wgt>
<wgt id='morphing_basis_vector_4'> +9.7208192e-06 </wgt>
</rwgt>
</event>
<event>
 7      1 +1.0210000e-05 4.78215200e+01 7.81860800e-03 1.46529500e-01
        2 -1    0    0  502    0 +0.0000000000e+00 +0.0000000000e+00 +3.0137352995e+02 3.0137352995e+02 0.0000000000e+00 0.0000e+00 -1.0000e+00
        1 -1    0    0  501    0 -0.0000000000e+00 -0.0000000000e+00 -4.8234863381e+01 4.8234863381e+01 0.0000000000e+00 0.0000e+00 -1.0000e+00
       25  2    1    2    0    0 -2.3539534574e+01 +5.0193275844e+00 +1.6411815784e+02 2.0769352190e+02 1.2499010349e+02 0.0000e+00 0.0000e+00
        2  1    1    2  501    0 -1.2483066806e+01 +4.6163526477e+01 +3.5399402288e+01 5.9498032035e+01 0.0000000000e+00 0.0000e+00 -1.0000e+00
        1  1    1    2  502    0 +3.6022601380e+01 -5.1182854061e+01 +5.3621106443e+01 8.2416839397e+01 0.0000000000e+00 0.0000e+00 -1.0000e+00
       22  1    3    3    0    0 -4.5323370539e+01 +5.5173657702e+01 +1.0685718037e+02 1.2851769302e+02 0.0000000000e+00 0.0000e+00 1.0000e+00
       22  1    3    3    0    0 +2.1783835965e+01 -5.0154330118e+01 +5.7260977468e+01 7.9175828884e+01 0.0000000000e+00 0.0000e+00 1.0000e+00
<rwgt>
<wgt id='SM'> +9.9580842e-06 </wgt>
<wgt id='morphing_basis_vector_1'> +1.0040577e-05 </wgt>
<wgt id='morphing_basis_vector_2'> +9.7411360e-06 </wgt>
<wgt id='morphing_basis_vector_3'> +1.0025311e-05 </wgt>
<wgt id='morphing_basis_vector_4'> +9.8168922e-06 </wgt>
</rwgt>
</event>
<event>
 7      1 +1.0210000e-05 4.34715600e+01 7.81860800e-03 1.50130800e-01
        2 -1    0    0  502    0 +0.0000000000e+00 +0.0000000000e+00 +2.0784662896e+02 2.0784662896e+02 0.0000000000e+00 0.0000e+00 -1.0000e+00
        1 -1    0    0  501    0 -0.0000000000e+00 -0.0000000000e+00 -1.6366865140e+02 1.6366865140e+02 0.0000000000e+00 0.0000e+00 -1.0000e+00
       25  2    1    2    0    0 -6.1487697549e+01 -5.2497405837e+01 -6.8633663438e+01 1.6392690983e+02 1.2499894975e+02 0.0000e+00 0.0000e+00
        2  1    1    2  501    0 +2.7170400367e+01 +2.7391949672e+01 -3.6031879272e+01 5.2790585210e+01 0.0000000000e+00 0.0000e+00 -1.0000e+00
        1  1    1    2  502    0 +3.4317297182e+01 +2.5105456166e+01 +1.4884352027e+02 1.5479778533e+02 0.0000000000e+00 0.0000e+00 -1.0000e+00
       22  1    3    3    0    0 -3.7348542838e+01 -8.3610895326e+01 -8.3935147084e+00 9.1957308347e+01 0.0000000000e+00 0.0000e+00 1.0000e+00
       22  1    3    3    0    0 -2.4139154711e+01 +3.1113489488e+01 -6.0240148729e+01 7.1969601480e+01 0.0000000000e+00 0.0000e+00 1.0000e+00
<rwgt>
<wgt id='SM'> +1.0316616e-05 </wgt>
<wgt id='morphing_basis_vector_1'> +1.0008075e-05 </wgt>
<wgt id='morphing_basis_vector_2'> +1.0546044e-05 </wgt>
<wgt id='morphing_basis_vector_3'> +1.0606984e-05 </wgt>
<wgt id='morphing_basis_vector_4'> +1.0156307e-05 </wgt>
</rwgt>
</event>
<event>
 7      1 +1.0210000e-05 7.57951400e+01 7.81860800e-03 1.36808300e-01
        2 -1    0    0  502    0 +0.0000000000e+00 +0.0000000000e+00 +1.7701085751e+03 1.7701085751e+03 0.0000000000e+00 0.0000e+00 -1.0000e+00
        1 -1    0    0  501    0 -0.0000000000e+00 -0.0000000000e+00 -1.7125978205e+03 1.7125978205e+03 0.0000000000e+00 0.0000e+00 -1.0000e+00
       25  2    1    2    0    0 +1.2830359623e+02 -4.9130173824e-01 -3.7561193126e+02 4.1613851573e+02 1.2499954873e+02 0.0000e+00 0.0000e+00
        2  1    1    2  501    0 -7.0793022006e+01 +1.9192771275e+01 -1.3151779027e+03 1.3172216709e+03 0.0000000000e+00 0.0000e+00 -1.0000e+00
        1  1    1    2  502    0 -5.7510574227e+01 -1.8701469537e+01 +1.7483005886e+03 1.7493462091e+03 0.0000000000e+00 0.0000e+00 -1.0000e+00
       22  1    3    3    0    0 +2.5533326863e+01 -1.1741791131e+01 -1.6534160525e+00 2.8152339588e+01 0.0000000000e+00 0.0000e+00 -1.0000e+00
       22  1    3    3    0    0 +1.0277026937e+02 +1.1250489393e+01 -3.7395851521e+02 3.8798617614e+02 0.0000000000e+00 0.0000e+00 -1.0000e+00
<rwgt>
<wgt id='SM'> +1.0560391e-05 </wgt>
<wgt id='morphing_basis_vector_1'> +1.0259111e-05 </wgt>
<wgt id='morphing_basis_vector_2'> +1.0976128e-05 </wgt>
<wgt id='morphing_basis_vector_3'> +1.0684999e-05 </wgt>
<wgt id='morphing_basis_vector_4'> +1.0632614e-05 </wgt>
</rwgt>
</event>
<event>
 7      1 +1.0210000e-05 7.51683900e+01 7.81860800e-03 1.42336500e-01
        2 -1    0    0  502    0 +0.0000000000e+00 +0.0000000000e+00 +1.4368513628e+03 1.4368513628e+03 0.0000000000e+00 0.0000e+00 -1.0000e+00
        1 -1    0    0  501    0 -0.0000000000e+00 -0.0000000000e+00 -1.1861758976e+02 1.1861758976e+02 0.0000000000e+00 0.0000e+00 -1.0000e+00
       25  2    1    2    0    0 +2.4086478645e+01 +8.6386843043e+01 -7.8899525695e+00 1.5401567044e+02 1.2496291564e+02 0.0000e+00 0.0000e+00
        2  1    1    2  501    0 +2.5408328515e+01 -2.9912665320e+01 -2.6108128216e+01 4.7137936563e+01 0.0000000000e+00 0.0000e+00 -1.0000e+00
        1  1    1    2  502    0 -4.9494807159e+01 -5.6474177723e+01 +1.3522318538e+03 1.3543153456e+03 0.0000000000e+00 0.0000e+00 -1.0000e+00
       22  1    3    3    0    0 +6.9874289414e+01 +4.8332048690e+01 -3.0586163484e+01 9.0299040130e+01 0.0000000000e+00 0.0000e+00 1.0000e+00
       22  1    3    3    0    0 -4.5787810769e+01 +3.8054794352e+01 +2.2696210914e+01 6.3716630310e+01 0.0000000000e+00 0.0000e+00 1.0000e+00
<rwgt>
<wgt id='SM'> +9.9313031e-06 </wgt>
<wgt id='morphing_basis_vector_1'> +9.6724816e-06 </wgt>
<wgt id='morphing_basis_vector_2'> +9.8414617e-06 </wgt>
<wgt id='morphing_basis_vector_3'> +1.0410794e-05 </wgt>
<wgt id='morphing_basis_vector_4'> +9.4594022e-06 </wgt>
</rwgt>
</event>
<event>
 7      1 +1.0210000e-05 1.72437600e+02 7.81860800e-03 1.30953500e-01
        2 -1    0    0  502    0 +0.0000000000e+00 +0.0000000000e+00 +8.6896934140e+02 8.6896934140e+02 0.0000000000e+00 0.0000e+00 -1.0000e+00
        1 -1    0    0  501    0 -0.0000000000e+00 -0.0000000000e+00 -9.4522472388e+02 9.4522472388e+02 0.0000000000e+00 0.0000e+00 -1.0000e+00
       25  2    1    2    0    0 -1.1115393957e+02 +1.5024458474e+02 +4.4104978359e+01 2.2912591623e+02 1.2499921138e+02 0.0000e+00 0.0000e+00
        2  1    1    2  501    0 +1.3124972035e+02 -1.1088443529e+02 -8.4337745640e+02 8.6070167948e+02 0.0000000000e+00 0.0000e+00 -1.0000e+00
        1  1    1    2  502    0 -2.0095780780e+01 -3.9360149446e+01 +7.2301709557e+02 7.2436646958e+02 0.0000000000e+00 0.0000e+00 -1.0000e+00
       22  1    3    3    0    0 -9.9262059547e+00 -5.2377417609e-01 +4.6460347875e+01 4.7511765161e+01 0.0000000000e+00 0.0000e+00 1.0000e+00
       22  1    3    3    0    0 -1.0122773362e+02 +1.5076835891e+02 -2.3553695155e+00 1.8161415107e+02 0.0000000000e+00 0.0000e+00 1.0000e+00
<rwgt>
<wgt id='SM'> +1.0029731e-05 </wgt>
<wgt id='morphing_basis_vector_1'> +9.3323290e-06 </wgt>
<wgt id='morphing_basis_vector_2'> +1.0223621e-05 </wgt>
<wgt id='morphing_basis_vector_3'> +1.0978009e-05 </wgt>
<wgt id='morphing_basis_vector_4'> +9.2774047e-06 </wgt>
</rwgt>
</event>
<event>
 7      1 +1.0210000e-05 2.25940600e+02 7.81860800e-03 1.18772300e-01
        2 -1    0    0  502    0 +0.0000000000e+00 +0.0000000000e+00 +8.6913170616e+02 8.6913170616e+02 0.0000000000e+00 0.0000e+00 -1.0000e+00
        1 -1    0    0  501    0 -0.0000000000e+00 -0.0000000000e+00 -5.4443824251e+02 5.4443824251e+02 0.0000000000e+00 0.0000e+00 -1.0000e+00
       25  2    1    2    0    0 -1.5938771927e+02 -7.8015708764e+01 +1.5116381993e+02 2.6451732421e+02 1.2501207334e+02 0.0000e+00 0.0000e+00
        2  1    1    2  501    0 +1.3797009702e+02 +1.9052838396e+02 -4.5391028411e+02 5.1124491077e+02 0.0000000000e+00 0.0000e+00 -1.0000e+00
        1  1    1    2  502    0 +2.1417622249e+01 -1.1251267520e+02 +6.2743992782e+02 6.3780771369e+02 0.0000000000e+00 0.0000e+00 -1.0000e+00
       22  1    3    3    0    0 -1.3146543058e+02 -1.0495354421e+02 +8.6626872428e+01 1.8921580512e+02 0.0000000000e+00 0.0000e+00 1.0000e+00
       22  1    3    3    0    0 -2.7922288690e+01 +2.6937835442e+01 +6.4536947504e+01 7.5301519089e+01 0.0000000000e+00 0.0000e+00 1.0000e+00
<rwgt>
<wgt id='SM'> +9.0988630e-06 </wgt>
<wgt id='morphing_basis_vector_1'> +8.4346106e-06 </wgt>
<wgt id='morphing_basis_vector_2'> +8.5958541e-06 </wgt>
<wgt id='morphing_basis_vector_3'> +1.0618586e-05 </wgt>
<wgt id='morphing_basis_vector_4'> +7.5944621e-06 </wgt>
</rwgt>
</event>
<event>
 7      1 +1.0210000e-05 1.75371600e+02 7.81860800e-03 1.29955500e-01
        2 -1    0    0  502    0 +0.0000000000e+00 +0.0000000000e+00 +1.6279088792e+03 1.6279088792e+03 0.0000000000e+00 0.0000e+00 -1.0000e+00
        1 -1    0    0  501    0 -0.0000000000e+00 -0.0000000000e+00 -1.0659916950e+03 1.0659916950e+03 0.0000000000e+00 0.0000e+00 -1.0000e+00
       25  2    1    2    0    0 -7.0358774012e+01 -1.2063474881e+02 +1.5302825962e+02 2.4196364062e+02 1.2500262173e+02 0.0000e+00 0.0000e+00
        2  1    1    2  501    0 -4.3773295236e+01 -1.8724777095e+01 -1.0152930036e+03 1.0164086785e+03 0.0000000000e+00 0.0000e+00 -1.0000e+00
        1  1    1    2  502    0 +1.1413206925e+02 +1.3935952591e+02 +1.4241819281e+03 1.4355282550e+03 0.0000000000e+00 0.0000e+00 -1.0000e+00
       22  1    3    3    0    0 -9.2249109354e+01 -1.3331558602e+02 +1.3315382083e+02 2.0979247759e+02 0.0000000000e+00 0.0000e+00 -1.0000e+00
       22  1    3    3    0    0 +2.1890335342e+01 +1.2680837203e+01 +1.9874438785e+01 3.2171163028e+01 0.0000000000e+00 0.0000e+00 -1.0000e+00
<rwgt>
<wgt id='SM'> +1.0144417e-05 </wgt>
<wgt id='morphing_basis_vector_1'> +9.7385823e-06 </wgt>
<wgt id='morphing_basis_vector_2'> +1.0285530e-05 </wgt>
<wgt id='morphing_basis_vector_3'> +1.0661976e-05 </wgt>
<wgt id='morphing_basis_vector_4'> +9.7411679e-06 </wgt>
</rwgt>
</event>
<event>
 7      1 +1.0210000e-05 7.46522100e+01 7.81860800e-03 1.36373300e-01
        2 -1    0    0  502    0 +0.0000000000e+00 +0.0000000000e+00 +1.5038361057e+03 1.5038361057e+03 0.0000000000e+00 0.0000e+00 -1.0000e+00
        1 -1    0    0  501    0 -0.0000000000e+00 -0.0000000000e+00 -3.5210717223e+02 3.5210717223e+02 0.0000000000e+00 0.0000e+00 -1.0000e+00
       25  2    1    2    0    0 -5.5751276633e+00 +1.3605165383e+01 -1.1831814870e+02 1.7274052230e+02 1.2499568455e+02 0.0000e+00 0.0000e+00
        2  1    1    2  501    0 -5.7918195095e+01 +2.6435661595e+01 -2.0069246130e+02 2.1054886737e+02 0.0000000000e+00 0.0000e+00 -1.0000e+00
        1  1    1    2  502    0 +6.3493322758e+01 -4.0040826978e+01 +1.4707395435e+03 1.4726538883e+03 0.0000000000e+00 0.0000e+00 -1.0000e+00
       22  1    3    3    0    0 +5.3602113978e+01 +3.3549129526e+01 -6.4073030246e+01 9.0022685583e+01 0.0000000000e+00 0.0000e+00 -1.0000e+00
       22  1    3    3    0    0 -5.9177241641e+01 -1.9943964143e+01 -5.4245118458e+01 8.2717836713e+01 0.0000000000e+00 0.0000e+00 -1.0000e+00
<rwgt>
<wgt id='SM'> +1.0260630e-05 </wgt>
<wgt id='morphing_basis_vector_1'> +1.0273726e-05 </wgt>
<wgt id='morphing_basis_vector_2'> +1.0293775e-05 </wgt>
<wgt id='morphing_basis_vector_3'> +1.0213595e-05 </wgt>
<wgt id='morphing_basis_vector_4'> +1.0319494e-05 </wgt>
</rwgt>
</event>
<event>
 7      1 +1.0210000e-05 6.31543200e+01 7.81860800e-03 1.39307400e-01
        2 -1    0    0  502    0 +0.0000000000e+00 +0.0000000000e+00 +7.3889228504e+02 7.3889228504e+02 0.0000000000e+00 0.0000e+00 -1.0000e+00
        1 -1    0    0  501    0 -0.0000000000e+00 -0.0000000000e+00 -5.8090280254e+02 5.8090280254e+02 0.0000000000e+00 0.0000e+00 -1.0000e+00
       25  2    1    2    0    0 +1.1450216022e+02 -2.9348077091e-01 -3.8775499124e+01 1.7389134883e+02 1.2499532407e+02 0.0000e+00 0.0000e+00
        2  1    1    2  501    0 -5.5428440030e+01 +2.0811039445e+01 -4.7125671527e+02 4.7496137002e+02 0.0000000000e+00 0.0000e+00 -1.0000e+00
        1  1    1    2  502    0 -5.9073720189e+01 -2.0517558674e+01 +6.6802169690e+02 6.7094236873e+02 0.0000000000e+00 0.0000e+00 -1.0000e+00
       22  1    3    3    0    0 -2.4625175091e+01 -6.0065208409e+00 +8.6647063085e+00 2.6787211058e+01 0.0000000000e+00 0.0000e+00 -1.0000e+00
       22  1    3    3    0    0 +1.3912733531e+02 +5.7130400700e+00 -4.7440205432e+01 1.4710413777e+02 0.0000000000e+00 0.0000e+00 -1.0000e+00
<rwgt>
<wgt id='SM'> +1.0522339e-05 </wgt>
<wgt id='morphing_basis_vector_1'> +1.0288905e-05 </wgt>
<wgt id='morphing_basis_vector_2'> +1.0875406e-05 </wgt>
<wgt id='morphing_basis_vector_3'> +1.0592418e-05 </wgt>
<wgt id='morphing_basis_vector_4'> +1.0616775e-05 </wgt>
</rwgt>
</event>
<event>
 7      1 +1.0210000e-05 5.44847600e+01 7.81860800e-03 1.44563300e-01
        2 -1    0    0  502    0 +0.0000000000e+00 +0.0000000000e+00 +1.3033303175e+03 1.3033303175e+03 0.0000000000e+00 0.0000e+00 -1.0000e+00
        1 -1    0    0  501    0 -0.0000000000e+00 -0.0000000000e+00 -7.6272752477e+02 7.6272752477e+02 0.0000000000e+00 0.0000e+00 -1.0000e+00
       25  2    1    2    0    0 -7.0596795424e+00 -9.3911519335e+01 +1.3123427169e+02 2.0424734248e+02 1.2500132121e+02 0.0000e+00 0.0000e+00
        2  1    1    2  501    0 -1.2915206417e+01 +5.2713363635e+01 -7.2474445201e+02 7.2677370755e+02 0.0000000000e+00 0.0000e+00 -1.0000e+00
        1  1    1    2  502    0 +1.9974885959e+01 +4.1198155701e+01 +1.1341129731e+03 1.1350367923e+03 0.0000000000e+00 0.0000e+00 -1.0000e+00
       22  1    3    3    0    0 -2.2867626439e+01 +2.6236958611e+01 +2.2588390331e+01 4.1491465555e+01 0.0000000000e+00 0.0000e+00 1.0000e+00
       22  1    3    3    0    0 +1.5807946897e+01 -1.2014847795e+02 +1.0864588136e+02 1.6275587692e+02 0.0000000000e+00 0.0000e+00 1.0000e+00
<rwgt>
<wgt id='SM'> +1.0188825e-05 </wgt>
<wgt id='morphing_basis_vector_1'> +1.0013608e-05 </wgt>
<wgt id='morphing_basis_vector_2'> +1.0254598e-05 </wgt>
<wgt id='morphing_basis_vector_3'> +1.0404942e-05 </wgt>
<wgt id='morphing_basis_vector_4'> +1.0021100e-05 </wgt>
</rwgt>
</event>
<event>
 7      1 +1.0210000e-05 8.07327000e+01 7.81860800e-03 1.36788500e-01
        2 -1    0    0  502    0 +0.0000000000e+00 +0.0000000000e+00 +1.1266193895e+03 1.1266193895e+03 0.0000000000e+00 0.0000e+00 -1.0000e+00
        1 -1    0    0  501    0 -0.0000000000e+00 -0.0000000000e+00 -3.4354019452e+02 3.4354019452e+02 0.0000000000e+00 0.0000e+00 -1.0000e+00
       25  2    1    2    0    0 -1.3580077240e+02 +1.4117568786e+01 -3.3634720346e+01 1.8813655228e+02 1.2499164915e+02 0.0000e+00 0.0000e+00
        2  1    1    2  501    0 +5.6852516033e+01 -1.3975627350e+00 -2.2762774963e+02 2.3462428298e+02 0.0000000000e+00 0.0000e+00 -1.0000e+00
        1  1    1    2  502    0 +7.8948256370e+01 -1.2720006051e+01 +1.0443416649e+03 1.0473987487e+03 0.0000000000e+00 0.0000e+00 -1.0000e+00
       22  1    3    3    0    0 -1.3039953800e+02 +4.6564107102e+01 -5.4919312928e+01 1.4895766685e+02 0.0000000000e+00 0.0000e+00 -1.0000e+00
       22  1    3    3    0    0 -5.4012343987e+00 -3.2446538316e+01 +2.1284592583e+01 3.9178885425e+01 0.0000000000e+00 0.0000e+00 -1.0000e+00
<rwgt>
<wgt id='SM'> +1.0368963e-05 </wgt>
<wgt id='morphing_basis_vector_1'> +9.9726395e-06 </wgt>
<wgt id='morphing_basis_vector_2'> +1.0679846e-05 </wgt>
<wgt id='morphing_basis_vector_3'> +1.0729570e-05 </wgt>
<wgt id='morphing_basis_vector_4'> +1.0180306e-05 </wgt>
</rwgt>
</event>
<event>
 7      1 +1.0210000e-05 1.24923400e+02 7.81860800e-03 1.36000400e-01
        2 -1    0    0  502    0 +0.0000000000e+00 +0.0000000000e+00 +1.1459804891e+02 1.1459804891e+02 0.0000000000e+00 0.0000e+00 -1.0000e+00
        1 -1    0    0  501    0 -0.0000000000e+00 -0.0000000000e+00 -7.1289521627e+02 7.1289521627e+02 0.0000000000e+00 0.0000e+00 -1.0000e+00
       25  2    1    2    0    0 -1.0467168496e+02 +2.5899863714e+01 -3.8107733856e+02 4.1529679630e+02 1.2499810592e+02 0.0000e+00 0.0000e+00
        2  1    1    2  501    0 -2.2344347725e+01 -3.2273253485e+01 -2.7120921424e+02 2.7403516317e+02 0.0000000000e+00 0.0000e+00 -1.0000e+00
        1  1    1    2  502    0 +1.2701603268e+02 +6.3733897711e+00 +5.3989385432e+01 1.3816130571e+02 0.0000000000e+00 0.0000e+00 -1.0000e+00
       22  1    3    3    0    0 -4.9870619456e+01 +7.5618903209e+01 -2.2574268450e+02 2.4323868281e+02 0.0000000000e+00 0.0000e+00 -1.0000e+00
       22  1    3    3    0    0 -5.4801065502e+01 -4.9719039495e+01 -1.5533465405e+02 1.7205811349e+02 0.0000000000e+00 0.0000e+00 -1.0000e+00
<rwgt>
<wgt id='SM'> +1.0799991e-05 </wgt>
<wgt id='morphing_basis_vector_1'> +1.0693315e-05 </wgt>
<wgt id='morphing_basis_vector_2'> +1.1316891e-05 </wgt>
<wgt id='morphing_basis_vector_3'> +1.0544909e-05 </wgt>
<wgt id='morphing_basis_vector_4'> +1.1273102e-05 </wgt>
</rwgt>
</event>
<event>
 7      1 +1.0210000e-05 5.96652200e+01 7.81860800e-03 1.49640600e-01
        2 -1    0    0  502    0 +0.0000000000e+00 +0.0000000000e+00 +8.9874589877e+02 8.9874589877e+02 0.0000000000e+00 0.0000e+00 -1.0000e+00
        1 -1    0    0  501    0 -0.0000000000e+00 -0.0000000000e+00 -1.3337225805e+03 1.3337225805e+03 0.0000000000e+00 0.0000e+00 -1.0000e+00
       25  2    1    2    0    0 -3.6577597433e+01 +5.0425764497e+01 +1.5691899814e+02 2.1007215982e+02 1.2500424791e+02 0.0000e+00 0.0000e+00
        2  1    1    2  501    0 -1.6944994366e+01 -2.3626450531e+01 -1.3057315704e+03 1.3060552347e+03 0.0000000000e+00 0.0000e+00 -1.0000e+00
        1  1    1    2  502    0 +5.3522591799e+01 -2.6799313966e+01 +7.1383589056e+02 7.1634108476e+02 0.0000000000e+00 0.0000e+00 -1.0000e+00
       22  1    3    3    0    0 -1.6524440596e+01 +8.7724148225e+01 +7.0191194271e+01 1.1355785782e+02 0.0000000000e+00 0.0000e+00 -1.0000e+00
       22  1    3    3    0    0 -2.0053156836e+01 -3.7298383727e+01 +8.6727803869e+01 9.6514302006e+01 0.0000000000e+00 0.0000e+00 -1.0000e+00
<rwgt>
<wgt id='SM'> +1.0373407e-05 </wgt>
<wgt id='morphing_basis_vector_1'> +1.0311929e-05 </wgt>
<wgt id='morphing_basis_vector_2'> +1.0528230e-05 </wgt>
<wgt id='morphing_basis_vector_3'> +1.0340228e-05 </wgt>
<wgt id='morphing_basis_vector_4'> +1.0474149e-05 </wgt>
</rwgt>
</event>
<event>
 7      1 +1.0210000e-05 1.10726700e+02 7.81860800e-03 1.26412500e-01
        2 -1    0    0  502    0 +0.0000000000e+00 +0.0000000000e+00 +9.0734946780e+01 9.0734946780e+01 0.0000000000e+00 0.0000e+00 -1.0000e+00
        1 -1    0    0  501    0 -0.0000000000e+00 -0.0000000000e+00 -1.1412414026e+03 1.1412414026e+03 0.0000000000e+00 0.0000e+00 -1.0000e+00
       25  2    1    2    0    0 +1.8350448736e+00 +3.7007947578e+01 -2.6366098925e+02 2.9413980602e+02 1.2501261001e+02 0.0000e+00 0.0000e+00
        2  1    1    2  501    0 -8.9187477929e+01 +5.6428881614e+01 -8.0210614289e+02 8.0901970888e+02 0.0000000000e+00 0.0000e+00 -1.0000e+00
        1  1    1    2  502    0 +8.7352433055e+01 -9.3436829191e+01 +1.5260676291e+01 1.2881683450e+02 0.0000000000e+00 0.0000e+00 -1.0000e+00
       22  1    3    3    0    0 +2.2660985598e+01 +3.0240661388e+01 -2.6896668784e+02 2.7160835230e+02 0.0000000000e+00 0.0000e+00 -1.0000e+00
       22  1    3    3    0    0 -2.0825940725e+01 +6.7672861898e+00 +5.3056985922e+00 2.2531453726e+01 0.0000000000e+00 0.0000e+00 -1.0000e+00
<rwgt>
<wgt id='SM'> +1.0487146e-05 </wgt>
<wgt id='morphing_basis_vector_1'> +1.0521352e-05 </wgt>
<wgt id='morphing_basis_vector_2'> +1.0688304e-05 </wgt>
<wgt id='morphing_basis_vector_3'> +1.0272274e-05 </wgt>
<wgt id='morphing_basis_vector_4'> +1.0780843e-05 </wgt>
</rwgt>
</event>
<event>
 7      1 +1.0210000e-05 3.20866800e+02 7.81860800e-03 1.23690900e-01
        2 -1    0    0  502    0 +0.0000000000e+00 +0.0000000000e+00 +7.5131152204e+02 7.5131152204e+02 0.0000000000e+00 0.0000e+00 -1.0000e+00
        1 -1    0    0  501    0 -0.0000000000e+00 -0.0000000000e+00 -5.4595831172e+02 5.4595831172e+02 0.0000000000e+00 0.0000e+00 -1.0000e+00
       25  2    1    2    0    0 +1.5406923731e+02 +3.0565010191e+02 +4.2114632296e+02 5.5690929603e+02 1.2499769590e+02 0.0000e+00 0.0000e+00
        2  1    1    2  501    0 -1.0656343759e+02 -3.0045345478e+02 -4.2189295839e+02 5.2879269384e+02 0.0000000000e+00 0.0000e+00 -1.0000e+00
        1  1    1    2  502    0 -4.7505799727e+01 -5.1966471307e+00 +2.0609984575e+02 2.1156784388e+02 0.0000000000e+00 0.0000e+00 -1.0000e+00
       22  1    3    3    0    0 +6.8811431931e+01 +1.3552651741e+02 +9.4798933430e+01 1.7913483152e+02 0.0000000000e+00 0.0000e+00 -1.0000e+00
       22  1    3    3    0    0 +8.5257805384e+01 +1.7012358450e+02 +3.2634738953e+02 3.7777446451e+02 0.0000000000e+00 0.0000e+00 -1.0000e+00
<rwgt>
<wgt id='SM'> +9.4112426e-06 </wgt>
<wgt id='morphing_basis_vector_1'> +6.9268815e-06 </wgt>
<wgt id='morphing_basis_vector_2'> +1.0115385e-05 </wgt>
<wgt id='morphing_basis_vector_3'> +1.3305559e-05 </wgt>
<wgt id='morphing_basis_vector_4'> +6.6723851e-06 </wgt>
</rwgt>
</event>
<event>
 7      1 +1.0210000e-05 9.54312900e+01 7.81860800e-03 1.31728900e-01
        2 -1    0    0  502    0 +0.0000000000e+00 +0.0000000000e+00 +2.1943632523e+03 2.1943632523e+03 0.0000000000e+00 0.0000e+00 -1.0000e+00
        1 -1    0    0  501    0 -0.0000000000e+00 -0.0000000000e+00 -8.4992054515e+01 8.4992054515e+01 0.0000000000e+00 0.0000e+00 -1.0000e+00
       25  2    1    2    0    0 +1.0714349165e+02 -1.7714606491e+01 +8.1551084626e+01 1.8457050247e+02 1.2498862306e+02 0.0000e+00 0.0000e+00
        2  1    1    2  501    0 -8.2646125904e+01 -5.2596376507e+01 +4.0393745446e+01 1.0596421858e+02 0.0000000000e+00 0.0000e+00 -1.0000e+00
        1  1    1    2  502    0 -2.4497365742e+01 +7.0310982998e+01 +1.9874263677e+03 1.9888205858e+03 0.0000000000e+00 0.0000e+00 -1.0000e+00
       22  1    3    3    0    0 -1.8212301550e+01 -3.4483071496e+01 +2.2069739169e+01 4.4808967122e+01 0.0000000000e+00 0.0000e+00 -1.0000e+00
       22  1    3    3    0    0 +1.2535579320e+02 +1.6768465005e+01 +5.9481345456e+01 1.3976153535e+02 0.0000000000e+00 0.0000e+00 -1.0000e+00
<rwgt>
<wgt id='SM'> +9.6185376e-06 </wgt>
<wgt id='morphing_basis_vector_1'> +9.1403399e-06 </wgt>
<wgt id='morphing_basis_vector_2'> +9.3998769e-06 </wgt>
<wgt id='morphing_basis_vector_3'> +1.0566951e-05 </wgt>
<wgt id='morphing_basis_vector_4'> +8.6907257e-06 </wgt>
</rwgt>
</event>
<event>
 7      1 +1.0210000e-05 8.62029400e+01 7.81860800e-03 1.33963900e-01
        2 -1    0    0  502    0 +0.0000000000e+00 +0.0000000000e+00 +6.9101190528e+02 6.9101190528e+02 0.0000000000e+00 0.0000e+00 -1.0000e+00
        1 -1    0    0  501    0 -0.0000000000e+00 -0.0000000000e+00 -1.6269106067e+03 1.6269106067e+03 0.0000000000e+00 0.0000e+00 -1.0000e+00
       25  2    1    2    0    0 +8.6409110813e+01 +3.6054534757e+01 -5.5651800894e+02 5.7801698893e+02 1.2499952525e+02 0.0000e+00 0.0000e+00
        2  1    1    2  501    0 -3.5933441831e+01 -8.1145429733e+01 -1.0560938654e+03 1.0598160433e+03 0.0000000000e+00 0.0000e+00 -1.0000e+00
        1  1    1    2  502    0 -5.0475668982e+01 +4.5090894976e+01 +6.7671317298e+02 6.8008947974e+02 0.0000000000e+00 0.0000e+00 -1.0000e+00
       22  1    3    3    0    0 +4.6722122968e+01 +4.4937429607e+01 -9.6786523642e+01 1.1649017346e+02 0.0000000000e+00 0.0000e+00 1.0000e+00
       22  1    3    3    0    0 +3.9686987845e+01 -8.8828948498e+00 -4.5973148529e+02 4.6152681547e+02 0.0000000000e+00 0.0000e+00 1.0000e+00
<rwgt>
<wgt id='SM'> +9.8768560e-06 </wgt>
<wgt id='morphing_basis_vector_1'> +9.6229109e-06 </wgt>
<wgt id='morphing_basis_vector_2'> +9.7433135e-06 </wgt>
<wgt id='morphing_basis_vector_3'> +1.0385172e-05 </wgt>
<wgt id='morphing_basis_vector_4'> +9.3605357e-06 </wgt>
</rwgt>
</event>
<event>
 7      1 +1.0210000e-05 6.94594700e+01 7.81860800e-03 1.40326400e-01
        2 -1    0    0  502    0 +0.0000000000e+00 +0.0000000000e+00 +4.2420886737e+02 4.2420886737e+02 0.0000000000e+00 0.0000e+00 -1.0000e+00
        1 -1    0    0  501    0 -0.0000000000e+00 -0.0000000000e+00 -9.4134570661e+02 9.4134570661e+02 0.0000000000e+00 0.0000e+00 -1.0000e+00
       25  2    1    2    0    0 +1.9892457349e+01 +8.2416275098e+01 +1.7538966887e+02 2.3145510317e+02 1.2498710563e+02 0.0000e+00 0.0000e+00
        2  1    1    2  501    0 -4.6063550645e+01 -1.8524073766e+01 -9.0721967344e+02 9.0857719974e+02 0.0000000000e+00 0.0000e+00 -1.0000e+00
        1  1    1    2  502    0 +2.6171093296e+01 -6.3892201332e+01 +2.1469316532e+02 2.2552227108e+02 0.0000000000e+00 0.0000e+00 -1.0000e+00
       22  1    3    3    0    0 -1.2109462210e+01 +1.0796800814e+02 +1.1240960914e+02 1.5633185883e+02 0.0000000000e+00 0.0000e+00 1.0000e+00
       22  1    3    3    0    0 +3.2001919559e+01 -2.5551733041e+01 +6.2980059729e+01 7.5123244341e+01 0.0000000000e+00 0.0000e+00 1.0000e+00
<rwgt>
<wgt id='SM'> +1.0639052e-05 </wgt>
<wgt id='morphing_basis_vector_1'> +1.0487696e-05 </wgt>
<wgt id='morphing_basis_vector_2'> +1.1045519e-05 </wgt>
<wgt id='morphing_basis_vector_3'> +1.0539327e-05 </wgt>
<wgt id='morphing_basis_vector_4'> +1.0915439e-05 </wgt>
</rwgt>
</event>
<event>
 7      1 +1.0210000e-05 9.93850700e+01 7.81860800e-03 1.32072900e-01
        2 -1    0    0  502    0 +0.0000000000e+00 +0.0000000000e+00 +6.9612988991e+02 6.9612988991e+02 0.0000000000e+00 0.0000e+00 -1.0000e+00
        1 -1    0    0  501    0 -0.0000000000e+00 -0.0000000000e+00 -2.4053738493e+03 2.4053738493e+03 0.0000000000e+00 0.0000e+00 -1.0000e+00
       25  2    1    2    0    0 +8.6846831350e+01 +1.3816623616e+02 -1.3343844994e+03 1.3501254912e+03 1.2499827562e+02 0.0000e+00 0.0000e+00
        2  1    1    2  501    0 -1.7662427434e+01 -6.7039667709e+01 -1.0584026789e+03 1.0606707826e+03 0.0000000000e+00 0.0000e+00 -1.0000e+00
        1  1    1    2  502    0 -6.9184403916e+01 -7.1126568456e+01 +6.8354321894e+02 6.9070746532e+02 0.0000000000e+00 0.0000e+00 -1.0000e+00
       22  1    3    3    0    0 -2.6808375083e+01 +5.4155864741e+01 -5.2827386367e+02 5.3171874304e+02 0.0000000000e+00 0.0000e+00 -1.0000e+00
       22  1    3    3    0    0 +1.1365520643e+02 +8.4010371424e+01 -8.0611063573e+02 8.1840674820e+02 0.0000000000e+00 0.0000e+00 -1.0000e+00
<rwgt>
<wgt id='SM'> +1.0224515e-05 </wgt>
<wgt id='morphing_basis_vector_1'> +9.5146471e-06 </wgt>
<wgt id='morphing_basis_vector_2'> +1.0577532e-05 </wgt>
<wgt id='morphing_basis_vector_3'> +1.1058814e-05 </wgt>
<wgt id='morphing_basis_vector_4'> +9.6388405e-06 </wgt>
</rwgt>
</event>
<event>
 7      1 +1.0210000e-05 2.39347900e+02 7.81860800e-03 1.13075800e-01
        2 -1    0    0  502    0 +0.0000000000e+00 +0.0000000000e+00 +2.4355954859e+03 2.4355954859e+03 0.0000000000e+00 0.0000e+00 -1.0000e+00
        1 -1    0    0  501    0 -0.0000000000e+00 -0.0000000000e+00 -8.2592259171e+01 8.2592259171e+01 0.0000000000e+00 0.0000e+00 -1.0000e+00
       25  2    1    2    0    0 +2.7599427926e+01 -2.9791185193e+02 +1.3646644364e+03 1.4026571322e+03 1.2499922654e+02 0.0000e+00 0.0000e+00
        2  1    1    2  501    0 -1.8325402320e+02 +1.5680691616e+02 +2.4792232039e+02 3.4588426232e+02 0.0000000000e+00 0.0000e+00 -1.0000e+00
        1  1    1    2  502    0 +1.5565459528e+02 +1.4110493577e+02 +7.4041646996e+02 7.6964635055e+02 0.0000000000e+00 0.0000e+00 -1.0000e+00
       22  1    3    3    0    0 +6.4999556403e+01 -2.6713808139e+02 +1.1206230223e+03 1.1538559940e+03 0.0000000000e+00 0.0000e+00 1.0000e+00
       22  1    3    3    0    0 -3.7400128477e+01 -3.0773770541e+01 +2.4404141415e+02 2.4880113823e+02 0.0000000000e+00 0.0000e+00 1.0000e+00
<rwgt>
<wgt id='SM'> +5.4540252e-06 </wgt>
<wgt id='morphing_basis_vector_1'> +4.0867642e-06 </wgt>
<wgt id='morphing_basis_vector_2'> +3.3971802e-06 </wgt>
<wgt id='morphing_basis_vector_3'> +1.0999116e-05 </wgt>
<wgt id='morphing_basis_vector_4'> +1.7237238e-06 </wgt>
</rwgt>
</event>
<event>
 7      1 +1.0210000e-05 6.82583800e+01 7.81860800e-03 1.47390600e-01
        2 -1    0    0  502    0 +0.0000000000e+00 +0.0000000000e+00 +1.5488324125e+03 1.5488324125e+03 0.0000000000e+00 0.0000e+00 -1.0000e+00
        1 -1    0    0  501    0 -0.0000000000e+00 -0.0000000000e+00 -1.6409181890e+02 1.6409181890e+02 0.0000000000e+00 0.0000e+00 -1.0000e+00
       25  2    1    2    0    0 +6.6631586436e+01 +7.0115611299e+01 +5.6124757479e+02 5.8307800719e+02 1.2500062005e+02 0.0000e+00 0.0000e+00
        2  1    1    2  501    0 -5.1031616420e+01 -4.4773303957e+01 -1.4541476034e+02 1.6048154768e+02 0.0000000000e+00 0.0000e+00 -1.0000e+00
        1  1    1    2  502    0 -1.5599970017e+01 -2.5342307342e+01 +9.6890777912e+02 9.6936467650e+02 0.0000000000e+00 0.0000e+00 -1.0000e+00
       22  1    3    3    0    0 -3.0238730137e+01 +1.6843918773e+00 +2.1404677649e+02 2.1617872352e+02 0.0000000000e+00 0.0000e+00 -1.0000e+00
       22  1    3    3    0    0 +9.6870316573e+01 +6.8431219422e+01 +3.4720079829e+02 3.6689928367e+02 0.0000000000e+00 0.0000e+00 -1.0000e+00
<rwgt>
<wgt id='SM'> +1.0363292e-05 </wgt>
<wgt id='morphing_basis_vector_1'> +1.0177066e-05 </wgt>
<wgt id='morphing_basis_vector_2'> +1.0569173e-05 </wgt>
<wgt id='morphing_basis_vector_3'> +1.0480657e-05 </wgt>
<wgt id='morphing_basis_vector_4'> +1.0348323e-05 </wgt>
</rwgt>
</event>
<event>
 7      1 +1.0210000e-05 5.45833000e+01 7.81860800e-03 1.50670000e-01
        2 -1    0    0  502    0 +0.0000000000e+00 +0.0000000000e+00 +9.4164219233e+02 9.4164219233e+02 0.0000000000e+00 0.0000e+00 -1.0000e+00
        1 -1    0    0  501    0 -0.0000000000e+00 -0.0000000000e+00 -7.7613159081e+02 7.7613159081e+02 0.0000000000e+00 0.0000e+00 -1.0000e+00
       25  2    1    2    0    0 +5.9266942140e+01 -5.7758003201e+01 -1.9550706044e+02 2.4636662806e+02 1.2499978950e+02 0.0000e+00 0.0000e+00
        2  1    1    2  501    0 -1.5603356941e+01 +2.5172082219e+01 -5.5398891705e+02 5.5477997322e+02 0.0000000000e+00 0.0000e+00 -1.0000e+00
        1  1    1    2  502    0 -4.3663585199e+01 +3.2585920982e+01 +9.1500657900e+02 9.1662718187e+02 0.0000000000e+00 0.0000e+00 -1.0000e+00
       22  1    3    3    0    0 +5.0566024801e+01 +3.1456525180e+01 -6.6401232691e+01 8.9193943424e+01 0.0000000000e+00 0.0000e+00 -1.0000e+00
       22  1    3    3    0    0 +8.7009173395e+00 -8.9214528382e+01 -1.2910582774e+02 1.5717268463e+02 0.0000000000e+00 0.0000e+00 -1.0000e+00
<rwgt>
<wgt id='SM'> +1.0324881e-05 </wgt>
<wgt id='morphing_basis_vector_1'> +1.0199201e-05 </wgt>
<wgt id='morphing_basis_vector_2'> +1.0472259e-05 </wgt>
<wgt id='morphing_basis_vector_3'> +1.0396585e-05 </wgt>
<wgt id='morphing_basis_vector_4'> +1.0325458e-05 </wgt>
</rwgt>
</event>
<event>
 7      1 +1.0210000e-05 1.25780300e+02 7.81860800e-03 1.30411800e-01
        2 -1    0    0  502    0 +0.0000000000e+00 +0.0000000000e+00 +3.6400410287e+02 3.6400410287e+02 0.0000000000e+00 0.0000e+00 -1.0000e+00
        1 -1    0    0  501    0 -0.0000000000e+00 -0.0000000000e+00 -1.4853399097e+02 1.4853399097e+02 0.0000000000e+00 0.0000e+00 -1.0000e+00
       25  2    1    2    0    0 -6.6394545630e+01 -5.1321164359e+01 +9.7002731925e+01 1.7910192294e+02 1.2500348475e+02 0.0000e+00 0.0000e+00
        2  1    1    2  501    0 +1.2987116301e+02 +5.6076790225e+01 -5.2589241618e+01 1.5091969294e+02 0.0000000000e+00 0.0000e+00 -1.0000e+00
        1  1    1    2  502    0 -6.3476617384e+01 -4.7556258663e+00 +1.7105662159e+02 1.8251647795e+02 0.0000000000e+00 0.0000e+00 -1.0000e+00
       22  1    3    3    0    0 -6.9472139031e+01 -6.0546275119e+01 +1.2164521463e+02 1.5260992030e+02 0.0000000000e+00 0.0000e+00 1.0000e+00
       22  1    3    3    0    0 +3.0775934013e+00 +9.2251107600e+00 -2.4642482706e+01 2.6492002635e+01 0.0000000000e+00 0.0000e+00 1.0000e+00
<rwgt>
<wgt id='SM'> +1.0561167e-05 </wgt>
<wgt id='morphing_basis_vector_1'> +1.0526028e-05 </wgt>
<wgt id='morphing_basis_vector_2'> +1.0857674e-05 </wgt>
<wgt id='morphing_basis_vector_3'> +1.0376989e-05 </wgt>
<wgt id='morphing_basis_vector_4'> +1.0871989e-05 </wgt>
</rwgt>
</event>
<event>
 7      1 +1.0210000e-05 5.74891200e+01 7.81860800e-03 1.43226400e-01
        2 -1    0    0  502    0 +0.0000000000e+00 +0.0000000000e+00 +2.2293966287e+02 2.2293966287e+02 0.0000000000e+00 0.0000e+00 -1.0000e+00
        1 -1    0    0  501    0 -0.0000000000e+00 -0.0000000000e+00 -7.1762544291e+02 7.1762544291e+02 0.0000000000e+00 0.0000e+00 -1.0000e+00
       25  2    1    2    0    0 -3.5832326055e+01 -7.3813645109e+01 +3.0529366453e+01 1.5261191680e+02 1.2500378049e+02 0.0000e+00 0.0000e+00
        2  1    1    2  501    0 +4.4393069475e+01 +1.8147336884e+01 -6.4962284437e+02 6.5139075092e+02 0.0000000000e+00 0.0000e+00 -1.0000e+00
        1  1    1    2  502    0 -8.5607434197e+00 +5.5666308225e+01 +1.2440769787e+02 1.3656243806e+02 0.0000000000e+00 0.0000e+00 -1.0000e+00
       22  1    3    3    0    0 +3.2062219041e+01 -7.4426334104e+01 +2.3353078847e+01 8.4336417932e+01 0.0000000000e+00 0.0000e+00 1.0000e+00
       22  1    3    3    0    0 -6.7894545096e+01 +6.1268899458e-01 +7.1762876055e+00 6.8275498866e+01 0.0000000000e+00 0.0000e+00 1.0000e+00
<rwgt>
<wgt id='SM'> +1.0534854e-05 </wgt>
<wgt id='morphing_basis_vector_1'> +1.0405008e-05 </wgt>
<wgt id='morphing_basis_vector_2'> +1.0848442e-05 </wgt>
<wgt id='morphing_basis_vector_3'> +1.0477216e-05 </wgt>
<wgt id='morphing_basis_vector_4'> +1.0730063e-05 </wgt>
</rwgt>
</event>
<event>
 7      1 +1.0210000e-05 7.73649000e+01 7.81860800e-03 1.41369900e-01
        2 -1    0    0  502    0 +0.0000000000e+00 +0.0000000000e+00 +2.9235472809e+02 2.9235472809e+02 0.0000000000e+00 0.0000e+00 -1.0000e+00
        1 -1    0    0  501    0 -0.0000000000e+00 -0.0000000000e+00 -2.3962519355e+02 2.3962519355e+02 0.0000000000e+00 0.0000e+00 -1.0000e+00
       25  2    1    2    0    0 +3.2316784519e+01 -3.2651151863e+01 +6.1514362832e+01 1.4670140855e+02 1.2500725641e+02 0.0000e+00 0.0000e+00
        2  1    1    2  501    0 +3.8908369379e+01 -1.3186703604e+01 -1.8513710095e+02 1.8964044007e+02 0.0000000000e+00 0.0000e+00 -1.0000e+00
        1  1    1    2  502    0 -7.1225153898e+01 +4.5837855467e+01 +1.7635227267e+02 1.9563807302e+02 0.0000000000e+00 0.0000e+00 -1.0000e+00
       22  1    3    3    0    0 +1.0867217593e+01 -2.9424289889e+01 -3.5453294666e+01 4.7337314630e+01 0.0000000000e+00 0.0000e+00 1.0000e+00
       22  1    3    3    0    0 +2.1449566926e+01 -3.2268619739e+00 +9.6967657498e+01 9.9364093918e+01 0.0000000000e+00 0.0000e+00 1.0000e+00
<rwgt>
<wgt id='SM'> +1.0315045e-05 </wgt>
<wgt id='morphing_basis_vector_1'> +1.0270601e-05 </wgt>
<wgt id='morphing_basis_vector_2'> +1.0416980e-05 </wgt>
<wgt id='morphing_basis_vector_3'> +1.0299369e-05 </wgt>
<wgt id='morphing_basis_vector_4'> +1.0375932e-05 </wgt>
</rwgt>
</event>
<event>
 7      1 +1.0210000e-05 1.20753300e+02 7.81860800e-03 1.32374000e-01
        2 -1    0    0  502    0 +0.0000000000e+00 +0.0000000000e+00 +3.0017442020e+02 3.0017442020e+02 0.0000000000e+00 0.0000e+00 -1.0000e+00
        1 -1    0    0  501    0 -0.0000000000e+00 -0.0000000000e+00 -9.2370765695e+02 9.2370765695e+02 0.0000000000e+00 0.0000e+00 -1.0000e+00
       25  2    1    2    0    0 -1.5183928565e+01 -1.5757411762e+02 -3.8029334090e+01 2.0525699583e+02 1.2499619936e+02 0.0000e+00 0.0000e+00
        2  1    1    2  501    0 -2.6569432403e+01 +4.8784303346e+01 -7.8533679675e+02 7.8729900757e+02 0.0000000000e+00 0.0000e+00 -1.0000e+00
        1  1    1    2  502    0 +4.1753360968e+01 +1.0878981427e+02 +1.9983289409e+02 2.3132607376e+02 0.0000000000e+00 0.0000e+00 -1.0000e+00
       22  1    3    3    0    0 -7.0294520823e+01 -8.4051963718e+01 -1.5621799918e+01 1.1068013776e+02 0.0000000000e+00 0.0000e+00 1.0000e+00
       22  1    3    3    0    0 +5.5110592258e+01 -7.3522153901e+01 -2.2407534172e+01 9.4576858063e+01 0.0000000000e+00 0.0000e+00 1.0000e+00
<rwgt>
<wgt id='SM'> +1.0106205e-05 </wgt>
<wgt id='morphing_basis_vector_1'> +9.5092582e-06 </wgt>
<wgt id='morphing_basis_vector_2'> +1.0310387e-05 </wgt>
<wgt id='morphing_basis_vector_3'> +1.0880101e-05 </wgt>
<wgt id='morphing_basis_vector_4'> +9.5071812e-06 </wgt>
</rwgt>
</event>
<event>
 7      1 +1.0210000e-05 1.42528600e+02 7.81860800e-03 1.42606900e-01
        2 -1    0    0  502    0 +0.0000000000e+00 +0.0000000000e+00 +3.6865209892e+01 3.6865209892e+01 0.0000000000e+00 0.0000e+00 -1.0000e+00
        1 -1    0    0  501    0 -0.0000000000e+00 -0.0000000000e+00 -1.9060849771e+03 1.9060849771e+03 0.0000000000e+00 0.0000e+00 -1.0000e+00
       25  2    1    2    0    0 +5.5256868536e+01 -1.3466343261e+02 -6.1422401326e+02 6.4349372380e+02 1.2500189001e+02 0.0000e+00 0.0000e+00
        2  1    1    2  501    0 +1.6206120106e+01 +1.2184306448e+01 -1.0499949468e+03 1.0501906893e+03 0.0000000000e+00 0.0000e+00 -1.0000e+00
        1  1    1    2  502    0 -7.1462988643e+01 +1.2247912616e+02 -2.0500080722e+02 2.4926577393e+02 0.0000000000e+00 0.0000e+00 -1.0000e+00
       22  1    3    3    0    0 +4.2429480639e+01 -8.9533521765e+00 -5.4311814536e+01 6.9499615399e+01 0.0000000000e+00 0.0000e+00 1.0000e+00
       22  1    3    3    0    0 +1.2827387897e+01 -1.2571008044e+02 -5.5991219872e+02 5.7399410840e+02 0.0000000000e+00 0.0000e+00 1.0000e+00
<rwgt>
<wgt id='SM'> +1.0906029e-05 </wgt>
<wgt id='morphing_basis_vector_1'> +1.0347724e-05 </wgt>
<wgt id='morphing_basis_vector_2'> +1.1725984e-05 </wgt>
<wgt id='morphing_basis_vector_3'> +1.1108055e-05 </wgt>
<wgt id='morphing_basis_vector_4'> +1.1086372e-05 </wgt>
</rwgt>
</event>
<event>
 7      1 +1.0210000e-05 5.11613300e+01 7.81860800e-03 1.47240900e-01
        2 -1    0    0  502    0 +0.0000000000e+00 +0.0000000000e+00 +1.0854290431e+03 1.0854290431e+03 0.0000000000e+00 0.0000e+00 -1.0000e+00
        1 -1    0    0  501    0 -0.0000000000e+00 -0.0000000000e+00 -7.5707542520e+01 7.5707542520e+01 0.0000000000e+00 0.0000e+00 -1.0000e+00
       25  2    1    2    0    0 +4.8568557885e+01 -1.0198600391e+00 +2.0310544203e+02 2.4337446637e+02 1.2497745944e+02 0.0000e+00 0.0000e+00
        2  1    1    2  501    0 -1.3990549140e+01 -3.7611881315e+01 -4.7438482692e+01 6.2135325873e+01 0.0000000000e+00 0.0000e+00 -1.0000e+00
        1  1    1    2  502    0 -3.4578008745e+01 +3.8631741354e+01 +8.5405454126e+02 8.5562679339e+02 0.0000000000e+00 0.0000e+00 -1.0000e+00
       22  1    3    3    0    0 -4.2042449083e+01 -9.0350414886e+00 +6.0457254539e+01 7.4190829123e+01 0.0000000000e+00 0.0000e+00 1.0000e+00
       22  1    3    3    0    0 +9.0611006968e+01 +8.0151814495e+00 +1.4264818749e+02 1.6918363725e+02 0.0000000000e+00 0.0000e+00 1.0000e+00
<rwgt>
<wgt id='SM'> +1.0083198e-05 </wgt>
<wgt id='morphing_basis_vector_1'> +1.0013291e-05 </wgt>
<wgt id='morphing_basis_vector_2'> +1.0019106e-05 </wgt>
<wgt id='morphing_basis_vector_3'> +1.0244042e-05 </wgt>
<wgt id='morphing_basis_vector_4'> +9.9072561e-06 </wgt>
</rwgt>
</event>
<event>
 7      1 +1.0210000e-05 9.73628800e+01 7.81860800e-03 1.45690300e-01
        2 -1    0    0  502    0 +0.0000000000e+00 +0.0000000000e+00 +5.7837719114e+02 5.7837719114e+02 0.0000000000e+00 0.0000e+00 -1.0000e+00
        1 -1    0    0  501    0 -0.0000000000e+00 -0.0000000000e+00 -2.0169490083e+03 2.0169490083e+03 0.0000000000e+00 0.0000e+00 -1.0000e+00
       25  2    1    2    0    0 +3.0022901198e+01 -8.7082867744e+01 -4.4068617995e+02 4.6723939501e+02 1.2499417025e+02 0.0000e+00 0.0000e+00
        2  1    1    2  501    0 -9.0324785589e+00 +9.7834554399e+01 -1.5611952126e+03 1.5642837587e+03 0.0000000000e+00 0.0000e+00 -1.0000e+00
        1  1    1    2  502    0 -2.0990422639e+01 -1.0751686655e+01 +5.6330957544e+02 5.6380304575e+02 0.0000000000e+00 0.0000e+00 -1.0000e+00
       22  1    3    3    0    0 +8.5430669124e+00 -1.0805066189e+02 -2.2807349798e+02 2.5251821718e+02 0.0000000000e+00 0.0000e+00 1.0000e+00
       22  1    3    3    0    0 +2.1479834285e+01 +2.0967794147e+01 -2.1261268197e+02 2.1472117783e+02 0.0000000000e+00 0.0000e+00 1.0000e+00
<rwgt>
<wgt id='SM'> +1.0464186e-05 </wgt>
<wgt id='morphing_basis_vector_1'> +1.0301347e-05 </wgt>
<wgt id='morphing_basis_vector_2'> +1.0737820e-05 </wgt>
<wgt id='morphing_basis_vector_3'> +1.0489760e-05 </wgt>
<wgt id='morphing_basis_vector_4'> +1.0564044e-05 </wgt>
</rwgt>
</event>
<event>
 7      1 +1.0210000e-05 4.26570100e+01 7.81860800e-03 1.57979500e-01
        2 -1    0    0  502    0 +0.0000000000e+00 +0.0000000000e+00 +1.3781266420e+02 1.3781266420e+02 0.0000000000e+00 0.0000e+00 -1.0000e+00
        1 -1    0    0  501    0 -0.0000000000e+00 -0.0000000000e+00 -1.5099654838e+03 1.5099654838e+03 0.0000000000e+00 0.0000e+00 -1.0000e+00
       25  2    1    2    0    0 -2.6287932696e+01 -2.1582252677e+01 +8.8736400831e+01 1.5702096452e+02 1.2499834171e+02 0.0000e+00 0.0000e+00
        2  1    1    2  501    0 +1.2595776531e+01 +4.0792726773e+01 -1.4659981606e+03 1.4666196873e+03 0.0000000000e+00 0.0000e+00 -1.0000e+00
        1  1    1    2  502    0 +1.3692156165e+01 -1.9210474097e+01 +5.1089401485e+00 2.4137496243e+01 0.0000000000e+00 0.0000e+00 -1.0000e+00
       22  1    3    3    0    0 +6.8088636036e+00 +1.8603488119e+01 +1.0150289472e+02 1.0341802566e+02 0.0000000000e+00 0.0000e+00 -1.0000e+00
       22  1    3    3    0    0 -3.3096796300e+01 -4.0185740796e+01 -1.2766493890e+01 5.3602938864e+01 0.0000000000e+00 0.0000e+00 -1.0000e+00
<rwgt>
<wgt id='SM'> +9.9610112e-06 </wgt>
<wgt id='morphing_basis_vector_1'> +9.9157167e-06 </wgt>
<wgt id='morphing_basis_vector_2'> +9.7937616e-06 </wgt>
<wgt id='morphing_basis_vector_3'> +1.0172070e-05 </wgt>
<wgt id='morphing_basis_vector_4'> +9.6953205e-06 </wgt>
</rwgt>
</event>
<event>
 7      1 +1.0210000e-05 7.07562600e+01 7.81860800e-03 1.40222200e-01
        2 -1    0    0  502    0 +0.0000000000e+00 +0.0000000000e+00 +1.6166458394e+03 1.6166458394e+03 0.0000000000e+00 0.0000e+00 -1.0000e+00
        1 -1    0    0  501    0 -0.0000000000e+00 -0.0000000000e+00 -1.4368274510e+01 1.4368274510e+01 0.0000000000e+00 0.0000e+00 -1.0000e+00
       25  2    1    2    0    0 -5.4773292414e+01 +1.2561793691e+01 +8.1495149937e+02 8.2639487297e+02 1.2499851011e+02 0.0000e+00 0.0000e+00
        2  1    1    2  501    0 +4.6652600465e+01 -6.1026746344e+01 +1.8530311777e+02 2.0059405363e+02 0.0000000000e+00 0.0000e+00 -1.0000e+00
        1  1    1    2  502    0 +8.1206919485e+00 +4.8464952653e+01 +6.0202294772e+02 6.0402518726e+02 0.0000000000e+00 0.0000e+00 -1.0000e+00
       22  1    3    3    0    0 -2.9556882699e+01 -2.7871526656e+00 +7.8033803921e+02 7.8090257585e+02 0.0000000000e+00 0.0000e+00 1.0000e+00
       22  1    3    3    0    0 -2.5216409714e+01 +1.5348946356e+01 +3.4613460161e+01 4.5492297122e+01 0.0000000000e+00 0.0000e+00 1.0000e+00
<rwgt>
<wgt id='SM'> +1.0637209e-05 </wgt>
<wgt id='morphing_basis_vector_1'> +1.0674921e-05 </wgt>
<wgt id='morphing_basis_vector_2'> +1.0957556e-05 </wgt>
<wgt id='morphing_basis_vector_3'> +1.0322043e-05 </wgt>
<wgt id='morphing_basis_vector_4'> +1.1079440e-05 </wgt>
</rwgt>
</event>
<event>
 7      1 +1.0210000e-05 1.30542600e+02 7.81860800e-03 1.28053600e-01
        2 -1    0    0  502    0 +0.0000000000e+00 +0.0000000000e+00 +1.7438975695e+02 1.7438975695e+02 0.0000000000e+00 0.0000e+00 -1.0000e+00
        1 -1    0    0  501    0 -0.0000000000e+00 -0.0000000000e+00 -5.7243245102e+02 5.7243245102e+02 0.0000000000e+00 0.0000e+00 -1.0000e+00
       25  2    1    2    0    0 -6.6953555753e+01 +4.0727244786e+00 -2.3234510358e+02 2.7222904404e+02 1.2500015819e+02 0.0000e+00 0.0000e+00
        2  1    1    2  501    0 -6.4498582358e+01 +4.1003170446e+01 -2.8275099413e+02 2.9289836428e+02 0.0000000000e+00 0.0000e+00 -1.0000e+00
        1  1    1    2  502    0 +1.3145213811e+02 -4.5075894924e+01 +1.1705340364e+02 1.8169479965e+02 0.0000000000e+00 0.0000e+00 -1.0000e+00
       22  1    3    3    0    0 -5.9738434362e+01 -5.3712773673e+01 -1.6264495293e+02 1.8140320645e+02 0.0000000000e+00 0.0000e+00 1.0000e+00
       22  1    3    3    0    0 -7.2151213905e+00 +5.7785498152e+01 -6.9700150653e+01 9.0825837593e+01 0.0000000000e+00 0.0000e+00 1.0000e+00
<rwgt>
<wgt id='SM'> +9.9832162e-06 </wgt>
<wgt id='morphing_basis_vector_1'> +9.9420715e-06 </wgt>
<wgt id='morphing_basis_vector_2'> +9.8334814e-06 </wgt>
<wgt id='morphing_basis_vector_3'> +1.0174954e-05 </wgt>
<wgt id='morphing_basis_vector_4'> +9.7461302e-06 </wgt>
</rwgt>
</event>
<event>
 7      1 +1.0210000e-05 9.81757400e+01 7.81860800e-03 1.30460100e-01
        2 -1    0    0  502    0 +0.0000000000e+00 +0.0000000000e+00 +5.5747824818e+02 5.5747824818e+02 0.0000000000e+00 0.0000e+00 -1.0000e+00
        1 -1    0    0  501    0 -0.0000000000e+00 -0.0000000000e+00 -1.5975902522e+03 1.5975902522e+03 0.0000000000e+00 0.0000e+00 -1.0000e+00
       25  2    1    2    0    0 +3.1102089935e+01 -7.1326787599e+01 -7.7322568210e+02 7.8711995485e+02 1.2500006894e+02 0.0000e+00 0.0000e+00
        2  1    1    2  501    0 -1.0950187538e+02 +5.0214261330e+01 -8.0994456157e+02 8.1885427615e+02 0.0000000000e+00 0.0000e+00 -1.0000e+00
        1  1    1    2  502    0 +7.8399785440e+01 +2.1112526269e+01 +5.4305823960e+02 5.4909426943e+02 0.0000000000e+00 0.0000e+00 -1.0000e+00
       22  1    3    3    0    0 -6.5916508375e+00 -9.5145957485e+01 -6.2807288788e+02 6.3527297722e+02 0.0000000000e+00 0.0000e+00 1.0000e+00
       22  1    3    3    0    0 +3.7693740773e+01 +2.3819169886e+01 -1.4515279421e+02 1.5184697763e+02 0.0000000000e+00 0.0000e+00 1.0000e+00
<rwgt>
<wgt id='SM'> +9.7656799e-06 </wgt>
<wgt id='morphing_basis_vector_1'> +9.4893002e-06 </wgt>
<wgt id='morphing_basis_vector_2'> +9.5607046e-06 </wgt>
<wgt id='morphing_basis_vector_3'> +1.0373244e-05 </wgt>
<wgt id='morphing_basis_vector_4'> +9.1345015e-06 </wgt>
</rwgt>
</event>
<event>
 7      1 +1.0210000e-05 9.95267400e+01 7.81860800e-03 1.47244700e-01
        2 -1    0    0  502    0 +0.0000000000e+00 +0.0000000000e+00 +1.5248401700e+03 1.5248401700e+03 0.0000000000e+00 0.0000e+00 -1.0000e+00
        1 -1    0    0  501    0 -0.0000000000e+00 -0.0000000000e+00 -2.3770727677e+03 2.3770727677e+03 0.0000000000e+00 0.0000e+00 -1.0000e+00
       25  2    1    2    0    0 -3.0747642340e+01 +7.4000351413e+01 +3.8107566219e+02 4.0898039240e+02 1.2499932613e+02 0.0000e+00 0.0000e+00
        2  1    1    2  501    0 +3.1028209212e+01 -9.4621352838e+01 -2.3619771324e+03 2.3640752788e+03 0.0000000000e+00 0.0000e+00 -1.0000e+00
        1  1    1    2  502    0 -2.8056687195e-01 +2.0621001425e+01 +1.1286688725e+03 1.1288572665e+03 0.0000000000e+00 0.0000e+00 -1.0000e+00
       22  1    3    3    0    0 +4.6237555429e+01 +1.2239903401e+01 +1.5717786575e+02 1.6429427333e+02 0.0000000000e+00 0.0000e+00 -1.0000e+00
       22  1    3    3    0    0 -7.6985197769e+01 +6.1760448012e+01 +2.2389779644e+02 2.4468611907e+02 0.0000000000e+00 0.0000e+00 -1.0000e+00
<rwgt>
<wgt id='SM'> +1.0306976e-05 </wgt>
<wgt id='morphing_basis_vector_1'> +1.0214971e-05 </wgt>
<wgt id='morphing_basis_vector_2'> +1.0424647e-05 </wgt>
<wgt id='morphing_basis_vector_3'> +1.0351191e-05 </wgt>
<wgt id='morphing_basis_vector_4'> +1.0319442e-05 </wgt>
</rwgt>
</event>
<event>
 7      1 +1.0210000e-05 7.19761800e+01 7.81860800e-03 1.39047000e-01
        2 -1    0    0  502    0 +0.0000000000e+00 +0.0000000000e+00 +1.9119850663e+03 1.9119850663e+03 0.0000000000e+00 0.0000e+00 -1.0000e+00
        1 -1    0    0  501    0 -0.0000000000e+00 -0.0000000000e+00 -5.4196205394e+02 5.4196205394e+02 0.0000000000e+00 0.0000e+00 -1.0000e+00
       25  2    1    2    0    0 -5.5337616034e+01 +5.1136156703e+01 +3.2661770920e+02 3.5774354786e+02 1.2499663915e+02 0.0000e+00 0.0000e+00
        2  1    1    2  501    0 +7.2086798893e+01 -8.0445821125e-01 -5.2347994933e+02 5.2842067624e+02 0.0000000000e+00 0.0000e+00 -1.0000e+00
        1  1    1    2  502    0 -1.6749182859e+01 -5.0331698492e+01 +1.5668852525e+03 1.5677828961e+03 0.0000000000e+00 0.0000e+00 -1.0000e+00
       22  1    3    3    0    0 +1.7235136544e+01 +6.5472450406e+01 +1.9941442189e+02 2.1059393000e+02 0.0000000000e+00 0.0000e+00 1.0000e+00
       22  1    3    3    0    0 -7.2572752578e+01 -1.4336293703e+01 +1.2720328731e+02 1.4714961786e+02 0.0000000000e+00 0.0000e+00 1.0000e+00
<rwgt>
<wgt id='SM'> +1.0016190e-05 </wgt>
<wgt id='morphing_basis_vector_1'> +9.8808560e-06 </wgt>
<wgt id='morphing_basis_vector_2'> +9.9318657e-06 </wgt>
<wgt id='morphing_basis_vector_3'> +1.0295668e-05 </wgt>
<wgt id='morphing_basis_vector_4'> +9.7242187e-06 </wgt>
</rwgt>
</event>
<event>
 7      1 +1.0210000e-05 1.14043800e+02 7.81860800e-03 1.26245500e-01
        2 -1    0    0  502    0 +0.0000000000e+00 +0.0000000000e+00 +9.2978344968e+02 9.2978344968e+02 0.0000000000e+00 0.0000e+00 -1.0000e+00
        1 -1    0    0  501    0 -0.0000000000e+00 -0.0000000000e+00 -9.0274715109e+02 9.0274715109e+02 0.0000000000e+00 0.0000e+00 -1.0000e+00
       25  2    1    2    0    0 +3.0456519673e+01 -3.7649827103e+01 +1.8207984757e+01 1.3527567580e+02 1.2499147444e+02 0.0000e+00 0.0000e+00
        2  1    1    2  501    0 +8.8898686529e+01 +5.4273774299e+01 -8.3671219950e+02 8.4317016304e+02 0.0000000000e+00 0.0000e+00 -1.0000e+00
        1  1    1    2  502    0 -1.1935520620e+02 -1.6623947196e+01 +8.4554051333e+02 8.5408476193e+02 0.0000000000e+00 0.0000e+00 -1.0000e+00
       22  1    3    3    0    0 +7.0918864574e+00 +1.7354100260e+01 -4.4721330512e+01 4.8491824591e+01 0.0000000000e+00 0.0000e+00 1.0000e+00
       22  1    3    3    0    0 +2.3364633215e+01 -5.5003927364e+01 +6.2929315269e+01 8.6783851211e+01 0.0000000000e+00 0.0000e+00 1.0000e+00
<rwgt>
<wgt id='SM'> +1.0571655e-05 </wgt>
<wgt id='morphing_basis_vector_1'> +1.0579602e-05 </wgt>
<wgt id='morphing_basis_vector_2'> +1.0849218e-05 </wgt>
<wgt id='morphing_basis_vector_3'> +1.0333190e-05 </wgt>
<wgt id='morphing_basis_vector_4'> +1.0920592e-05 </wgt>
</rwgt>
</event>
<event>
 7      1 +1.0210000e-05 8.21720900e+01 7.81860800e-03 1.37520200e-01
        2 -1    0    0  502    0 +0.0000000000e+00 +0.0000000000e+00 +2.9574496920e+02 2.9574496920e+02 0.0000000000e+00 0.0000e+00 -1.0000e+00
        1 -1    0    0  501    0 -0.0000000000e+00 -0.0000000000e+00 -1.0121130596e+03 1.0121130596e+03 0.0000000000e+00 0.0000e+00 -1.0000e+00
       25  2    1    2    0    0 +7.1969455287e+01 +6.9201098534e+01 -9.1143931257e+01 1.8412132981e+02 1.2500021341e+02 0.0000e+00 0.0000e+00
        2  1    1    2  501    0 -8.0195980415e+01 -1.7251436687e+01 -8.6975419349e+02 8.7361396763e+02 0.0000000000e+00 0.0000e+00 -1.0000e+00
        1  1    1    2  502    0 +8.2265251284e+00 -5.1949661847e+01 +2.4453003431e+02 2.5012273140e+02 0.0000000000e+00 0.0000e+00 -1.0000e+00
       22  1    3    3    0    0 +7.5139900173e+01 +4.2094196699e+01 +2.9213287424e+00 8.6176911962e+01 0.0000000000e+00 0.0000e+00 -1.0000e+00
       22  1    3    3    0    0 -3.1704448861e+00 +2.7106901835e+01 -9.4065260000e+01 9.7944417843e+01 0.0000000000e+00 0.0000e+00 -1.0000e+00
<rwgt>
<wgt id='SM'> +1.0639580e-05 </wgt>
<wgt id='morphing_basis_vector_1'> +1.0488208e-05 </wgt>
<wgt id='morphing_basis_vector_2'> +1.1046377e-05 </wgt>
<wgt id='morphing_basis_vector_3'> +1.0539442e-05 </wgt>
<wgt id='morphing_basis_vector_4'> +1.0916487e-05 </wgt>
</rwgt>
</event>
<event>
 7      1 +1.0210000e-05 5.89860800e+01 7.81860800e-03 1.42517900e-01
        2 -1    0    0  502    0 +0.0000000000e+00 +0.0000000000e+00 +1.2707401256e+03 1.2707401256e+03 0.0000000000e+00 0.0000e+00 -1.0000e+00
        1 -1    0    0  501    0 -0.0000000000e+00 -0.0000000000e+00 -1.2804782950e+02 1.2804782950e+02 0.0000000000e+00 0.0000e+00 -1.0000e+00
       25  2    1    2    0    0 -4.5118038706e+01 +2.4807379957e-01 +6.0867205846e+01 1.4617304515e+02 1.2500417363e+02 0.0000e+00 0.0000e+00
        2  1    1    2  501    0 +9.9368483713e+00 -4.8314396921e+01 -7.7443046896e+01 9.1817467935e+01 0.0000000000e+00 0.0000e+00 -1.0000e+00
        1  1    1    2  502    0 +3.5181190334e+01 +4.8066323122e+01 +1.1592681372e+03 1.1607974420e+03 0.0000000000e+00 0.0000e+00 -1.0000e+00
       22  1    3    3    0    0 -5.4113332801e+01 +4.9512674457e+01 +6.2060898509e+01 9.6079721287e+01 0.0000000000e+00 0.0000e+00 1.0000e+00
       22  1    3    3    0    0 +8.9952940954e+00 -4.9264600658e+01 -1.1936926628e+00 5.0093323867e+01 0.0000000000e+00 0.0000e+00 1.0000e+00
<rwgt>
<wgt id='SM'> +1.0408492e-05 </wgt>
<wgt id='morphing_basis_vector_1'> +1.0396155e-05 </wgt>
<wgt id='morphing_basis_vector_2'> +1.0567649e-05 </wgt>
<wgt id='morphing_basis_vector_3'> +1.0296780e-05 </wgt>
<wgt id='morphing_basis_vector_4'> +1.0584330e-05 </wgt>
</rwgt>
</event>
<event>
 7      1 +1.0210000e-05 6.11746100e+01 7.81860800e-03 1.49044300e-01
        2 -1    0    0  502    0 +0.0000000000e+00 +0.0000000000e+00 +2.3848580477e+02 2.3848580477e+02 0.0000000000e+00 0.0000e+00 -1.0000e+00
        1 -1    0    0  501    0 -0.0000000000e+00 -0.0000000000e+00 -2.7081961547e+02 2.7081961547e+02 0.0000000000e+00 0.0000e+00 -1.0000e+00
       25  2    1    2    0    0 -2.4176004951e+01 +7.7498422382e+01 -1.4429362144e+02 2.0745261904e+02 1.2500182108e+02 0.0000e+00 0.0000e+00
        2  1    1    2  501    0 +2.4353671436e+01 -1.6744212193e+01 -8.8019294224e+01 9.2848619323e+01 0.0000000000e+00 0.0000e+00 -1.0000e+00
        1  1    1    2  502    0 -1.7766648482e-01 -6.0754210189e+01 +1.9997910496e+02 2.0900418188e+02 0.0000000000e+00 0.0000e+00 -1.0000e+00
       22  1    3    3    0    0 -3.9664359958e+01 +1.0531230650e+02 -1.3166449732e+02 1.7320358889e+02 0.0000000000e+00 0.0000e+00 1.0000e+00
       22  1    3    3    0    0 +1.5488355007e+01 -2.7813884114e+01 -1.2629124120e+01 3.4249030153e+01 0.0000000000e+00 0.0000e+00 1.0000e+00
<rwgt>
<wgt id='SM'> +1.0103043e-05 </wgt>
<wgt id='morphing_basis_vector_1'> +9.8882350e-06 </wgt>
<wgt id='morphing_basis_vector_2'> +1.0122383e-05 </wgt>
<wgt id='morphing_basis_vector_3'> +1.0420255e-05 </wgt>
<wgt id='morphing_basis_vector_4'> +9.8235661e-06 </wgt>
</rwgt>
</event>
<event>
 7      1 +1.0210000e-05 1.02109000e+02 7.81860800e-03 1.35838700e-01
        2 -1    0    0  502    0 +0.0000000000e+00 +0.0000000000e+00 +3.5759619815e+02 3.5759619815e+02 0.0000000000e+00 0.0000e+00 -1.0000e+00
        1 -1    0    0  501    0 -0.0000000000e+00 -0.0000000000e+00 -1.9229532336e+03 1.9229532336e+03 0.0000000000e+00 0.0000e+00 -1.0000e+00
       25  2    1    2    0    0 +1.3960733518e+02 +2.8506766671e+00 -3.2128976286e+02 3.7195628257e+02 1.2500412005e+02 0.0000e+00 0.0000e+00
        2  1    1    2  501    0 -9.7594984141e+01 +2.1743058272e+01 -1.5729511315e+03 1.5761258845e+03 0.0000000000e+00 0.0000e+00 -1.0000e+00
        1  1    1    2  502    0 -4.2012351041e+01 -2.4593734939e+01 +3.2888385894e+02 3.3246726472e+02 0.0000000000e+00 0.0000e+00 -1.0000e+00
       22  1    3    3    0    0 +1.2431399893e+02 +4.0863027934e+01 -1.6613154809e+02 2.1147919201e+02 0.0000000000e+00 0.0000e+00 1.0000e+00
       22  1    3    3    0    0 +1.5293336247e+01 -3.8012351267e+01 -1.5515821478e+02 1.6047709056e+02 0.0000000000e+00 0.0000e+00 1.0000e+00
<rwgt>
<wgt id='SM'> +1.0662391e-05 </wgt>
<wgt id='morphing_basis_vector_1'> +1.0304435e-05 </wgt>
<wgt id='morphing_basis_vector_2'> +1.1186761e-05 </wgt>
<wgt id='morphing_basis_vector_3'> +1.0787213e-05 </wgt>
<wgt id='morphing_basis_vector_4'> +1.0782827e-05 </wgt>
</rwgt>
</event>
<event>
 7      1 +1.0210000e-05 1.57167900e+02 7.81860800e-03 1.32386100e-01
        2 -1    0    0  502    0 +0.0000000000e+00 +0.0000000000e+00 +8.7225129981e+02 8.7225129981e+02 0.0000000000e+00 0.0000e+00 -1.0000e+00
        1 -1    0    0  501    0 -0.0000000000e+00 -0.0000000000e+00 -1.1181768370e+03 1.1181768370e+03 0.0000000000e+00 0.0000e+00 -1.0000e+00
       25  2    1    2    0    0 -7.2267524999e+01 -1.6676107218e+02 +5.1623980541e+01 2.2654374979e+02 1.2500073934e+02 0.0000e+00 0.0000e+00
        2  1    1    2  501    0 +8.9796144677e+01 +1.2789726080e+02 -1.0241651971e+03 1.0360190190e+03 0.0000000000e+00 0.0000e+00 -1.0000e+00
        1  1    1    2  502    0 -1.7528619678e+01 +3.8863811388e+01 +7.2661567938e+02 7.2786536795e+02 0.0000000000e+00 0.0000e+00 -1.0000e+00
       22  1    3    3    0    0 +1.6969392377e+01 -5.1923726784e+01 -2.7307596856e+01 6.1071585266e+01 0.0000000000e+00 0.0000e+00 -1.0000e+00
       22  1    3    3    0    0 -8.9236917376e+01 -1.1483734540e+02 +7.8931577397e+01 1.6547216452e+02 0.0000000000e+00 0.0000e+00 -1.0000e+00
<rwgt>
<wgt id='SM'> +1.0974728e-05 </wgt>
<wgt id='morphing_basis_vector_1'> +1.0398874e-05 </wgt>
<wgt id='morphing_basis_vector_2'> +1.1859453e-05 </wgt>
<wgt id='morphing_basis_vector_3'> +1.1151814e-05 </wgt>
<wgt id='morphing_basis_vector_4'> +1.1206552e-05 </wgt>
</rwgt>
</event>
<event>
 7      1 +1.0210000e-05 1.54290300e+02 7.81860800e-03 1.27240900e-01
        2 -1    0    0  502    0 +0.0000000000e+00 +0.0000000000e+00 +5.2406050042e+02 5.2406050042e+02 0.0000000000e+00 0.0000e+00 -1.0000e+00
        1 -1    0    0  501    0 -0.0000000000e+00 -0.0000000000e+00 -1.7427623634e+02 1.7427623634e+02 0.0000000000e+00 0.0000e+00 -1.0000e+00
       25  2    1    2    0    0 +9.9603030757e+01 -1.8254721866e+02 +9.4286669031e+01 2.6030598021e+02 1.2499990641e+02 0.0000e+00 0.0000e+00
        2  1    1    2  501    0 -5.2784374338e+01 +4.5815747868e+01 -5.9287854071e+01 9.1653273631e+01 0.0000000000e+00 0.0000e+00 -1.0000e+00
        1  1    1    2  502    0 -4.6818656418e+01 +1.3673147079e+02 +3.1478544913e+02 3.4637748292e+02 0.0000000000e+00 0.0000e+00 -1.0000e+00
       22  1    3    3    0    0 +5.3521515692e+01 -1.8624847271e+02 +9.0629435972e+01 2.1393162668e+02 0.0000000000e+00 0.0000e+00 -1.0000e+00
       22  1    3    3    0    0 +4.6081515064e+01 +3.7012540519e+00 +3.6572330597e+00 4.6374353536e+01 0.0000000000e+00 0.0000e+00 -1.0000e+00
<rwgt>
<wgt id='SM'> +1.0111971e-05 </wgt>
<wgt id='morphing_basis_vector_1'> +8.6436421e-06 </wgt>
<wgt id='morphing_basis_vector_2'> +1.0789973e-05 </wgt>
<wgt id='morphing_basis_vector_3'> +1.1992924e-05 </wgt>
<wgt id='morphing_basis_vector_4'> +8.8098787e-06 </wgt>
</rwgt>
</event>
<event>
 7      1 +1.0210000e-05 1.02317400e+02 7.81860800e-03 1.28632800e-01
        2 -1    0    0  502    0 +0.0000000000e+00 +0.0000000000e+00 +1.4906766765e+03 1.4906766765e+03 0.0000000000e+00 0.0000e+00 -1.0000e+00
        1 -1    0    0  501    0 -0.0000000000e+00 -0.0000000000e+00 -9.4626403393e+01 9.4626403393e+01 0.0000000000e+00 0.0000e+00 -1.0000e+00
       25  2    1    2    0    0 +3.9238572928e+01 +1.9284243533e+01 +3.8051450673e+02 4.0290145414e+02 1.2500697685e+02 0.0000e+00 0.0000e+00
        2  1    1    2  501    0 -4.4986123182e+01 +9.1897272478e+01 -4.8026557707e+01 1.1302836022e+02 0.0000000000e+00 0.0000e+00 -1.0000e+00
        1  1    1    2  502    0 +5.7475502540e+00 -1.1118151601e+02 +1.0635623241e+03 1.0693732656e+03 0.0000000000e+00 0.0000e+00 -1.0000e+00
       22  1    3    3    0    0 +1.5735811999e+01 -3.0871315178e+01 +2.4096854823e+01 4.2205595511e+01 0.0000000000e+00 0.0000e+00 1.0000e+00
       22  1    3    3    0    0 +2.3502760929e+01 +5.0155558711e+01 +3.5641765190e+02 3.6069585863e+02 0.0000000000e+00 0.0000e+00 1.0000e+00
<rwgt>
<wgt id='SM'> +1.0584051e-05 </wgt>
<wgt id='morphing_basis_vector_1'> +1.0603162e-05 </wgt>
<wgt id='morphing_basis_vector_2'> +1.0867465e-05 </wgt>
<wgt id='morphing_basis_vector_3'> +1.0324774e-05 </wgt>
<wgt id='morphing_basis_vector_4'> +1.0956102e-05 </wgt>
</rwgt>
</event>
<event>
 7      1 +1.0210000e-05 7.84972600e+01 7.81860800e-03 1.34350500e-01
        2 -1    0    0  502    0 +0.0000000000e+00 +0.0000000000e+00 +4.1449685858e+02 4.1449685858e+02 0.0000000000e+00 0.0000e+00 -1.0000e+00
        1 -1    0    0  501    0 -0.0000000000e+00 -0.0000000000e+00 -2.9251071073e+02 2.9251071073e+02 0.0000000000e+00 0.0000e+00 -1.0000e+00
       25  2    1    2    0    0 -1.4632865106e+01 -1.3065651620e+02 +1.3340813246e+02 2.2518435172e+02 1.2500006594e+02 0.0000e+00 0.0000e+00
        2  1    1    2  501    0 -2.3054492474e+01 +6.8087485967e+01 -2.3545490437e+02 2.4618372684e+02 0.0000000000e+00 0.0000e+00 -1.0000e+00
        1  1    1    2  502    0 +3.7687357580e+01 +6.2569030232e+01 +2.2403291976e+02 2.3563949075e+02 0.0000000000e+00 0.0000e+00 -1.0000e+00
       22  1    3    3    0    0 -5.7479400135e+00 +2.1888415425e+01 +4.5205744043e-01 2.2635059093e+01 0.0000000000e+00 0.0000e+00 1.0000e+00
       22  1    3    3    0    0 -8.8849250926e+00 -1.5254493162e+02 +1.3295607502e+02 2.0254929262e+02 0.0000000000e+00 0.0000e+00 1.0000e+00
<rwgt>
<wgt id='SM'> +1.0046388e-05 </wgt>
<wgt id='morphing_basis_vector_1'> +9.5633814e-06 </wgt>
<wgt id='morphing_basis_vector_2'> +1.0150544e-05 </wgt>
<wgt id='morphing_basis_vector_3'> +1.0720233e-05 </wgt>
<wgt id='morphing_basis_vector_4'> +9.4902998e-06 </wgt>
</rwgt>
</event>
<event>
 7      1 +1.0210000e-05 6.08090200e+01 7.81860800e-03 1.42415300e-01
        2 -1    0    0  502    0 +0.0000000000e+00 +0.0000000000e+00 +4.9636579679e+01 4.9636579679e+01 0.0000000000e+00 0.0000e+00 -1.0000e+00
        1 -1    0    0  501    0 -0.0000000000e+00 -0.0000000000e+00 -1.4728641276e+03 1.4728641276e+03 0.0000000000e+00 0.0000e+00 -1.0000e+00
       25  2    1    2    0    0 -5.8593791621e+01 -5.5307931427e+01 -4.1525437481e+02 4.4108223396e+02 1.2500056647e+02 0.0000e+00 0.0000e+00
        2  1    1    2  501    0 +1.0555287599e+01 +5.9529478568e+01 -1.0275831450e+03 1.0293601375e+03 0.0000000000e+00 0.0000e+00 -1.0000e+00
        1  1    1    2  502    0 +4.8038504021e+01 -4.2215471412e+00 +1.9609971859e+01 5.2058335790e+01 0.0000000000e+00 0.0000e+00 -1.0000e+00
       22  1    3    3    0    0 -4.3199734244e+01 -7.7695503747e+01 -4.0033397846e+02 4.1008548213e+02 0.0000000000e+00 0.0000e+00 1.0000e+00
       22  1    3    3    0    0 -1.5394057377e+01 +2.2387572320e+01 -1.4920396354e+01 3.0996751834e+01 0.0000000000e+00 0.0000e+00 1.0000e+00
<rwgt>
<wgt id='SM'> +1.0027159e-05 </wgt>
<wgt id='morphing_basis_vector_1'> +9.8429815e-06 </wgt>
<wgt id='morphing_basis_vector_2'> +9.9740409e-06 </wgt>
<wgt id='morphing_basis_vector_3'> +1.0356974e-05 </wgt>
<wgt id='morphing_basis_vector_4'> +9.7041382e-06 </wgt>
</rwgt>
</event>
<event>
 7      1 +1.0210000e-05 7.53697300e+01 7.81860800e-03 1.37780300e-01
        2 -1    0    0  502    0 +0.0000000000e+00 +0.0000000000e+00 +7.9722723223e+01 7.9722723223e+01 0.0000000000e+00 0.0000e+00 -1.0000e+00
        1 -1    0    0  501    0 -0.0000000000e+00 -0.0000000000e+00 -2.7711440436e+02 2.7711440436e+02 0.0000000000e+00 0.0000e+00 -1.0000e+00
       25  2    1    2    0    0 +3.6342611331e+01 +8.6365723893e+01 -6.4828093244e+01 1.6913302245e+02 1.2499389563e+02 0.0000e+00 0.0000e+00
        2  1    1    2  501    0 +1.7745238089e+01 -7.1346309303e+01 -5.4335459636e+01 9.1419535657e+01 0.0000000000e+00 0.0000e+00 -1.0000e+00
        1  1    1    2  502    0 -5.4087849420e+01 -1.5019414590e+01 -7.8228128257e+01 9.6284569481e+01 0.0000000000e+00 0.0000e+00 -1.0000e+00
       22  1    3    3    0    0 -2.0333479011e+01 -2.0289270739e+01 +5.6788535306e+00 2.9280612241e+01 0.0000000000e+00 0.0000e+00 -1.0000e+00
       22  1    3    3    0    0 +5.6676090343e+01 +1.0665499463e+02 -7.0506946775e+01 1.3985241020e+02 0.0000000000e+00 0.0000e+00 -1.0000e+00
<rwgt>
<wgt id='SM'> +8.7712319e-06 </wgt>
<wgt id='morphing_basis_vector_1'> +8.9145971e-06 </wgt>
<wgt id='morphing_basis_vector_2'> +7.7256197e-06 </wgt>
<wgt id='morphing_basis_vector_3'> +9.5651632e-06 </wgt>
<wgt id='morphing_basis_vector_4'> +7.7530806e-06 </wgt>
</rwgt>
</event>
<event>
 7      1 +1.0210000e-05 6.50119500e+01 7.81860800e-03 1.43556800e-01
        2 -1    0    0  502    0 +0.0000000000e+00 +0.0000000000e+00 +1.2214626474e+03 1.2214626474e+03 0.0000000000e+00 0.0000e+00 -1.0000e+00
        1 -1    0    0  501    0 -0.0000000000e+00 -0.0000000000e+00 -5.6482923645e+02 5.6482923645e+02 0.0000000000e+00 0.0000e+00 -1.0000e+00
       25  2    1    2    0    0 -2.4788686766e+01 +2.0644425460e+00 +6.0011360738e+01 1.4087307655e+02 1.2500047745e+02 0.0000e+00 0.0000e+00
        2  1    1    2  501    0 -4.1159251508e+01 -4.1318633876e+00 -5.2260952727e+02 5.2424409798e+02 0.0000000000e+00 0.0000e+00 -1.0000e+00
        1  1    1    2  502    0 +6.5947938274e+01 +2.0674208416e+00 +1.1192315775e+03 1.1211747093e+03 0.0000000000e+00 0.0000e+00 -1.0000e+00
       22  1    3    3    0    0 -4.8895335394e+01 -4.1354225082e+01 +6.4646795439e+01 9.0995241172e+01 0.0000000000e+00 0.0000e+00 1.0000e+00
       22  1    3    3    0    0 +2.4106648628e+01 +4.3418667628e+01 -4.6354347011e+00 4.9877835373e+01 0.0000000000e+00 0.0000e+00 1.0000e+00
<rwgt>
<wgt id='SM'> +1.0228323e-05 </wgt>
<wgt id='morphing_basis_vector_1'> +1.0219126e-05 </wgt>
<wgt id='morphing_basis_vector_2'> +1.0246653e-05 </wgt>
<wgt id='morphing_basis_vector_3'> +1.0227270e-05 </wgt>
<wgt id='morphing_basis_vector_4'> +1.0237604e-05 </wgt>
</rwgt>
</event>
<event>
 7      1 +1.0210000e-05 9.44480900e+01 7.81860800e-03 1.33467000e-01
        2 -1    0    0  502    0 +0.0000000000e+00 +0.0000000000e+00 +1.8645182109e+03 1.8645182109e+03 0.0000000000e+00 0.0000e+00 -1.0000e+00
        1 -1    0    0  501    0 -0.0000000000e+00 -0.0000000000e+00 -5.0041314706e+02 5.0041314706e+02 0.0000000000e+00 0.0000e+00 -1.0000e+00
       25  2    1    2    0    0 -1.2662331080e+02 +9.4577372087e+01 +1.4571570563e+01 2.0202854703e+02 1.2499944399e+02 0.0000e+00 0.0000e+00
        2  1    1    2  501    0 +5.0375504870e+01 -4.0286967638e+01 -4.0287007638e+02 4.0800126188e+02 0.0000000000e+00 0.0000e+00 -1.0000e+00
        1  1    1    2  502    0 +7.6247805932e+01 -5.4290404449e+01 +1.7524035697e+03 1.7549015491e+03 0.0000000000e+00 0.0000e+00 -1.0000e+00
       22  1    3    3    0    0 -1.1892883438e+01 -1.1770993440e+01 -3.4274839586e+01 3.8141337046e+01 0.0000000000e+00 0.0000e+00 -1.0000e+00
       22  1    3    3    0    0 -1.1473042736e+02 +1.0634836553e+02 +4.8846410148e+01 1.6388720999e+02 0.0000000000e+00 0.0000e+00 -1.0000e+00
<rwgt>
<wgt id='SM'> +1.0489297e-05 </wgt>
<wgt id='morphing_basis_vector_1'> +1.0016714e-05 </wgt>
<wgt id='morphing_basis_vector_2'> +1.0931621e-05 </wgt>
<wgt id='morphing_basis_vector_3'> +1.0862397e-05 </wgt>
<wgt id='morphing_basis_vector_4'> +1.0347333e-05 </wgt>
</rwgt>
</event>
<event>
 7      1 +1.0210000e-05 7.93891600e+01 7.81860800e-03 1.49250400e-01
        2 -1    0    0  502    0 +0.0000000000e+00 +0.0000000000e+00 +1.7974607245e+03 1.7974607245e+03 0.0000000000e+00 0.0000e+00 -1.0000e+00
        1 -1    0    0  501    0 -0.0000000000e+00 -0.0000000000e+00 -2.0002274938e+01 2.0002274938e+01 0.0000000000e+00 0.0000e+00 -1.0000e+00
       25  2    1    2    0    0 +5.8061608003e+01 -1.8260894534e+01 +1.2882310822e+03 1.2957112241e+03 1.2499457764e+02 0.0000e+00 0.0000e+00
        2  1    1    2  501    0 -7.9868361097e+01 +1.2926564144e+01 +8.6656659900e+01 1.1855558979e+02 0.0000000000e+00 0.0000e+00 -1.0000e+00
        1  1    1    2  502    0 +2.1806753094e+01 +5.3343303898e+00 +4.0257070743e+02 4.0319618555e+02 0.0000000000e+00 0.0000e+00 -1.0000e+00
       22  1    3    3    0    0 -3.4446954595e+01 +1.1373365937e+01 +2.0970564452e+02 2.1282012000e+02 0.0000000000e+00 0.0000e+00 1.0000e+00
       22  1    3    3    0    0 +9.2508562598e+01 -2.9634260471e+01 +1.0785254377e+03 1.0828911041e+03 0.0000000000e+00 0.0000e+00 1.0000e+00
<rwgt>
<wgt id='SM'> +1.0080337e-05 </wgt>
<wgt id='morphing_basis_vector_1'> +1.0065443e-05 </wgt>
<wgt id='morphing_basis_vector_2'> +9.9895554e-06 </wgt>
<wgt id='morphing_basis_vector_3'> +1.0180057e-05 </wgt>
<wgt id='morphing_basis_vector_4'> +9.9501282e-06 </wgt>
</rwgt>
</event>
<event>
 7      1 +1.0210000e-05 4.77548700e+01 7.81860800e-03 1.57928300e-01
        2 -1    0    0  502    0 +0.0000000000e+00 +0.0000000000e+00 +7.2468635469e+01 7.2468635469e+01 0.0000000000e+00 0.0000e+00 -1.0000e+00
        1 -1    0    0  501    0 -0.0000000000e+00 -0.0000000000e+00 -7.0411204175e+02 7.0411204175e+02 0.0000000000e+00 0.0000e+00 -1.0000e+00
       25  2    1    2    0    0 +3.0497935158e+01 -8.9162092673e+00 -3.8749116933e+02 4.0839335088e+02 1.2500439952e+02 0.0000e+00 0.0000e+00
        2  1    1    2  501    0 +8.5154045311e+00 -1.9348178716e+01 -2.9638030052e+02 2.9713321368e+02 0.0000000000e+00 0.0000e+00 -1.0000e+00
        1  1    1    2  502    0 -3.9013339689e+01 +2.8264387983e+01 +5.2228063568e+01 7.1054112660e+01 0.0000000000e+00 0.0000e+00 -1.0000e+00
       22  1    3    3    0    0 +6.5678262261e+01 -2.5389779253e+01 -3.3912632908e+02 3.4635955610e+02 0.0000000000e+00 0.0000e+00 1.0000e+00
       22  1    3    3    0    0 -3.5180327103e+01 +1.6473569985e+01 -4.8364840248e+01 6.2033794784e+01 0.0000000000e+00 0.0000e+00 1.0000e+00
<rwgt>
<wgt id='SM'> +1.0155836e-05 </wgt>
<wgt id='morphing_basis_vector_1'> +1.0139685e-05 </wgt>
<wgt id='morphing_basis_vector_2'> +1.0122009e-05 </wgt>
<wgt id='morphing_basis_vector_3'> +1.0208669e-05 </wgt>
<wgt id='morphing_basis_vector_4'> +1.0092081e-05 </wgt>
</rwgt>
</event>
<event>
 7      1 +1.0210000e-05 1.16177200e+02 7.81860800e-03 1.37557100e-01
        2 -1    0    0  502    0 +0.0000000000e+00 +0.0000000000e+00 +2.1713861712e+03 2.1713861712e+03 0.0000000000e+00 0.0000e+00 -1.0000e+00
        1 -1    0    0  501    0 -0.0000000000e+00 -0.0000000000e+00 -2.9383972660e+01 2.9383972660e+01 0.0000000000e+00 0.0000e+00 -1.0000e+00
       25  2    1    2    0    0 +9.9385710127e+01 -9.6756996123e+01 +1.8410200485e+03 1.8504644884e+03 1.2499827409e+02 0.0000e+00 0.0000e+00
        2  1    1    2  501    0 -9.7897531620e+01 +5.9697713299e+01 +1.2162479266e+02 1.6715362353e+02 0.0000000000e+00 0.0000e+00 -1.0000e+00
        1  1    1    2  502    0 -1.4881785076e+00 +3.7059282824e+01 +1.7935735742e+02 1.8315203187e+02 0.0000000000e+00 0.0000e+00 -1.0000e+00
       22  1    3    3    0    0 +4.4853293509e+01 -1.4284697012e+01 +1.2753782198e+03 1.2762466352e+03 0.0000000000e+00 0.0000e+00 1.0000e+00
       22  1    3    3    0    0 +5.4532416618e+01 -8.2472299111e+01 +5.6564182869e+02 5.7421785321e+02 0.0000000000e+00 0.0000e+00 1.0000e+00
<rwgt>
<wgt id='SM'> +8.6537639e-06 </wgt>
<wgt id='morphing_basis_vector_1'> +7.5937181e-06 </wgt>
<wgt id='morphing_basis_vector_2'> +8.1108696e-06 </wgt>
<wgt id='morphing_basis_vector_3'> +1.0997525e-05 </wgt>
<wgt id='morphing_basis_vector_4'> +6.5091862e-06 </wgt>
</rwgt>
</event>
<event>
 7      1 +1.0210000e-05 8.33506900e+01 7.81860800e-03 1.35356300e-01
        2 -1    0    0  502    0 +0.0000000000e+00 +0.0000000000e+00 +3.7820596500e+03 3.7820596500e+03 0.0000000000e+00 0.0000e+00 -1.0000e+00
        1 -1    0    0  501    0 -0.0000000000e+00 -0.0000000000e+00 -8.0422978602e+01 8.0422978602e+01 0.0000000000e+00 0.0000e+00 -1.0000e+00
       25  2    1    2    0    0 -1.2762949102e+02 -3.2504890494e+01 +1.6095447115e+03 1.6197549160e+03 1.2500381847e+02 0.0000e+00 0.0000e+00
        2  1    1    2  501    0 +8.2198671597e+01 -9.8618684366e+00 -5.1981486846e+01 9.7754555066e+01 0.0000000000e+00 0.0000e+00 -1.0000e+00
        1  1    1    2  502    0 +4.5430819421e+01 +4.2366758930e+01 +2.1440734468e+03 2.1449731576e+03 0.0000000000e+00 0.0000e+00 -1.0000e+00
       22  1    3    3    0    0 -1.3789627574e+02 -3.6160588163e+01 +9.9975531320e+02 1.0098681386e+03 0.0000000000e+00 0.0000e+00 1.0000e+00
       22  1    3    3    0    0 +1.0266784724e+01 +3.6556976690e+00 +6.0978939829e+02 6.0988677742e+02 0.0000000000e+00 0.0000e+00 1.0000e+00
<rwgt>
<wgt id='SM'> +1.0791906e-05 </wgt>
<wgt id='morphing_basis_vector_1'> +1.0435654e-05 </wgt>
<wgt id='morphing_basis_vector_2'> +1.1419735e-05 </wgt>
<wgt id='morphing_basis_vector_3'> +1.0830903e-05 </wgt>
<wgt id='morphing_basis_vector_4'> +1.1038527e-05 </wgt>
</rwgt>
</event>
<event>
 7      1 +1.0210000e-05 1.09260600e+02 7.81860800e-03 1.34135600e-01
        2 -1    0    0  502    0 +0.0000000000e+00 +0.0000000000e+00 +9.0897461247e+02 9.0897461247e+02 0.0000000000e+00 0.0000e+00 -1.0000e+00
        1 -1    0    0  501    0 -0.0000000000e+00 -0.0000000000e+00 -2.2272315883e+03 2.2272315883e+03 0.0000000000e+00 0.0000e+00 -1.0000e+00
       25  2    1    2    0    0 -6.0850140804e+01 -1.4622959999e+02 -4.6378392901e+02 5.0577288324e+02 1.2499936425e+02 0.0000e+00 0.0000e+00
        2  1    1    2  501    0 +3.3106536466e+01 +4.0889806377e+01 -1.7387129988e+03 1.7395088132e+03 0.0000000000e+00 0.0000e+00 -1.0000e+00
        1  1    1    2  502    0 +2.7743604338e+01 +1.0533979361e+02 +8.8423995199e+02 8.9092450432e+02 0.0000000000e+00 0.0000e+00 -1.0000e+00
       22  1    3    3    0    0 -9.8986548721e+01 -1.1035717944e+02 -3.6534388906e+02 3.9427553963e+02 0.0000000000e+00 0.0000e+00 -1.0000e+00
       22  1    3    3    0    0 +3.8136407918e+01 -3.5872420544e+01 -9.8440039951e+01 1.1149734360e+02 0.0000000000e+00 0.0000e+00 -1.0000e+00
<rwgt>
<wgt id='SM'> +1.0633319e-05 </wgt>
<wgt id='morphing_basis_vector_1'> +1.0186003e-05 </wgt>
<wgt id='morphing_basis_vector_2'> +1.1177894e-05 </wgt>
<wgt id='morphing_basis_vector_3'> +1.0882356e-05 </wgt>
<wgt id='morphing_basis_vector_4'> +1.0648884e-05 </wgt>
</rwgt>
</event>
<event>
 7      1 +1.0210000e-05 1.07423600e+02 7.81860800e-03 1.46417400e-01
        2 -1    0    0  502    0 +0.0000000000e+00 +0.0000000000e+00 +7.5910605572e+02 7.5910605572e+02 0.0000000000e+00 0.0000e+00 -1.0000e+00
        1 -1    0    0  501    0 -0.0000000000e+00 -0.0000000000e+00 -1.8202753548e+02 1.8202753548e+02 0.0000000000e+00 0.0000e+00 -1.0000e+00
       25  2    1    2    0    0 -1.3928860398e+01 +9.1794228586e+01 +7.1908363736e+01 1.7152464121e+02 1.2501878344e+02 0.0000e+00 0.0000e+00
        2  1    1    2  501    0 +1.1029186587e+01 +1.7014209447e+01 -1.2676085006e+02 1.2837226876e+02 0.0000000000e+00 0.0000e+00 -1.0000e+00
        1  1    1    2  502    0 +2.8996738107e+00 -1.0880843803e+02 +6.3193100657e+02 6.4123668123e+02 0.0000000000e+00 0.0000e+00 -1.0000e+00
       22  1    3    3    0    0 -6.2631066937e+01 +6.2114724138e+01 +7.2973551705e+01 1.1448156511e+02 0.0000000000e+00 0.0000e+00 1.0000e+00
       22  1    3    3    0    0 +4.8702206539e+01 +2.9679504448e+01 -1.0651879699e+00 5.7043076105e+01 0.0000000000e+00 0.0000e+00 1.0000e+00
<rwgt>
<wgt id='SM'> +1.0193938e-05 </wgt>
<wgt id='morphing_basis_vector_1'> +1.0018201e-05 </wgt>
<wgt id='morphing_basis_vector_2'> +1.0263899e-05 </wgt>
<wgt id='morphing_basis_vector_3'> +1.0407440e-05 </wgt>
<wgt id='morphing_basis_vector_4'> +1.0030540e-05 </wgt>
</rwgt>
</event>
<event>
 7      1 +1.0210000e-05 5.88066400e+01 7.81860800e-03 1.41893900e-01
        2 -1    0    0  502    0 +0.0000000000e+00 +0.0000000000e+00 +4.8627922247e+02 4.8627922247e+02 0.0000000000e+00 0.0000e+00 -1.0000e+00
        1 -1    0    0  501    0 -0.0000000000e+00 -0.0000000000e+00 -3.6331032247e+01 3.6331032247e+01 0.0000000000e+00 0.0000e+00 -1.0000e+00
       25  2    1    2    0    0 -4.6983190281e+01 +6.5353664416e+01 +1.9897736909e+02 2.4838597394e+02 1.2500030808e+02 0.0000e+00 0.0000e+00
        2  1    1    2  501    0 +5.1255940687e+01 -8.1572131628e+00 +9.8791140340e+01 1.1159480719e+02 0.0000000000e+00 0.0000e+00 -1.0000e+00
        1  1    1    2  502    0 -4.2727504055e+00 -5.7196451253e+01 +1.5217968079e+02 1.6262947358e+02 0.0000000000e+00 0.0000e+00 -1.0000e+00
       22  1    3    3    0    0 -6.8848311291e+01 -2.1104454252e+00 +5.5947247415e+01 8.8739159568e+01 0.0000000000e+00 0.0000e+00 -1.0000e+00
       22  1    3    3    0    0 +2.1865121010e+01 +6.7464109841e+01 +1.4303012168e+02 1.5964681438e+02 0.0000000000e+00 0.0000e+00 -1.0000e+00
<rwgt>
<wgt id='SM'> +9.0960952e-06 </wgt>
<wgt id='morphing_basis_vector_1'> +8.9556440e-06 </wgt>
<wgt id='morphing_basis_vector_2'> +8.3558163e-06 </wgt>
<wgt id='morphing_basis_vector_3'> +9.9919733e-06 </wgt>
<wgt id='morphing_basis_vector_4'> +8.0188362e-06 </wgt>
</rwgt>
</event>
<event>
 7      1 +1.0210000e-05 4.71615200e+01 7.81860800e-03 1.47934600e-01
        2 -1    0    0  502    0 +0.0000000000e+00 +0.0000000000e+00 +1.6813395305e+03 1.6813395305e+03 0.0000000000e+00 0.0000e+00 -1.0000e+00
        1 -1    0    0  501    0 -0.0000000000e+00 -0.0000000000e+00 -9.5009661223e+02 9.5009661223e+02 0.0000000000e+00 0.0000e+00 -1.0000e+00
       25  2    1    2    0    0 +3.2127634218e+01 -1.3199300425e+01 -2.3298870702e+02 2.6669147177e+02 1.2503678300e+02 0.0000e+00 0.0000e+00
        2  1    1    2  501    0 -9.1391826342e+00 +4.7678243842e+01 -6.9915677068e+02 7.0084015979e+02 0.0000000000e+00 0.0000e+00 -1.0000e+00
        1  1    1    2  502    0 -2.2988451584e+01 -3.4478943417e+01 +1.6633883960e+03 1.6639045112e+03 0.0000000000e+00 0.0000e+00 -1.0000e+00
       22  1    3    3    0    0 +6.6769314136e+01 -4.4901899578e+01 -1.2162292098e+02 1.4583023282e+02 0.0000000000e+00 0.0000e+00 -1.0000e+00
       22  1    3    3    0    0 -3.4641679917e+01 +3.1702599153e+01 -1.1136578604e+02 1.2086123895e+02 0.0000000000e+00 0.0000e+00 -1.0000e+00
<rwgt>
<wgt id='SM'> +1.0326562e-05 </wgt>
<wgt id='morphing_basis_vector_1'> +1.0316189e-05 </wgt>
<wgt id='morphing_basis_vector_2'> +1.0421118e-05 </wgt>
<wgt id='morphing_basis_vector_3'> +1.0264618e-05 </wgt>
<wgt id='morphing_basis_vector_4'> +1.0426738e-05 </wgt>
</rwgt>
</event>
<event>
 7      1 +1.0210000e-05 1.06249600e+02 7.81860800e-03 1.28148700e-01
        2 -1    0    0  502    0 +0.0000000000e+00 +0.0000000000e+00 +2.3779839973e+02 2.3779839973e+02 0.0000000000e+00 0.0000e+00 -1.0000e+00
        1 -1    0    0  501    0 -0.0000000000e+00 -0.0000000000e+00 -3.0518294381e+02 3.0518294381e+02 0.0000000000e+00 0.0000e+00 -1.0000e+00
       25  2    1    2    0    0 -5.7850811506e+01 +1.9440796644e+01 +1.0122340262e+02 1.7203495814e+02 1.2500075447e+02 0.0000e+00 0.0000e+00
        2  1    1    2  501    0 -9.0741209733e+01 +5.5272133615e+01 -1.7474981750e+02 2.0451521854e+02 0.0000000000e+00 0.0000e+00 -1.0000e+00
        1  1    1    2  502    0 +1.4859202124e+02 -7.4712930259e+01 +6.1418708034e+00 1.6643116685e+02 0.0000000000e+00 0.0000e+00 -1.0000e+00
       22  1    3    3    0    0 +7.7933540142e+00 -4.9792896766e+00 -2.5565601292e+01 2.7186939179e+01 0.0000000000e+00 0.0000e+00 1.0000e+00
       22  1    3    3    0    0 -6.5644165520e+01 +2.4420086320e+01 +1.2678900391e+02 1.4484801896e+02 0.0000000000e+00 0.0000e+00 1.0000e+00
<rwgt>
<wgt id='SM'> +1.0104517e-05 </wgt>
<wgt id='morphing_basis_vector_1'> +9.9127726e-06 </wgt>
<wgt id='morphing_basis_vector_2'> +1.0155116e-05 </wgt>
<wgt id='morphing_basis_vector_3'> +1.0397686e-05 </wgt>
<wgt id='morphing_basis_vector_4'> +9.9146669e-06 </wgt>
</rwgt>
</event>
<event>
 7      1 +1.0210000e-05 8.20870400e+01 7.81860800e-03 1.35422300e-01
        2 -1    0    0  502    0 +0.0000000000e+00 +0.0000000000e+00 +9.4670943838e+02 9.4670943838e+02 0.0000000000e+00 0.0000e+00 -1.0000e+00
        1 -1    0    0  501    0 -0.0000000000e+00 -0.0000000000e+00 -5.0743878439e+01 5.0743878439e+01 0.0000000000e+00 0.0000e+00 -1.0000e+00
       25  2    1    2    0    0 +2.7250585762e+01 -6.4326019912e-01 +3.7210124191e+02 3.9348151243e+02 1.2500143272e+02 0.0000e+00 0.0000e+00
        2  1    1    2  501    0 -8.9185705096e+01 -9.2769400105e+00 +1.4586187172e+01 9.0845519789e+01 0.0000000000e+00 0.0000e+00 -1.0000e+00
        1  1    1    2  502    0 +6.1935119335e+01 +9.9202002097e+00 +5.0927813086e+02 5.1312628460e+02 0.0000000000e+00 0.0000e+00 -1.0000e+00
       22  1    3    3    0    0 +2.6543725448e+01 +3.0827429531e+01 +3.1556724491e+01 5.1485207902e+01 0.0000000000e+00 0.0000e+00 -1.0000e+00
       22  1    3    3    0    0 +7.0686031356e-01 -3.1470689730e+01 +3.4054451742e+02 3.4199630453e+02 0.0000000000e+00 0.0000e+00 -1.0000e+00
<rwgt>
<wgt id='SM'> +1.0170953e-05 </wgt>
<wgt id='morphing_basis_vector_1'> +1.0182218e-05 </wgt>
<wgt id='morphing_basis_vector_2'> +1.0137181e-05 </wgt>
<wgt id='morphing_basis_vector_3'> +1.0182832e-05 </wgt>
<wgt id='morphing_basis_vector_4'> +1.0146382e-05 </wgt>
</rwgt>
</event>
<event>
 7      1 +1.0210000e-05 7.49069100e+01 7.81860800e-03 1.49260100e-01
        2 -1    0    0  502    0 +0.0000000000e+00 +0.0000000000e+00 +3.4683174756e+02 3.4683174756e+02 0.0000000000e+00 0.0000e+00 -1.0000e+00
        1 -1    0    0  501    0 -0.0000000000e+00 -0.0000000000e+00 -3.9750048600e+02 3.9750048600e+02 0.0000000000e+00 0.0000e+00 -1.0000e+00
       25  2    1    2    0    0 +9.1132665374e+01 +3.1044080962e+01 -1.3836933069e+02 2.0985619579e+02 1.2499861430e+02 0.0000e+00 0.0000e+00
        2  1    1    2  501    0 -2.3771970016e+01 +4.8529312174e-01 -2.1828758089e+02 2.1957871035e+02 0.0000000000e+00 0.0000e+00 -1.0000e+00
        1  1    1    2  502    0 -6.7360695358e+01 -3.1529374084e+01 +3.0598817314e+02 3.1489732742e+02 0.0000000000e+00 0.0000e+00 -1.0000e+00
       22  1    3    3    0    0 +5.1503087761e+00 +1.6523029658e+01 +2.1591262572e+01 2.7671624618e+01 0.0000000000e+00 0.0000e+00 1.0000e+00
       22  1    3    3    0    0 +8.5982356598e+01 +1.4521051304e+01 -1.5996059326e+02 1.8218457117e+02 0.0000000000e+00 0.0000e+00 1.0000e+00
<rwgt>
<wgt id='SM'> +1.0390921e-05 </wgt>
<wgt id='morphing_basis_vector_1'> +1.0200885e-05 </wgt>
<wgt id='morphing_basis_vector_2'> +1.0620162e-05 </wgt>
<wgt id='morphing_basis_vector_3'> +1.0495033e-05 </wgt>
<wgt id='morphing_basis_vector_4'> +1.0398629e-05 </wgt>
</rwgt>
</event>
<event>
 7      1 +1.0210000e-05 8.35739900e+01 7.81860800e-03 1.34676500e-01
        2 -1    0    0  502    0 +0.0000000000e+00 +0.0000000000e+00 +6.3784805278e+02 6.3784805278e+02 0.0000000000e+00 0.0000e+00 -1.0000e+00
        1 -1    0    0  501    0 -0.0000000000e+00 -0.0000000000e+00 -1.3265003080e+03 1.3265003080e+03 0.0000000000e+00 0.0000e+00 -1.0000e+00
       25  2    1    2    0    0 +6.4732566598e+01 -8.2940691739e+01 -1.3219792911e+02 2.1016836493e+02 1.2499994253e+02 0.0000e+00 0.0000e+00
        2  1    1    2  501    0 +9.1666959692e-01 +8.3583884990e+01 -1.1519989478e+03 1.1550275676e+03 0.0000000000e+00 0.0000e+00 -1.0000e+00
        1  1    1    2  502    0 -6.5649236195e+01 -6.4319325106e-01 +5.9554462168e+02 5.9915242829e+02 0.0000000000e+00 0.0000e+00 -1.0000e+00
       22  1    3    3    0    0 +8.5511674027e+01 -6.9789492533e+01 -4.4365646439e+01 1.1895852322e+02 0.0000000000e+00 0.0000e+00 1.0000e+00
       22  1    3    3    0    0 -2.0779107428e+01 -1.3151199206e+01 -8.7832282666e+01 9.1209841708e+01 0.0000000000e+00 0.0000e+00 1.0000e+00
<rwgt>
<wgt id='SM'> +1.0709378e-05 </wgt>
<wgt id='morphing_basis_vector_1'> +1.0553587e-05 </wgt>
<wgt id='morphing_basis_vector_2'> +1.1173968e-05 </wgt>
<wgt id='morphing_basis_vector_3'> +1.0569431e-05 </wgt>
<wgt id='morphing_basis_vector_4'> +1.1049742e-05 </wgt>
</rwgt>
</event>
<event>
 7      1 +1.0210000e-05 3.85364900e+01 7.81860800e-03 1.54484700e-01
        2 -1    0    0  502    0 +0.0000000000e+00 +0.0000000000e+00 +3.8863385156e+02 3.8863385156e+02 0.0000000000e+00 0.0000e+00 -1.0000e+00
        1 -1    0    0  501    0 -0.0000000000e+00 -0.0000000000e+00 -1.2194239988e+03 1.2194239988e+03 0.0000000000e+00 0.0000e+00 -1.0000e+00
       25  2    1    2    0    0 +4.1464208737e+01 -1.0878429614e+00 +5.6978282400e+01 1.4349908414e+02 1.2499999391e+02 0.0000e+00 0.0000e+00
        2  1    1    2  501    0 -1.6081431784e+01 -2.8319758133e+01 -1.1746287003e+03 1.1750800844e+03 0.0000000000e+00 0.0000e+00 -1.0000e+00
        1  1    1    2  502    0 -2.5382776953e+01 +2.9407601095e+01 +2.8686027065e+02 2.8947868185e+02 0.0000000000e+00 0.0000e+00 -1.0000e+00
       22  1    3    3    0    0 -2.7939810636e+01 +3.6466599833e+01 +4.3837702876e+01 6.3499528465e+01 0.0000000000e+00 0.0000e+00 -1.0000e+00
       22  1    3    3    0    0 +6.9404019373e+01 -3.7554442795e+01 +1.3140579524e+01 7.9999555680e+01 0.0000000000e+00 0.0000e+00 -1.0000e+00
<rwgt>
<wgt id='SM'> +1.0141723e-05 </wgt>
<wgt id='morphing_basis_vector_1'> +1.0094323e-05 </wgt>
<wgt id='morphing_basis_vector_2'> +1.0111634e-05 </wgt>
<wgt id='morphing_basis_vector_3'> +1.0239430e-05 </wgt>
<wgt id='morphing_basis_vector_4'> +1.0038495e-05 </wgt>
</rwgt>
</event>
<event>
 7      1 +1.0210000e-05 1.33470100e+02 7.81860800e-03 1.28328200e-01
        2 -1    0    0  502    0 +0.0000000000e+00 +0.0000000000e+00 +2.8237159132e+03 2.8237159132e+03 0.0000000000e+00 0.0000e+00 -1.0000e+00
        1 -1    0    0  501    0 -0.0000000000e+00 -0.0000000000e+00 -8.5401486268e+01 8.5401486268e+01 0.0000000000e+00 0.0000e+00 -1.0000e+00
       25  2    1    2    0    0 -4.1581470214e+01 +7.2176208336e+01 +7.9825642884e+02 8.1226640101e+02 1.2499982523e+02 0.0000e+00 0.0000e+00
        2  1    1    2  501    0 +9.5118007406e+00 -1.3756575585e+02 -1.6553739153e+01 1.3888426050e+02 0.0000000000e+00 0.0000e+00 -1.0000e+00
        1  1    1    2  502    0 +3.2069669474e+01 +6.5389547512e+01 +1.9566117373e+03 1.9579667380e+03 0.0000000000e+00 0.0000e+00 -1.0000e+00
       22  1    3    3    0    0 -3.8360797297e+01 -1.8135338810e+01 +4.6638336440e+02 4.6830960258e+02 0.0000000000e+00 0.0000e+00 1.0000e+00
       22  1    3    3    0    0 -3.2206729177e+00 +9.0311547146e+01 +3.3187306444e+02 3.4395679842e+02 0.0000000000e+00 0.0000e+00 1.0000e+00
<rwgt>
<wgt id='SM'> +1.0667582e-05 </wgt>
<wgt id='morphing_basis_vector_1'> +1.0623475e-05 </wgt>
<wgt id='morphing_basis_vector_2'> +1.1046696e-05 </wgt>
<wgt id='morphing_basis_vector_3'> +1.0426719e-05 </wgt>
<wgt id='morphing_basis_vector_4'> +1.1065205e-05 </wgt>
</rwgt>
</event>
<event>
 7      1 +1.0210000e-05 4.96269200e+02 7.81860800e-03 1.18801100e-01
        2 -1    0    0  502    0 +0.0000000000e+00 +0.0000000000e+00 +1.2937972486e+03 1.2937972486e+03 0.0000000000e+00 0.0000e+00 -1.0000e+00
        1 -1    0    0  501    0 -0.0000000000e+00 -0.0000000000e+00 -2.4362184597e+03 2.4362184597e+03 0.0000000000e+00 0.0000e+00 -1.0000e+00
       25  2    1    2    0    0 +2.2618172570e+02 +4.3450023287e+02 -1.2910288963e+03 1.3864811490e+03 1.2500296043e+02 0.0000e+00 0.0000e+00
        2  1    1    2  501    0 -4.4097678474e+01 +2.7516062774e+01 -1.0473150611e+03 1.0486041084e+03 0.0000000000e+00 0.0000e+00 -1.0000e+00
        1  1    1    2  502    0 -1.8208404723e+02 -4.6201629564e+02 +1.1959227463e+03 1.2949304509e+03 0.0000000000e+00 0.0000e+00 -1.0000e+00
       22  1    3    3    0    0 +8.2977355431e+01 +5.9518557160e+01 -3.1494565445e+02 3.3108679439e+02 0.0000000000e+00 0.0000e+00 1.0000e+00
       22  1    3    3    0    0 +1.4320437027e+02 +3.7498167571e+02 -9.7608324184e+02 1.0553943546e+03 0.0000000000e+00 0.0000e+00 1.0000e+00
<rwgt>
<wgt id='SM'> +1.7447297e-05 </wgt>
<wgt id='morphing_basis_vector_1'> +1.1747790e-05 </wgt>
<wgt id='morphing_basis_vector_2'> +2.7891588e-05 </wgt>
<wgt id='morphing_basis_vector_3'> +1.9504423e-05 </wgt>
<wgt id='morphing_basis_vector_4'> +1.9858603e-05 </wgt>
</rwgt>
</event>
<event>
 7      1 +1.0210000e-05 4.63158800e+01 7.81860800e-03 1.48890600e-01
        2 -1    0    0  502    0 +0.0000000000e+00 +0.0000000000e+00 +1.0591729586e+03 1.0591729586e+03 0.0000000000e+00 0.0000e+00 -1.0000e+00
        1 -1    0    0  501    0 -0.0000000000e+00 -0.0000000000e+00 -2.8385776111e+03 2.8385776111e+03 0.0000000000e+00 0.0000e+00 -1.0000e+00
       25  2    1    2    0    0 +1.5305812135e+01 -7.2830858296e+01 +5.5587814380e+02 5.7460878151e+02 1.2504454899e+02 0.0000e+00 0.0000e+00
        2  1    1    2  501    0 -2.5588713973e+01 +3.0033551554e+01 -2.8280938278e+03 2.8283690522e+03 0.0000000000e+00 0.0000e+00 -1.0000e+00
        1  1    1    2  502    0 +1.0282901838e+01 +4.2797306741e+01 +4.9281103147e+02 4.9477273598e+02 0.0000000000e+00 0.0000e+00 -1.0000e+00
       22  1    3    3    0    0 +6.7424964801e+01 -3.3126776355e+01 +3.6923219538e+02 3.7679692580e+02 0.0000000000e+00 0.0000e+00 1.0000e+00
       22  1    3    3    0    0 -5.2119152666e+01 -3.9704081941e+01 +1.8664594842e+02 1.9781185571e+02 0.0000000000e+00 0.0000e+00 1.0000e+00
<rwgt>
<wgt id='SM'> +1.0153770e-05 </wgt>
<wgt id='morphing_basis_vector_1'> +9.9878554e-06 </wgt>
<wgt id='morphing_basis_vector_2'> +1.0188415e-05 </wgt>
<wgt id='morphing_basis_vector_3'> +1.0381372e-05 </wgt>
<wgt id='morphing_basis_vector_4'> +9.9617198e-06 </wgt>
</rwgt>
</event>
<event>
 7      1 +1.0210000e-05 7.76242500e+01 7.81860800e-03 1.46719700e-01
        2 -1    0    0  502    0 +0.0000000000e+00 +0.0000000000e+00 +1.7719546812e+03 1.7719546812e+03 0.0000000000e+00 0.0000e+00 -1.0000e+00
        1 -1    0    0  501    0 -0.0000000000e+00 -0.0000000000e+00 -1.2739171284e+02 1.2739171284e+02 0.0000000000e+00 0.0000e+00 -1.0000e+00
       25  2    1    2    0    0 +1.3264738080e+01 +9.8462085553e+01 +6.7890686235e+01 1.7350740589e+02 1.2499975621e+02 0.0000e+00 0.0000e+00
        2  1    1    2  501    0 -5.7201903532e-02 -7.4392105729e+01 -5.5888827595e+01 9.3047029596e+01 0.0000000000e+00 0.0000e+00 -1.0000e+00
        1  1    1    2  502    0 -1.3207536177e+01 -2.4069979824e+01 +1.6325611097e+03 1.6327919585e+03 0.0000000000e+00 0.0000e+00 -1.0000e+00
       22  1    3    3    0    0 -3.7842373858e+01 +9.1290322633e+01 +1.5614714659e+01 1.0004892593e+02 0.0000000000e+00 0.0000e+00 -1.0000e+00
       22  1    3    3    0    0 +5.1107111938e+01 +7.1717629199e+00 +5.2275971576e+01 7.3458479962e+01 0.0000000000e+00 0.0000e+00 -1.0000e+00
<rwgt>
<wgt id='SM'> +1.0259762e-05 </wgt>
<wgt id='morphing_basis_vector_1'> +9.9932254e-06 </wgt>
<wgt id='morphing_basis_vector_2'> +1.0423468e-05 </wgt>
<wgt id='morphing_basis_vector_3'> +1.0537440e-05 </wgt>
<wgt id='morphing_basis_vector_4'> +1.0080217e-05 </wgt>
</rwgt>
</event>
<event>
 7      1 +1.0210000e-05 6.21511300e+01 7.81860800e-03 1.45429700e-01
        2 -1    0    0  502    0 +0.0000000000e+00 +0.0000000000e+00 +1.9959088946e+02 1.9959088946e+02 0.0000000000e+00 0.0000e+00 -1.0000e+00
        1 -1    0    0  501    0 -0.0000000000e+00 -0.0000000000e+00 -1.1629862378e+03 1.1629862378e+03 0.0000000000e+00 0.0000e+00 -1.0000e+00
       25  2    1    2    0    0 -3.4736922778e+01 +3.6301720791e+00 -1.5909583493e+02 2.0531941296e+02 1.2499897877e+02 0.0000e+00 0.0000e+00
        2  1    1    2  501    0 +5.8032826337e+01 +2.5954280978e+01 -9.7772585933e+02 9.7979043149e+02 0.0000000000e+00 0.0000e+00 -1.0000e+00
        1  1    1    2  502    0 -2.3295903559e+01 -2.9584453057e+01 +1.7342634596e+02 1.7746728278e+02 0.0000000000e+00 0.0000e+00 -1.0000e+00
       22  1    3    3    0    0 +3.7358065821e+01 +2.8170345247e+01 -9.4532427577e+01 1.0547783320e+02 0.0000000000e+00 0.0000e+00 -1.0000e+00
       22  1    3    3    0    0 -7.2094988599e+01 -2.4540173168e+01 -6.4563407352e+01 9.9841579761e+01 0.0000000000e+00 0.0000e+00 -1.0000e+00
<rwgt>
<wgt id='SM'> +1.0143357e-05 </wgt>
<wgt id='morphing_basis_vector_1'> +1.0108315e-05 </wgt>
<wgt id='morphing_basis_vector_2'> +1.0108772e-05 </wgt>
<wgt id='morphing_basis_vector_3'> +1.0225787e-05 </wgt>
<wgt id='morphing_basis_vector_4'> +1.0052075e-05 </wgt>
</rwgt>
</event>
<event>
 7      1 +1.0210000e-05 1.11330600e+02 7.81860800e-03 1.27794600e-01
        2 -1    0    0  502    0 +0.0000000000e+00 +0.0000000000e+00 +9.5602521353e+02 9.5602521353e+02 0.0000000000e+00 0.0000e+00 -1.0000e+00
        1 -1    0    0  501    0 -0.0000000000e+00 -0.0000000000e+00 -9.4698044897e+01 9.4698044897e+01 0.0000000000e+00 0.0000e+00 -1.0000e+00
       25  2    1    2    0    0 +3.1019012944e+01 +8.3299540149e+01 +8.1012860378e+01 1.7346146773e+02 1.2499921875e+02 0.0000e+00 0.0000e+00
        2  1    1    2  501    0 -9.0302825688e+01 +1.6822896054e+01 +3.6492331558e+00 9.1928923966e+01 0.0000000000e+00 0.0000e+00 -1.0000e+00
        1  1    1    2  502    0 +5.9283812743e+01 -1.0012243620e+02 +7.7666507510e+02 7.8533286673e+02 0.0000000000e+00 0.0000e+00 -1.0000e+00
       22  1    3    3    0    0 +5.5024318683e+01 +9.1001100655e+01 +9.6728078482e+01 1.4375394650e+02 0.0000000000e+00 0.0000e+00 1.0000e+00
       22  1    3    3    0    0 -2.4005305738e+01 -7.7015605057e+00 -1.5715218105e+01 2.9707521235e+01 0.0000000000e+00 0.0000e+00 1.0000e+00
<rwgt>
<wgt id='SM'> +1.1166828e-05 </wgt>
<wgt id='morphing_basis_vector_1'> +1.1153228e-05 </wgt>
<wgt id='morphing_basis_vector_2'> +1.1943194e-05 </wgt>
<wgt id='morphing_basis_vector_3'> +1.0569719e-05 </wgt>
<wgt id='morphing_basis_vector_4'> +1.2089630e-05 </wgt>
</rwgt>
</event>
<event>
 7      1 +1.0210000e-05 1.18351200e+02 7.81860800e-03 1.40480700e-01
        2 -1    0    0  502    0 +0.0000000000e+00 +0.0000000000e+00 +3.4421619318e+02 3.4421619318e+02 0.0000000000e+00 0.0000e+00 -1.0000e+00
        1 -1    0    0  501    0 -0.0000000000e+00 -0.0000000000e+00 -3.8146608880e+02 3.8146608880e+02 0.0000000000e+00 0.0000e+00 -1.0000e+00
       25  2    1    2    0    0 -1.2714276337e+01 +1.3718770373e+02 +4.2304550897e+01 1.9077873103e+02 1.2499892123e+02 0.0000e+00 0.0000e+00
        2  1    1    2  501    0 -1.3454090302e+01 -2.5449182478e+01 -2.9201443383e+02 2.9342989452e+02 0.0000000000e+00 0.0000e+00 -1.0000e+00
        1  1    1    2  502    0 +2.6168366639e+01 -1.1173852125e+02 +2.1245998731e+02 2.4147365644e+02 0.0000000000e+00 0.0000e+00 -1.0000e+00
       22  1    3    3    0    0 -5.5034847845e+01 +1.3101050849e+02 +2.3385331419e+01 1.4401201872e+02 0.0000000000e+00 0.0000e+00 -1.0000e+00
       22  1    3    3    0    0 +4.2320571508e+01 +6.1771952414e+00 +1.8919219478e+01 4.6766712302e+01 0.0000000000e+00 0.0000e+00 -1.0000e+00
<rwgt>
<wgt id='SM'> +1.0675079e-05 </wgt>
<wgt id='morphing_basis_vector_1'> +1.0219884e-05 </wgt>
<wgt id='morphing_basis_vector_2'> +1.1257004e-05 </wgt>
<wgt id='morphing_basis_vector_3'> +1.0906328e-05 </wgt>
<wgt id='morphing_basis_vector_4'> +1.0723678e-05 </wgt>
</rwgt>
</event>
<event>
 7      1 +1.0210000e-05 4.70042400e+01 7.81860800e-03 1.49748200e-01
        2 -1    0    0  502    0 +0.0000000000e+00 +0.0000000000e+00 +3.3053261464e+03 3.3053261464e+03 0.0000000000e+00 0.0000e+00 -1.0000e+00
        1 -1    0    0  501    0 -0.0000000000e+00 -0.0000000000e+00 -3.5549150831e+02 3.5549150831e+02 0.0000000000e+00 0.0000e+00 -1.0000e+00
       25  2    1    2    0    0 +7.5428598108e+01 -2.8663776451e+01 +7.0516780938e+02 7.2069285961e+02 1.2500189206e+02 0.0000e+00 0.0000e+00
        2  1    1    2  501    0 -3.8871504673e+01 +2.6302491395e+01 -3.4601518204e+02 3.4918379277e+02 0.0000000000e+00 0.0000e+00 -1.0000e+00
        1  1    1    2  502    0 -3.6557093435e+01 +2.3612850561e+00 +2.5906820107e+03 2.5909410023e+03 0.0000000000e+00 0.0000e+00 -1.0000e+00
       22  1    3    3    0    0 +8.1527250427e+01 -2.3887169657e+01 +2.2564945526e+02 2.4111193686e+02 0.0000000000e+00 0.0000e+00 1.0000e+00
       22  1    3    3    0    0 -6.0986523195e+00 -4.7766067936e+00 +4.7951835412e+02 4.7958092275e+02 0.0000000000e+00 0.0000e+00 1.0000e+00
<rwgt>
<wgt id='SM'> +1.0337364e-05 </wgt>
<wgt id='morphing_basis_vector_1'> +1.0223393e-05 </wgt>
<wgt id='morphing_basis_vector_2'> +1.0488901e-05 </wgt>
<wgt id='morphing_basis_vector_3'> +1.0387570e-05 </wgt>
<wgt id='morphing_basis_vector_4'> +1.0359573e-05 </wgt>
</rwgt>
</event>
<event>
 7      1 +1.0210000e-05 4.71349900e+01 7.81860800e-03 1.58812500e-01
        2 -1    0    0  502    0 +0.0000000000e+00 +0.0000000000e+00 +1.1648763326e+03 1.1648763326e+03 0.0000000000e+00 0.0000e+00 -1.0000e+00
        1 -1    0    0  501    0 -0.0000000000e+00 -0.0000000000e+00 -7.2486720393e+02 7.2486720393e+02 0.0000000000e+00 0.0000e+00 -1.0000e+00
       25  2    1    2    0    0 -3.1206609576e+00 +2.7183801322e+01 +1.4423162391e+02 1.9281213916e+02 1.2500024837e+02 0.0000e+00 0.0000e+00
        2  1    1    2  501    0 -4.1433806165e+00 +1.9856931040e+01 -6.9986144072e+02 7.0015534099e+02 0.0000000000e+00 0.0000e+00 -1.0000e+00
        1  1    1    2  502    0 +7.2640415741e+00 -4.7040732363e+01 +9.9563894545e+02 9.9677605634e+02 0.0000000000e+00 0.0000e+00 -1.0000e+00
       22  1    3    3    0    0 -1.0093406203e+00 -3.9928490808e+01 +1.1085044449e+02 1.1782667011e+02 0.0000000000e+00 0.0000e+00 -1.0000e+00
       22  1    3    3    0    0 -2.1113203373e+00 +6.7112292130e+01 +3.3381179418e+01 7.4985469045e+01 0.0000000000e+00 0.0000e+00 -1.0000e+00
<rwgt>
<wgt id='SM'> +1.0221733e-05 </wgt>
<wgt id='morphing_basis_vector_1'> +1.0206644e-05 </wgt>
<wgt id='morphing_basis_vector_2'> +1.0237749e-05 </wgt>
<wgt id='morphing_basis_vector_3'> +1.0231607e-05 </wgt>
<wgt id='morphing_basis_vector_4'> +1.0219888e-05 </wgt>
</rwgt>
</event>
<event>
 7      1 +1.0210000e-05 7.06930700e+01 7.81860800e-03 1.39025100e-01
        2 -1    0    0  502    0 +0.0000000000e+00 +0.0000000000e+00 +3.0790207343e+03 3.0790207343e+03 0.0000000000e+00 0.0000e+00 -1.0000e+00
        1 -1    0    0  501    0 -0.0000000000e+00 -0.0000000000e+00 -3.4135880997e+01 3.4135880997e+01 0.0000000000e+00 0.0000e+00 -1.0000e+00
       25  2    1    2    0    0 -1.1072956360e+01 +8.0345288481e+00 +2.0569197098e+02 2.4108613470e+02 1.2500469351e+02 0.0000e+00 0.0000e+00
        2  1    1    2  501    0 +5.5741919053e+01 +4.6757750838e+01 +6.6782822953e+01 9.8759274221e+01 0.0000000000e+00 0.0000e+00 -1.0000e+00
        1  1    1    2  502    0 -4.4668962693e+01 -5.4792279686e+01 +2.7724100594e+03 2.7733112064e+03 0.0000000000e+00 0.0000e+00 -1.0000e+00
       22  1    3    3    0    0 +3.2753649065e+01 +1.7652417847e+01 +7.5998056818e+00 3.7975866406e+01 0.0000000000e+00 0.0000e+00 -1.0000e+00
       22  1    3    3    0    0 -4.3826605425e+01 -9.6178889989e+00 +1.9809216530e+02 2.0311026829e+02 0.0000000000e+00 0.0000e+00 -1.0000e+00
<rwgt>
<wgt id='SM'> +1.0114272e-05 </wgt>
<wgt id='morphing_basis_vector_1'> +1.0100496e-05 </wgt>
<wgt id='morphing_basis_vector_2'> +1.0048689e-05 </wgt>
<wgt id='morphing_basis_vector_3'> +1.0190861e-05 </wgt>
<wgt id='morphing_basis_vector_4'> +1.0015917e-05 </wgt>
</rwgt>
</event>
</LesHouchesEvents>
