<LesHouchesEvents version="3.0">
<header>
<!--
#*********************************************************************
#                                                                    *
#                        MadGraph5_aMC@NLO                           *
#                                                                    *
#                           Going Beyond                             *
#                                                                    *
#                   http://madgraph.hep.uiuc.edu                     *
#                   http://madgraph.phys.ucl.ac.be                   *
#                   http://amcatnlo.cern.ch                          *
#                                                                    *
#                     The MadGraph5_aMC@NLO team                     *
#                                                                    *
#....................................................................*
#                                                                    *
# This file contains all the information necessary to reproduce      *
# the events generated:                                              *
#                                                                    *
# 1. software version                                                *
# 2. proc_card          : code generation info including model       *
# 3. param_card         : model primary parameters in the LH format  *
# 4. run_card           : running parameters (collider and cuts)     *
# 5. pythia_card        : present only if pythia has been run        *
# 6. pgs_card           : present only if pgs has been run           *
# 7. delphes_cards      : present only if delphes has been run       *
#                                                                    *
#                                                                    *
#*********************************************************************
-->
<MGVersion>
3.5.3
</MGVersion>
<MG5ProcCard>
<![CDATA[
#************************************************************
#*                     MadGraph5_aMC@NLO                    *
#*                                                          *
#*                *                       *                 *
#*                  *        * *        *                   *
#*                    * * * * 5 * * * *                     *
#*                  *        * *        *                   *
#*                *                       *                 *
#*                                                          *
#*                                                          *
#*         VERSION 3.5.3                 2023-12-23         *
#*                                                          *
#*    The MadGraph5_aMC@NLO Development Team - Find us at   *
#*    https://server06.fynu.ucl.ac.be/projects/madgraph     *
#*                                                          *
#************************************************************
#*                                                          *
#*               Command File for MadGraph5_aMC@NLO         *
#*                                                          *
#*     run as ./bin/mg5_aMC  filename                       *
#*                                                          *
#************************************************************
set group_subprocesses Auto
set ignore_six_quark_processes False
set low_mem_multicore_nlo_generation False
set complex_mass_scheme False
set include_lepton_initiated_processes False
set gauge unitary
set loop_optimized_output True
set loop_color_flows False
set max_npoint_for_channel 0
set default_unset_couplings 99
set max_t_for_channel 99
set zerowidth_tchannel True
set nlo_mixed_expansion True
import model EWdim6-full
define p = g u c d s u~ c~ d~ s~
define j = g u c d s u~ c~ d~ s~
define l+ = e+ mu+
define l- = e- mu-
define vl = ve vm vt
define vl~ = ve~ vm~ vt~
generate u d > u d h / a z QCD=0 QED=99 NP=2, h > a a QCD=0 QED=99 NP=\
0
output ./mg_processes/signal_4
]]>
</MG5ProcCard>
<MGProcCard>
#*********************************************************************
#                        MadGraph/MadEvent                           *
#                   http://madgraph.hep.uiuc.edu                     *
#                                                                    *
#                          proc_card.dat                             *
#*********************************************************************
#                                                                    *
#            This Files is generated by MADGRAPH 5                   *
#                                                                    *
# WARNING: This Files is generated for MADEVENT (compatibility issue)*
#          This files is NOT a valid MG4 proc_card.dat               *
#          Running this in MG4 will NEVER reproduce the result of MG5*
#                                                                    *
#*********************************************************************
#*********************************************************************
# Process(es) requested : mg2 input                                  *
#*********************************************************************
# Begin PROCESS # This is TAG. Do not modify this line
u d > u d h / a z , h > a a           #Process
# Be carefull the coupling are here in MG5 convention
QCD=0
QED=99
NP=2
QCD=0
QED=99
NP=0
          
end_coup           # End the couplings input

done               # this tells MG there are no more procs
# End PROCESS  # This is TAG. Do not modify this line
#*********************************************************************
# Model information                                                  *
#*********************************************************************
# Begin MODEL  # This is TAG. Do not modify this line
EWdim6-full
# End   MODEL  # This is TAG. Do not modify this line
#*********************************************************************
# Start multiparticle definitions                                    *
#*********************************************************************
# Begin MULTIPARTICLES # This is TAG. Do not modify this line

# End  MULTIPARTICLES # This is TAG. Do not modify this line
</MGProcCard>
<MGRunCard>
<![CDATA[
#*********************************************************************
#                       MadGraph5_aMC@NLO                            *
#                                                                    *
#                     run_card.dat MadEvent                          *
#                                                                    *
#  This file is used to set the parameters of the run.               *
#                                                                    *
#  Some notation/conventions:                                        *
#                                                                    *
#   Lines starting with a '# ' are info or comments                  *
#                                                                    *
#   mind the format:   value    = variable     ! comment             *
#                                                                    *
#   To display more options, you can type the command:               *
#      update full_run_card                                          *
#*********************************************************************


#*******************************
# Running parameters           *
#*******************************

#*********************************************************************
# Tag name for the run (one word)                                    *
#*********************************************************************
  tag_1    = run_tag         ! name of the run

#*********************************************************************
# Number of events and rnd seed                                      *
# Warning: Do not generate more than 1M events in a single run       *
# If you want to run Pythia, avoid more than 50k events in a run.    *
#*********************************************************************
  100  = nevents          ! Number of unweighted events requested
 21 = iseed            ! rnd seed (0=assigned automatically=default)

#*********************************************************************
# Collider type and energy                                           *
# lpp: 0=No PDF, 1=proton, -1=antiproton, 2=photon from proton,      *
#                                         3=photon from electron     *
#*********************************************************************
     1    = lpp1             ! beam 1 type
     1    = lpp2             ! beam 2 type
  6500.0  = ebeam1           ! beam 1 total energy in GeV
  6500.0  = ebeam2           ! beam 2 total energy in GeV

#*********************************************************************
# PDF CHOICE: this automatically fixes also alpha_s and its evol.    *
#*********************************************************************
  nn23lo1 = pdlabel          ! PDF set
  230000  = lhaid            ! if pdlabel=lhapdf, this is the lhapdf number

#*********************************************************************
# Renormalization and factorization scales                           *
#*********************************************************************
   False  = fixed_ren_scale  ! if .true. use fixed ren scale
   False  = fixed_fac_scale  ! if .true. use fixed fac scale
  91.188  = scale            ! fixed ren scale
  91.188  = dsqrt_q2fact1    ! fixed fact scale for pdf1
  91.188  = dsqrt_q2fact2    ! fixed fact scale for pdf2
  -1      = dynamical_scale_choice ! Choose one of the preselected dynamical choices
   1.0    = scalefact        ! scale factor for event-by-event scales

#*********************************************************************
# Type and output format                                             *
#*********************************************************************
  False   = gridpack         ! True = setting up the grid pack
  -1.0    = time_of_flight   ! threshold (in mm) below which the invariant lifetime is not written (-1 means not written)
   3.0    = lhe_version      ! Change the way clustering information pass to shower.
  True    = clusinfo         ! include clustering tag in output
   sum    = event_norm       ! average/sum. Normalization of the weight in the LHEF

#*********************************************************************
# Matching parameter (MLM only)                                      *
#*********************************************************************
  0       = ickkw            ! 0 no matching, 1 MLM
  1.0     = alpsfact         ! scale factor for QCD emission vx
  False   = chcluster        ! cluster only according to channel diag
  4       = asrwgtflavor     ! highest quark flavor for a_s reweight
  False   = auto_ptj_mjj     ! Automatic setting of ptj and mjj if xqcut >0 (turn off for VBF and single top processes)
  0.0     = xqcut            ! minimum kt jet measure between partons

#*********************************************************************
# handling of the helicities:                                        *
#  0: sum over all helicities                                        *
#  1: importance sampling over helicities                            *
#*********************************************************************
  0       = nhel             ! using helicities importance sampling or not.

#*********************************************************************
# Generation bias, check the wiki page below for more information:   *
#  'cp3.irmp.ucl.ac.be/projects/madgraph/wiki/LOEventGenerationBias' *
#*********************************************************************
  None    = bias_module      ! Bias type of bias, [None, ptj_bias, -custom_folder-]
  {}      = bias_parameters  ! Specifies the parameters of the module.


#*******************************
# Parton level cuts definition *
#*******************************

#*********************************************************************
# BW cutoff. Define on/off-shell for "$" and decay                   *
#*********************************************************************
  15.0    = bwcutoff         ! (M+/-bwcutoff*Gamma)

#*********************************************************************
# Apply pt/E/eta/dr/mij/kt_durham cuts on decay products or not
# (note that etmiss/ptll/ptheavy/ht/sorted cuts always apply)
#*********************************************************************
   False  = cut_decays       ! Cut decay products

#*********************************************************************
# Standard Cuts                                                      *
#*********************************************************************
# Minimum and maximum pt's (for max, -1 means no cut)                *
#*********************************************************************
  20.0    = ptj              ! minimum pt for the jets
   0.0    = ptb              ! minimum pt for the b
  10.0    = pta              ! minimum pt for the photons
  10.0    = ptl              ! minimum pt for the charged leptons
   0.0    = misset           ! minimum missing Et (sum of neutrino's momenta)
  -1.0    = ptjmax           ! maximum pt for the jets
  -1.0    = ptbmax           ! maximum pt for the b
  -1.0    = ptamax           ! maximum pt for the photons
  -1.0    = ptlmax           ! maximum pt for the charged leptons
  -1.0    = missetmax        ! maximum missing Et (sum of neutrino's momenta)
   {}     = pt_min_pdg       ! pt cut for other particles (use pdg code). Applied on particle and anti-particle
   {}	  = pt_max_pdg       ! pt cut for other particles (syntax e.g. {6: 100, 25: 50})

#*********************************************************************
# Minimum and maximum E's (in the center of mass frame)              *
#*********************************************************************
   0.0    = ej               ! minimum E for the jets
   0.0    = eb               ! minimum E for the b
   0.0    = ea               ! minimum E for the photons
   0.0    = el               ! minimum E for the charged leptons
  -1.0    = ejmax            ! maximum E for the jets
  -1.0    = ebmax            ! maximum E for the b
  -1.0    = eamax            ! maximum E for the photons
  -1.0    = elmax            ! maximum E for the charged leptons
    {}    = e_min_pdg        ! E cut for other particles (use pdg code). Applied on particle and anti-particle
    {}    = e_max_pdg        ! E cut for other particles (syntax e.g. {6: 100, 25: 50})

#*********************************************************************
# Maximum and minimum absolute rapidity (for max, -1 means no cut)   *
#*********************************************************************
   5.0    = etaj             ! max rap for the jets
  -1.0    = etab             ! max rap for the b
   2.5    = etaa             ! max rap for the photons
   2.5    = etal             ! max rap for the charged leptons
   0.0    = etajmin          ! min rap for the jets
   0.0    = etabmin          ! min rap for the b
   0.0    = etaamin          ! min rap for the photons
   0.0    = etalmin          ! main rap for the charged leptons
    {}    = eta_min_pdg      ! rap cut for other particles (use pdg code). Applied on particle and anti-particle
    {}    = eta_max_pdg      ! rap cut for other particles (syntax e.g. {6: 2.5, 23: 5})

#*********************************************************************
# Minimum and maximum DeltaR distance                                *
#*********************************************************************
   0.4    = drjj             ! min distance between jets
   0.0    = drbb             ! min distance between b's
   0.4    = drll             ! min distance between leptons
   0.4    = draa             ! min distance between gammas
   0.0    = drbj             ! min distance between b and jet
   0.4    = draj             ! min distance between gamma and jet
   0.4    = drjl             ! min distance between jet and lepton
   0.0    = drab             ! min distance between gamma and b
   0.0    = drbl             ! min distance between b and lepton
   0.4    = dral             ! min distance between gamma and lepton
  -1.0    = drjjmax          ! max distance between jets
  -1.0    = drbbmax          ! max distance between b's
  -1.0    = drllmax          ! max distance between leptons
  -1.0    = draamax          ! max distance between gammas
  -1.0    = drbjmax          ! max distance between b and jet
  -1.0    = drajmax          ! max distance between gamma and jet
  -1.0    = drjlmax          ! max distance between jet and lepton
  -1.0    = drabmax          ! max distance between gamma and b
  -1.0    = drblmax          ! max distance between b and lepton
  -1.0    = dralmax          ! max distance between gamma and lepton

#*********************************************************************
# Minimum and maximum invariant mass for pairs                       *
# WARNING: for four lepton final state mmll cut require to have      *
#          different lepton masses for each flavor!                  *
#*********************************************************************
    0.0   = mmjj             ! min invariant mass of a jet pair
    0.0   = mmbb             ! min invariant mass of a b pair
  120.0   = mmaa             ! min invariant mass of gamma gamma pair
    0.0   = mmll             ! min invariant mass of l+l- (same flavour) lepton pair
   -1.0   = mmjjmax          ! max invariant mass of a jet pair
   -1.0   = mmbbmax          ! max invariant mass of a b pair
  130.0   = mmaamax          ! max invariant mass of gamma gamma pair
   -1.0   = mmllmax          ! max invariant mass of l+l- (same flavour) lepton pair
     {}   = mxx_min_pdg      ! min invariant mass of a pair of particles X/X~ (e.g. {6:250})
  {'default': False} = mxx_only_part_antipart ! if True the invariant mass is applied only
                                              ! to pairs of particle/antiparticle and not to pairs of the same pdg codes.

#*********************************************************************
# Minimum and maximum invariant mass for all leptons                 *
#*********************************************************************
   0.0    = mmnl             ! min invariant mass for all leptons (l+- and vl)
  -1.0    = mmnlmax          ! max invariant mass for all leptons (l+- and vl)

#*********************************************************************
# Minimum and maximum pt for 4-momenta sum of leptons                *
#*********************************************************************
   0.0    = ptllmin          ! Minimum pt for 4-momenta sum of leptons(l and vl)
  -1.0    = ptllmax          ! Maximum pt for 4-momenta sum of leptons(l and vl)

#*********************************************************************
# Inclusive cuts                                                     *
#*********************************************************************
   0.0    = ptheavy          ! minimum pt for at least one heavy final state
   0.0    = xptj             ! minimum pt for at least one jet
   0.0    = xptb             ! minimum pt for at least one b
   0.0    = xpta             ! minimum pt for at least one photon
   0.0    = xptl             ! minimum pt for at least one charged lepton

#*********************************************************************
# Control the pt's of the jets sorted by pt                          *
#*********************************************************************
   0.0    = ptj1min          ! minimum pt for the leading jet in pt
   0.0    = ptj2min          ! minimum pt for the second jet in pt
   0.0    = ptj3min          ! minimum pt for the third jet in pt
   0.0    = ptj4min          ! minimum pt for the fourth jet in pt
  -1.0    = ptj1max          ! maximum pt for the leading jet in pt
  -1.0    = ptj2max          ! maximum pt for the second jet in pt
  -1.0    = ptj3max          ! maximum pt for the third jet in pt
  -1.0    = ptj4max          ! maximum pt for the fourth jet in pt
   0      = cutuse           ! reject event if fails any (0) / all (1) jet pt cuts

#*********************************************************************
# Control the pt's of leptons sorted by pt                           *
#*********************************************************************
   0.0    = ptl1min          ! minimum pt for the leading lepton in pt
   0.0    = ptl2min          ! minimum pt for the second lepton in pt
   0.0    = ptl3min          ! minimum pt for the third lepton in pt
   0.0    = ptl4min          ! minimum pt for the fourth lepton in pt
  -1.0    = ptl1max          ! maximum pt for the leading lepton in pt
  -1.0    = ptl2max          ! maximum pt for the second lepton in pt
  -1.0    = ptl3max          ! maximum pt for the third lepton in pt
  -1.0    = ptl4max          ! maximum pt for the fourth lepton in pt

#*********************************************************************
# Control the Ht(k)=Sum of k leading jets                            *
#*********************************************************************
   0.0    = htjmin           ! minimum jet HT=Sum(jet pt)
  -1.0    = htjmax           ! maximum jet HT=Sum(jet pt)
   0.0    = ihtmin           ! inclusive Ht for all partons (including b)
  -1.0    = ihtmax           ! inclusive Ht for all partons (including b)
   0.0    = ht2min           ! minimum Ht for the two leading jets
   0.0    = ht3min           ! minimum Ht for the three leading jets
   0.0    = ht4min           ! minimum Ht for the four leading jets
  -1.0    = ht2max           ! maximum Ht for the two leading jets
  -1.0    = ht3max           ! maximum Ht for the three leading jets
  -1.0    = ht4max           ! maximum Ht for the four leading jets

#*********************************************************************
# Photon-isolation cuts, according to hep-ph/9801442                 *
# When ptgmin=0, all the other parameters are ignored                *
# When ptgmin>0, pta and draj are not going to be used               *
#*********************************************************************
   0.0    = ptgmin           ! Min photon transverse momentum
   0.4    = R0gamma          ! Radius of isolation code
   1.0    = xn               ! n parameter of eq.(3.4) in hep-ph/9801442
   1.0    = epsgamma         ! epsilon_gamma parameter of eq.(3.4) in hep-ph/9801442
  True    = isoEM            ! isolate photons from EM energy (photons and leptons)

#*********************************************************************
# WBF cuts                                                           *
#*********************************************************************
   0.0    = xetamin          ! minimum rapidity for two jets in the WBF case
   0.0    = deltaeta         ! minimum rapidity for two jets in the WBF case

#*********************************************************************
# Turn on either the ktdurham or ptlund cut to activate              *
# CKKW(L) merging with Pythia8 [arXiv:1410.3012, arXiv:1109.4829]    *
#*********************************************************************
  -1.0    = ktdurham
   0.4    = dparameter
  -1.0    = ptlund
   1, 2, 3, 4, 5, 6, 21 = pdgs_for_merging_cut ! PDGs for two cuts above

#*********************************************************************
# maximal pdg code for quark to be considered as a light jet         *
# (otherwise b cuts are applied)                                     *
#*********************************************************************
  4       = maxjetflavor     ! Maximum jet pdg code

#*********************************************************************
# Store info for systematics studies                                 *
# WARNING: Do not use for interference type of computation           *
#*********************************************************************
#         False = use_syst              ! Enable systematics studies # Commented out by MadMiner
#   systematics = systematics_program   ! none, systematics [python], SysCalc [deprecated, C++] # Commented out by MadMiner
#   ['--mur=0.5,1,2', '--muf=0.5,1,2', '--pdf=errorset'] = systematics_arguments ! see: https://cp3.irmp.ucl.ac.be/projects/madgraph/wiki/Systematics#Systematicspythonmodule # Commented out by MadMiner


#*********************************************************************
# MadMiner systematics setup                                         *
#*********************************************************************
False = use_syst
]]>
</MGRunCard>
<slha>
######################################################################
## PARAM_CARD AUTOMATICALY GENERATED BY MG5                       ####
######################################################################
###################################
## INFORMATION FOR DIM6
###################################
BLOCK DIM6 # 
      1 0.000000e+00 # cwwwl2
      2 5.652848e-01 # madminer
      3 0.000000e+00 # cbl2
      4 0.000000e+00 # cpwwwl2
      5 -1.575672e+00 # madminer
      6 0.000000e+00 # cphidl2
      7 0.000000e+00 # cphiwl2
      8 0.000000e+00 # cphibl2
###################################
## INFORMATION FOR MASS
###################################
BLOCK MASS # 
      4 1.270000e+00 # mc
      5 4.700000e+00 # mb
      6 1.720000e+02 # mt
      13 1.056600e-01 # mm
      15 1.777000e+00 # mta
      23 9.118760e+01 # mz
      25 1.250000e+02 # mh
      9000006 1.250000e+02 # mp
      1 0.000000e+00 # d : 0.0
      2 0.000000e+00 # u : 0.0
      3 0.000000e+00 # s : 0.0
      11 0.000000e+00 # e- : 0.0
      12 0.000000e+00 # ve : 0.0
      14 0.000000e+00 # vm : 0.0
      16 0.000000e+00 # vt : 0.0
      21 0.000000e+00 # g : 0.0
      22 0.000000e+00 # a : 0.0
      24 7.982436e+01 # w+ : cmath.sqrt(mz__exp__2/2. + cmath.sqrt(mz__exp__4/4. - (aew*cmath.pi*mz__exp__2)/(gf*sqrt__2)))
###################################
## INFORMATION FOR SMINPUTS
###################################
BLOCK SMINPUTS # 
      1 1.279000e+02 # aewm1
      2 1.166370e-05 # gf
      3 1.300000e-01 # as
###################################
## INFORMATION FOR WOLFENSTEIN
###################################
BLOCK WOLFENSTEIN # 
      1 0.000000e+00 # lamws
      2 0.000000e+00 # aws
      3 0.000000e+00 # rhows
      4 0.000000e+00 # etaws
###################################
## INFORMATION FOR YUKAWA
###################################
BLOCK YUKAWA # 
      4 1.270000e+00 # ymc
      5 4.700000e+00 # ymb
      6 1.720000e+02 # ymt
      13 1.056600e-01 # ymm
      15 1.777000e+00 # ymtau
###################################
## INFORMATION FOR DECAY
###################################
DECAY 6 1.508336e+00 # wt
DECAY 15 2.270000e-12 # wtau
DECAY 23 2.495200e+00 # wz
DECAY 24 2.085000e+00 # ww
DECAY 25 4.070000e-03 # wh
DECAY 9000006 4.070000e-03 # wh1
DECAY 1 0.000000e+00 # d : 0.0
DECAY 2 0.000000e+00 # u : 0.0
DECAY 3 0.000000e+00 # s : 0.0
DECAY 4 0.000000e+00 # c : 0.0
DECAY 5 0.000000e+00 # b : 0.0
DECAY 11 0.000000e+00 # e- : 0.0
DECAY 12 0.000000e+00 # ve : 0.0
DECAY 13 0.000000e+00 # mu- : 0.0
DECAY 14 0.000000e+00 # vm : 0.0
DECAY 16 0.000000e+00 # vt : 0.0
DECAY 21 0.000000e+00 # g : 0.0
DECAY 22 0.000000e+00 # a : 0.0
###################################
## INFORMATION FOR QNUMBERS 9000006
###################################
BLOCK QNUMBERS 9000006 #  h1
      1 0 # 3 times electric charge
      2 1 # number of spin states (2s+1)
      3 1 # colour rep (1: singlet, 3: triplet, 8: octet)
      4 0 # particle/antiparticle distinction (0=own anti)
</slha>
<initrwgt>
<weightgroup name='mg_reweighting' weight_name_strategy='includeIdInWeightName'>
<weight id='SM'>set param_card dim6 2 0.0 # orig: 0.5652848
set param_card dim6 5 0.0 # orig: -1.575672
</weight>
<weight id='morphing_basis_vector_1'>set param_card dim6 2 1.617186 # orig: 0.5652848
set param_card dim6 5 -0.2203044 # orig: -1.575672
</weight>
<weight id='morphing_basis_vector_2'>set param_card dim6 2 -1.412419 # orig: 0.5652848
set param_card dim6 5 -1.041613 # orig: -1.575672
</weight>
<weight id='morphing_basis_vector_3'>set param_card dim6 2 -1.30746 # orig: 0.5652848
set param_card dim6 5 1.197328 # orig: -1.575672
</weight>
<weight id='morphing_basis_vector_5'>set param_card dim6 2 0.8622004 # orig: 0.5652848
set param_card dim6 5 1.494319 # orig: -1.575672
</weight>
</weightgroup>
</initrwgt>
<MGGenerationInfo>
#  Number of Events        :       100
#  Integrated weight (pb)  :       0.0010088
</MGGenerationInfo>
</header>
<init>
2212 2212 6.500000e+03 6.500000e+03 0 0 247000 247000 -3 1
1.008800e-03 1.341400e-05 1.008800e-05 1
<generator name='MadGraph5_aMC@NLO' version='3.5.3'>please cite 1405.0301 </generator>
</init>
<event>
 7      1 +1.0088000e-05 7.51152400e+01 7.81860800e-03 1.38082400e-01
        2 -1    0    0  502    0 +0.0000000000e+00 +0.0000000000e+00 +6.0191936646e+02 6.0191936646e+02 0.0000000000e+00 0.0000e+00 -1.0000e+00
        1 -1    0    0  501    0 -0.0000000000e+00 -0.0000000000e+00 -1.7015971249e+02 1.7015971249e+02 0.0000000000e+00 0.0000e+00 -1.0000e+00
       25  2    1    2    0    0 -2.3870579627e+01 +7.8474457998e+01 +1.8482339672e+02 2.3772452744e+02 1.2500087136e+02 0.0000e+00 0.0000e+00
        2  1    1    2  501    0 -3.0318699465e+01 -6.9346824493e+01 -1.3162084796e+02 1.5182968492e+02 0.0000000000e+00 0.0000e+00 -1.0000e+00
        1  1    1    2  502    0 +5.4189279092e+01 -9.1276335054e+00 +3.7855710520e+02 3.8252486659e+02 0.0000000000e+00 0.0000e+00 -1.0000e+00
       22  1    3    3    0    0 -6.7355141715e+01 +1.7116092252e+01 +5.9112920877e+01 9.1236029857e+01 0.0000000000e+00 0.0000e+00 1.0000e+00
       22  1    3    3    0    0 +4.3484562088e+01 +6.1358365747e+01 +1.2571047584e+02 1.4648849758e+02 0.0000000000e+00 0.0000e+00 1.0000e+00
<rwgt>
<wgt id='SM'> +9.7745482e-06 </wgt>
<wgt id='morphing_basis_vector_1'> +9.6902816e-06 </wgt>
<wgt id='morphing_basis_vector_2'> +1.0132083e-05 </wgt>
<wgt id='morphing_basis_vector_3'> +9.6119933e-06 </wgt>
<wgt id='morphing_basis_vector_5'> +9.3676804e-06 </wgt>
</rwgt>
</event>
<event>
 7      1 +1.0088000e-05 1.06827900e+02 7.81860800e-03 1.28904900e-01
        2 -1    0    0  502    0 +0.0000000000e+00 +0.0000000000e+00 +3.6498692390e+03 3.6498692390e+03 0.0000000000e+00 0.0000e+00 -1.0000e+00
        1 -1    0    0  501    0 -0.0000000000e+00 -0.0000000000e+00 -7.2302699741e+02 7.2302699741e+02 0.0000000000e+00 0.0000e+00 -1.0000e+00
       25  2    1    2    0    0 -3.1603549682e+01 +1.8194427827e+01 -3.4535798888e+01 1.3471173547e+02 1.2499883485e+02 0.0000e+00 0.0000e+00
        2  1    1    2  501    0 +5.2892729481e+01 -1.0170445574e+02 -6.3273630454e+02 6.4303706598e+02 0.0000000000e+00 0.0000e+00 -1.0000e+00
        1  1    1    2  502    0 -2.1289179799e+01 +8.3510027913e+01 +3.5941143450e+03 3.5951474349e+03 0.0000000000e+00 0.0000e+00 -1.0000e+00
       22  1    3    3    0    0 -6.6422174062e+01 +1.0801148614e+01 +1.9448584610e+01 7.0048679230e+01 0.0000000000e+00 0.0000e+00 1.0000e+00
       22  1    3    3    0    0 +3.4818624380e+01 +7.3932792135e+00 -5.3984383499e+01 6.4663056245e+01 0.0000000000e+00 0.0000e+00 1.0000e+00
<rwgt>
<wgt id='SM'> +9.9456328e-06 </wgt>
<wgt id='morphing_basis_vector_1'> +9.9387394e-06 </wgt>
<wgt id='morphing_basis_vector_2'> +1.0070833e-05 </wgt>
<wgt id='morphing_basis_vector_3'> +9.8533591e-06 </wgt>
<wgt id='morphing_basis_vector_5'> +9.7875321e-06 </wgt>
</rwgt>
</event>
<event>
 7      1 +1.0088000e-05 1.29250200e+02 7.81860800e-03 1.31508300e-01
        2 -1    0    0  502    0 +0.0000000000e+00 +0.0000000000e+00 +9.9375779066e+01 9.9375779066e+01 0.0000000000e+00 0.0000e+00 -1.0000e+00
        1 -1    0    0  501    0 -0.0000000000e+00 -0.0000000000e+00 -8.0170256740e+02 8.0170256740e+02 0.0000000000e+00 0.0000e+00 -1.0000e+00
       25  2    1    2    0    0 +1.1547186540e+02 -8.3921677664e+01 -2.0002284133e+02 2.7570130163e+02 1.2500188394e+02 0.0000e+00 0.0000e+00
        2  1    1    2  501    0 +9.1705897163e+00 +5.5320665948e+01 -4.9405750268e+02 4.9722961672e+02 0.0000000000e+00 0.0000e+00 -1.0000e+00
        1  1    1    2  502    0 -1.2464245511e+02 +2.8601011716e+01 -8.2464443302e+00 1.2814742811e+02 0.0000000000e+00 0.0000e+00 -1.0000e+00
       22  1    3    3    0    0 +7.1749940043e+01 -7.5811677098e+01 -2.0590000851e+02 2.3084687086e+02 0.0000000000e+00 0.0000e+00 1.0000e+00
       22  1    3    3    0    0 +4.3721925353e+01 -8.1100005665e+00 +5.8771671817e+00 4.4854430772e+01 0.0000000000e+00 0.0000e+00 1.0000e+00
<rwgt>
<wgt id='SM'> +9.4623661e-06 </wgt>
<wgt id='morphing_basis_vector_1'> +9.0842755e-06 </wgt>
<wgt id='morphing_basis_vector_2'> +1.0438384e-05 </wgt>
<wgt id='morphing_basis_vector_3'> +9.2639447e-06 </wgt>
<wgt id='morphing_basis_vector_5'> +8.4795485e-06 </wgt>
</rwgt>
</event>
<event>
 7      1 +1.0088000e-05 5.82246300e+01 7.81860800e-03 1.52283600e-01
        2 -1    0    0  502    0 +0.0000000000e+00 +0.0000000000e+00 +1.5075295215e+03 1.5075295215e+03 0.0000000000e+00 0.0000e+00 -1.0000e+00
        1 -1    0    0  501    0 -0.0000000000e+00 -0.0000000000e+00 -2.3499238879e+01 2.3499238879e+01 0.0000000000e+00 0.0000e+00 -1.0000e+00
       25  2    1    2    0    0 +8.4798063815e+00 -3.6788823441e+01 +8.6034075535e+02 8.7019428785e+02 1.2500623441e+02 0.0000e+00 0.0000e+00
        2  1    1    2  501    0 +1.9570731318e+00 +5.9401435393e+01 +2.9914717069e+01 6.6537590573e+01 0.0000000000e+00 0.0000e+00 -1.0000e+00
        1  1    1    2  502    0 -1.0436879513e+01 -2.2612611951e+01 +5.9377481020e+02 5.9429688195e+02 0.0000000000e+00 0.0000e+00 -1.0000e+00
       22  1    3    3    0    0 -1.7458275898e+00 -5.1344707908e+01 +1.3212904121e+02 1.4176533594e+02 0.0000000000e+00 0.0000e+00 1.0000e+00
       22  1    3    3    0    0 +1.0225633971e+01 +1.4555884466e+01 +7.2821171414e+02 7.2842895191e+02 0.0000000000e+00 0.0000e+00 1.0000e+00
<rwgt>
<wgt id='SM'> +1.0015953e-05 </wgt>
<wgt id='morphing_basis_vector_1'> +1.0020369e-05 </wgt>
<wgt id='morphing_basis_vector_2'> +1.0070119e-05 </wgt>
<wgt id='morphing_basis_vector_3'> +9.9647855e-06 </wgt>
<wgt id='morphing_basis_vector_5'> +9.9431860e-06 </wgt>
</rwgt>
</event>
<event>
 7      1 +1.0088000e-05 8.82879000e+01 7.81860800e-03 1.33837100e-01
        2 -1    0    0  502    0 +0.0000000000e+00 +0.0000000000e+00 +1.6108830932e+03 1.6108830932e+03 0.0000000000e+00 0.0000e+00 -1.0000e+00
        1 -1    0    0  501    0 -0.0000000000e+00 -0.0000000000e+00 -2.5513446789e+03 2.5513446789e+03 0.0000000000e+00 0.0000e+00 -1.0000e+00
       25  2    1    2    0    0 +3.1505421194e+01 -1.9810271551e+01 -1.0225981301e+02 1.6573648113e+02 1.2500589344e+02 0.0000e+00 0.0000e+00
        2  1    1    2  501    0 +5.5690834908e+01 +3.6917289123e+01 -2.4156342092e+03 2.4165580871e+03 0.0000000000e+00 0.0000e+00 -1.0000e+00
        1  1    1    2  502    0 -8.7196256102e+01 -1.7107017571e+01 +1.5774324365e+03 1.5799332039e+03 0.0000000000e+00 0.0000e+00 -1.0000e+00
       22  1    3    3    0    0 +5.0979041404e+01 +2.1242144992e+01 -1.0663637800e+02 1.2008916895e+02 0.0000000000e+00 0.0000e+00 -1.0000e+00
       22  1    3    3    0    0 -1.9473620210e+01 -4.1052416544e+01 +4.3765649857e+00 4.5647312180e+01 0.0000000000e+00 0.0000e+00 -1.0000e+00
<rwgt>
<wgt id='SM'> +9.9476637e-06 </wgt>
<wgt id='morphing_basis_vector_1'> +9.9462524e-06 </wgt>
<wgt id='morphing_basis_vector_2'> +1.0064796e-05 </wgt>
<wgt id='morphing_basis_vector_3'> +9.8535907e-06 </wgt>
<wgt id='morphing_basis_vector_5'> +9.7965684e-06 </wgt>
</rwgt>
</event>
<event>
 7      1 +1.0088000e-05 2.90904400e+01 7.81860800e-03 1.65272200e-01
        2 -1    0    0  502    0 +0.0000000000e+00 +0.0000000000e+00 +1.2705336965e+03 1.2705336965e+03 0.0000000000e+00 0.0000e+00 -1.0000e+00
        1 -1    0    0  501    0 -0.0000000000e+00 -0.0000000000e+00 -4.6551469696e+02 4.6551469696e+02 0.0000000000e+00 0.0000e+00 -1.0000e+00
       25  2    1    2    0    0 +4.4432448677e+01 +2.2464798832e+01 +8.0313664431e+02 8.1432978133e+02 1.2500245458e+02 0.0000e+00 0.0000e+00
        2  1    1    2  501    0 -2.8272440314e+01 -6.8031115712e+00 -4.5918376353e+02 4.6010362083e+02 0.0000000000e+00 0.0000e+00 -1.0000e+00
        1  1    1    2  502    0 -1.6160008363e+01 -1.5661687260e+01 +4.6106611879e+02 4.6161499132e+02 0.0000000000e+00 0.0000e+00 -1.0000e+00
       22  1    3    3    0    0 +6.0456188167e-01 -2.8830028840e+01 +5.9142287584e+02 5.9212545472e+02 0.0000000000e+00 0.0000e+00 -1.0000e+00
       22  1    3    3    0    0 +4.3827886796e+01 +5.1294827671e+01 +2.1171376847e+02 2.2220432661e+02 0.0000000000e+00 0.0000e+00 -1.0000e+00
<rwgt>
<wgt id='SM'> +1.0072864e-05 </wgt>
<wgt id='morphing_basis_vector_1'> +1.0007129e-05 </wgt>
<wgt id='morphing_basis_vector_2'> +1.0161959e-05 </wgt>
<wgt id='morphing_basis_vector_3'> +1.0100222e-05 </wgt>
<wgt id='morphing_basis_vector_5'> +9.9969231e-06 </wgt>
</rwgt>
</event>
<event>
 7      1 +1.0088000e-05 1.08613400e+02 7.81860800e-03 1.42828100e-01
        2 -1    0    0  502    0 +0.0000000000e+00 +0.0000000000e+00 +1.1323393274e+03 1.1323393274e+03 0.0000000000e+00 0.0000e+00 -1.0000e+00
        1 -1    0    0  501    0 -0.0000000000e+00 -0.0000000000e+00 -3.1495682104e+02 3.1495682104e+02 0.0000000000e+00 0.0000e+00 -1.0000e+00
       25  2    1    2    0    0 -7.5446310983e+01 +9.2175192042e+01 -7.3979594811e+01 1.8784472189e+02 1.2499698886e+02 0.0000e+00 0.0000e+00
        2  1    1    2  501    0 -9.2672498497e+00 -2.4466278020e+01 -1.8036439803e+02 1.8225201441e+02 0.0000000000e+00 0.0000e+00 -1.0000e+00
        1  1    1    2  502    0 +8.4713560833e+01 -6.7708914022e+01 +1.0717264992e+03 1.0771994122e+03 0.0000000000e+00 0.0000e+00 -1.0000e+00
       22  1    3    3    0    0 -3.8179421658e+01 +9.0466043996e+01 -1.0170003388e+02 1.4136714698e+02 0.0000000000e+00 0.0000e+00 1.0000e+00
       22  1    3    3    0    0 -3.7266889325e+01 +1.7091480460e+00 +2.7720439067e+01 4.6477574905e+01 0.0000000000e+00 0.0000e+00 1.0000e+00
<rwgt>
<wgt id='SM'> +9.9377182e-06 </wgt>
<wgt id='morphing_basis_vector_1'> +9.7149992e-06 </wgt>
<wgt id='morphing_basis_vector_2'> +1.0324811e-05 </wgt>
<wgt id='morphing_basis_vector_3'> +9.9638509e-06 </wgt>
<wgt id='morphing_basis_vector_5'> +9.5764266e-06 </wgt>
</rwgt>
</event>
<event>
 7      1 +1.0088000e-05 5.60425200e+01 7.81860800e-03 1.45355100e-01
        2 -1    0    0  502    0 +0.0000000000e+00 +0.0000000000e+00 +1.8043512501e+03 1.8043512501e+03 0.0000000000e+00 0.0000e+00 -1.0000e+00
        1 -1    0    0  501    0 -0.0000000000e+00 -0.0000000000e+00 -7.8488130558e+02 7.8488130558e+02 0.0000000000e+00 0.0000e+00 -1.0000e+00
       25  2    1    2    0    0 +8.4630846936e+01 -2.3725359990e+01 -3.2885888578e+02 3.6262741172e+02 1.2500080005e+02 0.0000e+00 0.0000e+00
        2  1    1    2  501    0 -4.0563595882e+01 -1.0847109844e+01 -4.3769442379e+02 4.3970384774e+02 0.0000000000e+00 0.0000e+00 -1.0000e+00
        1  1    1    2  502    0 -4.4067251054e+01 +3.4572469835e+01 +1.7860232541e+03 1.7869012962e+03 0.0000000000e+00 0.0000e+00 -1.0000e+00
       22  1    3    3    0    0 +9.1757645894e+01 -2.4851886693e+00 -3.2756848216e+02 3.4018634930e+02 0.0000000000e+00 0.0000e+00 1.0000e+00
       22  1    3    3    0    0 -7.1267989582e+00 -2.1240171321e+01 -1.2904036221e+00 2.2441062422e+01 0.0000000000e+00 0.0000e+00 1.0000e+00
<rwgt>
<wgt id='SM'> +1.0318405e-05 </wgt>
<wgt id='morphing_basis_vector_1'> +1.0123704e-05 </wgt>
<wgt id='morphing_basis_vector_2'> +1.0354860e-05 </wgt>
<wgt id='morphing_basis_vector_3'> +1.0589417e-05 </wgt>
<wgt id='morphing_basis_vector_5'> +1.0389949e-05 </wgt>
</rwgt>
</event>
<event>
 7      1 +1.0088000e-05 7.56828300e+01 7.81860800e-03 1.39984300e-01
        2 -1    0    0  502    0 +0.0000000000e+00 +0.0000000000e+00 +1.3762693439e+03 1.3762693439e+03 0.0000000000e+00 0.0000e+00 -1.0000e+00
        1 -1    0    0  501    0 -0.0000000000e+00 -0.0000000000e+00 -4.9263124218e+02 4.9263124218e+02 0.0000000000e+00 0.0000e+00 -1.0000e+00
       25  2    1    2    0    0 -7.3782335746e+01 +1.3630833633e+01 -4.8492273989e+01 1.5364256203e+02 1.2499961414e+02 0.0000e+00 0.0000e+00
        2  1    1    2  501    0 +5.2895165758e+01 -5.5527011512e+01 -3.8738984030e+02 3.9490762962e+02 0.0000000000e+00 0.0000e+00 -1.0000e+00
        1  1    1    2  502    0 +2.0887169988e+01 +4.1896177880e+01 +1.3195202160e+03 1.3203503944e+03 0.0000000000e+00 0.0000e+00 -1.0000e+00
       22  1    3    3    0    0 -2.1000790212e+01 +4.7106295898e+01 -7.0524268838e+01 8.7371098184e+01 0.0000000000e+00 0.0000e+00 1.0000e+00
       22  1    3    3    0    0 -5.2781545534e+01 -3.3475462266e+01 +2.2031994850e+01 6.6271463843e+01 0.0000000000e+00 0.0000e+00 1.0000e+00
<rwgt>
<wgt id='SM'> +9.8821957e-06 </wgt>
<wgt id='morphing_basis_vector_1'> +9.8067909e-06 </wgt>
<wgt id='morphing_basis_vector_2'> +1.0140194e-05 </wgt>
<wgt id='morphing_basis_vector_3'> +9.7863114e-06 </wgt>
<wgt id='morphing_basis_vector_5'> +9.5954364e-06 </wgt>
</rwgt>
</event>
<event>
 7      1 +1.0088000e-05 1.56372300e+02 7.81860800e-03 1.28191800e-01
        2 -1    0    0  502    0 +0.0000000000e+00 +0.0000000000e+00 +7.9937118038e+02 7.9937118038e+02 0.0000000000e+00 0.0000e+00 -1.0000e+00
        1 -1    0    0  501    0 -0.0000000000e+00 -0.0000000000e+00 -1.4206635241e+03 1.4206635241e+03 0.0000000000e+00 0.0000e+00 -1.0000e+00
       25  2    1    2    0    0 +1.8530009087e+02 -8.0261190002e+01 +1.7566520326e+02 2.9540242532e+02 1.2500538768e+02 0.0000e+00 0.0000e+00
        2  1    1    2  501    0 -3.9163125013e+01 +4.9312429400e+01 -1.3501544175e+03 1.3516221429e+03 0.0000000000e+00 0.0000e+00 -1.0000e+00
        1  1    1    2  502    0 -1.4613696586e+02 +3.0948760602e+01 +5.5319687059e+02 5.7301013621e+02 0.0000000000e+00 0.0000e+00 -1.0000e+00
       22  1    3    3    0    0 -6.2140689685e+00 +9.8164867794e+00 -8.8637805921e+00 1.4613167768e+01 0.0000000000e+00 0.0000e+00 1.0000e+00
       22  1    3    3    0    0 +1.9151415984e+02 -9.0077676782e+01 +1.8452898385e+02 2.8078925755e+02 0.0000000000e+00 0.0000e+00 1.0000e+00
<rwgt>
<wgt id='SM'> +9.9206232e-06 </wgt>
<wgt id='morphing_basis_vector_1'> +9.1376229e-06 </wgt>
<wgt id='morphing_basis_vector_2'> +1.1014160e-05 </wgt>
<wgt id='morphing_basis_vector_3'> +1.0267061e-05 </wgt>
<wgt id='morphing_basis_vector_5'> +9.0361063e-06 </wgt>
</rwgt>
</event>
<event>
 7      1 +1.0088000e-05 1.06407600e+02 7.81860800e-03 1.29606300e-01
        2 -1    0    0  502    0 +0.0000000000e+00 +0.0000000000e+00 +3.4260564588e+02 3.4260564588e+02 0.0000000000e+00 0.0000e+00 -1.0000e+00
        1 -1    0    0  501    0 -0.0000000000e+00 -0.0000000000e+00 -3.6571097583e+03 3.6571097583e+03 0.0000000000e+00 0.0000e+00 -1.0000e+00
       25  2    1    2    0    0 +8.7138702569e+01 -1.0728113156e+02 +8.3276164905e+01 2.0410820358e+02 1.2499137751e+02 0.0000e+00 0.0000e+00
        2  1    1    2  501    0 -6.1036384469e+00 +1.0620013887e+02 -3.5876178824e+03 3.5891945885e+03 0.0000000000e+00 0.0000e+00 -1.0000e+00
        1  1    1    2  502    0 -8.1035064122e+01 +1.0809926950e+00 +1.8983760504e+02 2.0641261214e+02 0.0000000000e+00 0.0000e+00 -1.0000e+00
       22  1    3    3    0    0 +2.9455997489e+01 -6.1690582173e+01 -2.5373607014e+01 7.2919158318e+01 0.0000000000e+00 0.0000e+00 -1.0000e+00
       22  1    3    3    0    0 +5.7682705079e+01 -4.5590549390e+01 +1.0864977192e+02 1.3118904526e+02 0.0000000000e+00 0.0000e+00 -1.0000e+00
<rwgt>
<wgt id='SM'> +9.4993666e-06 </wgt>
<wgt id='morphing_basis_vector_1'> +9.2247167e-06 </wgt>
<wgt id='morphing_basis_vector_2'> +1.0315277e-05 </wgt>
<wgt id='morphing_basis_vector_3'> +9.2648623e-06 </wgt>
<wgt id='morphing_basis_vector_5'> +8.6443260e-06 </wgt>
</rwgt>
</event>
<event>
 7      1 +1.0088000e-05 7.54410100e+01 7.81860800e-03 1.41048900e-01
        2 -1    0    0  502    0 +0.0000000000e+00 +0.0000000000e+00 +1.1440544082e+03 1.1440544082e+03 0.0000000000e+00 0.0000e+00 -1.0000e+00
        1 -1    0    0  501    0 -0.0000000000e+00 -0.0000000000e+00 -9.8940726080e+02 9.8940726080e+02 0.0000000000e+00 0.0000e+00 -1.0000e+00
       25  2    1    2    0    0 -9.9670040583e+01 -4.9413105945e+01 -5.2963552074e+02 5.5544138655e+02 1.2500230812e+02 0.0000e+00 0.0000e+00
        2  1    1    2  501    0 +6.2410641995e+01 +2.7559817696e+01 -4.4384904425e+02 4.4906191763e+02 0.0000000000e+00 0.0000e+00 -1.0000e+00
        1  1    1    2  502    0 +3.7259398588e+01 +2.1853288249e+01 +1.1281317124e+03 1.1289583648e+03 0.0000000000e+00 0.0000e+00 -1.0000e+00
       22  1    3    3    0    0 -8.5854236672e+01 -8.9488407913e+01 -4.1884199217e+02 4.3681545246e+02 0.0000000000e+00 0.0000e+00 -1.0000e+00
       22  1    3    3    0    0 -1.3815803911e+01 +4.0075301968e+01 -1.1079352857e+02 1.1862593409e+02 0.0000000000e+00 0.0000e+00 -1.0000e+00
<rwgt>
<wgt id='SM'> +1.0177224e-05 </wgt>
<wgt id='morphing_basis_vector_1'> +9.8277806e-06 </wgt>
<wgt id='morphing_basis_vector_2'> +1.0515526e-05 </wgt>
<wgt id='morphing_basis_vector_3'> +1.0441386e-05 </wgt>
<wgt id='morphing_basis_vector_5'> +9.9548328e-06 </wgt>
</rwgt>
</event>
<event>
 7      1 +1.0088000e-05 2.46542100e+01 7.81860800e-03 1.69646100e-01
        2 -1    0    0  502    0 +0.0000000000e+00 +0.0000000000e+00 +1.7484952825e+03 1.7484952825e+03 0.0000000000e+00 0.0000e+00 -1.0000e+00
        1 -1    0    0  501    0 -0.0000000000e+00 -0.0000000000e+00 -7.5258504831e+01 7.5258504831e+01 0.0000000000e+00 0.0000e+00 -1.0000e+00
       25  2    1    2    0    0 +4.4038346718e+00 -5.8522300600e+00 +5.9187517833e+02 6.0497485482e+02 1.2499882354e+02 0.0000e+00 0.0000e+00
        2  1    1    2  501    0 -9.2355835144e+00 -1.8744283857e+01 -6.6979970028e+01 7.0163812362e+01 0.0000000000e+00 0.0000e+00 -1.0000e+00
        1  1    1    2  502    0 +4.8317488427e+00 +2.4596513917e+01 +1.1483415694e+03 1.1486151202e+03 0.0000000000e+00 0.0000e+00 -1.0000e+00
       22  1    3    3    0    0 -5.3754356737e+00 -1.4133934005e+01 +5.9196655738e+02 5.9215966466e+02 0.0000000000e+00 0.0000e+00 1.0000e+00
       22  1    3    3    0    0 +9.7792703455e+00 +8.2817039454e+00 -9.1379046126e-02 1.2815190161e+01 0.0000000000e+00 0.0000e+00 1.0000e+00
<rwgt>
<wgt id='SM'> +1.0100071e-05 </wgt>
<wgt id='morphing_basis_vector_1'> +1.0097053e-05 </wgt>
<wgt id='morphing_basis_vector_2'> +1.0093633e-05 </wgt>
<wgt id='morphing_basis_vector_3'> +1.0110013e-05 </wgt>
<wgt id='morphing_basis_vector_5'> +1.0110321e-05 </wgt>
</rwgt>
</event>
<event>
 7      1 +1.0088000e-05 5.78573500e+01 7.81860800e-03 1.41351000e-01
        2 -1    0    0  502    0 +0.0000000000e+00 +0.0000000000e+00 +1.8327629097e+03 1.8327629097e+03 0.0000000000e+00 0.0000e+00 -1.0000e+00
        1 -1    0    0  501    0 -0.0000000000e+00 -0.0000000000e+00 -1.8773953726e+02 1.8773953726e+02 0.0000000000e+00 0.0000e+00 -1.0000e+00
       25  2    1    2    0    0 +1.0278832863e+02 +3.9937811655e+01 +8.7914487862e+01 1.8846621148e+02 1.2502034391e+02 0.0000e+00 0.0000e+00
        2  1    1    2  501    0 -4.9891103060e+01 -2.4823592513e+01 -1.3134965238e+02 1.4268168799e+02 0.0000000000e+00 0.0000e+00 -1.0000e+00
        1  1    1    2  502    0 -5.2897225574e+01 -1.5114219142e+01 +1.6884585369e+03 1.6893545475e+03 0.0000000000e+00 0.0000e+00 -1.0000e+00
       22  1    3    3    0    0 +1.1971114900e+02 +6.3945834298e+01 +6.1659116949e+01 1.4906936513e+02 0.0000000000e+00 0.0000e+00 1.0000e+00
       22  1    3    3    0    0 -1.6922820365e+01 -2.4008022644e+01 +2.6255370913e+01 3.9396846348e+01 0.0000000000e+00 0.0000e+00 1.0000e+00
<rwgt>
<wgt id='SM'> +1.0219352e-05 </wgt>
<wgt id='morphing_basis_vector_1'> +9.9661033e-06 </wgt>
<wgt id='morphing_basis_vector_2'> +1.0407609e-05 </wgt>
<wgt id='morphing_basis_vector_3'> +1.0455835e-05 </wgt>
<wgt id='morphing_basis_vector_5'> +1.0129718e-05 </wgt>
</rwgt>
</event>
<event>
 7      1 +1.0088000e-05 6.32097500e+01 7.81860800e-03 1.52117900e-01
        2 -1    0    0  502    0 +0.0000000000e+00 +0.0000000000e+00 +1.0802856927e+02 1.0802856927e+02 0.0000000000e+00 0.0000e+00 -1.0000e+00
        1 -1    0    0  501    0 -0.0000000000e+00 -0.0000000000e+00 -3.7901649457e+02 3.7901649457e+02 0.0000000000e+00 0.0000e+00 -1.0000e+00
       25  2    1    2    0    0 -4.6586410890e+01 -2.2963614219e+01 -2.5660957456e+01 1.3777295395e+02 1.2500112338e+02 0.0000e+00 0.0000e+00
        2  1    1    2  501    0 +4.4556075210e+01 +4.6070192064e+01 -2.9103862997e+02 2.9801206447e+02 0.0000000000e+00 0.0000e+00 -1.0000e+00
        1  1    1    2  502    0 +2.0303356803e+00 -2.3106577845e+01 +4.5711662116e+01 5.1260045416e+01 0.0000000000e+00 0.0000e+00 -1.0000e+00
       22  1    3    3    0    0 -2.5743772469e+01 +1.7142714531e+01 +4.4572544045e+01 5.4252430038e+01 0.0000000000e+00 0.0000e+00 -1.0000e+00
       22  1    3    3    0    0 -2.0842638421e+01 -4.0106328750e+01 -7.0233501501e+01 8.3520523916e+01 0.0000000000e+00 0.0000e+00 -1.0000e+00
<rwgt>
<wgt id='SM'> +1.0239401e-05 </wgt>
<wgt id='morphing_basis_vector_1'> +1.0176288e-05 </wgt>
<wgt id='morphing_basis_vector_2'> +1.0187689e-05 </wgt>
<wgt id='morphing_basis_vector_3'> +1.0379528e-05 </wgt>
<wgt id='morphing_basis_vector_5'> +1.0345770e-05 </wgt>
</rwgt>
</event>
<event>
 7      1 +1.0088000e-05 1.01777500e+02 7.81860800e-03 1.33921200e-01
        2 -1    0    0  502    0 +0.0000000000e+00 +0.0000000000e+00 +2.3662585520e+03 2.3662585520e+03 0.0000000000e+00 0.0000e+00 -1.0000e+00
        1 -1    0    0  501    0 -0.0000000000e+00 -0.0000000000e+00 -1.3440621609e+03 1.3440621609e+03 0.0000000000e+00 0.0000e+00 -1.0000e+00
       25  2    1    2    0    0 +2.2950180165e+01 +1.4559759604e+02 -3.1630508912e+02 3.7067526230e+02 1.2500347969e+02 0.0000e+00 0.0000e+00
        2  1    1    2  501    0 +2.0570813672e+01 -5.3735530158e+01 -9.9863912652e+02 1.0002953417e+03 0.0000000000e+00 0.0000e+00 -1.0000e+00
        1  1    1    2  502    0 -4.3520993838e+01 -9.1862065880e+01 +2.3371406067e+03 2.3393501088e+03 0.0000000000e+00 0.0000e+00 -1.0000e+00
       22  1    3    3    0    0 +8.7495442986e+00 +1.6663813795e+02 -2.8623297064e+02 3.3132180282e+02 0.0000000000e+00 0.0000e+00 1.0000e+00
       22  1    3    3    0    0 +1.4200635867e+01 -2.1040541909e+01 -3.0072118481e+01 3.9353459477e+01 0.0000000000e+00 0.0000e+00 1.0000e+00
<rwgt>
<wgt id='SM'> +1.0560876e-05 </wgt>
<wgt id='morphing_basis_vector_1'> +1.0102012e-05 </wgt>
<wgt id='morphing_basis_vector_2'> +1.0706344e-05 </wgt>
<wgt id='morphing_basis_vector_3'> +1.1159243e-05 </wgt>
<wgt id='morphing_basis_vector_5'> +1.0653811e-05 </wgt>
</rwgt>
</event>
<event>
 7      1 +1.0088000e-05 3.71995500e+01 7.81860800e-03 1.56395300e-01
        2 -1    0    0  502    0 +0.0000000000e+00 +0.0000000000e+00 +2.1007216389e+03 2.1007216389e+03 0.0000000000e+00 0.0000e+00 -1.0000e+00
        1 -1    0    0  501    0 -0.0000000000e+00 -0.0000000000e+00 -9.4757231750e+02 9.4757231750e+02 0.0000000000e+00 0.0000e+00 -1.0000e+00
       25  2    1    2    0    0 -5.9609250733e+01 -2.3931704023e+01 -2.4414298246e+02 2.8170235988e+02 1.2499773778e+02 0.0000e+00 0.0000e+00
        2  1    1    2  501    0 +2.2702568221e+01 +1.9400220114e+01 -6.8415788204e+02 6.8480930389e+02 0.0000000000e+00 0.0000e+00 -1.0000e+00
        1  1    1    2  502    0 +3.6906682512e+01 +4.5314839088e+00 +2.0814501859e+03 2.0817822927e+03 0.0000000000e+00 0.0000e+00 -1.0000e+00
       22  1    3    3    0    0 -2.4367452569e+01 +4.5718829339e+01 -4.8112984336e+01 7.0702498984e+01 0.0000000000e+00 0.0000e+00 -1.0000e+00
       22  1    3    3    0    0 -3.5241798165e+01 -6.9650533362e+01 -1.9602999812e+02 2.1099986090e+02 0.0000000000e+00 0.0000e+00 -1.0000e+00
<rwgt>
<wgt id='SM'> +1.0162794e-05 </wgt>
<wgt id='morphing_basis_vector_1'> +1.0076702e-05 </wgt>
<wgt id='morphing_basis_vector_2'> +1.0201314e-05 </wgt>
<wgt id='morphing_basis_vector_3'> +1.0263245e-05 </wgt>
<wgt id='morphing_basis_vector_5'> +1.0164957e-05 </wgt>
</rwgt>
</event>
<event>
 7      1 +1.0088000e-05 3.44444100e+01 7.81860800e-03 1.59917100e-01
        2 -1    0    0  502    0 +0.0000000000e+00 +0.0000000000e+00 +3.4279751659e+01 3.4279751659e+01 0.0000000000e+00 0.0000e+00 -1.0000e+00
        1 -1    0    0  501    0 -0.0000000000e+00 -0.0000000000e+00 -3.0043741664e+02 3.0043741664e+02 0.0000000000e+00 0.0000e+00 -1.0000e+00
       25  2    1    2    0    0 -1.9329405058e+01 +1.0748662505e+01 -1.7311885103e+02 2.1467274323e+02 1.2500036183e+02 0.0000e+00 0.0000e+00
        2  1    1    2  501    0 +1.2360859810e+01 -3.5755042060e+01 -8.4723043200e+01 9.2785817542e+01 0.0000000000e+00 0.0000e+00 -1.0000e+00
        1  1    1    2  502    0 +6.9685452489e+00 +2.5006379555e+01 -8.3157707516e+00 2.7258607531e+01 0.0000000000e+00 0.0000e+00 -1.0000e+00
       22  1    3    3    0    0 -1.7940656791e+01 +2.2850603494e+01 -1.9091170845e+02 1.9310954837e+02 0.0000000000e+00 0.0000e+00 1.0000e+00
       22  1    3    3    0    0 -1.3887482673e+00 -1.2101940989e+01 +1.7792857420e+01 2.1563194861e+01 0.0000000000e+00 0.0000e+00 1.0000e+00
<rwgt>
<wgt id='SM'> +9.9188544e-06 </wgt>
<wgt id='morphing_basis_vector_1'> +9.9786188e-06 </wgt>
<wgt id='morphing_basis_vector_2'> +9.9885514e-06 </wgt>
<wgt id='morphing_basis_vector_3'> +9.7719886e-06 </wgt>
<wgt id='morphing_basis_vector_5'> +9.7951771e-06 </wgt>
</rwgt>
</event>
<event>
 7      1 +1.0088000e-05 1.78670200e+02 7.81860800e-03 1.19156600e-01
        2 -1    0    0  502    0 +0.0000000000e+00 +0.0000000000e+00 +2.2571830837e+03 2.2571830837e+03 0.0000000000e+00 0.0000e+00 -1.0000e+00
        1 -1    0    0  501    0 -0.0000000000e+00 -0.0000000000e+00 -9.8178369084e+02 9.8178369084e+02 0.0000000000e+00 0.0000e+00 -1.0000e+00
       25  2    1    2    0    0 +1.0138169984e+02 +2.7378320943e+02 +1.7772557245e+02 3.6392416957e+02 1.2497570670e+02 0.0000e+00 0.0000e+00
        2  1    1    2  501    0 -3.3574832657e+00 -1.7549926824e+02 -8.7755714830e+02 8.9494011776e+02 0.0000000000e+00 0.0000e+00 -1.0000e+00
        1  1    1    2  502    0 -9.8024216579e+01 -9.8283941181e+01 +1.9752309687e+03 1.9801024872e+03 0.0000000000e+00 0.0000e+00 -1.0000e+00
       22  1    3    3    0    0 +1.6507610703e+01 +6.4443262926e+01 +1.0920080394e+02 1.2786809973e+02 0.0000000000e+00 0.0000e+00 -1.0000e+00
       22  1    3    3    0    0 +8.4874089142e+01 +2.0933994650e+02 +6.8524768514e+01 2.3605606984e+02 0.0000000000e+00 0.0000e+00 -1.0000e+00
<rwgt>
<wgt id='SM'> +1.2113861e-05 </wgt>
<wgt id='morphing_basis_vector_1'> +1.0121245e-05 </wgt>
<wgt id='morphing_basis_vector_2'> +1.2797039e-05 </wgt>
<wgt id='morphing_basis_vector_3'> +1.4886143e-05 </wgt>
<wgt id='morphing_basis_vector_5'> +1.2503982e-05 </wgt>
</rwgt>
</event>
<event>
 7      1 +1.0088000e-05 2.78602900e+01 7.81860800e-03 1.66619800e-01
        2 -1    0    0  502    0 +0.0000000000e+00 +0.0000000000e+00 +1.7731730042e+01 1.7731730042e+01 0.0000000000e+00 0.0000e+00 -1.0000e+00
        1 -1    0    0  501    0 -0.0000000000e+00 -0.0000000000e+00 -1.5262679326e+03 1.5262679326e+03 0.0000000000e+00 0.0000e+00 -1.0000e+00
       25  2    1    2    0    0 +1.7048682547e+01 -9.6287626617e+00 -2.9563282147e+02 3.2157033183e+02 1.2500137013e+02 0.0000e+00 0.0000e+00
        2  1    1    2  501    0 -2.6145519701e+01 -1.0177483190e+01 -1.1916718302e+03 1.1920020639e+03 0.0000000000e+00 0.0000e+00 -1.0000e+00
        1  1    1    2  502    0 +9.0968371539e+00 +1.9806245852e+01 -2.1231550891e+01 3.0427266953e+01 0.0000000000e+00 0.0000e+00 -1.0000e+00
       22  1    3    3    0    0 -5.1849684514e+01 -7.1073620098e+00 -8.3792361082e+01 9.8793036974e+01 0.0000000000e+00 0.0000e+00 -1.0000e+00
       22  1    3    3    0    0 +6.8898367061e+01 -2.5214006519e+00 -2.1184046039e+02 2.2277729485e+02 0.0000000000e+00 0.0000e+00 -1.0000e+00
<rwgt>
<wgt id='SM'> +1.0167271e-05 </wgt>
<wgt id='morphing_basis_vector_1'> +1.0152781e-05 </wgt>
<wgt id='morphing_basis_vector_2'> +1.0118715e-05 </wgt>
<wgt id='morphing_basis_vector_3'> +1.0229838e-05 </wgt>
<wgt id='morphing_basis_vector_5'> +1.0239761e-05 </wgt>
</rwgt>
</event>
<event>
 7      1 +1.0088000e-05 9.45938800e+01 7.81860800e-03 1.39200800e-01
        2 -1    0    0  502    0 +0.0000000000e+00 +0.0000000000e+00 +2.5501393577e+02 2.5501393577e+02 0.0000000000e+00 0.0000e+00 -1.0000e+00
        1 -1    0    0  501    0 -0.0000000000e+00 -0.0000000000e+00 -2.4467961881e+02 2.4467961881e+02 0.0000000000e+00 0.0000e+00 -1.0000e+00
       25  2    1    2    0    0 +4.0947369952e+01 -1.1779202934e+02 +4.0717912849e+01 1.8120258146e+02 1.2499911128e+02 0.0000e+00 0.0000e+00
        2  1    1    2  501    0 -2.6066335840e+01 +3.0165241610e+01 -1.5801164925e+02 1.6296342216e+02 0.0000000000e+00 0.0000e+00 -1.0000e+00
        1  1    1    2  502    0 -1.4881034111e+01 +8.7626787729e+01 +1.2762805336e+02 1.5552755096e+02 0.0000000000e+00 0.0000e+00 -1.0000e+00
       22  1    3    3    0    0 +3.0490409773e+01 -1.0230201304e+02 -2.7694687512e+01 1.1028310241e+02 0.0000000000e+00 0.0000e+00 -1.0000e+00
       22  1    3    3    0    0 +1.0456960178e+01 -1.5490016299e+01 +6.8412600361e+01 7.0919479054e+01 0.0000000000e+00 0.0000e+00 -1.0000e+00
<rwgt>
<wgt id='SM'> +1.0488578e-05 </wgt>
<wgt id='morphing_basis_vector_1'> +9.9856985e-06 </wgt>
<wgt id='morphing_basis_vector_2'> +1.0748449e-05 </wgt>
<wgt id='morphing_basis_vector_3'> +1.1062505e-05 </wgt>
<wgt id='morphing_basis_vector_5'> +1.0462536e-05 </wgt>
</rwgt>
</event>
<event>
 7      1 +1.0088000e-05 9.12942700e+01 7.81860800e-03 1.40256500e-01
        2 -1    0    0  502    0 +0.0000000000e+00 +0.0000000000e+00 +5.4301638027e+02 5.4301638027e+02 0.0000000000e+00 0.0000e+00 -1.0000e+00
        1 -1    0    0  501    0 -0.0000000000e+00 -0.0000000000e+00 -2.6221538334e+03 2.6221538334e+03 0.0000000000e+00 0.0000e+00 -1.0000e+00
       25  2    1    2    0    0 +1.7295976863e+01 -1.0843314349e+02 -7.4933956741e+01 1.8247424963e+02 1.2499942593e+02 0.0000e+00 0.0000e+00
        2  1    1    2  501    0 -4.2891952556e+01 +8.0369757672e+01 -2.4918789362e+03 2.4935435930e+03 0.0000000000e+00 0.0000e+00 -1.0000e+00
        1  1    1    2  502    0 +2.5595975693e+01 +2.8063385821e+01 +4.8767543976e+02 4.8915237108e+02 0.0000000000e+00 0.0000e+00 -1.0000e+00
       22  1    3    3    0    0 -2.5863577803e+01 -1.1354434861e+02 -7.5897490082e+01 1.3900241998e+02 0.0000000000e+00 0.0000e+00 1.0000e+00
       22  1    3    3    0    0 +4.3159554666e+01 +5.1112051219e+00 +9.6353334031e-01 4.3471829652e+01 0.0000000000e+00 0.0000e+00 1.0000e+00
<rwgt>
<wgt id='SM'> +1.0392929e-05 </wgt>
<wgt id='morphing_basis_vector_1'> +1.0146191e-05 </wgt>
<wgt id='morphing_basis_vector_2'> +1.0428246e-05 </wgt>
<wgt id='morphing_basis_vector_3'> +1.0746481e-05 </wgt>
<wgt id='morphing_basis_vector_5'> +1.0497927e-05 </wgt>
</rwgt>
</event>
<event>
 7      1 +1.0088000e-05 6.89615200e+01 7.81860800e-03 1.36419400e-01
        2 -1    0    0  502    0 +0.0000000000e+00 +0.0000000000e+00 +1.5289252032e+03 1.5289252032e+03 0.0000000000e+00 0.0000e+00 -1.0000e+00
        1 -1    0    0  501    0 -0.0000000000e+00 -0.0000000000e+00 -5.4285159577e+02 5.4285159577e+02 0.0000000000e+00 0.0000e+00 -1.0000e+00
       25  2    1    2    0    0 -9.3591480002e+01 -2.7397908074e+01 +2.2942984916e+02 2.7887875107e+02 1.2500116646e+02 0.0000e+00 0.0000e+00
        2  1    1    2  501    0 +6.0255928279e+01 -3.2904892645e+01 -5.1491598849e+02 5.1947279434e+02 0.0000000000e+00 0.0000e+00 -1.0000e+00
        1  1    1    2  502    0 +3.3335551723e+01 +6.0302800719e+01 +1.2715597468e+03 1.2734252536e+03 0.0000000000e+00 0.0000e+00 -1.0000e+00
       22  1    3    3    0    0 -7.3179142669e+01 -6.9014020756e+01 +1.0189082107e+02 1.4317772663e+02 0.0000000000e+00 0.0000e+00 1.0000e+00
       22  1    3    3    0    0 -2.0412337333e+01 +4.1616112682e+01 +1.2753902808e+02 1.3570102444e+02 0.0000000000e+00 0.0000e+00 1.0000e+00
<rwgt>
<wgt id='SM'> +9.8145876e-06 </wgt>
<wgt id='morphing_basis_vector_1'> +9.6916044e-06 </wgt>
<wgt id='morphing_basis_vector_2'> +1.0184878e-05 </wgt>
<wgt id='morphing_basis_vector_3'> +9.7006819e-06 </wgt>
<wgt id='morphing_basis_vector_5'> +9.4145624e-06 </wgt>
</rwgt>
</event>
<event>
 7      1 +1.0088000e-05 1.07969800e+02 7.81860800e-03 1.33986400e-01
        2 -1    0    0  502    0 +0.0000000000e+00 +0.0000000000e+00 +6.9325800810e+02 6.9325800810e+02 0.0000000000e+00 0.0000e+00 -1.0000e+00
        1 -1    0    0  501    0 -0.0000000000e+00 -0.0000000000e+00 -6.3729663777e+02 6.3729663777e+02 0.0000000000e+00 0.0000e+00 -1.0000e+00
       25  2    1    2    0    0 +4.8173092235e+01 -9.8406233785e+01 -2.6660579563e+02 3.1417862740e+02 1.2500050397e+02 0.0000e+00 0.0000e+00
        2  1    1    2  501    0 +4.2894008987e+00 +1.1091256554e+02 -3.3689679226e+02 3.5471036747e+02 0.0000000000e+00 0.0000e+00 -1.0000e+00
        1  1    1    2  502    0 -5.2462493134e+01 -1.2506331760e+01 +6.5946395822e+02 6.6166565100e+02 0.0000000000e+00 0.0000e+00 -1.0000e+00
       22  1    3    3    0    0 +7.3554417778e+01 -5.2939849933e+01 -2.3821397219e+02 2.5487011718e+02 0.0000000000e+00 0.0000e+00 1.0000e+00
       22  1    3    3    0    0 -2.5381325543e+01 -4.5466383853e+01 -2.8391823441e+01 5.9308510226e+01 0.0000000000e+00 0.0000e+00 1.0000e+00
<rwgt>
<wgt id='SM'> +9.6834017e-06 </wgt>
<wgt id='morphing_basis_vector_1'> +9.4295829e-06 </wgt>
<wgt id='morphing_basis_vector_2'> +1.0320428e-05 </wgt>
<wgt id='morphing_basis_vector_3'> +9.5574211e-06 </wgt>
<wgt id='morphing_basis_vector_5'> +9.0318688e-06 </wgt>
</rwgt>
</event>
<event>
 7      1 +1.0088000e-05 8.18593000e+01 7.81860800e-03 1.46374600e-01
        2 -1    0    0  502    0 +0.0000000000e+00 +0.0000000000e+00 +1.1434347262e+03 1.1434347262e+03 0.0000000000e+00 0.0000e+00 -1.0000e+00
        1 -1    0    0  501    0 -0.0000000000e+00 -0.0000000000e+00 -2.6240300931e+02 2.6240300931e+02 0.0000000000e+00 0.0000e+00 -1.0000e+00
       25  2    1    2    0    0 +1.0642643940e+02 -6.2727278198e+00 +1.2858589487e+02 2.0862906874e+02 1.2500328734e+02 0.0000e+00 0.0000e+00
        2  1    1    2  501    0 -8.0784834147e+01 -1.1370992828e+00 -2.1485309695e+02 2.2954157726e+02 0.0000000000e+00 0.0000e+00 -1.0000e+00
        1  1    1    2  502    0 -2.5641605254e+01 +7.4098271025e+00 +9.6729891897e+02 9.6766708950e+02 0.0000000000e+00 0.0000e+00 -1.0000e+00
       22  1    3    3    0    0 +6.0302878236e+01 +4.8965105294e+01 +2.3296966620e+01 8.1097270692e+01 0.0000000000e+00 0.0000e+00 1.0000e+00
       22  1    3    3    0    0 +4.6123561165e+01 -5.5237833113e+01 +1.0528892825e+02 1.2753179805e+02 0.0000000000e+00 0.0000e+00 1.0000e+00
<rwgt>
<wgt id='SM'> +1.0214049e-05 </wgt>
<wgt id='morphing_basis_vector_1'> +9.9856609e-06 </wgt>
<wgt id='morphing_basis_vector_2'> +1.0377286e-05 </wgt>
<wgt id='morphing_basis_vector_3'> +1.0432301e-05 </wgt>
<wgt id='morphing_basis_vector_5'> +1.0141401e-05 </wgt>
</rwgt>
</event>
<event>
 7      1 +1.0088000e-05 1.19671100e+02 7.81860800e-03 1.25962300e-01
        2 -1    0    0  502    0 +0.0000000000e+00 +0.0000000000e+00 +9.0134595316e+02 9.0134595316e+02 0.0000000000e+00 0.0000e+00 -1.0000e+00
        1 -1    0    0  501    0 -0.0000000000e+00 -0.0000000000e+00 -9.5076185263e+02 9.5076185263e+02 0.0000000000e+00 0.0000e+00 -1.0000e+00
       25  2    1    2    0    0 +4.1477611141e+01 -5.1644704039e+01 +7.5276259080e+00 1.4165828289e+02 1.2499134482e+02 0.0000e+00 0.0000e+00
        2  1    1    2  501    0 +8.3719343582e+01 +5.8365079292e+01 -8.7596352417e+02 8.8188860217e+02 0.0000000000e+00 0.0000e+00 -1.0000e+00
        1  1    1    2  502    0 -1.2519695472e+02 -6.7203752535e+00 +8.1901999880e+02 8.2856092072e+02 0.0000000000e+00 0.0000e+00 -1.0000e+00
       22  1    3    3    0    0 +1.2759640144e+01 +1.1061775995e+01 -4.9414200080e+01 5.2220058161e+01 0.0000000000e+00 0.0000e+00 1.0000e+00
       22  1    3    3    0    0 +2.8717970996e+01 -6.2706480034e+01 +5.6941825988e+01 8.9438224732e+01 0.0000000000e+00 0.0000e+00 1.0000e+00
<rwgt>
<wgt id='SM'> +9.6623782e-06 </wgt>
<wgt id='morphing_basis_vector_1'> +9.6514510e-06 </wgt>
<wgt id='morphing_basis_vector_2'> +1.0025122e-05 </wgt>
<wgt id='morphing_basis_vector_3'> +9.3843769e-06 </wgt>
<wgt id='morphing_basis_vector_5'> +9.2053480e-06 </wgt>
</rwgt>
</event>
<event>
 7      1 +1.0088000e-05 5.08080500e+01 7.81860800e-03 1.54371700e-01
        2 -1    0    0  502    0 +0.0000000000e+00 +0.0000000000e+00 +2.7205264166e+01 2.7205264166e+01 0.0000000000e+00 0.0000e+00 -1.0000e+00
        1 -1    0    0  501    0 -0.0000000000e+00 -0.0000000000e+00 -1.3119240588e+03 1.3119240588e+03 0.0000000000e+00 0.0000e+00 -1.0000e+00
       25  2    1    2    0    0 -7.2903645591e+01 +1.3975058990e+01 -4.1676653288e+02 4.4139608826e+02 1.2500367989e+02 0.0000e+00 0.0000e+00
        2  1    1    2  501    0 +4.8937158532e+01 -7.2852235615e+00 -8.7123167612e+02 8.7263540693e+02 0.0000000000e+00 0.0000e+00 -1.0000e+00
        1  1    1    2  502    0 +2.3966487060e+01 -6.6898354281e+00 +3.2794143689e+00 2.5097827767e+01 0.0000000000e+00 0.0000e+00 -1.0000e+00
       22  1    3    3    0    0 +1.9926245704e+01 +5.4633671184e+00 -8.0349181433e+00 2.2168977371e+01 0.0000000000e+00 0.0000e+00 1.0000e+00
       22  1    3    3    0    0 -9.2829891295e+01 +8.5116918713e+00 -4.0873161474e+02 4.1922711089e+02 0.0000000000e+00 0.0000e+00 1.0000e+00
<rwgt>
<wgt id='SM'> +1.0163025e-05 </wgt>
<wgt id='morphing_basis_vector_1'> +1.0001926e-05 </wgt>
<wgt id='morphing_basis_vector_2'> +1.0289300e-05 </wgt>
<wgt id='morphing_basis_vector_3'> +1.0307136e-05 </wgt>
<wgt id='morphing_basis_vector_5'> +1.0097227e-05 </wgt>
</rwgt>
</event>
<event>
 7      1 +1.0088000e-05 8.51762800e+01 7.81860800e-03 1.43809500e-01
        2 -1    0    0  502    0 +0.0000000000e+00 +0.0000000000e+00 +1.8559622971e+02 1.8559622971e+02 0.0000000000e+00 0.0000e+00 -1.0000e+00
        1 -1    0    0  501    0 -0.0000000000e+00 -0.0000000000e+00 -4.5641767709e+02 4.5641767709e+02 0.0000000000e+00 0.0000e+00 -1.0000e+00
       25  2    1    2    0    0 +6.1049585959e+01 -1.7918022713e+01 +2.6754471090e+01 1.4279244420e+02 1.2500309161e+02 0.0000e+00 0.0000e+00
        2  1    1    2  501    0 +2.5046184422e+01 -1.8233286923e+01 -3.7600354606e+02 3.7727765737e+02 0.0000000000e+00 0.0000e+00 -1.0000e+00
        1  1    1    2  502    0 -8.6095770381e+01 +3.6151309636e+01 +7.8427627582e+01 1.2194380523e+02 0.0000000000e+00 0.0000e+00 -1.0000e+00
       22  1    3    3    0    0 +4.2644304509e+01 +3.5211382690e+01 +5.6602363778e+01 7.9134099876e+01 0.0000000000e+00 0.0000e+00 1.0000e+00
       22  1    3    3    0    0 +1.8405281450e+01 -5.3129405403e+01 -2.9847892687e+01 6.3658344320e+01 0.0000000000e+00 0.0000e+00 1.0000e+00
<rwgt>
<wgt id='SM'> +1.0202426e-05 </wgt>
<wgt id='morphing_basis_vector_1'> +1.0057662e-05 </wgt>
<wgt id='morphing_basis_vector_2'> +1.0276632e-05 </wgt>
<wgt id='morphing_basis_vector_3'> +1.0364449e-05 </wgt>
<wgt id='morphing_basis_vector_5'> +1.0194301e-05 </wgt>
</rwgt>
</event>
<event>
 7      1 +1.0088000e-05 8.10527200e+01 7.81860800e-03 1.36479300e-01
        2 -1    0    0  502    0 +0.0000000000e+00 +0.0000000000e+00 +1.8222542843e+02 1.8222542843e+02 0.0000000000e+00 0.0000e+00 -1.0000e+00
        1 -1    0    0  501    0 -0.0000000000e+00 -0.0000000000e+00 -1.4940430161e+03 1.4940430161e+03 0.0000000000e+00 0.0000e+00 -1.0000e+00
       25  2    1    2    0    0 -8.6489551330e+01 +1.7722401093e+01 -4.5243549571e+02 4.7761653039e+02 1.2500058532e+02 0.0000e+00 0.0000e+00
        2  1    1    2  501    0 +7.2794586019e+01 +3.8762822027e+01 -1.0223286861e+03 1.0256498187e+03 0.0000000000e+00 0.0000e+00 -1.0000e+00
        1  1    1    2  502    0 +1.3694965312e+01 -5.6485223120e+01 +1.6294659413e+02 1.7300209549e+02 0.0000000000e+00 0.0000e+00 -1.0000e+00
       22  1    3    3    0    0 -2.2233734501e+01 +3.8195619738e+01 -3.6260785096e+02 3.6529125078e+02 0.0000000000e+00 0.0000e+00 -1.0000e+00
       22  1    3    3    0    0 -6.4255816830e+01 -2.0473218645e+01 -8.9827644751e+01 1.1232527961e+02 0.0000000000e+00 0.0000e+00 -1.0000e+00
<rwgt>
<wgt id='SM'> +1.0542639e-05 </wgt>
<wgt id='morphing_basis_vector_1'> +1.0310600e-05 </wgt>
<wgt id='morphing_basis_vector_2'> +1.0435424e-05 </wgt>
<wgt id='morphing_basis_vector_3'> +1.0993255e-05 </wgt>
<wgt id='morphing_basis_vector_5'> +1.0826741e-05 </wgt>
</rwgt>
</event>
<event>
 7      1 +1.0088000e-05 7.57153800e+01 7.81860800e-03 1.50890100e-01
        2 -1    0    0  502    0 +0.0000000000e+00 +0.0000000000e+00 +9.8966181849e+02 9.8966181849e+02 0.0000000000e+00 0.0000e+00 -1.0000e+00
        1 -1    0    0  501    0 -0.0000000000e+00 -0.0000000000e+00 -7.6621365911e+02 7.6621365911e+02 0.0000000000e+00 0.0000e+00 -1.0000e+00
       25  2    1    2    0    0 -4.8721148041e+01 +4.2944910332e+01 +1.7315904531e+02 2.2321924249e+02 1.2499903862e+02 0.0000e+00 0.0000e+00
        2  1    1    2  501    0 -1.9474844849e+01 -7.9447665887e+00 -7.3917767786e+02 7.3947686127e+02 0.0000000000e+00 0.0000e+00 -1.0000e+00
        1  1    1    2  502    0 +6.8195992890e+01 -3.5000143744e+01 +7.8946679193e+02 7.9317937383e+02 0.0000000000e+00 0.0000e+00 -1.0000e+00
       22  1    3    3    0    0 -1.7978870651e+01 +3.5955909150e+01 -6.5808027761e+00 4.0735416506e+01 0.0000000000e+00 0.0000e+00 -1.0000e+00
       22  1    3    3    0    0 -3.0742277390e+01 +6.9890011820e+00 +1.7973984809e+02 1.8248382599e+02 0.0000000000e+00 0.0000e+00 -1.0000e+00
<rwgt>
<wgt id='SM'> +1.0029756e-05 </wgt>
<wgt id='morphing_basis_vector_1'> +9.9548052e-06 </wgt>
<wgt id='morphing_basis_vector_2'> +1.0165299e-05 </wgt>
<wgt id='morphing_basis_vector_3'> +1.0033062e-05 </wgt>
<wgt id='morphing_basis_vector_5'> +9.8993739e-06 </wgt>
</rwgt>
</event>
<event>
 7      1 +1.0088000e-05 1.23533400e+02 7.81860800e-03 1.25737000e-01
        2 -1    0    0  502    0 +0.0000000000e+00 +0.0000000000e+00 +1.9945187770e+03 1.9945187770e+03 0.0000000000e+00 0.0000e+00 -1.0000e+00
        1 -1    0    0  501    0 -0.0000000000e+00 -0.0000000000e+00 -3.6775658312e+02 3.6775658312e+02 0.0000000000e+00 0.0000e+00 -1.0000e+00
       25  2    1    2    0    0 +1.9482275426e+01 +1.3319214920e+01 +9.8530622409e+02 9.9348395180e+02 1.2500018684e+02 0.0000e+00 0.0000e+00
        2  1    1    2  501    0 -9.7996892458e+01 -7.6985415969e+01 -3.5034677168e+02 3.7185078409e+02 0.0000000000e+00 0.0000e+00 -1.0000e+00
        1  1    1    2  502    0 +7.8514617032e+01 +6.3666201049e+01 +9.9180274148e+02 9.9694062423e+02 0.0000000000e+00 0.0000e+00 -1.0000e+00
       22  1    3    3    0    0 +2.6634576024e+00 +6.5005175702e+01 +7.0218375166e+02 7.0519131302e+02 0.0000000000e+00 0.0000e+00 1.0000e+00
       22  1    3    3    0    0 +1.6818817824e+01 -5.1685960782e+01 +2.8312247244e+02 2.8829263878e+02 0.0000000000e+00 0.0000e+00 1.0000e+00
<rwgt>
<wgt id='SM'> +1.0091640e-05 </wgt>
<wgt id='morphing_basis_vector_1'> +1.0120169e-05 </wgt>
<wgt id='morphing_basis_vector_2'> +1.0054038e-05 </wgt>
<wgt id='morphing_basis_vector_3'> +1.0083117e-05 </wgt>
<wgt id='morphing_basis_vector_5'> +1.0129520e-05 </wgt>
</rwgt>
</event>
<event>
 7      1 +1.0088000e-05 7.04001200e+01 7.81860800e-03 1.41415300e-01
        2 -1    0    0  502    0 +0.0000000000e+00 +0.0000000000e+00 +9.0374748246e+02 9.0374748246e+02 0.0000000000e+00 0.0000e+00 -1.0000e+00
        1 -1    0    0  501    0 -0.0000000000e+00 -0.0000000000e+00 -1.7846497404e+03 1.7846497404e+03 0.0000000000e+00 0.0000e+00 -1.0000e+00
       25  2    1    2    0    0 +4.3267785973e+01 +9.5006931025e+01 -5.3867991709e+02 5.6276082520e+02 1.2500110026e+02 0.0000e+00 0.0000e+00
        2  1    1    2  501    0 -3.7456629172e+01 -2.4917533425e+01 -1.2321314723e+03 1.2329524920e+03 0.0000000000e+00 0.0000e+00 -1.0000e+00
        1  1    1    2  502    0 -5.8111568014e+00 -7.0089397600e+01 +8.8990913143e+02 8.9268390565e+02 0.0000000000e+00 0.0000e+00 -1.0000e+00
       22  1    3    3    0    0 -2.6495387549e+01 +5.2098085394e+00 -2.6535632343e+02 2.6672668792e+02 0.0000000000e+00 0.0000e+00 1.0000e+00
       22  1    3    3    0    0 +6.9763173522e+01 +8.9797122485e+01 -2.7332359366e+02 2.9603413728e+02 0.0000000000e+00 0.0000e+00 1.0000e+00
<rwgt>
<wgt id='SM'> +9.9672655e-06 </wgt>
<wgt id='morphing_basis_vector_1'> +9.7888156e-06 </wgt>
<wgt id='morphing_basis_vector_2'> +1.0276891e-05 </wgt>
<wgt id='morphing_basis_vector_3'> +9.9877886e-06 </wgt>
<wgt id='morphing_basis_vector_5'> +9.6770257e-06 </wgt>
</rwgt>
</event>
<event>
 7      1 +1.0088000e-05 9.44654800e+01 7.81860800e-03 1.37745300e-01
        2 -1    0    0  502    0 +0.0000000000e+00 +0.0000000000e+00 +3.1954306898e+03 3.1954306898e+03 0.0000000000e+00 0.0000e+00 -1.0000e+00
        1 -1    0    0  501    0 -0.0000000000e+00 -0.0000000000e+00 -1.6655189016e+02 1.6655189016e+02 0.0000000000e+00 0.0000e+00 -1.0000e+00
       25  2    1    2    0    0 -8.9883863365e+01 -7.3999118842e+01 +1.5024164512e+02 2.2749490827e+02 1.2500561139e+02 0.0000e+00 0.0000e+00
        2  1    1    2  501    0 +2.8972364706e-01 +4.4914747689e+01 -1.2322100701e+02 1.3115195412e+02 0.0000000000e+00 0.0000e+00 -1.0000e+00
        1  1    1    2  502    0 +8.9594139718e+01 +2.9084371153e+01 +3.0018581615e+03 3.0033357175e+03 0.0000000000e+00 0.0000e+00 -1.0000e+00
       22  1    3    3    0    0 -1.1938442670e+02 -6.9453603827e+01 +1.0590459371e+02 1.7404662419e+02 0.0000000000e+00 0.0000e+00 -1.0000e+00
       22  1    3    3    0    0 +2.9500563332e+01 -4.5455150155e+00 +4.4337051414e+01 5.3448284086e+01 0.0000000000e+00 0.0000e+00 -1.0000e+00
<rwgt>
<wgt id='SM'> +1.0492615e-05 </wgt>
<wgt id='morphing_basis_vector_1'> +1.0191589e-05 </wgt>
<wgt id='morphing_basis_vector_2'> +1.0508321e-05 </wgt>
<wgt id='morphing_basis_vector_3'> +1.0948412e-05 </wgt>
<wgt id='morphing_basis_vector_5'> +1.0657048e-05 </wgt>
</rwgt>
</event>
<event>
 7      1 +1.0088000e-05 2.83991100e+01 7.81860800e-03 1.62890700e-01
        2 -1    0    0  502    0 +0.0000000000e+00 +0.0000000000e+00 +2.4408354508e+03 2.4408354508e+03 0.0000000000e+00 0.0000e+00 -1.0000e+00
        1 -1    0    0  501    0 -0.0000000000e+00 -0.0000000000e+00 -3.6478801361e+01 3.6478801361e+01 0.0000000000e+00 0.0000e+00 -1.0000e+00
       25  2    1    2    0    0 +3.8245170195e+01 -1.8365238555e+01 +1.0043900539e+03 1.0130272452e+03 1.2499937637e+02 0.0000e+00 0.0000e+00
        2  1    1    2  501    0 -2.5515965870e+01 -6.8183093068e+00 -2.6574558178e+01 3.7466798615e+01 0.0000000000e+00 0.0000e+00 -1.0000e+00
        1  1    1    2  502    0 -1.2729204325e+01 +2.5183547862e+01 +1.4265411537e+03 1.4268202083e+03 0.0000000000e+00 0.0000e+00 -1.0000e+00
       22  1    3    3    0    0 +6.1942072435e+01 +2.4160744416e+01 +3.1604688446e+02 3.2296469635e+02 0.0000000000e+00 0.0000e+00 1.0000e+00
       22  1    3    3    0    0 -2.3696902240e+01 -4.2525982970e+01 +6.8834316942e+02 6.9006254882e+02 0.0000000000e+00 0.0000e+00 1.0000e+00
<rwgt>
<wgt id='SM'> +1.0171800e-05 </wgt>
<wgt id='morphing_basis_vector_1'> +1.0119452e-05 </wgt>
<wgt id='morphing_basis_vector_2'> +1.0163530e-05 </wgt>
<wgt id='morphing_basis_vector_3'> +1.0259015e-05 </wgt>
<wgt id='morphing_basis_vector_5'> +1.0214507e-05 </wgt>
</rwgt>
</event>
<event>
 7      1 +1.0088000e-05 6.80668300e+01 7.81860800e-03 1.39430300e-01
        2 -1    0    0  502    0 +0.0000000000e+00 +0.0000000000e+00 +1.2486030543e+03 1.2486030543e+03 0.0000000000e+00 0.0000e+00 -1.0000e+00
        1 -1    0    0  501    0 -0.0000000000e+00 -0.0000000000e+00 -7.4651465689e+01 7.4651465689e+01 0.0000000000e+00 0.0000e+00 -1.0000e+00
       25  2    1    2    0    0 -2.1031849230e+01 +3.6145768576e+01 +2.5678650167e+02 2.8864081077e+02 1.2500141973e+02 0.0000e+00 0.0000e+00
        2  1    1    2  501    0 +7.0156864614e+01 -1.2785181027e+01 -3.6009481102e+01 7.9888229644e+01 0.0000000000e+00 0.0000e+00 -1.0000e+00
        1  1    1    2  502    0 -4.9125015384e+01 -2.3360587548e+01 +9.5317456802e+02 9.5472547955e+02 0.0000000000e+00 0.0000e+00 -1.0000e+00
       22  1    3    3    0    0 -2.7492924604e+01 -3.3288609458e+01 +1.7917314234e+02 1.8430140357e+02 0.0000000000e+00 0.0000e+00 -1.0000e+00
       22  1    3    3    0    0 +6.4610753747e+00 +6.9434378034e+01 +7.7613359337e+01 1.0433940720e+02 0.0000000000e+00 0.0000e+00 -1.0000e+00
<rwgt>
<wgt id='SM'> +1.0292149e-05 </wgt>
<wgt id='morphing_basis_vector_1'> +1.0232881e-05 </wgt>
<wgt id='morphing_basis_vector_2'> +1.0192303e-05 </wgt>
<wgt id='morphing_basis_vector_3'> +1.0466519e-05 </wgt>
<wgt id='morphing_basis_vector_5'> +1.0459710e-05 </wgt>
</rwgt>
</event>
<event>
 7      1 +1.0088000e-05 1.01233200e+02 7.81860800e-03 1.45454100e-01
        2 -1    0    0  502    0 +0.0000000000e+00 +0.0000000000e+00 +1.1982523546e+03 1.1982523546e+03 0.0000000000e+00 0.0000e+00 -1.0000e+00
        1 -1    0    0  501    0 -0.0000000000e+00 -0.0000000000e+00 -4.1191938527e+01 4.1191938527e+01 0.0000000000e+00 0.0000e+00 -1.0000e+00
       25  2    1    2    0    0 +8.5150311364e+01 +3.1412392651e+01 +1.9942625415e+02 2.5225089088e+02 1.2498946823e+02 0.0000e+00 0.0000e+00
        2  1    1    2  501    0 -9.9888480292e+01 -4.9170134472e+01 +1.9758041212e+02 2.2678939542e+02 0.0000000000e+00 0.0000e+00 -1.0000e+00
        1  1    1    2  502    0 +1.4738168928e+01 +1.7757741821e+01 +7.6005374982e+02 7.6040400685e+02 0.0000000000e+00 0.0000e+00 -1.0000e+00
       22  1    3    3    0    0 +3.0820367953e+01 -4.4522386735e+01 +1.1170794003e+02 1.2414025079e+02 0.0000000000e+00 0.0000e+00 1.0000e+00
       22  1    3    3    0    0 +5.4329943411e+01 +7.5934779387e+01 +8.7718314125e+01 1.2811064009e+02 0.0000000000e+00 0.0000e+00 1.0000e+00
<rwgt>
<wgt id='SM'> +1.0393069e-05 </wgt>
<wgt id='morphing_basis_vector_1'> +9.9815832e-06 </wgt>
<wgt id='morphing_basis_vector_2'> +1.0623036e-05 </wgt>
<wgt id='morphing_basis_vector_3'> +1.0846669e-05 </wgt>
<wgt id='morphing_basis_vector_5'> +1.0348478e-05 </wgt>
</rwgt>
</event>
<event>
 7      1 +1.0088000e-05 6.47504800e+01 7.81860800e-03 1.46222500e-01
        2 -1    0    0  502    0 +0.0000000000e+00 +0.0000000000e+00 +4.2884157845e+02 4.2884157845e+02 0.0000000000e+00 0.0000e+00 -1.0000e+00
        1 -1    0    0  501    0 -0.0000000000e+00 -0.0000000000e+00 -1.6806450932e+02 1.6806450932e+02 0.0000000000e+00 0.0000e+00 -1.0000e+00
       25  2    1    2    0    0 -7.4235420634e+01 +3.9056384468e+01 +1.8321344566e+02 2.3712292530e+02 1.2499526465e+02 0.0000e+00 0.0000e+00
        2  1    1    2  501    0 +6.3949515515e+01 -6.5273074862e+00 -1.3233956609e+02 1.4712548056e+02 0.0000000000e+00 0.0000e+00 -1.0000e+00
        1  1    1    2  502    0 +1.0285905119e+01 -3.2529076982e+01 +2.0990318956e+02 2.1265768192e+02 0.0000000000e+00 0.0000e+00 -1.0000e+00
       22  1    3    3    0    0 -7.2481652341e+01 +6.4987659704e+01 +6.7341139184e+01 1.1837151206e+02 0.0000000000e+00 0.0000e+00 -1.0000e+00
       22  1    3    3    0    0 -1.7537682928e+00 -2.5931275236e+01 +1.1587230647e+02 1.1875141324e+02 0.0000000000e+00 0.0000e+00 -1.0000e+00
<rwgt>
<wgt id='SM'> +1.0374731e-05 </wgt>
<wgt id='morphing_basis_vector_1'> +1.0172375e-05 </wgt>
<wgt id='morphing_basis_vector_2'> +1.0373275e-05 </wgt>
<wgt id='morphing_basis_vector_3'> +1.0689553e-05 </wgt>
<wgt id='morphing_basis_vector_5'> +1.0500850e-05 </wgt>
</rwgt>
</event>
<event>
 7      1 +1.0088000e-05 5.70447800e+01 7.81860800e-03 1.50683400e-01
        2 -1    0    0  502    0 +0.0000000000e+00 +0.0000000000e+00 +1.0381898501e+03 1.0381898501e+03 0.0000000000e+00 0.0000e+00 -1.0000e+00
        1 -1    0    0  501    0 -0.0000000000e+00 -0.0000000000e+00 -5.8964240131e+02 5.8964240131e+02 0.0000000000e+00 0.0000e+00 -1.0000e+00
       25  2    1    2    0    0 +5.2938928612e+01 -6.6743871365e+01 +3.1659787000e+02 3.5087949534e+02 1.2499973773e+02 0.0000e+00 0.0000e+00
        2  1    1    2  501    0 -3.6420461028e+01 +4.3749977577e+01 -5.7080077541e+02 5.7363231754e+02 0.0000000000e+00 0.0000e+00 -1.0000e+00
        1  1    1    2  502    0 -1.6518467584e+01 +2.2993893788e+01 +7.0275035418e+02 7.0332043850e+02 0.0000000000e+00 0.0000e+00 -1.0000e+00
       22  1    3    3    0    0 +5.1390382837e+00 +3.2041526584e+01 +1.3371804690e+02 1.3759936485e+02 0.0000000000e+00 0.0000e+00 1.0000e+00
       22  1    3    3    0    0 +4.7799890328e+01 -9.8785397949e+01 +1.8287982310e+02 2.1328013049e+02 0.0000000000e+00 0.0000e+00 1.0000e+00
<rwgt>
<wgt id='SM'> +1.0146361e-05 </wgt>
<wgt id='morphing_basis_vector_1'> +1.0004817e-05 </wgt>
<wgt id='morphing_basis_vector_2'> +1.0263505e-05 </wgt>
<wgt id='morphing_basis_vector_3'> +1.0267560e-05 </wgt>
<wgt id='morphing_basis_vector_5'> +1.0080234e-05 </wgt>
</rwgt>
</event>
<event>
 7      1 +1.0088000e-05 4.71094100e+01 7.81860800e-03 1.54944500e-01
        2 -1    0    0  502    0 +0.0000000000e+00 +0.0000000000e+00 +3.9636009919e+02 3.9636009919e+02 0.0000000000e+00 0.0000e+00 -1.0000e+00
        1 -1    0    0  501    0 -0.0000000000e+00 -0.0000000000e+00 -2.4805104059e+02 2.4805104059e+02 0.0000000000e+00 0.0000e+00 -1.0000e+00
       25  2    1    2    0    0 +5.5652326330e+01 -2.2734406907e+01 +9.0192696744e+01 1.6544996571e+02 1.2499973569e+02 0.0000e+00 0.0000e+00
        2  1    1    2  501    0 -2.3404562438e+01 -1.1004134538e+01 -2.0758607026e+02 2.0919092018e+02 0.0000000000e+00 0.0000e+00 -1.0000e+00
        1  1    1    2  502    0 -3.2247763892e+01 +3.3738541445e+01 +2.6570243211e+02 2.6977025389e+02 0.0000000000e+00 0.0000e+00 -1.0000e+00
       22  1    3    3    0    0 +9.2014818991e+01 -3.4273690620e+01 +5.0574029346e+01 1.1044974073e+02 0.0000000000e+00 0.0000e+00 -1.0000e+00
       22  1    3    3    0    0 -3.6362492660e+01 +1.1539283714e+01 +3.9618667398e+01 5.5000224977e+01 0.0000000000e+00 0.0000e+00 -1.0000e+00
<rwgt>
<wgt id='SM'> +1.0218858e-05 </wgt>
<wgt id='morphing_basis_vector_1'> +1.0121141e-05 </wgt>
<wgt id='morphing_basis_vector_2'> +1.0224517e-05 </wgt>
<wgt id='morphing_basis_vector_3'> +1.0364565e-05 </wgt>
<wgt id='morphing_basis_vector_5'> +1.0271069e-05 </wgt>
</rwgt>
</event>
<event>
 7      1 +1.0088000e-05 2.04915200e+02 7.81860800e-03 1.27205100e-01
        2 -1    0    0  502    0 +0.0000000000e+00 +0.0000000000e+00 +8.0966421437e+02 8.0966421437e+02 0.0000000000e+00 0.0000e+00 -1.0000e+00
        1 -1    0    0  501    0 -0.0000000000e+00 -0.0000000000e+00 -2.9952725019e+03 2.9952725019e+03 0.0000000000e+00 0.0000e+00 -1.0000e+00
       25  2    1    2    0    0 -1.4288770260e+02 -5.8552313284e+01 +8.1886669547e+01 2.1488246546e+02 1.2499511338e+02 0.0000e+00 0.0000e+00
        2  1    1    2  501    0 +1.9506118042e+02 +6.6721277164e+01 -2.9240853035e+03 2.9313436263e+03 0.0000000000e+00 0.0000e+00 -1.0000e+00
        1  1    1    2  502    0 -5.2173477814e+01 -8.1689638800e+00 +6.5659034648e+02 6.5871062451e+02 0.0000000000e+00 0.0000e+00 -1.0000e+00
       22  1    3    3    0    0 -8.6650462713e+01 -6.4878902589e+01 -8.1319497566e+00 1.0855276734e+02 0.0000000000e+00 0.0000e+00 -1.0000e+00
       22  1    3    3    0    0 -5.6237239889e+01 +6.3265893048e+00 +9.0018619304e+01 1.0632969813e+02 0.0000000000e+00 0.0000e+00 -1.0000e+00
<rwgt>
<wgt id='SM'> +1.0081835e-05 </wgt>
<wgt id='morphing_basis_vector_1'> +9.7338592e-06 </wgt>
<wgt id='morphing_basis_vector_2'> +1.0498708e-05 </wgt>
<wgt id='morphing_basis_vector_3'> +1.0279163e-05 </wgt>
<wgt id='morphing_basis_vector_5'> +9.7590974e-06 </wgt>
</rwgt>
</event>
<event>
 7      1 +1.0088000e-05 1.10786200e+02 7.81860800e-03 1.37089100e-01
        2 -1    0    0  502    0 +0.0000000000e+00 +0.0000000000e+00 +2.1350453540e+03 2.1350453540e+03 0.0000000000e+00 0.0000e+00 -1.0000e+00
        1 -1    0    0  501    0 -0.0000000000e+00 -0.0000000000e+00 -4.9582382834e+01 4.9582382834e+01 0.0000000000e+00 0.0000e+00 -1.0000e+00
       25  2    1    2    0    0 +1.2519916793e+01 -9.6615559596e+01 +1.7761609344e+03 1.7832174098e+03 1.2500140442e+02 0.0000e+00 0.0000e+00
        2  1    1    2  501    0 +2.6131858308e+01 +1.0844947179e+02 +2.5092705238e+01 1.1434074430e+02 0.0000000000e+00 0.0000e+00 -1.0000e+00
        1  1    1    2  502    0 -3.8651775102e+01 -1.1833912194e+01 +2.8420933155e+02 2.8706958274e+02 0.0000000000e+00 0.0000e+00 -1.0000e+00
       22  1    3    3    0    0 -3.4263434402e+00 +2.8608721871e+01 +2.0839063111e+02 2.1037313025e+02 0.0000000000e+00 0.0000e+00 -1.0000e+00
       22  1    3    3    0    0 +1.5946260234e+01 -1.2522428147e+02 +1.5677703033e+03 1.5728442795e+03 0.0000000000e+00 0.0000e+00 -1.0000e+00
<rwgt>
<wgt id='SM'> +9.1195225e-06 </wgt>
<wgt id='morphing_basis_vector_1'> +9.2119608e-06 </wgt>
<wgt id='morphing_basis_vector_2'> +9.8140992e-06 </wgt>
<wgt id='morphing_basis_vector_3'> +8.4420900e-06 </wgt>
<wgt id='morphing_basis_vector_5'> +8.2261757e-06 </wgt>
</rwgt>
</event>
<event>
 7      1 +1.0088000e-05 4.75933600e+01 7.81860800e-03 1.58685200e-01
        2 -1    0    0  502    0 +0.0000000000e+00 +0.0000000000e+00 +4.1582581815e+02 4.1582581815e+02 0.0000000000e+00 0.0000e+00 -1.0000e+00
        1 -1    0    0  501    0 -0.0000000000e+00 -0.0000000000e+00 -6.9512346939e+01 6.9512346939e+01 0.0000000000e+00 0.0000e+00 -1.0000e+00
       25  2    1    2    0    0 -3.4534788300e+01 +3.9518641755e+01 +2.6549581778e+02 2.9810328410e+02 1.2499265612e+02 0.0000e+00 0.0000e+00
        2  1    1    2  501    0 +1.5074050992e+01 -4.5103017755e+01 -4.1582667242e+01 6.3171413146e+01 0.0000000000e+00 0.0000e+00 -1.0000e+00
        1  1    1    2  502    0 +1.9460737308e+01 +5.5843759993e+00 +1.2240032067e+02 1.2406346784e+02 0.0000000000e+00 0.0000e+00 -1.0000e+00
       22  1    3    3    0    0 +1.8773710638e+01 +4.2742443908e+01 +2.7483753417e+01 5.4173106098e+01 0.0000000000e+00 0.0000e+00 1.0000e+00
       22  1    3    3    0    0 -5.3308498939e+01 -3.2238021532e+00 +2.3801206436e+02 2.4393017800e+02 0.0000000000e+00 0.0000e+00 1.0000e+00
<rwgt>
<wgt id='SM'> +9.9468902e-06 </wgt>
<wgt id='morphing_basis_vector_1'> +9.8991295e-06 </wgt>
<wgt id='morphing_basis_vector_2'> +1.0119070e-05 </wgt>
<wgt id='morphing_basis_vector_3'> +9.8787687e-06 </wgt>
<wgt id='morphing_basis_vector_5'> +9.7531109e-06 </wgt>
</rwgt>
</event>
<event>
 7      1 +1.0088000e-05 5.42046400e+01 7.81860800e-03 1.42716700e-01
        2 -1    0    0  502    0 +0.0000000000e+00 +0.0000000000e+00 +2.6744808019e+02 2.6744808019e+02 0.0000000000e+00 0.0000e+00 -1.0000e+00
        1 -1    0    0  501    0 -0.0000000000e+00 -0.0000000000e+00 -9.1663502886e+02 9.1663502886e+02 0.0000000000e+00 0.0000e+00 -1.0000e+00
       25  2    1    2    0    0 -9.9545168924e+01 -5.1617480513e+00 +6.0377135122e+01 1.7089877922e+02 1.2500043997e+02 0.0000e+00 0.0000e+00
        2  1    1    2  501    0 +5.1325445531e+01 -1.6518548922e+01 -8.5589694321e+02 8.5759357578e+02 0.0000000000e+00 0.0000e+00 -1.0000e+00
        1  1    1    2  502    0 +4.8219723393e+01 +2.1680296973e+01 +1.4633285942e+02 1.5559075405e+02 0.0000000000e+00 0.0000e+00 -1.0000e+00
       22  1    3    3    0    0 -6.4146368268e+01 -6.9167363476e+00 +9.9197296572e+01 1.1833301082e+02 0.0000000000e+00 0.0000e+00 1.0000e+00
       22  1    3    3    0    0 -3.5398800656e+01 +1.7549882963e+00 -3.8820161450e+01 5.2565768393e+01 0.0000000000e+00 0.0000e+00 1.0000e+00
<rwgt>
<wgt id='SM'> +9.9927196e-06 </wgt>
<wgt id='morphing_basis_vector_1'> +9.7891429e-06 </wgt>
<wgt id='morphing_basis_vector_2'> +1.0311039e-05 </wgt>
<wgt id='morphing_basis_vector_3'> +1.0045154e-05 </wgt>
<wgt id='morphing_basis_vector_5'> +9.7066943e-06 </wgt>
</rwgt>
</event>
<event>
 7      1 +1.0088000e-05 2.49138500e+02 7.81860800e-03 1.34111100e-01
        2 -1    0    0  502    0 +0.0000000000e+00 +0.0000000000e+00 +8.3762381884e+02 8.3762381884e+02 0.0000000000e+00 0.0000e+00 -1.0000e+00
        1 -1    0    0  501    0 -0.0000000000e+00 -0.0000000000e+00 -5.4510957574e+02 5.4510957574e+02 0.0000000000e+00 0.0000e+00 -1.0000e+00
       25  2    1    2    0    0 +6.4467451959e+01 -2.3982240455e+02 +2.2085000182e+02 3.5506455178e+02 1.2500109816e+02 0.0000e+00 0.0000e+00
        2  1    1    2  501    0 -8.6777751060e+01 +2.3374985274e+02 -4.4521104896e+02 5.1027664050e+02 0.0000000000e+00 0.0000e+00 -1.0000e+00
        1  1    1    2  502    0 +2.2310299101e+01 +6.0725518123e+00 +5.1687529024e+02 5.1739220229e+02 0.0000000000e+00 0.0000e+00 -1.0000e+00
       22  1    3    3    0    0 -3.3838374102e+01 -3.0751894308e+01 +2.4534243102e+01 5.1890689434e+01 0.0000000000e+00 0.0000e+00 -1.0000e+00
       22  1    3    3    0    0 +9.8305826060e+01 -2.0907051024e+02 +1.9631575872e+02 3.0317386235e+02 0.0000000000e+00 0.0000e+00 -1.0000e+00
<rwgt>
<wgt id='SM'> +1.1075007e-05 </wgt>
<wgt id='morphing_basis_vector_1'> +9.7778865e-06 </wgt>
<wgt id='morphing_basis_vector_2'> +1.1808472e-05 </wgt>
<wgt id='morphing_basis_vector_3'> +1.2573091e-05 </wgt>
<wgt id='morphing_basis_vector_5'> +1.0945662e-05 </wgt>
</rwgt>
</event>
<event>
 7      1 +1.0088000e-05 8.65640300e+01 7.81860800e-03 1.46171300e-01
        2 -1    0    0  502    0 +0.0000000000e+00 +0.0000000000e+00 +1.1940544878e+02 1.1940544878e+02 0.0000000000e+00 0.0000e+00 -1.0000e+00
        1 -1    0    0  501    0 -0.0000000000e+00 -0.0000000000e+00 -3.3752135221e+02 3.3752135221e+02 0.0000000000e+00 0.0000e+00 -1.0000e+00
       25  2    1    2    0    0 -2.0694175637e+01 +8.1550240436e+01 -3.3823091447e+01 1.5442782734e+02 1.2500104688e+02 0.0000e+00 0.0000e+00
        2  1    1    2  501    0 -2.4937542780e+01 -5.8482393367e+00 -2.0912330794e+02 2.1068611930e+02 0.0000000000e+00 0.0000e+00 -1.0000e+00
        1  1    1    2  502    0 +4.5631718417e+01 -7.5702001100e+01 +2.4830495950e+01 9.1812854358e+01 0.0000000000e+00 0.0000e+00 -1.0000e+00
       22  1    3    3    0    0 -7.0372391560e+01 +4.1614690569e+01 +1.0681130908e+00 8.1763052968e+01 0.0000000000e+00 0.0000e+00 -1.0000e+00
       22  1    3    3    0    0 +4.9678215923e+01 +3.9935549867e+01 -3.4891204537e+01 7.2664774373e+01 0.0000000000e+00 0.0000e+00 -1.0000e+00
<rwgt>
<wgt id='SM'> +9.8819681e-06 </wgt>
<wgt id='morphing_basis_vector_1'> +9.7033791e-06 </wgt>
<wgt id='morphing_basis_vector_2'> +1.0263050e-05 </wgt>
<wgt id='morphing_basis_vector_3'> +9.8450927e-06 </wgt>
<wgt id='morphing_basis_vector_5'> +9.5022899e-06 </wgt>
</rwgt>
</event>
<event>
 7      1 +1.0088000e-05 1.07899500e+02 7.81860800e-03 1.33872500e-01
        2 -1    0    0  502    0 +0.0000000000e+00 +0.0000000000e+00 +9.9633506601e+02 9.9633506601e+02 0.0000000000e+00 0.0000e+00 -1.0000e+00
        1 -1    0    0  501    0 -0.0000000000e+00 -0.0000000000e+00 -2.2383898428e+03 2.2383898428e+03 0.0000000000e+00 0.0000e+00 -1.0000e+00
       25  2    1    2    0    0 -7.8643292172e+01 +4.9938514328e+00 +1.3846860551e+02 2.0250535250e+02 1.2500062849e+02 0.0000e+00 0.0000e+00
        2  1    1    2  501    0 +9.7947429084e+01 +4.5976472693e+01 -2.2041436558e+03 2.2067978589e+03 0.0000000000e+00 0.0000e+00 -1.0000e+00
        1  1    1    2  502    0 -1.9304136912e+01 -5.0970324126e+01 +8.2362027347e+02 8.2542169738e+02 0.0000000000e+00 0.0000e+00 -1.0000e+00
       22  1    3    3    0    0 -8.4084018692e+01 -4.3138593121e+01 +1.1449239350e+02 1.4845729549e+02 0.0000000000e+00 0.0000e+00 -1.0000e+00
       22  1    3    3    0    0 +5.4407265195e+00 +4.8132444554e+01 +2.3976212014e+01 5.4048057008e+01 0.0000000000e+00 0.0000e+00 -1.0000e+00
<rwgt>
<wgt id='SM'> +1.0420781e-05 </wgt>
<wgt id='morphing_basis_vector_1'> +1.0277559e-05 </wgt>
<wgt id='morphing_basis_vector_2'> +1.0311698e-05 </wgt>
<wgt id='morphing_basis_vector_3'> +1.0733331e-05 </wgt>
<wgt id='morphing_basis_vector_5'> +1.0652240e-05 </wgt>
</rwgt>
</event>
<event>
 7      1 +1.0088000e-05 1.10682100e+02 7.81860800e-03 1.28455700e-01
        2 -1    0    0  502    0 +0.0000000000e+00 +0.0000000000e+00 +6.8013195211e+02 6.8013195211e+02 0.0000000000e+00 0.0000e+00 -1.0000e+00
        1 -1    0    0  501    0 -0.0000000000e+00 -0.0000000000e+00 -1.8891224959e+03 1.8891224959e+03 0.0000000000e+00 0.0000e+00 -1.0000e+00
       25  2    1    2    0    0 +3.9911579662e+01 -7.2639778983e+01 +1.2900500265e+01 1.5053162913e+02 1.2499550703e+02 0.0000e+00 0.0000e+00
        2  1    1    2  501    0 -7.9156138451e+01 -3.5550397788e+01 -1.8137266003e+03 1.8158011196e+03 0.0000000000e+00 0.0000e+00 -1.0000e+00
        1  1    1    2  502    0 +3.9244558789e+01 +1.0819017677e+02 +5.9183555632e+02 6.0292169929e+02 0.0000000000e+00 0.0000e+00 -1.0000e+00
       22  1    3    3    0    0 +3.5029639551e+01 -4.9169244801e+00 +5.8767899662e+01 6.8592403545e+01 0.0000000000e+00 0.0000e+00 1.0000e+00
       22  1    3    3    0    0 +4.8819401114e+00 -6.7722854503e+01 -4.5867399397e+01 8.1939225581e+01 0.0000000000e+00 0.0000e+00 1.0000e+00
<rwgt>
<wgt id='SM'> +1.0651563e-05 </wgt>
<wgt id='morphing_basis_vector_1'> +1.0446524e-05 </wgt>
<wgt id='morphing_basis_vector_2'> +1.0421688e-05 </wgt>
<wgt id='morphing_basis_vector_3'> +1.1163762e-05 </wgt>
<wgt id='morphing_basis_vector_5'> +1.1082942e-05 </wgt>
</rwgt>
</event>
<event>
 7      1 +1.0088000e-05 5.60585700e+01 7.81860800e-03 1.54109200e-01
        2 -1    0    0  502    0 +0.0000000000e+00 +0.0000000000e+00 +2.0875900541e+03 2.0875900541e+03 0.0000000000e+00 0.0000e+00 -1.0000e+00
        1 -1    0    0  501    0 -0.0000000000e+00 -0.0000000000e+00 -1.3768149931e+01 1.3768149931e+01 0.0000000000e+00 0.0000e+00 -1.0000e+00
       25  2    1    2    0    0 +5.7632298371e+01 +4.8132013340e+01 +6.4677400168e+02 6.6300776343e+02 1.2499805035e+02 0.0000e+00 0.0000e+00
        2  1    1    2  501    0 -3.8131736759e+01 -3.6051299271e+01 +1.1847430873e+02 1.2957579772e+02 0.0000000000e+00 0.0000e+00 -1.0000e+00
        1  1    1    2  502    0 -1.9500561612e+01 -1.2080714069e+01 +1.3085735937e+03 1.3087746428e+03 0.0000000000e+00 0.0000e+00 -1.0000e+00
       22  1    3    3    0    0 -2.2347663715e+01 +5.5187010169e+01 +3.7231329290e+02 3.7704404548e+02 0.0000000000e+00 0.0000e+00 -1.0000e+00
       22  1    3    3    0    0 +7.9979962086e+01 -7.0549968290e+00 +2.7446070878e+02 2.8596371795e+02 0.0000000000e+00 0.0000e+00 -1.0000e+00
<rwgt>
<wgt id='SM'> +1.0207405e-05 </wgt>
<wgt id='morphing_basis_vector_1'> +9.9775684e-06 </wgt>
<wgt id='morphing_basis_vector_2'> +1.0377839e-05 </wgt>
<wgt id='morphing_basis_vector_3'> +1.0422275e-05 </wgt>
<wgt id='morphing_basis_vector_5'> +1.0126939e-05 </wgt>
</rwgt>
</event>
<event>
 7      1 +1.0088000e-05 5.87146600e+01 7.81860800e-03 1.41028800e-01
        2 -1    0    0  502    0 +0.0000000000e+00 +0.0000000000e+00 +2.3200869178e+03 2.3200869178e+03 0.0000000000e+00 0.0000e+00 -1.0000e+00
        1 -1    0    0  501    0 -0.0000000000e+00 -0.0000000000e+00 -2.6317686356e+01 2.6317686356e+01 0.0000000000e+00 0.0000e+00 -1.0000e+00
       25  2    1    2    0    0 +4.9438251956e+01 +8.3386970751e+01 +1.0824938144e+03 1.0939906335e+03 1.2500048154e+02 0.0000e+00 0.0000e+00
        2  1    1    2  501    0 -4.8128136153e+01 -2.7814527440e+01 +1.8854429780e+01 5.8697997825e+01 0.0000000000e+00 0.0000e+00 -1.0000e+00
        1  1    1    2  502    0 -1.3101158029e+00 -5.5572443311e+01 +1.1924209873e+03 1.1937159728e+03 0.0000000000e+00 0.0000e+00 -1.0000e+00
       22  1    3    3    0    0 +7.1863794013e+00 -1.0428486093e+01 +6.2254832894e+02 6.2267713884e+02 0.0000000000e+00 0.0000e+00 -1.0000e+00
       22  1    3    3    0    0 +4.2251872555e+01 +9.3815456844e+01 +4.5994548545e+02 4.7131349468e+02 0.0000000000e+00 0.0000e+00 -1.0000e+00
<rwgt>
<wgt id='SM'> +9.8735758e-06 </wgt>
<wgt id='morphing_basis_vector_1'> +9.6676080e-06 </wgt>
<wgt id='morphing_basis_vector_2'> +1.0293981e-05 </wgt>
<wgt id='morphing_basis_vector_3'> +9.8473378e-06 </wgt>
<wgt id='morphing_basis_vector_5'> +9.4605554e-06 </wgt>
</rwgt>
</event>
<event>
 7      1 +1.0088000e-05 5.86460600e+01 7.81860800e-03 1.53724000e-01
        2 -1    0    0  502    0 +0.0000000000e+00 +0.0000000000e+00 +1.2850215221e+03 1.2850215221e+03 0.0000000000e+00 0.0000e+00 -1.0000e+00
        1 -1    0    0  501    0 -0.0000000000e+00 -0.0000000000e+00 -1.2974653810e+02 1.2974653810e+02 0.0000000000e+00 0.0000e+00 -1.0000e+00
       25  2    1    2    0    0 -1.9541621394e+01 -4.0869304142e+01 +4.1355697675e+02 4.3440347578e+02 1.2499932703e+02 0.0000e+00 0.0000e+00
        2  1    1    2  501    0 +4.2022202190e+01 +4.1302066005e+01 -1.1189243086e+02 1.2645806505e+02 0.0000000000e+00 0.0000e+00 -1.0000e+00
        1  1    1    2  502    0 -2.2480580797e+01 -4.3276186302e-01 +8.5361043815e+02 8.5390651942e+02 0.0000000000e+00 0.0000e+00 -1.0000e+00
       22  1    3    3    0    0 -5.3727189278e+01 -3.0342365958e+01 +9.1467711771e+01 1.1033409417e+02 0.0000000000e+00 0.0000e+00 1.0000e+00
       22  1    3    3    0    0 +3.4185567884e+01 -1.0526938183e+01 +3.2208926498e+02 3.2406938161e+02 0.0000000000e+00 0.0000e+00 1.0000e+00
<rwgt>
<wgt id='SM'> +1.0023554e-05 </wgt>
<wgt id='morphing_basis_vector_1'> +1.0001775e-05 </wgt>
<wgt id='morphing_basis_vector_2'> +1.0101998e-05 </wgt>
<wgt id='morphing_basis_vector_3'> +9.9922640e-06 </wgt>
<wgt id='morphing_basis_vector_5'> +9.9347629e-06 </wgt>
</rwgt>
</event>
<event>
 7      1 +1.0088000e-05 3.71252700e+02 7.81860800e-03 1.26936100e-01
        2 -1    0    0  502    0 +0.0000000000e+00 +0.0000000000e+00 +4.1522197935e+02 4.1522197935e+02 0.0000000000e+00 0.0000e+00 -1.0000e+00
        1 -1    0    0  501    0 -0.0000000000e+00 -0.0000000000e+00 -1.2718083038e+03 1.2718083038e+03 0.0000000000e+00 0.0000e+00 -1.0000e+00
       25  2    1    2    0    0 -1.9519124877e+02 -3.1693589653e+02 -1.3757665463e+02 4.1605306502e+02 1.2499932364e+02 0.0000e+00 0.0000e+00
        2  1    1    2  501    0 -2.4231450193e+01 +1.7543408136e+01 -8.6980986026e+02 8.7032415074e+02 0.0000000000e+00 0.0000e+00 -1.0000e+00
        1  1    1    2  502    0 +2.1942269896e+02 +2.9939248839e+02 +1.5080019048e+02 4.0065306735e+02 0.0000000000e+00 0.0000e+00 -1.0000e+00
       22  1    3    3    0    0 -2.1267558235e+02 -2.8234616564e+02 -1.1820026750e+02 3.7272183169e+02 0.0000000000e+00 0.0000e+00 1.0000e+00
       22  1    3    3    0    0 +1.7484333585e+01 -3.4589730891e+01 -1.9376387130e+01 4.3331233334e+01 0.0000000000e+00 0.0000e+00 1.0000e+00
<rwgt>
<wgt id='SM'> +1.2875160e-05 </wgt>
<wgt id='morphing_basis_vector_1'> +8.7400006e-06 </wgt>
<wgt id='morphing_basis_vector_2'> +1.5864523e-05 </wgt>
<wgt id='morphing_basis_vector_3'> +1.7887316e-05 </wgt>
<wgt id='morphing_basis_vector_5'> +1.1949403e-05 </wgt>
</rwgt>
</event>
<event>
 7      1 +1.0088000e-05 5.11370100e+01 7.81860800e-03 1.52097000e-01
        2 -1    0    0  502    0 +0.0000000000e+00 +0.0000000000e+00 +8.1330463764e+02 8.1330463764e+02 0.0000000000e+00 0.0000e+00 -1.0000e+00
        1 -1    0    0  501    0 -0.0000000000e+00 -0.0000000000e+00 -8.4313170251e+02 8.4313170251e+02 0.0000000000e+00 0.0000e+00 -1.0000e+00
       25  2    1    2    0    0 -6.6398624417e+01 -1.6586357721e+01 -2.5515492939e+02 2.9225447023e+02 1.2499901117e+02 0.0000e+00 0.0000e+00
        2  1    1    2  501    0 +2.5235990752e+01 -1.3693795880e+01 -5.6824277179e+02 5.6896768183e+02 0.0000000000e+00 0.0000e+00 -1.0000e+00
        1  1    1    2  502    0 +4.1162633665e+01 +3.0280153601e+01 +7.9357063631e+02 7.9521418808e+02 0.0000000000e+00 0.0000e+00 -1.0000e+00
       22  1    3    3    0    0 -1.9697703775e+01 -6.8928119106e+01 -1.1475832025e+02 1.3530911723e+02 0.0000000000e+00 0.0000e+00 1.0000e+00
       22  1    3    3    0    0 -4.6700920642e+01 +5.2341761385e+01 -1.4039660913e+02 1.5694535300e+02 0.0000000000e+00 0.0000e+00 1.0000e+00
<rwgt>
<wgt id='SM'> +1.0013238e-05 </wgt>
<wgt id='morphing_basis_vector_1'> +9.9396384e-06 </wgt>
<wgt id='morphing_basis_vector_2'> +1.0160847e-05 </wgt>
<wgt id='morphing_basis_vector_3'> +1.0004589e-05 </wgt>
<wgt id='morphing_basis_vector_5'> +9.8664960e-06 </wgt>
</rwgt>
</event>
<event>
 7      1 +1.0088000e-05 4.31910300e+01 7.81860800e-03 1.48887300e-01
        2 -1    0    0  502    0 +0.0000000000e+00 +0.0000000000e+00 +1.6287177236e+03 1.6287177236e+03 0.0000000000e+00 0.0000e+00 -1.0000e+00
        1 -1    0    0  501    0 -0.0000000000e+00 -0.0000000000e+00 -9.6287304249e+02 9.6287304249e+02 0.0000000000e+00 0.0000e+00 -1.0000e+00
       25  2    1    2    0    0 +3.9901545407e+01 -8.5666672006e+00 -3.1540335137e+02 3.4172989593e+02 1.2503810061e+02 0.0000e+00 0.0000e+00
        2  1    1    2  501    0 -1.4155947269e+01 +4.2155386768e+01 -6.3324940707e+02 6.3480885236e+02 0.0000000000e+00 0.0000e+00 -1.0000e+00
        1  1    1    2  502    0 -2.5745598137e+01 -3.3588719567e+01 +1.6144974395e+03 1.6150520178e+03 0.0000000000e+00 0.0000e+00 -1.0000e+00
       22  1    3    3    0    0 +6.7681733033e+01 -4.5874473660e+01 -1.6254434821e+02 1.8195040383e+02 0.0000000000e+00 0.0000e+00 -1.0000e+00
       22  1    3    3    0    0 -2.7780187627e+01 +3.7307806459e+01 -1.5285900316e+02 1.5977949210e+02 0.0000000000e+00 0.0000e+00 -1.0000e+00
<rwgt>
<wgt id='SM'> +9.9755977e-06 </wgt>
<wgt id='morphing_basis_vector_1'> +9.9583495e-06 </wgt>
<wgt id='morphing_basis_vector_2'> +1.0088259e-05 </wgt>
<wgt id='morphing_basis_vector_3'> +9.9093327e-06 </wgt>
<wgt id='morphing_basis_vector_5'> +9.8398449e-06 </wgt>
</rwgt>
</event>
<event>
 7      1 +1.0088000e-05 1.20982700e+02 7.81860800e-03 1.25881200e-01
        2 -1    0    0  502    0 +0.0000000000e+00 +0.0000000000e+00 +1.1566991629e+03 1.1566991629e+03 0.0000000000e+00 0.0000e+00 -1.0000e+00
        1 -1    0    0  501    0 -0.0000000000e+00 -0.0000000000e+00 -3.6547674358e+02 3.6547674358e+02 0.0000000000e+00 0.0000e+00 -1.0000e+00
       25  2    1    2    0    0 -1.0681735475e+02 +6.3286103370e+01 +1.9883585123e+02 2.6566806720e+02 1.2501499126e+02 0.0000e+00 0.0000e+00
        2  1    1    2  501    0 +2.2795370501e+01 -1.2068765687e+02 -3.1777025118e+02 3.4068030757e+02 0.0000000000e+00 0.0000e+00 -1.0000e+00
        1  1    1    2  502    0 +8.4021984254e+01 +5.7401553496e+01 +9.1015681927e+02 9.1582753171e+02 0.0000000000e+00 0.0000e+00 -1.0000e+00
       22  1    3    3    0    0 -4.6145334250e+01 +5.4724638094e+01 +1.6705175501e+01 7.3506739664e+01 0.0000000000e+00 0.0000e+00 1.0000e+00
       22  1    3    3    0    0 -6.0672020505e+01 +8.5614652753e+00 +1.8213067573e+02 1.9216132754e+02 0.0000000000e+00 0.0000e+00 1.0000e+00
<rwgt>
<wgt id='SM'> +9.3585696e-06 </wgt>
<wgt id='morphing_basis_vector_1'> +9.2067134e-06 </wgt>
<wgt id='morphing_basis_vector_2'> +1.0141025e-05 </wgt>
<wgt id='morphing_basis_vector_3'> +8.9631782e-06 </wgt>
<wgt id='morphing_basis_vector_5'> +8.4724158e-06 </wgt>
</rwgt>
</event>
<event>
 7      1 +1.0088000e-05 5.39764400e+01 7.81860800e-03 1.48162100e-01
        2 -1    0    0  502    0 +0.0000000000e+00 +0.0000000000e+00 +4.7397249286e+01 4.7397249286e+01 0.0000000000e+00 0.0000e+00 -1.0000e+00
        1 -1    0    0  501    0 -0.0000000000e+00 -0.0000000000e+00 -2.2273367183e+03 2.2273367183e+03 0.0000000000e+00 0.0000e+00 -1.0000e+00
       25  2    1    2    0    0 +2.0878575057e+01 +9.1673427362e+00 -2.0739399692e+02 2.4321226001e+02 1.2497991194e+02 0.0000e+00 0.0000e+00
        2  1    1    2  501    0 +3.5194582746e+01 +5.5590824106e+00 -1.9732213892e+03 1.9735430608e+03 0.0000000000e+00 0.0000e+00 -1.0000e+00
        1  1    1    2  502    0 -5.6073157803e+01 -1.4726425147e+01 +6.7591705849e-01 5.7978646823e+01 0.0000000000e+00 0.0000e+00 -1.0000e+00
       22  1    3    3    0    0 -1.4279056789e+00 -5.0153963970e+00 -2.1550056626e+02 2.1556364994e+02 0.0000000000e+00 0.0000e+00 -1.0000e+00
       22  1    3    3    0    0 +2.2306480736e+01 +1.4182739133e+01 +8.1065693419e+00 2.7648610067e+01 0.0000000000e+00 0.0000e+00 -1.0000e+00
<rwgt>
<wgt id='SM'> +1.0112439e-05 </wgt>
<wgt id='morphing_basis_vector_1'> +1.0092307e-05 </wgt>
<wgt id='morphing_basis_vector_2'> +1.0115663e-05 </wgt>
<wgt id='morphing_basis_vector_3'> +1.0140678e-05 </wgt>
<wgt id='morphing_basis_vector_5'> +1.0120561e-05 </wgt>
</rwgt>
</event>
<event>
 7      1 +1.0088000e-05 1.70539900e+02 7.81860800e-03 1.27269200e-01
        2 -1    0    0  502    0 +0.0000000000e+00 +0.0000000000e+00 +1.3144858320e+03 1.3144858320e+03 0.0000000000e+00 0.0000e+00 -1.0000e+00
        1 -1    0    0  501    0 -0.0000000000e+00 -0.0000000000e+00 -9.7440401352e+02 9.7440401352e+02 0.0000000000e+00 0.0000e+00 -1.0000e+00
       25  2    1    2    0    0 -8.1107431895e+01 -1.9924370718e+02 +1.1938670778e+02 2.7596011142e+02 1.2499730692e+02 0.0000e+00 0.0000e+00
        2  1    1    2  501    0 +5.2919647935e+01 +3.4299833136e+01 -8.8872564181e+02 8.9096028761e+02 0.0000000000e+00 0.0000e+00 -1.0000e+00
        1  1    1    2  502    0 +2.8187783961e+01 +1.6494387405e+02 +1.1094207526e+03 1.1219694465e+03 0.0000000000e+00 0.0000e+00 -1.0000e+00
       22  1    3    3    0    0 +1.1101435702e+01 +1.3024446436e+01 +1.1492519572e+01 2.0614463023e+01 0.0000000000e+00 0.0000e+00 -1.0000e+00
       22  1    3    3    0    0 -9.2208867597e+01 -2.1226815362e+02 +1.0789418820e+02 2.5534564839e+02 0.0000000000e+00 0.0000e+00 -1.0000e+00
<rwgt>
<wgt id='SM'> +9.8326908e-06 </wgt>
<wgt id='morphing_basis_vector_1'> +9.0715548e-06 </wgt>
<wgt id='morphing_basis_vector_2'> +1.0974497e-05 </wgt>
<wgt id='morphing_basis_vector_3'> +1.0105501e-05 </wgt>
<wgt id='morphing_basis_vector_5'> +8.8785111e-06 </wgt>
</rwgt>
</event>
<event>
 7      1 +1.0088000e-05 7.64832000e+01 7.81860800e-03 1.46987700e-01
        2 -1    0    0  502    0 +0.0000000000e+00 +0.0000000000e+00 +1.3166285304e+03 1.3166285304e+03 0.0000000000e+00 0.0000e+00 -1.0000e+00
        1 -1    0    0  501    0 -0.0000000000e+00 -0.0000000000e+00 -2.0371947125e+02 2.0371947125e+02 0.0000000000e+00 0.0000e+00 -1.0000e+00
       25  2    1    2    0    0 +9.3306909784e+01 +1.9561596891e+01 +8.1489724034e+01 1.7708145928e+02 1.2501372969e+02 0.0000e+00 0.0000e+00
        2  1    1    2  501    0 -2.4320320848e+01 +1.2477093997e+01 -1.5349678122e+02 1.5591157021e+02 0.0000000000e+00 0.0000e+00 -1.0000e+00
        1  1    1    2  502    0 -6.8986588937e+01 -3.2038690888e+01 +1.1849161163e+03 1.1873549721e+03 0.0000000000e+00 0.0000e+00 -1.0000e+00
       22  1    3    3    0    0 +9.6395945496e+01 -2.1701863304e+00 +1.0659484290e+02 1.4373360272e+02 0.0000000000e+00 0.0000e+00 -1.0000e+00
       22  1    3    3    0    0 -3.0890357120e+00 +2.1731783221e+01 -2.5105118869e+01 3.3347856558e+01 0.0000000000e+00 0.0000e+00 -1.0000e+00
<rwgt>
<wgt id='SM'> +1.0019856e-05 </wgt>
<wgt id='morphing_basis_vector_1'> +9.8674488e-06 </wgt>
<wgt id='morphing_basis_vector_2'> +1.0254884e-05 </wgt>
<wgt id='morphing_basis_vector_3'> +1.0060981e-05 </wgt>
<wgt id='morphing_basis_vector_5'> +9.8087481e-06 </wgt>
</rwgt>
</event>
<event>
 7      1 +1.0088000e-05 7.42850300e+01 7.81860800e-03 1.48573700e-01
        2 -1    0    0  502    0 +0.0000000000e+00 +0.0000000000e+00 +2.1778975072e+02 2.1778975072e+02 0.0000000000e+00 0.0000e+00 -1.0000e+00
        1 -1    0    0  501    0 -0.0000000000e+00 -0.0000000000e+00 -7.0789173725e+01 7.0789173725e+01 0.0000000000e+00 0.0000e+00 -1.0000e+00
       25  2    1    2    0    0 -1.0469493243e+01 -8.1623191754e+01 +1.0284205943e+02 1.8159047067e+02 1.2500661635e+02 0.0000e+00 0.0000e+00
        2  1    1    2  501    0 +2.2406693140e+01 +1.1425786842e+01 +4.7196768310e+00 2.5590698541e+01 0.0000000000e+00 0.0000e+00 -1.0000e+00
        1  1    1    2  502    0 -1.1937199897e+01 +7.0197404912e+01 +3.9438840730e+01 8.1397755227e+01 0.0000000000e+00 0.0000e+00 -1.0000e+00
       22  1    3    3    0    0 +8.2377180071e+00 -9.3747100909e+01 +1.2068262989e+02 1.5303815238e+02 0.0000000000e+00 0.0000e+00 -1.0000e+00
       22  1    3    3    0    0 -1.8707211250e+01 +1.2123909154e+01 -1.7840570455e+01 2.8552318297e+01 0.0000000000e+00 0.0000e+00 -1.0000e+00
<rwgt>
<wgt id='SM'> +8.9394462e-06 </wgt>
<wgt id='morphing_basis_vector_1'> +9.0306129e-06 </wgt>
<wgt id='morphing_basis_vector_2'> +9.7917165e-06 </wgt>
<wgt id='morphing_basis_vector_3'> +8.1531345e-06 </wgt>
<wgt id='morphing_basis_vector_5'> +7.8696652e-06 </wgt>
</rwgt>
</event>
<event>
 7      1 +1.0088000e-05 7.09541400e+01 7.81860800e-03 1.48672300e-01
        2 -1    0    0  502    0 +0.0000000000e+00 +0.0000000000e+00 +1.6714320659e+03 1.6714320659e+03 0.0000000000e+00 0.0000e+00 -1.0000e+00
        1 -1    0    0  501    0 -0.0000000000e+00 -0.0000000000e+00 -4.8609805729e+01 4.8609805729e+01 0.0000000000e+00 0.0000e+00 -1.0000e+00
       25  2    1    2    0    0 +4.6378794223e+01 +5.4736315399e+00 +7.5661214966e+01 1.5339738377e+02 1.2500073881e+02 0.0000e+00 0.0000e+00
        2  1    1    2  501    0 +2.5077598090e+01 -7.4165114907e+00 +1.0275765474e+01 2.8097720988e+01 0.0000000000e+00 0.0000e+00 -1.0000e+00
        1  1    1    2  502    0 -7.1456392313e+01 +1.9428799508e+00 +1.5368852797e+03 1.5385467669e+03 0.0000000000e+00 0.0000e+00 -1.0000e+00
       22  1    3    3    0    0 -2.6055285928e+01 -3.3326778615e+01 +5.3663234274e+01 6.8332238441e+01 0.0000000000e+00 0.0000e+00 -1.0000e+00
       22  1    3    3    0    0 +7.2434080152e+01 +3.8800410155e+01 +2.1997980692e+01 8.5065145331e+01 0.0000000000e+00 0.0000e+00 -1.0000e+00
<rwgt>
<wgt id='SM'> +1.0169829e-05 </wgt>
<wgt id='morphing_basis_vector_1'> +1.0204817e-05 </wgt>
<wgt id='morphing_basis_vector_2'> +1.0061060e-05 </wgt>
<wgt id='morphing_basis_vector_3'> +1.0208497e-05 </wgt>
<wgt id='morphing_basis_vector_5'> +1.0293613e-05 </wgt>
</rwgt>
</event>
<event>
 7      1 +1.0088000e-05 1.10859000e+02 7.81860800e-03 1.28807100e-01
        2 -1    0    0  502    0 +0.0000000000e+00 +0.0000000000e+00 +2.3158964354e+02 2.3158964354e+02 0.0000000000e+00 0.0000e+00 -1.0000e+00
        1 -1    0    0  501    0 -0.0000000000e+00 -0.0000000000e+00 -1.2113982527e+03 1.2113982527e+03 0.0000000000e+00 0.0000e+00 -1.0000e+00
       25  2    1    2    0    0 -1.5117843829e+02 -1.1260146342e+02 -1.5864237314e+02 2.7627159093e+02 1.2499831851e+02 0.0000e+00 0.0000e+00
        2  1    1    2  501    0 +7.0770414807e+01 +4.4901978867e+01 -9.7599020065e+02 9.7958231460e+02 0.0000000000e+00 0.0000e+00 -1.0000e+00
        1  1    1    2  502    0 +8.0408023485e+01 +6.7699484556e+01 +1.5482396464e+02 1.8713399070e+02 0.0000000000e+00 0.0000e+00 -1.0000e+00
       22  1    3    3    0    0 -1.0425437457e+02 -1.3731543306e+02 -1.3053297234e+02 2.1624837489e+02 0.0000000000e+00 0.0000e+00 1.0000e+00
       22  1    3    3    0    0 -4.6924063721e+01 +2.4713969634e+01 -2.8109400797e+01 6.0023216045e+01 0.0000000000e+00 0.0000e+00 1.0000e+00
<rwgt>
<wgt id='SM'> +1.0255560e-05 </wgt>
<wgt id='morphing_basis_vector_1'> +9.5029256e-06 </wgt>
<wgt id='morphing_basis_vector_2'> +1.1020939e-05 </wgt>
<wgt id='morphing_basis_vector_3'> +1.0816586e-05 </wgt>
<wgt id='morphing_basis_vector_5'> +9.7476405e-06 </wgt>
</rwgt>
</event>
<event>
 7      1 +1.0088000e-05 1.41604800e+02 7.81860800e-03 1.26641600e-01
        2 -1    0    0  502    0 +0.0000000000e+00 +0.0000000000e+00 +5.7889651368e+02 5.7889651368e+02 0.0000000000e+00 0.0000e+00 -1.0000e+00
        1 -1    0    0  501    0 -0.0000000000e+00 -0.0000000000e+00 -8.7884921311e+02 8.7884921311e+02 0.0000000000e+00 0.0000e+00 -1.0000e+00
       25  2    1    2    0    0 +1.4301522753e+02 +3.7579874339e+01 +9.3624776345e+01 2.1507313870e+02 1.2500101593e+02 0.0000e+00 0.0000e+00
        2  1    1    2  501    0 -4.4289278940e+01 +6.7465891739e+01 -8.0380846570e+02 8.0784976097e+02 0.0000000000e+00 0.0000e+00 -1.0000e+00
        1  1    1    2  502    0 -9.8725948588e+01 -1.0504576608e+02 +4.1023098992e+02 4.3482282712e+02 0.0000000000e+00 0.0000e+00 -1.0000e+00
       22  1    3    3    0    0 +7.0525570998e+00 +4.8219380543e+01 -1.5686917323e+00 4.8757645711e+01 0.0000000000e+00 0.0000e+00 1.0000e+00
       22  1    3    3    0    0 +1.3596267043e+02 -1.0639506203e+01 +9.5193468077e+01 1.6631549299e+02 0.0000000000e+00 0.0000e+00 1.0000e+00
<rwgt>
<wgt id='SM'> +9.3940517e-06 </wgt>
<wgt id='morphing_basis_vector_1'> +9.0793138e-06 </wgt>
<wgt id='morphing_basis_vector_2'> +1.0347341e-05 </wgt>
<wgt id='morphing_basis_vector_3'> +9.1139396e-06 </wgt>
<wgt id='morphing_basis_vector_5'> +8.4002856e-06 </wgt>
</rwgt>
</event>
<event>
 7      1 +1.0088000e-05 9.08839900e+01 7.81860800e-03 1.39514700e-01
        2 -1    0    0  502    0 +0.0000000000e+00 +0.0000000000e+00 +6.5360003631e+02 6.5360003631e+02 0.0000000000e+00 0.0000e+00 -1.0000e+00
        1 -1    0    0  501    0 -0.0000000000e+00 -0.0000000000e+00 -8.5726807903e+01 8.5726807903e+01 0.0000000000e+00 0.0000e+00 -1.0000e+00
       25  2    1    2    0    0 +8.0135085599e+01 -8.4811484640e+00 +1.6913499475e+02 2.2522062470e+02 1.2499648603e+02 0.0000e+00 0.0000e+00
        2  1    1    2  501    0 -2.6470351913e-02 -4.0466331538e+01 -4.5015802326e+01 6.0530547229e+01 0.0000000000e+00 0.0000e+00 -1.0000e+00
        1  1    1    2  502    0 -8.0108615247e+01 +4.8947480002e+01 +4.4375403599e+02 4.5357567229e+02 0.0000000000e+00 0.0000e+00 -1.0000e+00
       22  1    3    3    0    0 +4.7457542202e+01 -5.6031436459e+01 +3.9619736902e+01 8.3435386591e+01 0.0000000000e+00 0.0000e+00 -1.0000e+00
       22  1    3    3    0    0 +3.2677543398e+01 +4.7550287995e+01 +1.2951525785e+02 1.4178523811e+02 0.0000000000e+00 0.0000e+00 -1.0000e+00
<rwgt>
<wgt id='SM'> +1.0484617e-05 </wgt>
<wgt id='morphing_basis_vector_1'> +1.0292000e-05 </wgt>
<wgt id='morphing_basis_vector_2'> +1.0379786e-05 </wgt>
<wgt id='morphing_basis_vector_3'> +1.0871570e-05 </wgt>
<wgt id='morphing_basis_vector_5'> +1.0741158e-05 </wgt>
</rwgt>
</event>
<event>
 7      1 +1.0088000e-05 1.59479400e+02 7.81860800e-03 1.30763200e-01
        2 -1    0    0  502    0 +0.0000000000e+00 +0.0000000000e+00 +1.1195376477e+03 1.1195376477e+03 0.0000000000e+00 0.0000e+00 -1.0000e+00
        1 -1    0    0  501    0 -0.0000000000e+00 -0.0000000000e+00 -1.1905599452e+03 1.1905599452e+03 0.0000000000e+00 0.0000e+00 -1.0000e+00
       25  2    1    2    0    0 +7.3250315656e+01 -1.6422198679e+02 -2.4573494977e+02 3.2915897069e+02 1.2500197101e+02 0.0000e+00 0.0000e+00
        2  1    1    2  501    0 -9.8168305446e+01 +1.2247462766e+02 -8.9573701892e+02 9.0938542857e+02 0.0000000000e+00 0.0000e+00 -1.0000e+00
        1  1    1    2  502    0 +2.4917989790e+01 +4.1747359135e+01 +1.0704496712e+03 1.0715531937e+03 0.0000000000e+00 0.0000e+00 -1.0000e+00
       22  1    3    3    0    0 -1.8918775057e+01 -1.1042443431e+02 -1.3360162368e+02 1.7435845145e+02 0.0000000000e+00 0.0000e+00 1.0000e+00
       22  1    3    3    0    0 +9.2169090713e+01 -5.3797552484e+01 -1.1213332609e+02 1.5480051924e+02 0.0000000000e+00 0.0000e+00 1.0000e+00
<rwgt>
<wgt id='SM'> +1.0911829e-05 </wgt>
<wgt id='morphing_basis_vector_1'> +1.0116581e-05 </wgt>
<wgt id='morphing_basis_vector_2'> +1.1162643e-05 </wgt>
<wgt id='morphing_basis_vector_3'> +1.1970092e-05 </wgt>
<wgt id='morphing_basis_vector_5'> +1.1079286e-05 </wgt>
</rwgt>
</event>
<event>
 7      1 +1.0088000e-05 1.97904700e+02 7.81860800e-03 1.28514800e-01
        2 -1    0    0  502    0 +0.0000000000e+00 +0.0000000000e+00 +8.2487006977e+01 8.2487006977e+01 0.0000000000e+00 0.0000e+00 -1.0000e+00
        1 -1    0    0  501    0 -0.0000000000e+00 -0.0000000000e+00 -2.4863117418e+03 2.4863117418e+03 0.0000000000e+00 0.0000e+00 -1.0000e+00
       25  2    1    2    0    0 +1.8938596631e+02 -1.6311457624e+01 -1.8175709973e+03 1.8317540484e+03 1.2500182179e+02 0.0000e+00 0.0000e+00
        2  1    1    2  501    0 -2.2009835990e+02 -2.0913499283e+01 -6.3260790013e+02 6.7012940376e+02 0.0000000000e+00 0.0000e+00 -1.0000e+00
        1  1    1    2  502    0 +3.0712393591e+01 +3.7224956908e+01 +4.6354162619e+01 6.6915296674e+01 0.0000000000e+00 0.0000e+00 -1.0000e+00
       22  1    3    3    0    0 +1.2372474628e+02 +2.2420341815e+01 -1.4958049352e+03 1.5010805737e+03 0.0000000000e+00 0.0000e+00 1.0000e+00
       22  1    3    3    0    0 +6.5661220024e+01 -3.8731799440e+01 -3.2176606213e+02 3.3067347466e+02 0.0000000000e+00 0.0000e+00 1.0000e+00
<rwgt>
<wgt id='SM'> +1.2709358e-05 </wgt>
<wgt id='morphing_basis_vector_1'> +9.7842041e-06 </wgt>
<wgt id='morphing_basis_vector_2'> +1.4053893e-05 </wgt>
<wgt id='morphing_basis_vector_3'> +1.6734440e-05 </wgt>
<wgt id='morphing_basis_vector_5'> +1.2920477e-05 </wgt>
</rwgt>
</event>
<event>
 7      1 +1.0088000e-05 7.11701200e+01 7.81860800e-03 1.36984000e-01
        2 -1    0    0  502    0 +0.0000000000e+00 +0.0000000000e+00 +3.0306874534e+03 3.0306874534e+03 0.0000000000e+00 0.0000e+00 -1.0000e+00
        1 -1    0    0  501    0 -0.0000000000e+00 -0.0000000000e+00 -3.5882815955e+01 3.5882815955e+01 0.0000000000e+00 0.0000e+00 -1.0000e+00
       25  2    1    2    0    0 +3.9437329454e+00 +8.8481348417e+00 +1.6871271883e+02 2.1019989439e+02 1.2500468625e+02 0.0000e+00 0.0000e+00
        2  1    1    2  501    0 +4.5058342018e+01 +4.4706194792e+01 +5.4022325211e+01 8.3350522850e+01 0.0000000000e+00 0.0000e+00 -1.0000e+00
        1  1    1    2  502    0 -4.9002074963e+01 -5.3554329634e+01 +2.7720695934e+03 2.7730198521e+03 0.0000000000e+00 0.0000e+00 -1.0000e+00
       22  1    3    3    0    0 +4.2777075023e+01 +1.5470766921e+01 +9.8727594654e+00 4.6547762095e+01 0.0000000000e+00 0.0000e+00 -1.0000e+00
       22  1    3    3    0    0 -3.8833342077e+01 -6.6226320789e+00 +1.5883995937e+02 1.6365213230e+02 0.0000000000e+00 0.0000e+00 -1.0000e+00
<rwgt>
<wgt id='SM'> +1.0105445e-05 </wgt>
<wgt id='morphing_basis_vector_1'> +1.0119740e-05 </wgt>
<wgt id='morphing_basis_vector_2'> +1.0073984e-05 </wgt>
<wgt id='morphing_basis_vector_3'> +1.0110888e-05 </wgt>
<wgt id='morphing_basis_vector_5'> +1.0139791e-05 </wgt>
</rwgt>
</event>
<event>
 7      1 +1.0088000e-05 3.25532400e+01 7.81860800e-03 1.58686400e-01
        2 -1    0    0  502    0 +0.0000000000e+00 +0.0000000000e+00 +2.8012623795e+02 2.8012623795e+02 0.0000000000e+00 0.0000e+00 -1.0000e+00
        1 -1    0    0  501    0 -0.0000000000e+00 -0.0000000000e+00 -1.0827604501e+03 1.0827604501e+03 0.0000000000e+00 0.0000e+00 -1.0000e+00
       25  2    1    2    0    0 -3.9942861938e+01 +2.4158797111e+01 -1.7454754311e+01 1.3456417754e+02 1.2499507883e+02 0.0000e+00 0.0000e+00
        2  1    1    2  501    0 +2.8898292780e+01 +6.3977403621e+00 -1.0053408794e+03 1.0057764792e+03 0.0000000000e+00 0.0000e+00 -1.0000e+00
        1  1    1    2  502    0 +1.1044569158e+01 -3.0556537473e+01 +2.2016142156e+02 2.2254603127e+02 0.0000000000e+00 0.0000e+00 -1.0000e+00
       22  1    3    3    0    0 -2.0962394496e-02 -3.4182136681e+01 -4.6857888157e+01 5.8000694737e+01 0.0000000000e+00 0.0000e+00 -1.0000e+00
       22  1    3    3    0    0 -3.9921899543e+01 +5.8340933791e+01 +2.9403133846e+01 7.6563482802e+01 0.0000000000e+00 0.0000e+00 -1.0000e+00
<rwgt>
<wgt id='SM'> +1.0174852e-05 </wgt>
<wgt id='morphing_basis_vector_1'> +1.0122543e-05 </wgt>
<wgt id='morphing_basis_vector_2'> +1.0164007e-05 </wgt>
<wgt id='morphing_basis_vector_3'> +1.0264134e-05 </wgt>
<wgt id='morphing_basis_vector_5'> +1.0220896e-05 </wgt>
</rwgt>
</event>
<event>
 7      1 +1.0088000e-05 6.78173900e+01 7.81860800e-03 1.41495800e-01
        2 -1    0    0  502    0 +0.0000000000e+00 +0.0000000000e+00 +1.9306954054e+02 1.9306954054e+02 0.0000000000e+00 0.0000e+00 -1.0000e+00
        1 -1    0    0  501    0 -0.0000000000e+00 -0.0000000000e+00 -6.2494338923e+02 6.2494338923e+02 0.0000000000e+00 0.0000e+00 -1.0000e+00
       25  2    1    2    0    0 +3.7544901173e+01 +1.0419398266e+02 -4.1262424589e+01 1.7202766726e+02 1.2499969997e+02 0.0000e+00 0.0000e+00
        2  1    1    2  501    0 -1.2799898549e+01 -4.4610428122e+01 -5.0902487430e+02 5.1113623464e+02 0.0000000000e+00 0.0000e+00 -1.0000e+00
        1  1    1    2  502    0 -2.4745002624e+01 -5.9583554542e+01 +1.1841345021e+02 1.3484902787e+02 0.0000000000e+00 0.0000e+00 -1.0000e+00
       22  1    3    3    0    0 +5.8801282901e+01 +1.0122456017e+02 -6.9819784320e+01 1.3630408921e+02 0.0000000000e+00 0.0000e+00 1.0000e+00
       22  1    3    3    0    0 -2.1256381728e+01 +2.9694224951e+00 +2.8557359731e+01 3.5723578053e+01 0.0000000000e+00 0.0000e+00 1.0000e+00
<rwgt>
<wgt id='SM'> +1.0220767e-05 </wgt>
<wgt id='morphing_basis_vector_1'> +9.9283966e-06 </wgt>
<wgt id='morphing_basis_vector_2'> +1.0454320e-05 </wgt>
<wgt id='morphing_basis_vector_3'> +1.0481289e-05 </wgt>
<wgt id='morphing_basis_vector_5'> +1.0097046e-05 </wgt>
</rwgt>
</event>
<event>
 7      1 +1.0088000e-05 1.71629400e+02 7.81860800e-03 1.26821900e-01
        2 -1    0    0  502    0 +0.0000000000e+00 +0.0000000000e+00 +1.7987601293e+03 1.7987601293e+03 0.0000000000e+00 0.0000e+00 -1.0000e+00
        1 -1    0    0  501    0 -0.0000000000e+00 -0.0000000000e+00 -3.6321360232e+02 3.6321360232e+02 0.0000000000e+00 0.0000e+00 -1.0000e+00
       25  2    1    2    0    0 +1.2952894964e+02 +9.8131884701e+01 +1.3518284718e+03 1.3672883828e+03 1.2501875402e+02 0.0000e+00 0.0000e+00
        2  1    1    2  501    0 +6.1530220207e+01 -2.2251437650e+01 -3.2801851606e+02 3.3448055453e+02 0.0000000000e+00 0.0000e+00 -1.0000e+00
        1  1    1    2  502    0 -1.9105916985e+02 -7.5880447051e+01 +4.1173657128e+02 4.6020479436e+02 0.0000000000e+00 0.0000e+00 -1.0000e+00
       22  1    3    3    0    0 +1.1143912662e+02 +3.2542031024e+01 +1.1105083319e+03 1.1165600825e+03 0.0000000000e+00 0.0000e+00 1.0000e+00
       22  1    3    3    0    0 +1.8089823024e+01 +6.5589853677e+01 +2.4132013992e+02 2.5072830023e+02 0.0000000000e+00 0.0000e+00 1.0000e+00
<rwgt>
<wgt id='SM'> +1.2680245e-05 </wgt>
<wgt id='morphing_basis_vector_1'> +1.0050937e-05 </wgt>
<wgt id='morphing_basis_vector_2'> +1.3644196e-05 </wgt>
<wgt id='morphing_basis_vector_3'> +1.6468515e-05 </wgt>
<wgt id='morphing_basis_vector_5'> +1.3170961e-05 </wgt>
</rwgt>
</event>
<event>
 7      1 +1.0088000e-05 7.70303100e+01 7.81860800e-03 1.40145900e-01
        2 -1    0    0  502    0 +0.0000000000e+00 +0.0000000000e+00 +1.3269024915e+03 1.3269024915e+03 0.0000000000e+00 0.0000e+00 -1.0000e+00
        1 -1    0    0  501    0 -0.0000000000e+00 -0.0000000000e+00 -2.9716438338e+02 2.9716438338e+02 0.0000000000e+00 0.0000e+00 -1.0000e+00
       25  2    1    2    0    0 -1.1829917990e+02 +1.7886432465e+01 +2.6278425545e+02 3.1463515270e+02 1.2500037587e+02 0.0000e+00 0.0000e+00
        2  1    1    2  501    0 +4.3669113673e+01 -1.2457008951e+01 -2.6797795633e+02 2.7179836946e+02 0.0000000000e+00 0.0000e+00 -1.0000e+00
        1  1    1    2  502    0 +7.4630066232e+01 -5.4294235143e+00 +1.0349318090e+03 1.0376333528e+03 0.0000000000e+00 0.0000e+00 -1.0000e+00
       22  1    3    3    0    0 -2.5251075715e+01 +5.0036908456e+01 +1.7132996734e+02 1.8026443560e+02 0.0000000000e+00 0.0000e+00 -1.0000e+00
       22  1    3    3    0    0 -9.3048104190e+01 -3.2150475991e+01 +9.1454288115e+01 1.3437071710e+02 0.0000000000e+00 0.0000e+00 -1.0000e+00
<rwgt>
<wgt id='SM'> +1.0134430e-05 </wgt>
<wgt id='morphing_basis_vector_1'> +9.8576743e-06 </wgt>
<wgt id='morphing_basis_vector_2'> +1.0421733e-05 </wgt>
<wgt id='morphing_basis_vector_3'> +1.0326065e-05 </wgt>
<wgt id='morphing_basis_vector_5'> +9.9321985e-06 </wgt>
</rwgt>
</event>
<event>
 7      1 +1.0088000e-05 7.42672900e+01 7.81860800e-03 1.35150200e-01
        2 -1    0    0  502    0 +0.0000000000e+00 +0.0000000000e+00 +1.3777683868e+03 1.3777683868e+03 0.0000000000e+00 0.0000e+00 -1.0000e+00
        1 -1    0    0  501    0 -0.0000000000e+00 -0.0000000000e+00 -5.8518998816e+01 5.8518998816e+01 0.0000000000e+00 0.0000e+00 -1.0000e+00
       25  2    1    2    0    0 +2.2687323290e+01 +4.4214042385e+01 +1.6806963510e+02 2.1524618737e+02 1.2495568316e+02 0.0000e+00 0.0000e+00
        2  1    1    2  501    0 +5.4401303298e+01 -4.5544899410e+01 +3.7759853584e+00 7.1049966419e+01 0.0000000000e+00 0.0000e+00 -1.0000e+00
        1  1    1    2  502    0 -7.7088626588e+01 +1.3308570247e+00 +1.1474037675e+03 1.1499912318e+03 0.0000000000e+00 0.0000e+00 -1.0000e+00
       22  1    3    3    0    0 +6.0936268271e+00 +4.9523694071e+01 +1.8460296317e+02 1.9122756750e+02 0.0000000000e+00 0.0000e+00 1.0000e+00
       22  1    3    3    0    0 +1.6593696463e+01 -5.3096516859e+00 -1.6533328072e+01 2.4018619870e+01 0.0000000000e+00 0.0000e+00 1.0000e+00
<rwgt>
<wgt id='SM'> +1.0436546e-05 </wgt>
<wgt id='morphing_basis_vector_1'> +1.0345067e-05 </wgt>
<wgt id='morphing_basis_vector_2'> +1.0254058e-05 </wgt>
<wgt id='morphing_basis_vector_3'> +1.0731054e-05 </wgt>
<wgt id='morphing_basis_vector_5'> +1.0734152e-05 </wgt>
</rwgt>
</event>
<event>
 7      1 +1.0088000e-05 3.57957700e+01 7.81860800e-03 1.54959700e-01
        2 -1    0    0  502    0 +0.0000000000e+00 +0.0000000000e+00 +2.7911925626e+02 2.7911925626e+02 0.0000000000e+00 0.0000e+00 -1.0000e+00
        1 -1    0    0  501    0 -0.0000000000e+00 -0.0000000000e+00 -7.1606919060e+02 7.1606919060e+02 0.0000000000e+00 0.0000e+00 -1.0000e+00
       25  2    1    2    0    0 -3.9929939274e+01 -4.9909428742e+01 +5.2354067049e+01 1.4983913002e+02 1.2500186167e+02 0.0000e+00 0.0000e+00
        2  1    1    2  501    0 +3.1377486154e+01 +1.6999097765e+01 -6.6522030425e+02 6.6617683024e+02 0.0000000000e+00 0.0000e+00 -1.0000e+00
        1  1    1    2  502    0 +8.5524531201e+00 +3.2910330977e+01 +1.7591630287e+02 1.7917248660e+02 0.0000000000e+00 0.0000e+00 -1.0000e+00
       22  1    3    3    0    0 +2.2153284859e+01 +2.8506943117e+01 -1.7130694043e+00 3.6143442596e+01 0.0000000000e+00 0.0000e+00 -1.0000e+00
       22  1    3    3    0    0 -6.2083224133e+01 -7.8416371859e+01 +5.4067136453e+01 1.1369568742e+02 0.0000000000e+00 0.0000e+00 -1.0000e+00
<rwgt>
<wgt id='SM'> +1.0042928e-05 </wgt>
<wgt id='morphing_basis_vector_1'> +9.9657750e-06 </wgt>
<wgt id='morphing_basis_vector_2'> +1.0170158e-05 </wgt>
<wgt id='morphing_basis_vector_3'> +1.0056456e-05 </wgt>
<wgt id='morphing_basis_vector_5'> +9.9245981e-06 </wgt>
</rwgt>
</event>
<event>
 7      1 +1.0088000e-05 3.72010500e+01 7.81860800e-03 1.56742800e-01
        2 -1    0    0  502    0 +0.0000000000e+00 +0.0000000000e+00 +1.1636714023e+02 1.1636714023e+02 0.0000000000e+00 0.0000e+00 -1.0000e+00
        1 -1    0    0  501    0 -0.0000000000e+00 -0.0000000000e+00 -1.2624558333e+03 1.2624558333e+03 0.0000000000e+00 0.0000e+00 -1.0000e+00
       25  2    1    2    0    0 -1.1970694358e+01 -2.3298499970e+01 -4.8692599538e+01 1.3669275352e+02 1.2501128746e+02 0.0000e+00 0.0000e+00
        2  1    1    2  501    0 -2.5318192945e+01 +1.4578828188e+01 -1.1645009178e+03 1.1648673490e+03 0.0000000000e+00 0.0000e+00 -1.0000e+00
        1  1    1    2  502    0 +3.7288887303e+01 +8.7196717819e+00 +6.7104824303e+01 7.7262871012e+01 0.0000000000e+00 0.0000e+00 -1.0000e+00
       22  1    3    3    0    0 +5.4917673252e+00 -6.3341095518e+01 -6.4183776150e+01 9.0342741881e+01 0.0000000000e+00 0.0000e+00 1.0000e+00
       22  1    3    3    0    0 -1.7462461684e+01 +4.0042595548e+01 +1.5491176612e+01 4.6350011641e+01 0.0000000000e+00 0.0000e+00 1.0000e+00
<rwgt>
<wgt id='SM'> +1.0160878e-05 </wgt>
<wgt id='morphing_basis_vector_1'> +1.0134411e-05 </wgt>
<wgt id='morphing_basis_vector_2'> +1.0131530e-05 </wgt>
<wgt id='morphing_basis_vector_3'> +1.0225772e-05 </wgt>
<wgt id='morphing_basis_vector_5'> +1.0215409e-05 </wgt>
</rwgt>
</event>
<event>
 7      1 +1.0088000e-05 1.04583300e+02 7.81860800e-03 1.32457200e-01
        2 -1    0    0  502    0 +0.0000000000e+00 +0.0000000000e+00 +1.1647947413e+03 1.1647947413e+03 0.0000000000e+00 0.0000e+00 -1.0000e+00
        1 -1    0    0  501    0 -0.0000000000e+00 -0.0000000000e+00 -7.6369529303e+02 7.6369529303e+02 0.0000000000e+00 0.0000e+00 -1.0000e+00
       25  2    1    2    0    0 -3.7246232555e+01 +1.7946234389e+01 -3.4232393869e+02 3.6677039610e+02 1.2500198111e+02 0.0000e+00 0.0000e+00
        2  1    1    2  501    0 -5.7167361613e+01 +2.8024873586e+01 -4.0425967095e+02 4.0924244932e+02 0.0000000000e+00 0.0000e+00 -1.0000e+00
        1  1    1    2  502    0 +9.4413594168e+01 -4.5971107975e+01 +1.1476830579e+03 1.1524771889e+03 0.0000000000e+00 0.0000e+00 -1.0000e+00
       22  1    3    3    0    0 -2.0827042877e+01 +4.4270831991e+01 -3.2964234739e+02 3.3325328127e+02 0.0000000000e+00 0.0000e+00 1.0000e+00
       22  1    3    3    0    0 -1.6419189679e+01 -2.6324597602e+01 -1.2681591302e+01 3.3517114830e+01 0.0000000000e+00 0.0000e+00 1.0000e+00
<rwgt>
<wgt id='SM'> +1.0085338e-05 </wgt>
<wgt id='morphing_basis_vector_1'> +1.0094893e-05 </wgt>
<wgt id='morphing_basis_vector_2'> +1.0076114e-05 </wgt>
<wgt id='morphing_basis_vector_3'> +1.0079207e-05 </wgt>
<wgt id='morphing_basis_vector_5'> +1.0092900e-05 </wgt>
</rwgt>
</event>
<event>
 7      1 +1.0088000e-05 3.18608400e+02 7.81860800e-03 1.23234900e-01
        2 -1    0    0  502    0 +0.0000000000e+00 +0.0000000000e+00 +2.8762262166e+03 2.8762262166e+03 0.0000000000e+00 0.0000e+00 -1.0000e+00
        1 -1    0    0  501    0 -0.0000000000e+00 -0.0000000000e+00 -3.6659822344e+02 3.6659822344e+02 0.0000000000e+00 0.0000e+00 -1.0000e+00
       25  2    1    2    0    0 -2.7913710988e+02 +8.0334787842e+00 +2.6840866179e+02 4.0700175002e+02 1.2500060760e+02 0.0000e+00 0.0000e+00
        2  1    1    2  501    0 +3.2924730139e+02 -2.3675670715e+00 -2.0580105965e+02 3.8828271529e+02 0.0000000000e+00 0.0000e+00 -1.0000e+00
        1  1    1    2  502    0 -5.0110191503e+01 -5.6659117127e+00 +2.4470203910e+03 2.4475399747e+03 0.0000000000e+00 0.0000e+00 -1.0000e+00
       22  1    3    3    0    0 -5.0952669474e+01 +5.2679542011e+01 +6.9886175954e+01 1.0126888102e+02 0.0000000000e+00 0.0000e+00 1.0000e+00
       22  1    3    3    0    0 -2.2818444041e+02 -4.4646063227e+01 +1.9852248583e+02 3.0573286900e+02 0.0000000000e+00 0.0000e+00 1.0000e+00
<rwgt>
<wgt id='SM'> +1.0828426e-05 </wgt>
<wgt id='morphing_basis_vector_1'> +9.1845197e-06 </wgt>
<wgt id='morphing_basis_vector_2'> +1.2237810e-05 </wgt>
<wgt id='morphing_basis_vector_3'> +1.2371019e-05 </wgt>
<wgt id='morphing_basis_vector_5'> +1.0098421e-05 </wgt>
</rwgt>
</event>
<event>
 7      1 +1.0088000e-05 7.45039200e+01 7.81860800e-03 1.48005700e-01
        2 -1    0    0  502    0 +0.0000000000e+00 +0.0000000000e+00 +6.5521684200e+02 6.5521684200e+02 0.0000000000e+00 0.0000e+00 -1.0000e+00
        1 -1    0    0  501    0 -0.0000000000e+00 -0.0000000000e+00 -5.8063847665e+01 5.8063847665e+01 0.0000000000e+00 0.0000e+00 -1.0000e+00
       25  2    1    2    0    0 +4.1543809836e+01 -2.9755330860e+01 +3.2002613422e+02 3.4735102967e+02 1.2499897351e+02 0.0000e+00 0.0000e+00
        2  1    1    2  501    0 -5.9455497366e+01 +4.8739464684e+01 -1.0081393297e+01 7.7537900897e+01 0.0000000000e+00 0.0000e+00 -1.0000e+00
        1  1    1    2  502    0 +1.7911687530e+01 -1.8984133824e+01 +2.8720825341e+02 2.8839175910e+02 0.0000000000e+00 0.0000e+00 -1.0000e+00
       22  1    3    3    0    0 -2.9913784426e+00 +3.3203192873e+00 -1.0914043331e+01 1.1793608734e+01 0.0000000000e+00 0.0000e+00 1.0000e+00
       22  1    3    3    0    0 +4.4535188279e+01 -3.3075650147e+01 +3.3094017755e+02 3.3555742094e+02 0.0000000000e+00 0.0000e+00 1.0000e+00
<rwgt>
<wgt id='SM'> +1.0065624e-05 </wgt>
<wgt id='morphing_basis_vector_1'> +1.0044973e-05 </wgt>
<wgt id='morphing_basis_vector_2'> +1.0107983e-05 </wgt>
<wgt id='morphing_basis_vector_3'> +1.0062605e-05 </wgt>
<wgt id='morphing_basis_vector_5'> +1.0023517e-05 </wgt>
</rwgt>
</event>
<event>
 7      1 +1.0088000e-05 2.64287600e+02 7.81860800e-03 1.13646400e-01
        2 -1    0    0  502    0 +0.0000000000e+00 +0.0000000000e+00 +2.4416634759e+03 2.4416634759e+03 0.0000000000e+00 0.0000e+00 -1.0000e+00
        1 -1    0    0  501    0 -0.0000000000e+00 -0.0000000000e+00 -1.7552901929e+03 1.7552901929e+03 0.0000000000e+00 0.0000e+00 -1.0000e+00
       25  2    1    2    0    0 -1.3402808824e+02 -2.7258174827e+01 -1.5498736556e+02 2.4156353639e+02 1.2500128838e+02 0.0000e+00 0.0000e+00
        2  1    1    2  501    0 +2.8929581454e+02 +1.1321639163e+02 -1.5381812372e+03 1.5692391590e+03 0.0000000000e+00 0.0000e+00 -1.0000e+00
        1  1    1    2  502    0 -1.5526772630e+02 -8.5958216802e+01 +2.3795418858e+03 2.3861509735e+03 0.0000000000e+00 0.0000e+00 -1.0000e+00
       22  1    3    3    0    0 +6.1733639408e+00 +2.4508607738e+01 +1.3139208430e+00 2.5308272632e+01 0.0000000000e+00 0.0000e+00 -1.0000e+00
       22  1    3    3    0    0 -1.4020145218e+02 -5.1766782565e+01 -1.5630128640e+02 2.1625526376e+02 0.0000000000e+00 0.0000e+00 -1.0000e+00
<rwgt>
<wgt id='SM'> +1.0748430e-05 </wgt>
<wgt id='morphing_basis_vector_1'> +1.0272720e-05 </wgt>
<wgt id='morphing_basis_vector_2'> +1.0753797e-05 </wgt>
<wgt id='morphing_basis_vector_3'> +1.1494300e-05 </wgt>
<wgt id='morphing_basis_vector_5'> +1.1038009e-05 </wgt>
</rwgt>
</event>
<event>
 7      1 +1.0088000e-05 1.42820200e+02 7.81860800e-03 1.26998100e-01
        2 -1    0    0  502    0 +0.0000000000e+00 +0.0000000000e+00 +5.4801648995e+02 5.4801648995e+02 0.0000000000e+00 0.0000e+00 -1.0000e+00
        1 -1    0    0  501    0 -0.0000000000e+00 -0.0000000000e+00 -3.2922676604e+03 3.2922676604e+03 0.0000000000e+00 0.0000e+00 -1.0000e+00
       25  2    1    2    0    0 -3.6831525245e+01 -7.6324777780e+01 -3.9174904124e+00 1.5108101449e+02 1.2501237240e+02 0.0000e+00 0.0000e+00
        2  1    1    2  501    0 +1.1295080104e+02 +8.9774859366e+01 -3.2099886264e+03 3.2132295888e+03 0.0000000000e+00 0.0000e+00 -1.0000e+00
        1  1    1    2  502    0 -7.6119275793e+01 -1.3450081587e+01 +4.6965494636e+02 4.7597354704e+02 0.0000000000e+00 0.0000e+00 -1.0000e+00
       22  1    3    3    0    0 -7.3584876885e+01 -6.5609946460e+01 -3.1946384170e+01 1.0363382962e+02 0.0000000000e+00 0.0000e+00 -1.0000e+00
       22  1    3    3    0    0 +3.6753351640e+01 -1.0714831320e+01 +2.8028893757e+01 4.7447184872e+01 0.0000000000e+00 0.0000e+00 -1.0000e+00
<rwgt>
<wgt id='SM'> +9.7656265e-06 </wgt>
<wgt id='morphing_basis_vector_1'> +9.7082223e-06 </wgt>
<wgt id='morphing_basis_vector_2'> +1.0098476e-05 </wgt>
<wgt id='morphing_basis_vector_3'> +9.5819174e-06 </wgt>
<wgt id='morphing_basis_vector_5'> +9.3736546e-06 </wgt>
</rwgt>
</event>
<event>
 7      1 +1.0088000e-05 2.47043200e+02 7.81860800e-03 1.15608600e-01
        2 -1    0    0  502    0 +0.0000000000e+00 +0.0000000000e+00 +3.9175140692e+03 3.9175140692e+03 0.0000000000e+00 0.0000e+00 -1.0000e+00
        1 -1    0    0  501    0 -0.0000000000e+00 -0.0000000000e+00 -8.7555887466e+02 8.7555887466e+02 0.0000000000e+00 0.0000e+00 -1.0000e+00
       25  2    1    2    0    0 -9.6675237238e+01 +7.5299789049e+01 +2.2885409634e+03 2.2952256503e+03 1.2499953845e+02 0.0000e+00 0.0000e+00
        2  1    1    2  501    0 +2.4391836755e+02 -4.5420093556e+01 -8.5099106427e+02 8.8642255521e+02 0.0000000000e+00 0.0000e+00 -1.0000e+00
        1  1    1    2  502    0 -1.4724313032e+02 -2.9879695493e+01 +1.6044052954e+03 1.6114247384e+03 0.0000000000e+00 0.0000e+00 -1.0000e+00
       22  1    3    3    0    0 -7.7241158430e+01 +1.0944861665e+02 +1.6188990564e+03 1.6244320087e+03 0.0000000000e+00 0.0000e+00 -1.0000e+00
       22  1    3    3    0    0 -1.9434078808e+01 -3.4148827599e+01 +6.6964190704e+02 6.7079364153e+02 0.0000000000e+00 0.0000e+00 -1.0000e+00
<rwgt>
<wgt id='SM'> +1.1689602e-05 </wgt>
<wgt id='morphing_basis_vector_1'> +1.1493844e-05 </wgt>
<wgt id='morphing_basis_vector_2'> +1.0535051e-05 </wgt>
<wgt id='morphing_basis_vector_3'> +1.3094135e-05 </wgt>
<wgt id='morphing_basis_vector_5'> +1.3495866e-05 </wgt>
</rwgt>
</event>
<event>
 7      1 +1.0088000e-05 3.10426900e+02 7.81860800e-03 1.19571700e-01
        2 -1    0    0  502    0 +0.0000000000e+00 +0.0000000000e+00 +9.5943279665e+02 9.5943279665e+02 0.0000000000e+00 0.0000e+00 -1.0000e+00
        1 -1    0    0  501    0 -0.0000000000e+00 -0.0000000000e+00 -1.0260516163e+03 1.0260516163e+03 0.0000000000e+00 0.0000e+00 -1.0000e+00
       25  2    1    2    0    0 -2.2860190530e+02 +1.6575835948e+02 +2.3786420861e+02 3.8977777692e+02 1.2495066544e+02 0.0000e+00 0.0000e+00
        2  1    1    2  501    0 +2.0384504150e+02 -2.3796793203e+02 -9.2184535035e+02 9.7364284396e+02 0.0000000000e+00 0.0000e+00 -1.0000e+00
        1  1    1    2  502    0 +2.4756863804e+01 +7.2209572550e+01 +6.1736232209e+02 6.2206379207e+02 0.0000000000e+00 0.0000e+00 -1.0000e+00
       22  1    3    3    0    0 -1.6254178792e+02 +1.2732980837e+02 +2.3566454315e+02 3.1332170339e+02 0.0000000000e+00 0.0000e+00 -1.0000e+00
       22  1    3    3    0    0 -6.6060117386e+01 +3.8428551118e+01 +2.1996654547e+00 7.6456073521e+01 0.0000000000e+00 0.0000e+00 -1.0000e+00
<rwgt>
<wgt id='SM'> +8.9260630e-06 </wgt>
<wgt id='morphing_basis_vector_1'> +7.9794807e-06 </wgt>
<wgt id='morphing_basis_vector_2'> +1.1105416e-05 </wgt>
<wgt id='morphing_basis_vector_3'> +8.7175791e-06 </wgt>
<wgt id='morphing_basis_vector_5'> +6.9559848e-06 </wgt>
</rwgt>
</event>
<event>
 7      1 +1.0088000e-05 6.62412000e+01 7.81860800e-03 1.37783900e-01
        2 -1    0    0  502    0 +0.0000000000e+00 +0.0000000000e+00 +5.7236905290e+02 5.7236905290e+02 0.0000000000e+00 0.0000e+00 -1.0000e+00
        1 -1    0    0  501    0 -0.0000000000e+00 -0.0000000000e+00 -4.3443985699e+02 4.3443985699e+02 0.0000000000e+00 0.0000e+00 -1.0000e+00
       25  2    1    2    0    0 +1.8761485101e+00 -1.0328001164e+01 +2.7143480551e+01 1.2833451273e+02 1.2499116401e+02 0.0000e+00 0.0000e+00
        2  1    1    2  501    0 -6.4135367715e+01 +2.4496622897e+01 -3.7868423338e+02 3.8485734829e+02 0.0000000000e+00 0.0000e+00 -1.0000e+00
        1  1    1    2  502    0 +6.2259219205e+01 -1.4168621732e+01 +4.8946994873e+02 4.9361704886e+02 0.0000000000e+00 0.0000e+00 -1.0000e+00
       22  1    3    3    0    0 -3.2161952246e+01 -6.4566388088e-01 -4.0663081725e+01 5.1848763433e+01 0.0000000000e+00 0.0000e+00 -1.0000e+00
       22  1    3    3    0    0 +3.4038100756e+01 -9.6823372832e+00 +6.7806562277e+01 7.6485749301e+01 0.0000000000e+00 0.0000e+00 -1.0000e+00
<rwgt>
<wgt id='SM'> +1.0133524e-05 </wgt>
<wgt id='morphing_basis_vector_1'> +1.0126731e-05 </wgt>
<wgt id='morphing_basis_vector_2'> +1.0103887e-05 </wgt>
<wgt id='morphing_basis_vector_3'> +1.0168492e-05 </wgt>
<wgt id='morphing_basis_vector_5'> +1.0176497e-05 </wgt>
</rwgt>
</event>
<event>
 7      1 +1.0088000e-05 6.56228700e+01 7.81860800e-03 1.45435500e-01
        2 -1    0    0  502    0 +0.0000000000e+00 +0.0000000000e+00 +4.1066633526e+01 4.1066633526e+01 0.0000000000e+00 0.0000e+00 -1.0000e+00
        1 -1    0    0  501    0 -0.0000000000e+00 -0.0000000000e+00 -1.6022672707e+03 1.6022672707e+03 0.0000000000e+00 0.0000e+00 -1.0000e+00
       25  2    1    2    0    0 -1.8311801369e+01 +2.6627530640e+01 -2.7918139890e+02 3.0758902662e+02 1.2499763338e+02 0.0000e+00 0.0000e+00
        2  1    1    2  501    0 +3.3067790183e+01 -5.9078643143e+01 -1.2957690713e+03 1.2975366087e+03 0.0000000000e+00 0.0000e+00 -1.0000e+00
        1  1    1    2  502    0 -1.4755988814e+01 +3.2451112504e+01 +1.3749832972e+01 3.8208268940e+01 0.0000000000e+00 0.0000e+00 -1.0000e+00
       22  1    3    3    0    0 +1.0836916679e+01 +1.8388980245e+01 -2.7634257223e+02 2.7716567353e+02 0.0000000000e+00 0.0000e+00 1.0000e+00
       22  1    3    3    0    0 -2.9148718048e+01 +8.2385503949e+00 -2.8388266690e+00 3.0423353091e+01 0.0000000000e+00 0.0000e+00 1.0000e+00
<rwgt>
<wgt id='SM'> +1.0072905e-05 </wgt>
<wgt id='morphing_basis_vector_1'> +1.0065574e-05 </wgt>
<wgt id='morphing_basis_vector_2'> +1.0093820e-05 </wgt>
<wgt id='morphing_basis_vector_3'> +1.0066970e-05 </wgt>
<wgt id='morphing_basis_vector_5'> +1.0050257e-05 </wgt>
</rwgt>
</event>
<event>
 7      1 +1.0088000e-05 9.65344000e+01 7.81860800e-03 1.35072100e-01
        2 -1    0    0  502    0 +0.0000000000e+00 +0.0000000000e+00 +2.7328583072e+03 2.7328583072e+03 0.0000000000e+00 0.0000e+00 -1.0000e+00
        1 -1    0    0  501    0 -0.0000000000e+00 -0.0000000000e+00 -9.2235746784e+00 9.2235746784e+00 0.0000000000e+00 0.0000e+00 -1.0000e+00
       25  2    1    2    0    0 -8.2536510128e+01 +4.5861308979e+01 +1.5557742929e+03 1.5636413620e+03 1.2500049410e+02 0.0000e+00 0.0000e+00
        2  1    1    2  501    0 +4.9555508798e+01 -8.9811079691e+01 +7.7179220087e+02 7.7857882056e+02 0.0000000000e+00 0.0000e+00 -1.0000e+00
        1  1    1    2  502    0 +3.2981001330e+01 +4.3949770711e+01 +3.9606823874e+02 3.9986169926e+02 0.0000000000e+00 0.0000e+00 -1.0000e+00
       22  1    3    3    0    0 -6.3349807140e+01 +8.3689647051e+01 +8.2708522516e+02 8.3371885235e+02 0.0000000000e+00 0.0000e+00 1.0000e+00
       22  1    3    3    0    0 -1.9186702987e+01 -3.7828338072e+01 +7.2868906770e+02 7.2992250966e+02 0.0000000000e+00 0.0000e+00 1.0000e+00
<rwgt>
<wgt id='SM'> +8.9068975e-06 </wgt>
<wgt id='morphing_basis_vector_1'> +9.2143738e-06 </wgt>
<wgt id='morphing_basis_vector_2'> +9.5174424e-06 </wgt>
<wgt id='morphing_basis_vector_3'> +8.0115847e-06 </wgt>
<wgt id='morphing_basis_vector_5'> +8.0626611e-06 </wgt>
</rwgt>
</event>
<event>
 7      1 +1.0088000e-05 6.19960400e+01 7.81860800e-03 1.40089500e-01
        2 -1    0    0  502    0 +0.0000000000e+00 +0.0000000000e+00 +1.4750493474e+03 1.4750493474e+03 0.0000000000e+00 0.0000e+00 -1.0000e+00
        1 -1    0    0  501    0 -0.0000000000e+00 -0.0000000000e+00 -3.2098452500e+02 3.2098452500e+02 0.0000000000e+00 0.0000e+00 -1.0000e+00
       25  2    1    2    0    0 -1.0010775688e+02 +4.8181533687e+01 +2.8357866220e+02 3.2922237139e+02 1.2500995556e+02 0.0000e+00 0.0000e+00
        2  1    1    2  501    0 +4.0186122273e+01 -3.9964774839e+01 -2.9467795053e+02 3.0007865999e+02 0.0000000000e+00 0.0000e+00 -1.0000e+00
        1  1    1    2  502    0 +5.9921634603e+01 -8.2167588477e+00 +1.1651641107e+03 1.1667328410e+03 0.0000000000e+00 0.0000e+00 -1.0000e+00
       22  1    3    3    0    0 -8.4068230640e+01 +5.2497254008e+01 +2.9356269093e+02 3.0984267393e+02 0.0000000000e+00 0.0000e+00 -1.0000e+00
       22  1    3    3    0    0 -1.6039526236e+01 -4.3157203214e+00 -9.9840287294e+00 1.9379697455e+01 0.0000000000e+00 0.0000e+00 -1.0000e+00
<rwgt>
<wgt id='SM'> +1.0015789e-05 </wgt>
<wgt id='morphing_basis_vector_1'> +9.8026654e-06 </wgt>
<wgt id='morphing_basis_vector_2'> +1.0326307e-05 </wgt>
<wgt id='morphing_basis_vector_3'> +1.0089253e-05 </wgt>
<wgt id='morphing_basis_vector_5'> +9.7453729e-06 </wgt>
</rwgt>
</event>
<event>
 7      1 +1.0088000e-05 6.16680200e+01 7.81860800e-03 1.49275900e-01
        2 -1    0    0  502    0 +0.0000000000e+00 +0.0000000000e+00 +1.2612788241e+03 1.2612788241e+03 0.0000000000e+00 0.0000e+00 -1.0000e+00
        1 -1    0    0  501    0 -0.0000000000e+00 -0.0000000000e+00 -7.1747556724e+02 7.1747556724e+02 0.0000000000e+00 0.0000e+00 -1.0000e+00
       25  2    1    2    0    0 +7.4547259035e+01 +5.0707858402e+01 -2.3449304814e+02 2.8060508553e+02 1.2499457453e+02 0.0000e+00 0.0000e+00
        2  1    1    2  501    0 -2.5545590620e+01 -1.3406602048e+01 -4.5870732445e+02 4.5961366786e+02 0.0000000000e+00 0.0000e+00 -1.0000e+00
        1  1    1    2  502    0 -4.9001668415e+01 -3.7301256354e+01 +1.2370036294e+03 1.2385356379e+03 0.0000000000e+00 0.0000e+00 -1.0000e+00
       22  1    3    3    0    0 -2.5531846153e+01 -1.6081208193e+01 -7.4816277533e+01 8.0671902226e+01 0.0000000000e+00 0.0000e+00 -1.0000e+00
       22  1    3    3    0    0 +1.0007910519e+02 +6.6789066595e+01 -1.5967677061e+02 1.9993318330e+02 0.0000000000e+00 0.0000e+00 -1.0000e+00
<rwgt>
<wgt id='SM'> +1.0118987e-05 </wgt>
<wgt id='morphing_basis_vector_1'> +9.9641587e-06 </wgt>
<wgt id='morphing_basis_vector_2'> +1.0274512e-05 </wgt>
<wgt id='morphing_basis_vector_3'> +1.0229124e-05 </wgt>
<wgt id='morphing_basis_vector_5'> +1.0011384e-05 </wgt>
</rwgt>
</event>
<event>
 7      1 +1.0088000e-05 1.39288500e+02 7.81860800e-03 1.29110400e-01
        2 -1    0    0  502    0 +0.0000000000e+00 +0.0000000000e+00 +9.8775440717e+02 9.8775440717e+02 0.0000000000e+00 0.0000e+00 -1.0000e+00
        1 -1    0    0  501    0 -0.0000000000e+00 -0.0000000000e+00 -2.0131860374e+02 2.0131860374e+02 0.0000000000e+00 0.0000e+00 -1.0000e+00
       25  2    1    2    0    0 +9.4930920878e+01 -2.7031666945e+00 +3.8571518694e+01 1.6169493683e+02 1.2505320345e+02 0.0000e+00 0.0000e+00
        2  1    1    2  501    0 -1.5967412180e+02 -7.8815190350e-01 -9.2488355953e+01 1.8452789042e+02 0.0000000000e+00 0.0000e+00 -1.0000e+00
        1  1    1    2  502    0 +6.4743200920e+01 +3.4913185980e+00 +8.4035264069e+02 8.4285018365e+02 0.0000000000e+00 0.0000e+00 -1.0000e+00
       22  1    3    3    0    0 +4.9959518730e+01 -5.9032460750e+01 +4.4753072725e+01 8.9351118920e+01 0.0000000000e+00 0.0000e+00 -1.0000e+00
       22  1    3    3    0    0 +4.4971402148e+01 +5.6329294056e+01 -6.1815540307e+00 7.2343817913e+01 0.0000000000e+00 0.0000e+00 -1.0000e+00
<rwgt>
<wgt id='SM'> +1.0211127e-05 </wgt>
<wgt id='morphing_basis_vector_1'> +9.9726745e-06 </wgt>
<wgt id='morphing_basis_vector_2'> +1.0388265e-05 </wgt>
<wgt id='morphing_basis_vector_3'> +1.0434721e-05 </wgt>
<wgt id='morphing_basis_vector_5'> +1.0128281e-05 </wgt>
</rwgt>
</event>
<event>
 7      1 +1.0088000e-05 1.49289500e+02 7.81860800e-03 1.30953600e-01
        2 -1    0    0  502    0 +0.0000000000e+00 +0.0000000000e+00 +3.0156721885e+02 3.0156721885e+02 0.0000000000e+00 0.0000e+00 -1.0000e+00
        1 -1    0    0  501    0 -0.0000000000e+00 -0.0000000000e+00 -1.2638068059e+03 1.2638068059e+03 0.0000000000e+00 0.0000e+00 -1.0000e+00
       25  2    1    2    0    0 +8.2095501231e+01 -1.7768569137e+02 -1.6933500420e+02 2.8741651772e+02 1.2498813853e+02 0.0000e+00 0.0000e+00
        2  1    1    2  501    0 -1.7876660611e+01 +4.7812488322e+01 -1.0130930299e+03 1.0143781821e+03 0.0000000000e+00 0.0000e+00 -1.0000e+00
        1  1    1    2  502    0 -6.4218840620e+01 +1.2987320305e+02 +2.2018844702e+02 2.6357932499e+02 0.0000000000e+00 0.0000e+00 -1.0000e+00
       22  1    3    3    0    0 -2.0761143594e+01 +3.8718157606e+00 -4.7369867126e+00 2.1643823224e+01 0.0000000000e+00 0.0000e+00 1.0000e+00
       22  1    3    3    0    0 +1.0285664483e+02 -1.8155750714e+02 -1.6459801748e+02 2.6577269450e+02 0.0000000000e+00 0.0000e+00 1.0000e+00
<rwgt>
<wgt id='SM'> +1.0304704e-05 </wgt>
<wgt id='morphing_basis_vector_1'> +9.5248890e-06 </wgt>
<wgt id='morphing_basis_vector_2'> +1.1061869e-05 </wgt>
<wgt id='morphing_basis_vector_3'> +1.0916134e-05 </wgt>
<wgt id='morphing_basis_vector_5'> +9.8228068e-06 </wgt>
</rwgt>
</event>
<event>
 7      1 +1.0088000e-05 1.01965900e+02 7.81860800e-03 1.46477900e-01
        2 -1    0    0  502    0 +0.0000000000e+00 +0.0000000000e+00 +3.5155713361e+02 3.5155713361e+02 0.0000000000e+00 0.0000e+00 -1.0000e+00
        1 -1    0    0  501    0 -0.0000000000e+00 -0.0000000000e+00 -3.1019916547e+02 3.1019916547e+02 0.0000000000e+00 0.0000e+00 -1.0000e+00
       25  2    1    2    0    0 -1.0499415098e+02 +4.0714706011e+01 -7.4691470410e+01 1.8408061987e+02 1.2500159933e+02 0.0000e+00 0.0000e+00
        2  1    1    2  501    0 +5.6785124756e+00 -2.0496265601e+01 -1.7148621786e+02 1.7280007328e+02 0.0000000000e+00 0.0000e+00 -1.0000e+00
        1  1    1    2  502    0 +9.9315638500e+01 -2.0218440410e+01 +2.8753565642e+02 3.0487560594e+02 0.0000000000e+00 0.0000e+00 -1.0000e+00
       22  1    3    3    0    0 -5.5465331935e+01 -4.3446602817e+01 -3.4979167019e+01 7.8660997123e+01 0.0000000000e+00 0.0000e+00 1.0000e+00
       22  1    3    3    0    0 -4.9528819040e+01 +8.4161308828e+01 -3.9712303390e+01 1.0541962275e+02 0.0000000000e+00 0.0000e+00 1.0000e+00
<rwgt>
<wgt id='SM'> +9.9871841e-06 </wgt>
<wgt id='morphing_basis_vector_1'> +9.7564399e-06 </wgt>
<wgt id='morphing_basis_vector_2'> +1.0342608e-05 </wgt>
<wgt id='morphing_basis_vector_3'> +1.0051504e-05 </wgt>
<wgt id='morphing_basis_vector_5'> +9.6706171e-06 </wgt>
</rwgt>
</event>
<event>
 7      1 +1.0088000e-05 5.99846500e+01 7.81860800e-03 1.45796200e-01
        2 -1    0    0  502    0 +0.0000000000e+00 +0.0000000000e+00 +1.3150985937e+02 1.3150985937e+02 0.0000000000e+00 0.0000e+00 -1.0000e+00
        1 -1    0    0  501    0 -0.0000000000e+00 -0.0000000000e+00 -8.9782622034e+02 8.9782622034e+02 0.0000000000e+00 0.0000e+00 -1.0000e+00
       25  2    1    2    0    0 -5.1468032543e+01 -1.9270056377e+01 -1.1749401191e+01 1.3705087657e+02 1.2499840356e+02 0.0000e+00 0.0000e+00
        2  1    1    2  501    0 +3.1345852720e+01 +5.1487511803e+01 -8.1699140106e+02 8.1921210670e+02 0.0000000000e+00 0.0000e+00 -1.0000e+00
        1  1    1    2  502    0 +2.0122179824e+01 -3.2217455426e+01 +6.2424441281e+01 7.3073096446e+01 0.0000000000e+00 0.0000e+00 -1.0000e+00
       22  1    3    3    0    0 -5.2561484702e+01 +2.5706461216e+01 +3.8161490420e+01 6.9855788403e+01 0.0000000000e+00 0.0000e+00 -1.0000e+00
       22  1    3    3    0    0 +1.0934521587e+00 -4.4976517593e+01 -4.9910891611e+01 6.7195088168e+01 0.0000000000e+00 0.0000e+00 -1.0000e+00
<rwgt>
<wgt id='SM'> +1.0314035e-05 </wgt>
<wgt id='morphing_basis_vector_1'> +1.0226681e-05 </wgt>
<wgt id='morphing_basis_vector_2'> +1.0228713e-05 </wgt>
<wgt id='morphing_basis_vector_3'> +1.0519742e-05 </wgt>
<wgt id='morphing_basis_vector_5'> +1.0479588e-05 </wgt>
</rwgt>
</event>
<event>
 7      1 +1.0088000e-05 6.23134500e+01 7.81860800e-03 1.50845100e-01
        2 -1    0    0  502    0 +0.0000000000e+00 +0.0000000000e+00 +1.3986035451e+03 1.3986035451e+03 0.0000000000e+00 0.0000e+00 -1.0000e+00
        1 -1    0    0  501    0 -0.0000000000e+00 -0.0000000000e+00 -9.2978407831e+02 9.2978407831e+02 0.0000000000e+00 0.0000e+00 -1.0000e+00
       25  2    1    2    0    0 +4.2867174238e+00 +5.7743716890e+01 +6.9532939781e+01 1.5431407566e+02 1.2500116578e+02 0.0000e+00 0.0000e+00
        2  1    1    2  501    0 -2.5616034088e+01 +9.8506979535e-01 -8.8644956407e+02 8.8682015155e+02 0.0000000000e+00 0.0000e+00 -1.0000e+00
        1  1    1    2  502    0 +2.1329316665e+01 -5.8728786685e+01 +1.2857360911e+03 1.2872533962e+03 0.0000000000e+00 0.0000e+00 -1.0000e+00
       22  1    3    3    0    0 +4.7598535144e+01 -4.8478888640e+00 -4.5968318978e+00 4.8065095836e+01 0.0000000000e+00 0.0000e+00 1.0000e+00
       22  1    3    3    0    0 -4.3311817720e+01 +6.2591605754e+01 +7.4129771679e+01 1.0624897983e+02 0.0000000000e+00 0.0000e+00 1.0000e+00
<rwgt>
<wgt id='SM'> +1.0008322e-05 </wgt>
<wgt id='morphing_basis_vector_1'> +9.9634669e-06 </wgt>
<wgt id='morphing_basis_vector_2'> +1.0126291e-05 </wgt>
<wgt id='morphing_basis_vector_3'> +9.9798922e-06 </wgt>
<wgt id='morphing_basis_vector_5'> +9.8823768e-06 </wgt>
</rwgt>
</event>
<event>
 7      1 +1.0088000e-05 6.05091400e+01 7.81860800e-03 1.45549400e-01
        2 -1    0    0  502    0 +0.0000000000e+00 +0.0000000000e+00 +1.3088141993e+02 1.3088141993e+02 0.0000000000e+00 0.0000e+00 -1.0000e+00
        1 -1    0    0  501    0 -0.0000000000e+00 -0.0000000000e+00 -1.5447956315e+03 1.5447956315e+03 0.0000000000e+00 0.0000e+00 -1.0000e+00
       25  2    1    2    0    0 +3.5980557886e+01 -1.3040894033e+01 -2.7833370284e+01 1.3365941187e+02 1.2500190565e+02 0.0000e+00 0.0000e+00
        2  1    1    2  501    0 +4.4133491502e+00 -3.8085420201e+01 -1.4501383775e+03 1.4506451291e+03 0.0000000000e+00 0.0000e+00 -1.0000e+00
        1  1    1    2  502    0 -4.0393907036e+01 +5.1126314234e+01 +6.4057536136e+01 9.1372510465e+01 0.0000000000e+00 0.0000e+00 -1.0000e+00
       22  1    3    3    0    0 +6.4909116292e+01 +3.1534005764e+01 +2.9938756329e+00 7.2225689257e+01 0.0000000000e+00 0.0000e+00 -1.0000e+00
       22  1    3    3    0    0 -2.8928558406e+01 -4.4574899797e+01 -3.0827245917e+01 6.1433722614e+01 0.0000000000e+00 0.0000e+00 -1.0000e+00
<rwgt>
<wgt id='SM'> +1.0220932e-05 </wgt>
<wgt id='morphing_basis_vector_1'> +1.0158755e-05 </wgt>
<wgt id='morphing_basis_vector_2'> +1.0183417e-05 </wgt>
<wgt id='morphing_basis_vector_3'> +1.0347705e-05 </wgt>
<wgt id='morphing_basis_vector_5'> +1.0308062e-05 </wgt>
</rwgt>
</event>
<event>
 7      1 +1.0088000e-05 1.07118000e+02 7.81860800e-03 1.27752100e-01
        2 -1    0    0  502    0 +0.0000000000e+00 +0.0000000000e+00 +1.6993958107e+03 1.6993958107e+03 0.0000000000e+00 0.0000e+00 -1.0000e+00
        1 -1    0    0  501    0 -0.0000000000e+00 -0.0000000000e+00 -1.1001095773e+03 1.1001095773e+03 0.0000000000e+00 0.0000e+00 -1.0000e+00
       25  2    1    2    0    0 +1.2994364280e+02 +3.7935276789e+01 -2.7308317000e+02 3.2944297574e+02 1.2503527904e+02 0.0000e+00 0.0000e+00
        2  1    1    2  501    0 -7.7950819110e+01 +5.5788126915e+01 -7.9424331934e+02 8.0000693474e+02 0.0000000000e+00 0.0000e+00 -1.0000e+00
        1  1    1    2  502    0 -5.1992823685e+01 -9.3723403704e+01 +1.6666127228e+03 1.6700554775e+03 0.0000000000e+00 0.0000e+00 -1.0000e+00
       22  1    3    3    0    0 +6.8010191171e+00 -2.0861097695e+01 +2.3423903902e+00 2.2066400948e+01 0.0000000000e+00 0.0000e+00 1.0000e+00
       22  1    3    3    0    0 +1.2314262368e+02 +5.8796374484e+01 -2.7542556039e+02 3.0737657480e+02 0.0000000000e+00 0.0000e+00 1.0000e+00
<rwgt>
<wgt id='SM'> +9.4610630e-06 </wgt>
<wgt id='morphing_basis_vector_1'> +9.2357922e-06 </wgt>
<wgt id='morphing_basis_vector_2'> +1.0248117e-05 </wgt>
<wgt id='morphing_basis_vector_3'> +9.1732069e-06 </wgt>
<wgt id='morphing_basis_vector_5'> +8.6115505e-06 </wgt>
</rwgt>
</event>
<event>
 7      1 +1.0088000e-05 9.02095000e+01 7.81860800e-03 1.33741700e-01
        2 -1    0    0  502    0 +0.0000000000e+00 +0.0000000000e+00 +2.4707729042e+03 2.4707729042e+03 0.0000000000e+00 0.0000e+00 -1.0000e+00
        1 -1    0    0  501    0 -0.0000000000e+00 -0.0000000000e+00 -3.3478561317e+02 3.3478561317e+02 0.0000000000e+00 0.0000e+00 -1.0000e+00
       25  2    1    2    0    0 -9.7157057560e+01 -1.1668291419e+02 +2.7729612444e+01 1.9861934061e+02 1.2500525893e+02 0.0000e+00 0.0000e+00
        2  1    1    2  501    0 +5.8450341181e+01 +6.3302517125e+01 -2.4142114723e+02 2.5633536897e+02 0.0000000000e+00 0.0000e+00 -1.0000e+00
        1  1    1    2  502    0 +3.8706716379e+01 +5.3380397070e+01 +2.3496788259e+03 2.3506038078e+03 0.0000000000e+00 0.0000e+00 -1.0000e+00
       22  1    3    3    0    0 -2.0365500081e+01 +2.6123973238e+01 +1.3779768811e+01 3.5876142487e+01 0.0000000000e+00 0.0000e+00 1.0000e+00
       22  1    3    3    0    0 -7.6791557479e+01 -1.4280688743e+02 +1.3949843632e+01 1.6274319812e+02 0.0000000000e+00 0.0000e+00 1.0000e+00
<rwgt>
<wgt id='SM'> +1.0197895e-05 </wgt>
<wgt id='morphing_basis_vector_1'> +9.7455424e-06 </wgt>
<wgt id='morphing_basis_vector_2'> +1.0643083e-05 </wgt>
<wgt id='morphing_basis_vector_3'> +1.0536915e-05 </wgt>
<wgt id='morphing_basis_vector_5'> +9.9029561e-06 </wgt>
</rwgt>
</event>
<event>
 7      1 +1.0088000e-05 1.17507700e+02 7.81860800e-03 1.34200700e-01
        2 -1    0    0  502    0 +0.0000000000e+00 +0.0000000000e+00 +1.2264492406e+03 1.2264492406e+03 0.0000000000e+00 0.0000e+00 -1.0000e+00
        1 -1    0    0  501    0 -0.0000000000e+00 -0.0000000000e+00 -3.2818231006e+02 3.2818231006e+02 0.0000000000e+00 0.0000e+00 -1.0000e+00
       25  2    1    2    0    0 -1.3511078214e+02 +3.5448606441e+01 +8.9651846477e+01 2.0778799340e+02 1.2500747767e+02 0.0000e+00 0.0000e+00
        2  1    1    2  501    0 +1.8775774761e+01 -4.4875401998e+01 -2.6372322099e+02 2.6817208786e+02 0.0000000000e+00 0.0000e+00 -1.0000e+00
        1  1    1    2  502    0 +1.1633500738e+02 +9.4267955561e+00 +1.0723383051e+03 1.0786714694e+03 0.0000000000e+00 0.0000e+00 -1.0000e+00
       22  1    3    3    0    0 -1.2868905822e+02 +7.2489142698e+01 +8.3575969558e+01 1.6970707765e+02 0.0000000000e+00 0.0000e+00 -1.0000e+00
       22  1    3    3    0    0 -6.4217239211e+00 -3.7040536256e+01 +6.0758769197e+00 3.8080915753e+01 0.0000000000e+00 0.0000e+00 -1.0000e+00
<rwgt>
<wgt id='SM'> +9.8091603e-06 </wgt>
<wgt id='morphing_basis_vector_1'> +9.5087423e-06 </wgt>
<wgt id='morphing_basis_vector_2'> +1.0397299e-05 </wgt>
<wgt id='morphing_basis_vector_3'> +9.7937541e-06 </wgt>
<wgt id='morphing_basis_vector_5'> +9.2445156e-06 </wgt>
</rwgt>
</event>
<event>
 7      1 +1.0088000e-05 1.57637500e+02 7.81860800e-03 1.32644500e-01
        2 -1    0    0  502    0 +0.0000000000e+00 +0.0000000000e+00 +6.7310658753e+02 6.7310658753e+02 0.0000000000e+00 0.0000e+00 -1.0000e+00
        1 -1    0    0  501    0 -0.0000000000e+00 -0.0000000000e+00 -7.3450972197e+01 7.3450972197e+01 0.0000000000e+00 0.0000e+00 -1.0000e+00
       25  2    1    2    0    0 -1.7748148467e+02 +5.4791891051e+01 +3.3097495995e+02 3.9959299646e+02 1.2501323921e+02 0.0000e+00 0.0000e+00
        2  1    1    2  501    0 +1.3593779229e+02 -5.4571284265e+01 +1.1068471847e+02 1.8359797205e+02 0.0000000000e+00 0.0000e+00 -1.0000e+00
        1  1    1    2  502    0 +4.1543692382e+01 -2.2060678618e-01 +1.5799593692e+02 1.6336659122e+02 0.0000000000e+00 0.0000e+00 -1.0000e+00
       22  1    3    3    0    0 +8.2315371513e+00 +3.3977847061e+01 +7.4106571951e+01 8.1939223215e+01 0.0000000000e+00 0.0000e+00 1.0000e+00
       22  1    3    3    0    0 -1.8571302182e+02 +2.0814043990e+01 +2.5686838800e+02 3.1765377324e+02 0.0000000000e+00 0.0000e+00 1.0000e+00
<rwgt>
<wgt id='SM'> +9.5689759e-06 </wgt>
<wgt id='morphing_basis_vector_1'> +8.0394303e-06 </wgt>
<wgt id='morphing_basis_vector_2'> +1.1932221e-05 </wgt>
<wgt id='morphing_basis_vector_3'> +1.0276667e-05 </wgt>
<wgt id='morphing_basis_vector_5'> +7.7872615e-06 </wgt>
</rwgt>
</event>
<event>
 7      1 +1.0088000e-05 5.04793600e+01 7.81860800e-03 1.56189700e-01
        2 -1    0    0  502    0 +0.0000000000e+00 +0.0000000000e+00 +4.2303588942e+02 4.2303588942e+02 0.0000000000e+00 0.0000e+00 -1.0000e+00
        1 -1    0    0  501    0 -0.0000000000e+00 -0.0000000000e+00 -1.4267624301e+03 1.4267624301e+03 0.0000000000e+00 0.0000e+00 -1.0000e+00
       25  2    1    2    0    0 +4.5721782448e+01 -5.1974096843e+01 -7.7807201512e+02 7.9108277436e+02 1.2499642809e+02 0.0000e+00 0.0000e+00
        2  1    1    2  501    0 -5.4280164131e+00 +2.1623246225e+01 -6.4046301514e+02 6.4085092018e+02 0.0000000000e+00 0.0000e+00 -1.0000e+00
        1  1    1    2  502    0 -4.0293766035e+01 +3.0350850617e+01 +4.1480848962e+02 4.1786462494e+02 0.0000000000e+00 0.0000e+00 -1.0000e+00
       22  1    3    3    0    0 -2.2821500206e+01 -6.7550597028e+01 -3.3869632448e+02 3.4612007201e+02 0.0000000000e+00 0.0000e+00 -1.0000e+00
       22  1    3    3    0    0 +6.8543282654e+01 +1.5576500185e+01 -4.3937569064e+02 4.4496270235e+02 0.0000000000e+00 0.0000e+00 -1.0000e+00
<rwgt>
<wgt id='SM'> +1.0052019e-05 </wgt>
<wgt id='morphing_basis_vector_1'> +9.9560532e-06 </wgt>
<wgt id='morphing_basis_vector_2'> +1.0193801e-05 </wgt>
<wgt id='morphing_basis_vector_3'> +1.0082569e-05 </wgt>
<wgt id='morphing_basis_vector_5'> +9.9263537e-06 </wgt>
</rwgt>
</event>
<event>
 7      1 +1.0088000e-05 1.59118100e+02 7.81860800e-03 1.19464500e-01
        2 -1    0    0  502    0 +0.0000000000e+00 +0.0000000000e+00 +1.0121615100e+02 1.0121615100e+02 0.0000000000e+00 0.0000e+00 -1.0000e+00
        1 -1    0    0  501    0 -0.0000000000e+00 -0.0000000000e+00 -8.7728523969e+02 8.7728523969e+02 0.0000000000e+00 0.0000e+00 -1.0000e+00
       25  2    1    2    0    0 -2.6429713320e+01 +5.5688769054e+00 -4.2813793547e+02 4.4682930005e+02 1.2499915785e+02 0.0000e+00 0.0000e+00
        2  1    1    2  501    0 -1.3095990344e+02 +9.0377364360e+01 -3.0254728319e+02 3.4183829930e+02 0.0000000000e+00 0.0000e+00 -1.0000e+00
        1  1    1    2  502    0 +1.5738961676e+02 -9.5946241266e+01 -4.5383870034e+01 1.8983379134e+02 0.0000000000e+00 0.0000e+00 -1.0000e+00
       22  1    3    3    0    0 +1.3574302668e+01 -4.4945406061e+01 -7.9845032473e+01 9.2626024580e+01 0.0000000000e+00 0.0000e+00 -1.0000e+00
       22  1    3    3    0    0 -4.0004015988e+01 +5.0514282967e+01 -3.4829290299e+02 3.5420327547e+02 0.0000000000e+00 0.0000e+00 -1.0000e+00
<rwgt>
<wgt id='SM'> +1.0162260e-05 </wgt>
<wgt id='morphing_basis_vector_1'> +1.0255416e-05 </wgt>
<wgt id='morphing_basis_vector_2'> +9.9724476e-06 </wgt>
<wgt id='morphing_basis_vector_3'> +1.0231593e-05 </wgt>
<wgt id='morphing_basis_vector_5'> +1.0434539e-05 </wgt>
</rwgt>
</event>
<event>
 7      1 +1.0088000e-05 4.45345100e+01 7.81860800e-03 1.47750700e-01
        2 -1    0    0  502    0 +0.0000000000e+00 +0.0000000000e+00 +2.9537143009e+03 2.9537143009e+03 0.0000000000e+00 0.0000e+00 -1.0000e+00
        1 -1    0    0  501    0 -0.0000000000e+00 -0.0000000000e+00 -1.5729730627e+01 1.5729730627e+01 0.0000000000e+00 0.0000e+00 -1.0000e+00
       25  2    1    2    0    0 -5.2128099221e+01 -1.6736834688e+01 +1.8440061427e+03 1.8490485604e+03 1.2499785583e+02 0.0000e+00 0.0000e+00
        2  1    1    2  501    0 +3.5905592325e+01 -2.6218962405e+01 +2.6148880293e+01 5.1579157519e+01 0.0000000000e+00 0.0000e+00 -1.0000e+00
        1  1    1    2  502    0 +1.6222506896e+01 +4.2955797093e+01 +1.0678295473e+03 1.0688163137e+03 0.0000000000e+00 0.0000e+00 -1.0000e+00
       22  1    3    3    0    0 +2.8316175699e+01 -2.2605941734e+01 +2.1381854114e+02 2.1686678617e+02 0.0000000000e+00 0.0000e+00 1.0000e+00
       22  1    3    3    0    0 -8.0444274921e+01 +5.8691070461e+00 +1.6301876015e+03 1.6321817742e+03 0.0000000000e+00 0.0000e+00 1.0000e+00
<rwgt>
<wgt id='SM'> +9.8519916e-06 </wgt>
<wgt id='morphing_basis_vector_1'> +9.8004724e-06 </wgt>
<wgt id='morphing_basis_vector_2'> +1.0107055e-05 </wgt>
<wgt id='morphing_basis_vector_3'> +9.7223970e-06 </wgt>
<wgt id='morphing_basis_vector_5'> +9.5551268e-06 </wgt>
</rwgt>
</event>
<event>
 7      1 +1.0088000e-05 6.94626700e+01 7.81860800e-03 1.39700900e-01
        2 -1    0    0  502    0 +0.0000000000e+00 +0.0000000000e+00 +1.5533578466e+03 1.5533578466e+03 0.0000000000e+00 0.0000e+00 -1.0000e+00
        1 -1    0    0  501    0 -0.0000000000e+00 -0.0000000000e+00 -2.9081497159e+03 2.9081497159e+03 0.0000000000e+00 0.0000e+00 -1.0000e+00
       25  2    1    2    0    0 -2.3900339516e+01 +7.1666646620e+01 -6.4454904019e+02 6.6089051470e+02 1.2500189093e+02 0.0000e+00 0.0000e+00
        2  1    1    2  501    0 -2.7776813340e+01 -6.4538803645e+01 -2.2544421698e+03 2.2555368110e+03 0.0000000000e+00 0.0000e+00 -1.0000e+00
        1  1    1    2  502    0 +5.1677152856e+01 -7.1278429748e+00 +1.5441993408e+03 1.5450802369e+03 0.0000000000e+00 0.0000e+00 -1.0000e+00
       22  1    3    3    0    0 -6.7788463087e+01 +3.2287437816e+01 -2.2451151192e+02 2.3673439411e+02 0.0000000000e+00 0.0000e+00 1.0000e+00
       22  1    3    3    0    0 +4.3888123571e+01 +3.9379208804e+01 -4.2003752827e+02 4.2415612059e+02 0.0000000000e+00 0.0000e+00 1.0000e+00
<rwgt>
<wgt id='SM'> +9.8726594e-06 </wgt>
<wgt id='morphing_basis_vector_1'> +9.7985624e-06 </wgt>
<wgt id='morphing_basis_vector_2'> +1.0136985e-05 </wgt>
<wgt id='morphing_basis_vector_3'> +9.7696458e-06 </wgt>
<wgt id='morphing_basis_vector_5'> +9.5770775e-06 </wgt>
</rwgt>
</event>
<event>
 7      1 +1.0088000e-05 5.85004700e+01 7.81860800e-03 1.50678800e-01
        2 -1    0    0  502    0 +0.0000000000e+00 +0.0000000000e+00 +1.8910775059e+03 1.8910775059e+03 0.0000000000e+00 0.0000e+00 -1.0000e+00
        1 -1    0    0  501    0 -0.0000000000e+00 -0.0000000000e+00 -6.0657816578e+01 6.0657816578e+01 0.0000000000e+00 0.0000e+00 -1.0000e+00
       25  2    1    2    0    0 -5.5258875806e+01 -1.4247717764e+01 +6.4664184097e+02 6.6107797987e+02 1.2498753603e+02 0.0000e+00 0.0000e+00
        2  1    1    2  501    0 +1.1149010209e+01 -2.5265692864e+01 -4.9113105846e+01 5.6344945030e+01 0.0000000000e+00 0.0000e+00 -1.0000e+00
        1  1    1    2  502    0 +4.4109865597e+01 +3.9513410629e+01 +1.2328909542e+03 1.2343123975e+03 0.0000000000e+00 0.0000e+00 -1.0000e+00
       22  1    3    3    0    0 -6.0744490206e+01 -6.3103349587e+01 +4.4407178222e+02 4.5262752190e+02 0.0000000000e+00 0.0000e+00 -1.0000e+00
       22  1    3    3    0    0 +5.4856144002e+00 +4.8855631823e+01 +2.0257005875e+02 2.0845045797e+02 0.0000000000e+00 0.0000e+00 -1.0000e+00
<rwgt>
<wgt id='SM'> +9.9801380e-06 </wgt>
<wgt id='morphing_basis_vector_1'> +9.9211470e-06 </wgt>
<wgt id='morphing_basis_vector_2'> +1.0137959e-05 </wgt>
<wgt id='morphing_basis_vector_3'> +9.9407442e-06 </wgt>
<wgt id='morphing_basis_vector_5'> +9.8114650e-06 </wgt>
</rwgt>
</event>
<event>
 7      1 +1.0088000e-05 2.19196100e+02 7.81860800e-03 1.25855900e-01
        2 -1    0    0  502    0 +0.0000000000e+00 +0.0000000000e+00 +1.2710332193e+03 1.2710332193e+03 0.0000000000e+00 0.0000e+00 -1.0000e+00
        1 -1    0    0  501    0 -0.0000000000e+00 -0.0000000000e+00 -4.2850460623e+02 4.2850460623e+02 0.0000000000e+00 0.0000e+00 -1.0000e+00
       25  2    1    2    0    0 +1.3286779218e+02 -1.3016509871e+02 +3.5866084471e+01 2.2695491190e+02 1.2500141159e+02 0.0000e+00 0.0000e+00
        2  1    1    2  501    0 -1.3450723854e+02 +1.8644546543e+02 -2.9246852459e+02 3.7201068086e+02 0.0000000000e+00 0.0000e+00 -1.0000e+00
        1  1    1    2  502    0 +1.6394463597e+00 -5.6280366724e+01 +1.0991310532e+03 1.1005722327e+03 0.0000000000e+00 0.0000e+00 -1.0000e+00
       22  1    3    3    0    0 +1.2578133292e+02 -1.3450634399e+02 -6.0194365230e+00 1.8425290745e+02 0.0000000000e+00 0.0000e+00 1.0000e+00
       22  1    3    3    0    0 +7.0864592561e+00 +4.3412452840e+00 +4.1885520994e+01 4.2702004454e+01 0.0000000000e+00 0.0000e+00 1.0000e+00
<rwgt>
<wgt id='SM'> +9.7816850e-06 </wgt>
<wgt id='morphing_basis_vector_1'> +9.1559456e-06 </wgt>
<wgt id='morphing_basis_vector_2'> +1.0795777e-05 </wgt>
<wgt id='morphing_basis_vector_3'> +9.9391304e-06 </wgt>
<wgt id='morphing_basis_vector_5'> +8.8987510e-06 </wgt>
</rwgt>
</event>
</LesHouchesEvents>
