<event>
 7    1  0.5789396E-006  0.5899768E+02  0.7818608E-02  0.1427599E+00
          2   -1    0    0  502    0  0.00000000000E+00  0.00000000000E+00  0.11237415682E+04  0.11237415682E+04  0.00000000000E+00 0. -1.
          1   -1    0    0  501    0 -0.00000000000E+00 -0.00000000000E+00 -0.79218505072E+02  0.79218505072E+02  0.00000000000E+00 0. -1.
         25    2    1    2    0    0 -0.16769189634E+02 -0.29963195856E+02  0.27498112451E+03  0.30400754208E+03  0.12500787166E+03 0.  0.
          2    1    1    2  501    0  0.60265117678E+02  0.87007142609E+01 -0.49505537707E+02  0.78475378948E+02  0.00000000000E+00 0. -1.
          1    1    1    2  502    0 -0.43495928044E+02  0.21262481595E+02  0.81904747633E+03  0.82047715225E+03  0.00000000000E+00 0. -1.
         22    1    3    3    0    0 -0.57895760710E+02  0.11266443936E+01  0.22451805360E+03  0.23186535927E+03  0.00000000000E+00 0. -1.
         22    1    3    3    0    0  0.41126571077E+02 -0.31089840249E+02  0.50463070911E+02  0.72142182813E+02  0.00000000000E+00 0. -1.
</event>
<event>
 7    1  0.5789396E-006  0.1396824E+03  0.7818608E-02  0.1266457E+00
          2   -1    0    0  502    0  0.00000000000E+00  0.00000000000E+00  0.31095730426E+04  0.31095730426E+04  0.00000000000E+00 0. -1.
          1   -1    0    0  501    0 -0.00000000000E+00 -0.00000000000E+00 -0.28083797943E+03  0.28083797943E+03  0.00000000000E+00 0. -1.
         25    2    1    2    0    0 -0.76403231301E+02  0.90005241023E+02  0.75486316822E+03  0.77419747073E+03  0.12499969511E+03 0.  0.
          2    1    1    2  501    0  0.13643072088E+03 -0.34462201710E+02 -0.25214859976E+03  0.28875578143E+03  0.00000000000E+00 0. -1.
          1    1    1    2  502    0 -0.60027489578E+02 -0.55543039313E+02  0.23260204947E+04  0.23274577699E+04  0.00000000000E+00 0. -1.
         22    1    3    3    0    0 -0.66564468730E+02  0.54356339915E+02  0.19479516568E+03  0.21290983246E+03  0.00000000000E+00 0.  1.
         22    1    3    3    0    0 -0.98387625716E+01  0.35648901108E+02  0.56006800254E+03  0.56128763827E+03  0.00000000000E+00 0.  1.
</event>
<event>
 7    1  0.5789396E-006  0.3661304E+02  0.7818608E-02  0.1543359E+00
          2   -1    0    0  502    0  0.00000000000E+00  0.00000000000E+00  0.13236673002E+04  0.13236673002E+04  0.00000000000E+00 0. -1.
          1   -1    0    0  501    0 -0.00000000000E+00 -0.00000000000E+00 -0.21754216820E+03  0.21754216820E+03  0.00000000000E+00 0. -1.
         25    2    1    2    0    0 -0.40497036175E+02 -0.46133095402E+02 -0.82097087621E+02  0.16165916559E+03  0.12500192636E+03 0.  0.
          2    1    1    2  501    0  0.80123355110E+01  0.34192360149E+02 -0.92199274293E+02  0.98661143279E+02  0.00000000000E+00 0. -1.
          1    1    1    2  502    0  0.32484700664E+02  0.11940735253E+02  0.12804214939E+04  0.12808891595E+04  0.00000000000E+00 0. -1.
         22    1    3    3    0    0 -0.12804466115E+02 -0.81664075497E+02 -0.20181457024E+02  0.85089757238E+02  0.00000000000E+00 0.  1.
         22    1    3    3    0    0 -0.27692570061E+02  0.35530980095E+02 -0.61915630596E+02  0.76569408351E+02  0.00000000000E+00 0.  1.
</event>
<event>
 7    1  0.5789396E-006  0.6414955E+02  0.7818608E-02  0.1470412E+00
          2   -1    0    0  502    0  0.00000000000E+00  0.00000000000E+00  0.16166850884E+03  0.16166850884E+03  0.00000000000E+00 0. -1.
          1   -1    0    0  501    0 -0.00000000000E+00 -0.00000000000E+00 -0.66677234276E+03  0.66677234276E+03  0.00000000000E+00 0. -1.
         25    2    1    2    0    0 -0.73233270150E+01 -0.38184822265E+02  0.23117315295E+02  0.13293443746E+03  0.12500177049E+03 0.  0.
          2    1    1    2  501    0 -0.10493900649E+02 -0.30722073105E+02 -0.59620114644E+03  0.59708439499E+03  0.00000000000E+00 0. -1.
          1    1    1    2  502    0  0.17817227664E+02  0.68906895369E+02  0.67979997225E+02  0.98422019151E+02  0.00000000000E+00 0. -1.
         22    1    3    3    0    0  0.54302685698E+02 -0.38534226014E+02  0.25398156622E+02  0.71265241235E+02  0.00000000000E+00 0.  1.
         22    1    3    3    0    0 -0.61626012713E+02  0.34940374904E+00 -0.22808413270E+01  0.61669196225E+02  0.00000000000E+00 0.  1.
</event>
<event>
 7    1  0.5789396E-006  0.3164232E+02  0.7818608E-02  0.1588889E+00
          2   -1    0    0  502    0  0.00000000000E+00  0.00000000000E+00  0.23731805107E+03  0.23731805107E+03  0.00000000000E+00 0. -1.
          1   -1    0    0  501    0 -0.00000000000E+00 -0.00000000000E+00 -0.56710962066E+03  0.56710962066E+03  0.00000000000E+00 0. -1.
         25    2    1    2    0    0  0.31406013090E+01  0.10004414051E+02 -0.12954494611E+03  0.18032692032E+03  0.12500381375E+03 0.  0.
          2    1    1    2  501    0 -0.32245565505E+02 -0.24250289028E+01 -0.41046754287E+03  0.41173931196E+03  0.00000000000E+00 0. -1.
          1    1    1    2  502    0  0.29104964196E+02 -0.75793851485E+01  0.21022091939E+03  0.21236143946E+03  0.00000000000E+00 0. -1.
         22    1    3    3    0    0  0.42269573826E+02  0.51503693719E+02 -0.54576461814E+02  0.86127449296E+02  0.00000000000E+00 0.  1.
         22    1    3    3    0    0 -0.39128972517E+02 -0.41499279668E+02 -0.74968484296E+02  0.94199471022E+02  0.00000000000E+00 0.  1.
</event>
<event>
 7    1  0.5789396E-006  0.2651061E+03  0.7818608E-02  0.1260183E+00
          2   -1    0    0  502    0  0.00000000000E+00  0.00000000000E+00  0.66868730309E+03  0.66868730309E+03  0.00000000000E+00 0. -1.
          1   -1    0    0  501    0 -0.00000000000E+00 -0.00000000000E+00 -0.60535614439E+03  0.60535614439E+03  0.00000000000E+00 0. -1.
         25    2    1    2    0    0  0.95403270001E+01  0.30031620811E+03  0.48017988063E+01  0.32546673926E+03  0.12499879359E+03 0.  0.
          2    1    1    2  501    0 -0.22099667888E+02 -0.25625550984E+03 -0.40664013709E+03  0.48115640153E+03  0.00000000000E+00 0. -1.
          1    1    1    2  502    0  0.12559340888E+02 -0.44060698274E+02  0.46516949698E+03  0.46742030668E+03  0.00000000000E+00 0. -1.
         22    1    3    3    0    0 -0.17777313754E+02  0.29009605037E+02  0.37732755387E+02  0.50806996544E+02  0.00000000000E+00 0. -1.
         22    1    3    3    0    0  0.27317640754E+02  0.27130660308E+03 -0.32930956581E+02  0.27465974272E+03  0.00000000000E+00 0. -1.
</event>
<event>
 7    1  0.5789396E-006  0.1286759E+03  0.7818608E-02  0.1352023E+00
          2   -1    0    0  502    0  0.00000000000E+00  0.00000000000E+00  0.20712513675E+04  0.20712513675E+04  0.00000000000E+00 0. -1.
          1   -1    0    0  501    0 -0.00000000000E+00 -0.00000000000E+00 -0.22381481787E+03  0.22381481787E+03  0.00000000000E+00 0. -1.
         25    2    1    2    0    0  0.10088167376E+03 -0.61849086647E+01  0.59921954135E+02  0.17155515238E+03  0.12500065810E+03 0.  0.
          2    1    1    2  501    0  0.26611743325E+02  0.30885025794E+02 -0.16333387034E+03  0.16834495211E+03  0.00000000000E+00 0. -1.
          1    1    1    2  502    0 -0.12749341708E+03 -0.24700117130E+02  0.19508484658E+04  0.19551660809E+04  0.00000000000E+00 0. -1.
         22    1    3    3    0    0  0.10809955266E+03 -0.39917022359E+02  0.16987287860E+02  0.11647939693E+03  0.00000000000E+00 0.  1.
         22    1    3    3    0    0 -0.72178789059E+01  0.33732113695E+02  0.42934666275E+02  0.55075755450E+02  0.00000000000E+00 0.  1.
</event>
<event>
 7    1  0.5789396E-006  0.5153561E+02  0.7818608E-02  0.1509720E+00
          2   -1    0    0  502    0  0.00000000000E+00  0.00000000000E+00  0.18767976205E+02  0.18767976205E+02  0.00000000000E+00 0. -1.
          1   -1    0    0  501    0 -0.00000000000E+00 -0.00000000000E+00 -0.70980207010E+03  0.70980207010E+03  0.00000000000E+00 0. -1.
         25    2    1    2    0    0 -0.36678352565E+02 -0.20857814578E+02 -0.45012269496E+03  0.46905793714E+03  0.12499823160E+03 0.  0.
          2    1    1    2  501    0 -0.17984820031E+02  0.24917634662E+02 -0.15189852002E+03  0.15497581312E+03  0.00000000000E+00 0. -1.
          1    1    1    2  502    0  0.54663172596E+02 -0.40598200842E+01 -0.89012878925E+02  0.10453629605E+03  0.00000000000E+00 0. -1.
         22    1    3    3    0    0  0.33849311970E+02 -0.13182116128E+02 -0.45299548476E+02  0.58065421712E+02  0.00000000000E+00 0. -1.
         22    1    3    3    0    0 -0.70527664534E+02 -0.76756984497E+01 -0.40482314648E+03  0.41099251543E+03  0.00000000000E+00 0. -1.
</event>
<event>
 7    1  0.5789396E-006  0.9229025E+02  0.7818608E-02  0.1379892E+00
          2   -1    0    0  502    0  0.00000000000E+00  0.00000000000E+00  0.38266819446E+03  0.38266819446E+03  0.00000000000E+00 0. -1.
          1   -1    0    0  501    0 -0.00000000000E+00 -0.00000000000E+00 -0.13632935719E+04  0.13632935719E+04  0.00000000000E+00 0. -1.
         25    2    1    2    0    0 -0.40360135060E+02 -0.12974396775E+03  0.15511380521E+03  0.24113981360E+03  0.12500271783E+03 0.  0.
          2    1    1    2  501    0  0.19322602847E+02  0.89888400189E+02 -0.13159009339E+04  0.13191090005E+04  0.00000000000E+00 0. -1.
          1    1    1    2  502    0  0.21037532212E+02  0.39855567564E+02  0.18016175122E+03  0.18571295224E+03  0.00000000000E+00 0. -1.
         22    1    3    3    0    0 -0.82580089879E+02 -0.77392084999E+02  0.71648004813E+02  0.13394940335E+03  0.00000000000E+00 0. -1.
         22    1    3    3    0    0  0.42219954819E+02 -0.52351882753E+02  0.83465800399E+02  0.10719041025E+03  0.00000000000E+00 0. -1.
</event>
<event>
 7    1  0.5789396E-006  0.6224448E+02  0.7818608E-02  0.1450890E+00
          2   -1    0    0  502    0  0.00000000000E+00  0.00000000000E+00  0.35844071351E+03  0.35844071351E+03  0.00000000000E+00 0. -1.
          1   -1    0    0  501    0 -0.00000000000E+00 -0.00000000000E+00 -0.35913943994E+03  0.35913943994E+03  0.00000000000E+00 0. -1.
         25    2    1    2    0    0 -0.48532912142E+02 -0.79973204946E+02  0.90838073869E+02  0.18063240475E+03  0.12500141164E+03 0.  0.
          2    1    1    2  501    0  0.60550910915E+01  0.38072678036E+02 -0.30902665935E+03  0.31142201131E+03  0.00000000000E+00 0. -1.
          1    1    1    2  502    0  0.42477821050E+02  0.41900526910E+02  0.21748985905E+03  0.22552573739E+03  0.00000000000E+00 0. -1.
         22    1    3    3    0    0  0.25939255939E+02 -0.59609774545E+02  0.50294917762E+01  0.65203266847E+02  0.00000000000E+00 0. -1.
         22    1    3    3    0    0 -0.74472168081E+02 -0.20363430401E+02  0.85808582092E+02  0.11542913790E+03  0.00000000000E+00 0. -1.
</event>
<event>
 7    1  0.5789396E-006  0.7464191E+02  0.7818608E-02  0.1478787E+00
          2   -1    0    0  502    0  0.00000000000E+00  0.00000000000E+00  0.35453456758E+03  0.35453456758E+03  0.00000000000E+00 0. -1.
          1   -1    0    0  501    0 -0.00000000000E+00 -0.00000000000E+00 -0.14989201609E+04  0.14989201609E+04  0.00000000000E+00 0. -1.
         25    2    1    2    0    0 -0.53040685002E+02  0.25556411960E+02 -0.10036648310E+03  0.17077550789E+03  0.12499759480E+03 0.  0.
          2    1    1    2  501    0 -0.15405785083E+01  0.26241681033E+02 -0.13587874362E+04  0.13590416829E+04  0.00000000000E+00 0. -1.
          1    1    1    2  502    0  0.54581263510E+02 -0.51798092993E+02  0.31476832596E+03  0.32363753767E+03  0.00000000000E+00 0. -1.
         22    1    3    3    0    0 -0.92081246444E+02  0.10262519170E+02 -0.50141771752E+02  0.10534928818E+03  0.00000000000E+00 0.  1.
         22    1    3    3    0    0  0.39040561442E+02  0.15293892790E+02 -0.50224711350E+02  0.65426219702E+02  0.00000000000E+00 0.  1.
</event>
<event>
 7    1  0.5789396E-006  0.7815271E+02  0.7818608E-02  0.1436279E+00
          2   -1    0    0  502    0  0.00000000000E+00  0.00000000000E+00  0.19396617936E+02  0.19396617936E+02  0.00000000000E+00 0. -1.
          1   -1    0    0  501    0 -0.00000000000E+00 -0.00000000000E+00 -0.12204049399E+04  0.12204049399E+04  0.00000000000E+00 0. -1.
         25    2    1    2    0    0  0.10086105433E+03  0.32322339461E+02 -0.64624311414E+03  0.66668852074E+03  0.12500294079E+03 0.  0.
          2    1    1    2  501    0 -0.32137189797E+02 -0.11777937899E+02 -0.41124107472E+03  0.41266298638E+03  0.00000000000E+00 0. -1.
          1    1    1    2  502    0 -0.68723864532E+02 -0.20544401562E+02 -0.14352413311E+03  0.16045005072E+03  0.00000000000E+00 0. -1.
         22    1    3    3    0    0 -0.17017923921E+02  0.38231499263E+02 -0.11198839143E+03  0.11955190122E+03  0.00000000000E+00 0.  1.
         22    1    3    3    0    0  0.11787897825E+03 -0.59091598017E+01 -0.53425472271E+03  0.54713661952E+03  0.00000000000E+00 0.  1.
</event>
<event>
 7    1  0.5789396E-006  0.5537926E+02  0.7818608E-02  0.1430768E+00
          2   -1    0    0  502    0  0.00000000000E+00  0.00000000000E+00  0.20722722831E+04  0.20722722831E+04  0.00000000000E+00 0. -1.
          1   -1    0    0  501    0 -0.00000000000E+00 -0.00000000000E+00 -0.72178154447E+02  0.72178154447E+02  0.00000000000E+00 0. -1.
         25    2    1    2    0    0 -0.21648402150E+02  0.75334370281E+02  0.78676308065E+03  0.80048251282E+03  0.12502874706E+03 0.  0.
          2    1    1    2  501    0  0.43628475824E+02 -0.25138175557E+02 -0.54934219281E+02  0.74519394932E+02  0.00000000000E+00 0. -1.
          1    1    1    2  502    0 -0.21980073674E+02 -0.50196194724E+02  0.12682652672E+04  0.12694485298E+04  0.00000000000E+00 0. -1.
         22    1    3    3    0    0  0.79018654510E+01  0.66649542387E+02  0.74784771931E+03  0.75085338932E+03  0.00000000000E+00 0.  1.
         22    1    3    3    0    0 -0.29550267601E+02  0.86848278935E+01  0.38915361343E+02  0.49629123499E+02  0.00000000000E+00 0.  1.
</event>
<event>
 7    1  0.5789396E-006  0.1449016E+03  0.7818608E-02  0.1359605E+00
          2   -1    0    0  502    0  0.00000000000E+00  0.00000000000E+00  0.24764558636E+04  0.24764558636E+04  0.00000000000E+00 0. -1.
          1   -1    0    0  501    0 -0.00000000000E+00 -0.00000000000E+00 -0.63510138661E+03  0.63510138661E+03  0.00000000000E+00 0. -1.
         25    2    1    2    0    0 -0.71619805800E+02  0.10669761372E+03  0.35006976811E+03  0.39330278978E+03  0.12499785817E+03 0.  0.
          2    1    1    2  501    0  0.10500459619E+03 -0.10050104945E+03 -0.60473625133E+03  0.62195848722E+03  0.00000000000E+00 0. -1.
          1    1    1    2  502    0 -0.33384790388E+02 -0.61965642684E+01  0.20960209602E+04  0.20962959732E+04  0.00000000000E+00 0. -1.
         22    1    3    3    0    0 -0.48758185524E+02  0.42378767630E+02  0.40388558691E+02  0.76187638594E+02  0.00000000000E+00 0. -1.
         22    1    3    3    0    0 -0.22861620276E+02  0.64318846085E+02  0.30968120942E+03  0.31711515118E+03  0.00000000000E+00 0. -1.
</event>
<event>
 7    1  0.5789396E-006  0.3867022E+02  0.7818608E-02  0.1530383E+00
          2   -1    0    0  502    0  0.00000000000E+00  0.00000000000E+00  0.50958040549E+03  0.50958040549E+03  0.00000000000E+00 0. -1.
          1   -1    0    0  501    0 -0.00000000000E+00 -0.00000000000E+00 -0.34918346295E+03  0.34918346295E+03  0.00000000000E+00 0. -1.
         25    2    1    2    0    0  0.20714013492E+02 -0.33938224627E+02  0.17091870298E+03  0.21545311222E+03  0.12500386831E+03 0.  0.
          2    1    1    2  501    0 -0.35572670535E+02 -0.26226233261E+01 -0.32470516627E+03  0.32665844248E+03  0.00000000000E+00 0. -1.
          1    1    1    2  502    0  0.14858657043E+02  0.36560847953E+02  0.31418340583E+03  0.31665231373E+03  0.00000000000E+00 0. -1.
         22    1    3    3    0    0  0.41969359614E+02 -0.70532989071E+02  0.77443544679E+02  0.11284428344E+03  0.00000000000E+00 0. -1.
         22    1    3    3    0    0 -0.21255346123E+02  0.36594764444E+02  0.93475158303E+02  0.10260882878E+03  0.00000000000E+00 0. -1.
</event>
<event>
 7    1  0.5789396E-006  0.3786641E+02  0.7818608E-02  0.1559964E+00
          2   -1    0    0  502    0  0.00000000000E+00  0.00000000000E+00  0.61880839092E+03  0.61880839092E+03  0.00000000000E+00 0. -1.
          1   -1    0    0  501    0 -0.00000000000E+00 -0.00000000000E+00 -0.18701076046E+03  0.18701076046E+03  0.00000000000E+00 0. -1.
         25    2    1    2    0    0  0.47782746851E+02 -0.42860643868E+02  0.18117727734E+03  0.22928324625E+03  0.12500150198E+03 0.  0.
          2    1    1    2  501    0 -0.19711464949E+02  0.32036226591E+02 -0.16022977767E+03  0.16458567166E+03  0.00000000000E+00 0. -1.
          1    1    1    2  502    0 -0.28071281902E+02  0.10824417276E+02  0.41085013080E+03  0.41195023347E+03  0.00000000000E+00 0. -1.
         22    1    3    3    0    0  0.86873639739E+02 -0.38167237038E+02  0.93702504680E+02  0.13335638960E+03  0.00000000000E+00 0. -1.
         22    1    3    3    0    0 -0.39090892888E+02 -0.46934068304E+01  0.87474772660E+02  0.95926856649E+02  0.00000000000E+00 0. -1.
</event>
<event>
 7    1  0.5789396E-006  0.8922564E+02  0.7818608E-02  0.1394870E+00
          2   -1    0    0  502    0  0.00000000000E+00  0.00000000000E+00  0.45411847741E+03  0.45411847741E+03  0.00000000000E+00 0. -1.
          1   -1    0    0  501    0 -0.00000000000E+00 -0.00000000000E+00 -0.43284660569E+03  0.43284660569E+03  0.00000000000E+00 0. -1.
         25    2    1    2    0    0 -0.51909393902E+02 -0.57508967602E+02 -0.21258808862E+03  0.25849726481E+03  0.12500109585E+03 0.  0.
          2    1    1    2  501    0  0.89378242644E+02  0.40114097852E+02 -0.18406154747E+03  0.20850962655E+03  0.00000000000E+00 0. -1.
          1    1    1    2  502    0 -0.37468848742E+02  0.17394869750E+02  0.41792150781E+03  0.41995819174E+03  0.00000000000E+00 0. -1.
         22    1    3    3    0    0 -0.76843716720E+02 -0.29453133618E+02 -0.61283712276E+02  0.10260671162E+03  0.00000000000E+00 0.  1.
         22    1    3    3    0    0  0.24934322818E+02 -0.28055833984E+02 -0.15130437634E+03  0.15589055319E+03  0.00000000000E+00 0.  1.
</event>
<event>
 7    1  0.5789396E-006  0.4162758E+02  0.7818608E-02  0.1510403E+00
          2   -1    0    0  502    0  0.00000000000E+00  0.00000000000E+00  0.18435638256E+04  0.18435638256E+04  0.00000000000E+00 0. -1.
          1   -1    0    0  501    0 -0.00000000000E+00 -0.00000000000E+00 -0.50582232857E+02  0.50582232857E+02  0.00000000000E+00 0. -1.
         25    2    1    2    0    0 -0.16803029629E+02 -0.32745605797E+02  0.27055442292E+03  0.30029773506E+03  0.12499766966E+03 0.  0.
          2    1    1    2  501    0  0.42292752705E+02  0.47398935962E+01 -0.22716357063E+02  0.48240816752E+02  0.00000000000E+00 0. -1.
          1    1    1    2  502    0 -0.25489723076E+02  0.28005712201E+02  0.15451435269E+04  0.15456075066E+04  0.00000000000E+00 0. -1.
         22    1    3    3    0    0 -0.33469127786E+02  0.27084431225E+02  0.20701862949E+03  0.21144848519E+03  0.00000000000E+00 0. -1.
         22    1    3    3    0    0  0.16666098157E+02 -0.59830037023E+02  0.63535793422E+02  0.88849249877E+02  0.00000000000E+00 0. -1.
</event>
<event>
 7    1  0.5789396E-006  0.1223239E+03  0.7818608E-02  0.1309448E+00
          2   -1    0    0  502    0  0.00000000000E+00  0.00000000000E+00  0.17659735844E+04  0.17659735844E+04  0.00000000000E+00 0. -1.
          1   -1    0    0  501    0 -0.00000000000E+00 -0.00000000000E+00 -0.30000562676E+02  0.30000562676E+02  0.00000000000E+00 0. -1.
         25    2    1    2    0    0  0.72223853476E+02  0.41394599169E+02  0.31991315389E+03  0.35340997369E+03  0.12499754246E+03 0.  0.
          2    1    1    2  501    0  0.57509759953E+02 -0.24080727330E+02  0.86773749093E+02  0.10685006996E+03  0.00000000000E+00 0. -1.
          1    1    1    2  502    0 -0.12973361343E+03 -0.17313871839E+02  0.13292861187E+04  0.13357141034E+04  0.00000000000E+00 0. -1.
         22    1    3    3    0    0 -0.39638148300E+01 -0.38012198482E+02  0.59715897791E+02  0.70898713038E+02  0.00000000000E+00 0.  1.
         22    1    3    3    0    0  0.76187668306E+02  0.79406797651E+02  0.26019725610E+03  0.28251126065E+03  0.00000000000E+00 0.  1.
</event>
<event>
 7    1  0.5789396E-006  0.8065258E+02  0.7818608E-02  0.1492027E+00
          2   -1    0    0  502    0  0.00000000000E+00  0.00000000000E+00  0.26866348281E+04  0.26866348281E+04  0.00000000000E+00 0. -1.
          1   -1    0    0  501    0 -0.00000000000E+00 -0.00000000000E+00 -0.81547119033E+03  0.81547119033E+03  0.00000000000E+00 0. -1.
         25    2    1    2    0    0  0.66954269800E+02 -0.53874328934E+02 -0.10885907382E+03  0.18670371461E+03  0.12499064578E+03 0.  0.
          2    1    1    2  501    0 -0.19191477666E+02 -0.11102050520E+02 -0.66689148748E+03  0.66725993767E+03  0.00000000000E+00 0. -1.
          1    1    1    2  502    0 -0.47762792133E+02  0.64976379453E+02  0.26469141991E+04  0.26481423661E+04  0.00000000000E+00 0. -1.
         22    1    3    3    0    0  0.85620169746E+02 -0.50673726875E+02 -0.12642124440E+03  0.16087563861E+03  0.00000000000E+00 0. -1.
         22    1    3    3    0    0 -0.18665899946E+02 -0.32006020581E+01  0.17562170580E+02  0.25828075999E+02  0.00000000000E+00 0. -1.
</event>
<event>
 7    1  0.5789396E-006  0.1499014E+03  0.7818608E-02  0.1346204E+00
          2   -1    0    0  502    0  0.00000000000E+00  0.00000000000E+00  0.27739642789E+04  0.27739642789E+04  0.00000000000E+00 0. -1.
          1   -1    0    0  501    0 -0.00000000000E+00 -0.00000000000E+00 -0.98579619019E+02  0.98579619019E+02  0.00000000000E+00 0. -1.
         25    2    1    2    0    0 -0.51482425166E+02  0.11400306976E+03  0.12866830215E+04  0.12987782234E+04  0.12499814282E+03 0.  0.
          2    1    1    2  501    0  0.86967053056E+02 -0.12367627570E+03 -0.30374357498E+02  0.15421313524E+03  0.00000000000E+00 0. -1.
          1    1    1    2  502    0 -0.35484627890E+02  0.96732059394E+01  0.14190759959E+04  0.14195525393E+04  0.00000000000E+00 0. -1.
         22    1    3    3    0    0  0.13434726159E+02  0.13940957015E+02  0.69099501997E+03  0.69126620036E+03  0.00000000000E+00 0. -1.
         22    1    3    3    0    0 -0.64917151325E+02  0.10006211274E+03  0.59568800156E+03  0.60751202305E+03  0.00000000000E+00 0. -1.
</event>
<event>
 7    1  0.5789396E-006  0.1146432E+03  0.7818608E-02  0.1256432E+00
          2   -1    0    0  502    0  0.00000000000E+00  0.00000000000E+00  0.23693461080E+03  0.23693461080E+03  0.00000000000E+00 0. -1.
          1   -1    0    0  501    0 -0.00000000000E+00 -0.00000000000E+00 -0.16706385675E+04  0.16706385675E+04  0.00000000000E+00 0. -1.
         25    2    1    2    0    0  0.14629222463E+03  0.14008134593E+03 -0.98890643581E+02  0.25773732750E+03  0.12499988853E+03 0.  0.
          2    1    1    2  501    0 -0.10622486670E+03 -0.37706591561E+02 -0.14707189831E+04  0.14750321476E+04  0.00000000000E+00 0. -1.
          1    1    1    2  502    0 -0.40067357929E+02 -0.10237475437E+03  0.13590566999E+03  0.17480370316E+03  0.00000000000E+00 0. -1.
         22    1    3    3    0    0  0.10223175719E+03  0.12102026906E+03 -0.12616725758E+03  0.20252262734E+03  0.00000000000E+00 0. -1.
         22    1    3    3    0    0  0.44060467435E+02  0.19061076873E+02  0.27276613995E+02  0.55214700155E+02  0.00000000000E+00 0. -1.
</event>
<event>
 7    1  0.5789396E-006  0.2266631E+03  0.7818608E-02  0.1153878E+00
          2   -1    0    0  502    0  0.00000000000E+00  0.00000000000E+00  0.95534486494E+03  0.95534486494E+03  0.00000000000E+00 0. -1.
          1   -1    0    0  501    0 -0.00000000000E+00 -0.00000000000E+00 -0.64486152137E+03  0.64486152137E+03  0.00000000000E+00 0. -1.
         25    2    1    2    0    0 -0.16609577521E+03  0.67852515436E+02  0.43217324573E+03  0.48434432393E+03  0.12499575757E+03 0.  0.
          2    1    1    2  501    0  0.21163610298E+03  0.93914772738E+02 -0.58171525267E+03  0.62610099809E+03  0.00000000000E+00 0. -1.
          1    1    1    2  502    0 -0.45540327772E+02 -0.16176728817E+03  0.46002535051E+03  0.48976106428E+03  0.00000000000E+00 0. -1.
         22    1    3    3    0    0 -0.86149944613E+02  0.32622320000E+02  0.35824188912E+03  0.36989630958E+03  0.00000000000E+00 0. -1.
         22    1    3    3    0    0 -0.79945830592E+02  0.35230195437E+02  0.73931356605E+02  0.11444801435E+03  0.00000000000E+00 0. -1.
</event>
<event>
 7    1  0.5789396E-006  0.8067444E+02  0.7818608E-02  0.1489582E+00
          2   -1    0    0  502    0  0.00000000000E+00  0.00000000000E+00  0.77636307375E+02  0.77636307375E+02  0.00000000000E+00 0. -1.
          1   -1    0    0  501    0 -0.00000000000E+00 -0.00000000000E+00 -0.19157441407E+04  0.19157441407E+04  0.00000000000E+00 0. -1.
         25    2    1    2    0    0  0.93426774239E+02 -0.36964730434E+02 -0.11381371372E+04  0.11493806953E+04  0.12499954515E+03 0.  0.
          2    1    1    2  501    0 -0.22533421774E+02 -0.74364250674E+00 -0.74937922704E+03  0.74971830311E+03  0.00000000000E+00 0. -1.
          1    1    1    2  502    0 -0.70893352465E+02  0.37708372941E+02  0.49408530928E+02  0.94281449618E+02  0.00000000000E+00 0. -1.
         22    1    3    3    0    0  0.10852454933E+03 -0.44172988833E+02 -0.11132117984E+04  0.11193611298E+04  0.00000000000E+00 0.  1.
         22    1    3    3    0    0 -0.15097775089E+02  0.72082583992E+01 -0.24925338769E+02  0.30019565529E+02  0.00000000000E+00 0.  1.
</event>
<event>
 7    1  0.5789396E-006  0.1164407E+03  0.7818608E-02  0.1269008E+00
          2   -1    0    0  502    0  0.00000000000E+00  0.00000000000E+00  0.22943781079E+04  0.22943781079E+04  0.00000000000E+00 0. -1.
          1   -1    0    0  501    0 -0.00000000000E+00 -0.00000000000E+00 -0.20847701793E+03  0.20847701793E+03  0.00000000000E+00 0. -1.
         25    2    1    2    0    0 -0.11685046024E+02 -0.19894713793E+03  0.16774838299E+04  0.16938987411E+04  0.12499776621E+03 0.  0.
          2    1    1    2  501    0  0.41493216454E+02  0.10800007780E+03 -0.17936015146E+03  0.21343797167E+03  0.00000000000E+00 0. -1.
          1    1    1    2  502    0 -0.29808170430E+02  0.90947060130E+02  0.58777741153E+03  0.59551841305E+03  0.00000000000E+00 0. -1.
         22    1    3    3    0    0 -0.27240163835E+02 -0.15662201208E+03  0.15596565189E+04  0.15677375220E+04  0.00000000000E+00 0. -1.
         22    1    3    3    0    0  0.15555117810E+02 -0.42325125858E+02  0.11782731101E+03  0.12616121903E+03  0.00000000000E+00 0. -1.
</event>
<event>
 7    1  0.5789396E-006  0.6786822E+02  0.7818608E-02  0.1368791E+00
          2   -1    0    0  502    0  0.00000000000E+00  0.00000000000E+00  0.58512897042E+03  0.58512897042E+03  0.00000000000E+00 0. -1.
          1   -1    0    0  501    0 -0.00000000000E+00 -0.00000000000E+00 -0.28700045492E+03  0.28700045492E+03  0.00000000000E+00 0. -1.
         25    2    1    2    0    0 -0.52431528220E+02  0.19278101277E+02  0.10013582640E+03  0.16962517245E+03  0.12499922023E+03 0.  0.
          2    1    1    2  501    0  0.14284004479E+01 -0.67853191398E+02 -0.24485690844E+03  0.25408857023E+03  0.00000000000E+00 0. -1.
          1    1    1    2  502    0  0.51003127772E+02  0.48575090121E+02  0.44284959753E+03  0.44841568266E+03  0.00000000000E+00 0. -1.
         22    1    3    3    0    0  0.52851878811E+01 -0.40275685617E+02  0.70858483361E+02  0.81676120911E+02  0.00000000000E+00 0.  1.
         22    1    3    3    0    0 -0.57716716101E+02  0.59553786894E+02  0.29277343042E+02  0.87949051538E+02  0.00000000000E+00 0.  1.
</event>
<event>
 7    1  0.5789396E-006  0.8839221E+02  0.7818608E-02  0.1320015E+00
          2   -1    0    0  502    0  0.00000000000E+00  0.00000000000E+00  0.93142767728E+03  0.93142767728E+03  0.00000000000E+00 0. -1.
          1   -1    0    0  501    0 -0.00000000000E+00 -0.00000000000E+00 -0.12224603708E+03  0.12224603708E+03  0.00000000000E+00 0. -1.
         25    2    1    2    0    0 -0.45050460117E+02  0.99519919214E+02  0.10645194599E+03  0.19720772477E+03  0.12500044651E+03 0.  0.
          2    1    1    2  501    0 -0.38294871877E+02 -0.68466252541E+02 -0.53544490630E+02  0.94979668487E+02  0.00000000000E+00 0. -1.
          1    1    1    2  502    0  0.83345331993E+02 -0.31053666674E+02  0.75627418484E+03  0.76148632110E+03  0.00000000000E+00 0. -1.
         22    1    3    3    0    0 -0.84106681684E+02  0.42480252496E+02  0.43787261536E+02  0.10390298373E+03  0.00000000000E+00 0. -1.
         22    1    3    3    0    0  0.39056221568E+02  0.57039666718E+02  0.62664684450E+02  0.93304741035E+02  0.00000000000E+00 0. -1.
</event>
<event>
 7    1  0.5789396E-006  0.1224726E+03  0.7818608E-02  0.1247159E+00
          2   -1    0    0  502    0  0.00000000000E+00  0.00000000000E+00  0.12454116950E+04  0.12454116950E+04  0.00000000000E+00 0. -1.
          1   -1    0    0  501    0 -0.00000000000E+00 -0.00000000000E+00 -0.52923076346E+03  0.52923076346E+03  0.00000000000E+00 0. -1.
         25    2    1    2    0    0  0.80111236167E+02 -0.60877594516E+00  0.57645546649E+03  0.59526857639E+03  0.12500236966E+03 0.  0.
          2    1    1    2  501    0  0.96023931383E+02  0.59313561351E+02 -0.50034684973E+03  0.51291876939E+03  0.00000000000E+00 0. -1.
          1    1    1    2  502    0 -0.17613516755E+03 -0.58704785406E+02  0.64007231479E+03  0.66645511270E+03  0.00000000000E+00 0. -1.
         22    1    3    3    0    0  0.10063504423E+03 -0.34755989588E+02  0.46092577061E+03  0.47306231826E+03  0.00000000000E+00 0. -1.
         22    1    3    3    0    0 -0.20523808062E+02  0.34147213643E+02  0.11552969588E+03  0.12220625813E+03  0.00000000000E+00 0. -1.
</event>
<event>
 7    1  0.5789396E-006  0.1035204E+03  0.7818608E-02  0.1310766E+00
          2   -1    0    0  502    0  0.00000000000E+00  0.00000000000E+00  0.40453390753E+04  0.40453390753E+04  0.00000000000E+00 0. -1.
          1   -1    0    0  501    0 -0.00000000000E+00 -0.00000000000E+00 -0.79178177825E+03  0.79178177825E+03  0.00000000000E+00 0. -1.
         25    2    1    2    0    0 -0.17353733566E+03 -0.23616775266E+02  0.16355849918E+03  0.27027067892E+03  0.12498759253E+03 0.  0.
          2    1    1    2  501    0  0.10152908493E+03  0.12929808112E+02 -0.73453113729E+03  0.74162748511E+03  0.00000000000E+00 0. -1.
          1    1    1    2  502    0  0.72008250725E+02  0.10686967154E+02  0.38245299352E+04  0.38252226895E+04  0.00000000000E+00 0. -1.
         22    1    3    3    0    0 -0.10634288501E+03  0.41744192047E+02  0.54851078444E+02  0.12672816407E+03  0.00000000000E+00 0. -1.
         22    1    3    3    0    0 -0.67194450649E+02 -0.65360967313E+02  0.10870742074E+03  0.14354251485E+03  0.00000000000E+00 0. -1.
</event>
<event>
 7    1  0.5789396E-006  0.1732252E+03  0.7818608E-02  0.1197526E+00
          2   -1    0    0  502    0  0.00000000000E+00  0.00000000000E+00  0.10607485293E+04  0.10607485293E+04  0.00000000000E+00 0. -1.
          1   -1    0    0  501    0 -0.00000000000E+00 -0.00000000000E+00 -0.78554854489E+02  0.78554854489E+02  0.00000000000E+00 0. -1.
         25    2    1    2    0    0 -0.49471341167E+02 -0.62614071583E+02  0.25518309690E+03  0.29513763382E+03  0.12497949590E+03 0.  0.
          2    1    1    2  501    0 -0.65292542031E+02  0.19236859038E+03  0.18362644002E+03  0.27383838315E+03  0.00000000000E+00 0. -1.
          1    1    1    2  502    0  0.11476388320E+03 -0.12975451880E+03  0.54338413794E+03  0.57032736687E+03  0.00000000000E+00 0. -1.
         22    1    3    3    0    0  0.14770388530E+02 -0.80301610077E+02  0.14126806642E+03  0.16316611029E+03  0.00000000000E+00 0. -1.
         22    1    3    3    0    0 -0.64241729697E+02  0.17687538493E+02  0.11391503048E+03  0.13197152353E+03  0.00000000000E+00 0. -1.
</event>
<event>
 7    1  0.5789396E-006  0.1864982E+03  0.7818608E-02  0.1289950E+00
          2   -1    0    0  502    0  0.00000000000E+00  0.00000000000E+00  0.32997439922E+03  0.32997439922E+03  0.00000000000E+00 0. -1.
          1   -1    0    0  501    0 -0.00000000000E+00 -0.00000000000E+00 -0.11155182385E+04  0.11155182385E+04  0.00000000000E+00 0. -1.
         25    2    1    2    0    0  0.19726913147E+03 -0.21489009063E+01 -0.38609097436E+03  0.45123251354E+03  0.12499925113E+03 0.  0.
          2    1    1    2  501    0 -0.17396029781E+02 -0.45755045150E+02 -0.66674477158E+03  0.66853925572E+03  0.00000000000E+00 0. -1.
          1    1    1    2  502    0 -0.17987310169E+03  0.47903946057E+02  0.26729190668E+03  0.32572086844E+03  0.00000000000E+00 0. -1.
         22    1    3    3    0    0  0.55566524292E+02 -0.52704569271E+02 -0.18387796401E+03  0.19918964806E+03  0.00000000000E+00 0.  1.
         22    1    3    3    0    0  0.14170260718E+03  0.50555668364E+02 -0.20221301035E+03  0.25204286548E+03  0.00000000000E+00 0.  1.
</event>
<event>
 7    1  0.5789396E-006  0.7624938E+02  0.7818608E-02  0.1411244E+00
          2   -1    0    0  502    0  0.00000000000E+00  0.00000000000E+00  0.43960334839E+03  0.43960334839E+03  0.00000000000E+00 0. -1.
          1   -1    0    0  501    0 -0.00000000000E+00 -0.00000000000E+00 -0.74185473393E+03  0.74185473393E+03  0.00000000000E+00 0. -1.
         25    2    1    2    0    0 -0.25625318213E+02 -0.27678177466E+02  0.38165971532E+02  0.13603757182E+03  0.12500736427E+03 0.  0.
          2    1    1    2  501    0  0.34087462073E+02  0.69313427353E+02 -0.68947423692E+03  0.69378745279E+03  0.00000000000E+00 0. -1.
          1    1    1    2  502    0 -0.84621438598E+01 -0.41635249887E+02  0.34905687984E+03  0.35163305771E+03  0.00000000000E+00 0. -1.
         22    1    3    3    0    0  0.37322237950E+02 -0.12309258985E+02 -0.24159379693E+02  0.46131799548E+02  0.00000000000E+00 0.  1.
         22    1    3    3    0    0 -0.62947556163E+02 -0.15368918481E+02  0.62325351224E+02  0.89905772270E+02  0.00000000000E+00 0.  1.
</event>
<event>
 7    1  0.5789396E-006  0.5861527E+02  0.7818608E-02  0.1448044E+00
          2   -1    0    0  502    0  0.00000000000E+00  0.00000000000E+00  0.21788349400E+03  0.21788349400E+03  0.00000000000E+00 0. -1.
          1   -1    0    0  501    0 -0.00000000000E+00 -0.00000000000E+00 -0.40680787134E+03  0.40680787134E+03  0.00000000000E+00 0. -1.
         25    2    1    2    0    0 -0.21085066587E+02 -0.92340382596E+02  0.19855108685E+02  0.15808399441E+03  0.12499999063E+03 0.  0.
          2    1    1    2  501    0  0.19927156856E+02  0.36751626685E+02 -0.33031880282E+03  0.33295387840E+03  0.00000000000E+00 0. -1.
          1    1    1    2  502    0  0.11579097311E+01  0.55588755911E+02  0.12153931680E+03  0.13365349254E+03  0.00000000000E+00 0. -1.
         22    1    3    3    0    0  0.35618482759E+02 -0.18539103436E+02 -0.32178004130E+02  0.51456764570E+02  0.00000000000E+00 0.  1.
         22    1    3    3    0    0 -0.56703549345E+02 -0.73801279160E+02  0.52033112815E+02  0.10662722984E+03  0.00000000000E+00 0.  1.
</event>
<event>
 7    1  0.5789396E-006  0.9974742E+02  0.7818608E-02  0.1352401E+00
          2   -1    0    0  502    0  0.00000000000E+00  0.00000000000E+00  0.70443560268E+03  0.70443560268E+03  0.00000000000E+00 0. -1.
          1   -1    0    0  501    0 -0.00000000000E+00 -0.00000000000E+00 -0.49918348632E+03  0.49918348632E+03  0.00000000000E+00 0. -1.
         25    2    1    2    0    0 -0.13651230340E+03 -0.53535372801E+02  0.70246608460E+01  0.19284261037E+03  0.12504911593E+03 0.  0.
          2    1    1    2  501    0  0.40923284786E+02  0.32764380281E+02 -0.40059824466E+03  0.40401382832E+03  0.00000000000E+00 0. -1.
          1    1    1    2  502    0  0.95589018616E+02  0.20770992520E+02  0.59882570018E+03  0.60676265031E+03  0.00000000000E+00 0. -1.
         22    1    3    3    0    0 -0.43713906365E+02 -0.51941760276E+02  0.55906127483E+02  0.87945137219E+02  0.00000000000E+00 0.  1.
         22    1    3    3    0    0 -0.92798397037E+02 -0.15936125245E+01 -0.48881466637E+02  0.10489747315E+03  0.00000000000E+00 0.  1.
</event>
<event>
 7    1  0.5789396E-006  0.1298757E+03  0.7818608E-02  0.1347892E+00
          2   -1    0    0  502    0  0.00000000000E+00  0.00000000000E+00  0.20756166392E+04  0.20756166392E+04  0.00000000000E+00 0. -1.
          1   -1    0    0  501    0 -0.00000000000E+00 -0.00000000000E+00 -0.65612161642E+03  0.65612161642E+03  0.00000000000E+00 0. -1.
         25    2    1    2    0    0 -0.98630054763E+02 -0.95413078102E+02  0.11382356132E+04  0.11532718712E+04  0.12499661802E+03 0.  0.
          2    1    1    2  501    0  0.61372659134E+02  0.11445443648E+03 -0.64162367997E+03  0.65463529390E+03  0.00000000000E+00 0. -1.
          1    1    1    2  502    0  0.37257395630E+02 -0.19041358375E+02  0.92288308955E+03  0.92383109054E+03  0.00000000000E+00 0. -1.
         22    1    3    3    0    0 -0.37703466411E+01 -0.30873896216E+02  0.68615011124E+03  0.68685470672E+03  0.00000000000E+00 0.  1.
         22    1    3    3    0    0 -0.94859708122E+02 -0.64539181886E+02  0.45208550199E+03  0.46641716450E+03  0.00000000000E+00 0.  1.
</event>
<event>
 7    1  0.5789396E-006  0.8072828E+02  0.7818608E-02  0.1360114E+00
          2   -1    0    0  502    0  0.00000000000E+00  0.00000000000E+00  0.74505228009E+03  0.74505228009E+03  0.00000000000E+00 0. -1.
          1   -1    0    0  501    0 -0.00000000000E+00 -0.00000000000E+00 -0.55728203884E+03  0.55728203884E+03  0.00000000000E+00 0. -1.
         25    2    1    2    0    0  0.63461462697E+02  0.11657744284E+03  0.79538989268E+02  0.19892302892E+03  0.12500505268E+03 0.  0.
          2    1    1    2  501    0 -0.87107928492E+01 -0.60058399118E+02 -0.49316698131E+03  0.49688686909E+03  0.00000000000E+00 0. -1.
          1    1    1    2  502    0 -0.54750669848E+02 -0.56519043722E+02  0.60139823330E+03  0.60652442091E+03  0.00000000000E+00 0. -1.
         22    1    3    3    0    0  0.66040577263E+01  0.31505093241E+02  0.90461790321E+02  0.96018331514E+02  0.00000000000E+00 0.  1.
         22    1    3    3    0    0  0.56857404971E+02  0.85072349600E+02 -0.10922801053E+02  0.10290469741E+03  0.00000000000E+00 0.  1.
</event>
<event>
 7    1  0.5789396E-006  0.1038582E+03  0.7818608E-02  0.1307726E+00
          2   -1    0    0  502    0  0.00000000000E+00  0.00000000000E+00  0.86666515388E+03  0.86666515388E+03  0.00000000000E+00 0. -1.
          1   -1    0    0  501    0 -0.00000000000E+00 -0.00000000000E+00 -0.38882593371E+03  0.38882593371E+03  0.00000000000E+00 0. -1.
         25    2    1    2    0    0 -0.16825836701E+02 -0.13108242492E+03 -0.31628516606E+03  0.36486569826E+03  0.12499984237E+03 0.  0.
          2    1    1    2  501    0 -0.26129952438E+02  0.70100258713E+02 -0.16472287041E+02  0.76603896287E+02  0.00000000000E+00 0. -1.
          1    1    1    2  502    0  0.42955789140E+02  0.60982166209E+02  0.81059667327E+03  0.81402149304E+03  0.00000000000E+00 0. -1.
         22    1    3    3    0    0  0.20462464427E+02  0.13967720920E+02 -0.91220331290E+02  0.94524909515E+02  0.00000000000E+00 0. -1.
         22    1    3    3    0    0 -0.37288301128E+02 -0.14505014584E+03 -0.22506483477E+03  0.27034078875E+03  0.00000000000E+00 0. -1.
</event>
<event>
 7    1  0.5789396E-006  0.3624134E+02  0.7818608E-02  0.1597549E+00
          2   -1    0    0  502    0  0.00000000000E+00  0.00000000000E+00  0.98563077122E+03  0.98563077122E+03  0.00000000000E+00 0. -1.
          1   -1    0    0  501    0 -0.00000000000E+00 -0.00000000000E+00 -0.16241211067E+04  0.16241211067E+04  0.00000000000E+00 0. -1.
         25    2    1    2    0    0  0.38038469310E+02 -0.44811279103E+02 -0.90103399706E+01  0.13841980427E+03  0.12499552035E+03 0.  0.
          2    1    1    2  501    0 -0.29028241056E+02  0.21583098092E+02 -0.15500264772E+04  0.15504484993E+04  0.00000000000E+00 0. -1.
          1    1    1    2  502    0 -0.90102282544E+01  0.23228181011E+02  0.92054648169E+03  0.92088357438E+03  0.00000000000E+00 0. -1.
         22    1    3    3    0    0  0.48051401069E+02 -0.39365906950E+02 -0.59885360711E+02  0.86283649681E+02  0.00000000000E+00 0.  1.
         22    1    3    3    0    0 -0.10012931760E+02 -0.54453721531E+01  0.50875020741E+02  0.52136154592E+02  0.00000000000E+00 0.  1.
</event>
<event>
 7    1  0.5789396E-006  0.1300488E+03  0.7818608E-02  0.1372858E+00
          2   -1    0    0  502    0  0.00000000000E+00  0.00000000000E+00  0.24271491031E+04  0.24271491031E+04  0.00000000000E+00 0. -1.
          1   -1    0    0  501    0 -0.00000000000E+00 -0.00000000000E+00 -0.32194999053E+03  0.32194999053E+03  0.00000000000E+00 0. -1.
         25    2    1    2    0    0  0.11251350345E+03  0.10000172147E+03  0.36106474049E+03  0.41067307800E+03  0.12499998964E+03 0.  0.
          2    1    1    2  501    0 -0.22964469532E+01 -0.33802990830E+02 -0.29414797007E+03  0.29609279653E+03  0.00000000000E+00 0. -1.
          1    1    1    2  502    0 -0.11021705650E+03 -0.66198730640E+02  0.20382823422E+04  0.20423332191E+04  0.00000000000E+00 0. -1.
         22    1    3    3    0    0 -0.15521053998E+02 -0.97606901474E+01  0.86738539436E+02  0.88655222140E+02  0.00000000000E+00 0. -1.
         22    1    3    3    0    0  0.12803455745E+03  0.10976241162E+03  0.27432620106E+03  0.32201785586E+03  0.00000000000E+00 0. -1.
</event>
<event>
 7    1  0.5789396E-006  0.1305255E+03  0.7818608E-02  0.1312409E+00
          2   -1    0    0  502    0  0.00000000000E+00  0.00000000000E+00  0.14971236087E+04  0.14971236087E+04  0.00000000000E+00 0. -1.
          1   -1    0    0  501    0 -0.00000000000E+00 -0.00000000000E+00 -0.12108414355E+03  0.12108414355E+03  0.00000000000E+00 0. -1.
         25    2    1    2    0    0  0.27993462451E+02 -0.12343830565E+03  0.76540302564E+02  0.19366130682E+03  0.12500253838E+03 0.  0.
          2    1    1    2  501    0  0.27874292217E+02  0.13413929324E+03  0.13920829063E+02  0.13771025975E+03  0.00000000000E+00 0. -1.
          1    1    1    2  502    0 -0.55867754668E+02 -0.10700987588E+02  0.12855783335E+04  0.12868361857E+04  0.00000000000E+00 0. -1.
         22    1    3    3    0    0 -0.38816293303E+02 -0.19905460782E+02  0.52260694814E+02  0.68074313931E+02  0.00000000000E+00 0.  1.
         22    1    3    3    0    0  0.66809755755E+02 -0.10353284487E+03  0.24279607750E+02  0.12558699289E+03  0.00000000000E+00 0.  1.
</event>
<event>
 7    1  0.5789396E-006  0.1859293E+03  0.7818608E-02  0.1181127E+00
          2   -1    0    0  502    0  0.00000000000E+00  0.00000000000E+00  0.27779638763E+04  0.27779638763E+04  0.00000000000E+00 0. -1.
          1   -1    0    0  501    0 -0.00000000000E+00 -0.00000000000E+00 -0.17699354458E+03  0.17699354458E+03  0.00000000000E+00 0. -1.
         25    2    1    2    0    0  0.62496493458E+02 -0.45287558870E+02  0.21218804851E+03  0.25807844016E+03  0.12499575458E+03 0.  0.
          2    1    1    2  501    0  0.13208775129E+02 -0.14922217581E+03 -0.11222356811E+03  0.18717868130E+03  0.00000000000E+00 0. -1.
          1    1    1    2  502    0 -0.75705268587E+02  0.19450973468E+03  0.25010058513E+04  0.25097002994E+04  0.00000000000E+00 0. -1.
         22    1    3    3    0    0  0.74572842161E+01  0.18509088994E+02 -0.86227089639E+01  0.21738182379E+02  0.00000000000E+00 0.  1.
         22    1    3    3    0    0  0.55039209242E+02 -0.63796647864E+02  0.22081075747E+03  0.23634025778E+03  0.00000000000E+00 0.  1.
</event>
<event>
 7    1  0.5789396E-006  0.6697162E+02  0.7818608E-02  0.1444960E+00
          2   -1    0    0  502    0  0.00000000000E+00  0.00000000000E+00  0.30777043942E+03  0.30777043942E+03  0.00000000000E+00 0. -1.
          1   -1    0    0  501    0 -0.00000000000E+00 -0.00000000000E+00 -0.15386666122E+03  0.15386666122E+03  0.00000000000E+00 0. -1.
         25    2    1    2    0    0  0.32533124958E+02  0.11845935453E+02  0.30397169750E+02  0.13321834431E+03  0.12499763568E+03 0.  0.
          2    1    1    2  501    0  0.27239405166E+02  0.25678907399E+02 -0.93238487385E+02  0.10047291679E+03  0.00000000000E+00 0. -1.
          1    1    1    2  502    0 -0.59772530124E+02 -0.37524842852E+02  0.21674509584E+03  0.22794583953E+03  0.00000000000E+00 0. -1.
         22    1    3    3    0    0 -0.39419155701E+01 -0.37044362756E+02 -0.29658889892E+02  0.47617993028E+02  0.00000000000E+00 0. -1.
         22    1    3    3    0    0  0.36475040528E+02  0.48890298209E+02  0.60056059642E+02  0.85600351285E+02  0.00000000000E+00 0. -1.
</event>
<event>
 7    1  0.5789396E-006  0.8771944E+02  0.7818608E-02  0.1325578E+00
          2   -1    0    0  502    0  0.00000000000E+00  0.00000000000E+00  0.12826846602E+03  0.12826846602E+03  0.00000000000E+00 0. -1.
          1   -1    0    0  501    0 -0.00000000000E+00 -0.00000000000E+00 -0.14979482945E+04  0.14979482945E+04  0.00000000000E+00 0. -1.
         25    2    1    2    0    0 -0.15561787340E+03 -0.42910493890E+02 -0.45414140702E+02  0.20915393514E+03  0.12499876559E+03 0.  0.
          2    1    1    2  501    0  0.81984408169E+02  0.27478640704E+02 -0.13378259818E+04  0.13406173490E+04  0.00000000000E+00 0. -1.
          1    1    1    2  502    0  0.73633465235E+02  0.15431853185E+02  0.13560293963E+02  0.76445476437E+02  0.00000000000E+00 0. -1.
         22    1    3    3    0    0 -0.60902354727E+02  0.74541659843E+01 -0.75932383889E+02  0.97623707802E+02  0.00000000000E+00 0. -1.
         22    1    3    3    0    0 -0.94715518677E+02 -0.50364659874E+02  0.30518243188E+02  0.11153022734E+03  0.00000000000E+00 0. -1.
</event>
<event>
 7    1  0.5789396E-006  0.7046728E+02  0.7818608E-02  0.1426301E+00
          2   -1    0    0  502    0  0.00000000000E+00  0.00000000000E+00  0.24450515299E+03  0.24450515299E+03  0.00000000000E+00 0. -1.
          1   -1    0    0  501    0 -0.00000000000E+00 -0.00000000000E+00 -0.12892758182E+03  0.12892758182E+03  0.00000000000E+00 0. -1.
         25    2    1    2    0    0 -0.16330687729E+02 -0.39903423500E+02  0.17357316812E+02  0.13336020067E+03  0.12499876842E+03 0.  0.
          2    1    1    2  501    0  0.51873006901E+02  0.60216137975E+02 -0.44850760441E+02  0.91259973864E+02  0.00000000000E+00 0. -1.
          1    1    1    2  502    0 -0.35542319172E+02 -0.20312714475E+02  0.14307101480E+03  0.14881256028E+03  0.00000000000E+00 0. -1.
         22    1    3    3    0    0 -0.60401392109E+02 -0.10253488502E+02  0.42530290103E+02  0.74580746654E+02  0.00000000000E+00 0.  1.
         22    1    3    3    0    0  0.44070704381E+02 -0.29649934997E+02 -0.25172973291E+02  0.58779454015E+02  0.00000000000E+00 0.  1.
</event>
<event>
 7    1  0.5789396E-006  0.4820135E+02  0.7818608E-02  0.1462361E+00
          2   -1    0    0  502    0  0.00000000000E+00  0.00000000000E+00  0.13520850457E+04  0.13520850457E+04  0.00000000000E+00 0. -1.
          1   -1    0    0  501    0 -0.00000000000E+00 -0.00000000000E+00 -0.10893246971E+03  0.10893246971E+03  0.00000000000E+00 0. -1.
         25    2    1    2    0    0 -0.69681415171E+02  0.36534994363E+02  0.39073451469E+03  0.41771764725E+03  0.12499706565E+03 0.  0.
          2    1    1    2  501    0  0.47779953903E+02  0.36713879833E+01 -0.88833942416E+02  0.10093499101E+03  0.00000000000E+00 0. -1.
          1    1    1    2  502    0  0.21901461268E+02 -0.40206382346E+02  0.94125200371E+03  0.94236487714E+03  0.00000000000E+00 0. -1.
         22    1    3    3    0    0 -0.68371152375E+02 -0.26774422775E+02  0.12901385343E+03  0.14844547338E+03  0.00000000000E+00 0. -1.
         22    1    3    3    0    0 -0.13102627958E+01  0.63309417138E+02  0.26172066127E+03  0.26927217387E+03  0.00000000000E+00 0. -1.
</event>
<event>
 7    1  0.5789396E-006  0.9088939E+02  0.7818608E-02  0.1342997E+00
          2   -1    0    0  502    0  0.00000000000E+00  0.00000000000E+00  0.51651041779E+03  0.51651041779E+03  0.00000000000E+00 0. -1.
          1   -1    0    0  501    0 -0.00000000000E+00 -0.00000000000E+00 -0.11441864527E+04  0.11441864527E+04  0.00000000000E+00 0. -1.
         25    2    1    2    0    0 -0.96452521675E+02  0.29876172437E+02 -0.65272269601E+02  0.17343354015E+03  0.12499219597E+03 0.  0.
          2    1    1    2  501    0  0.85642249709E+02  0.31536040805E+02 -0.10206861203E+04  0.10247581534E+04  0.00000000000E+00 0. -1.
          1    1    1    2  502    0  0.10810271966E+02 -0.61412213242E+02  0.45828235492E+03  0.46250517699E+03  0.00000000000E+00 0. -1.
         22    1    3    3    0    0  0.16433293965E+02 -0.23909387537E+02  0.58234225187E+01  0.29590948156E+02  0.00000000000E+00 0. -1.
         22    1    3    3    0    0 -0.11288581564E+03  0.53785559974E+02 -0.71095692119E+02  0.14384259200E+03  0.00000000000E+00 0. -1.
</event>
<event>
 7    1  0.5789396E-006  0.8138240E+02  0.7818608E-02  0.1412698E+00
          2   -1    0    0  502    0  0.00000000000E+00  0.00000000000E+00  0.15593680091E+03  0.15593680091E+03  0.00000000000E+00 0. -1.
          1   -1    0    0  501    0 -0.00000000000E+00 -0.00000000000E+00 -0.10878971927E+04  0.10878971927E+04  0.00000000000E+00 0. -1.
         25    2    1    2    0    0  0.12403947771E+00 -0.49360572535E+02 -0.25372754588E+03  0.28712142097E+03  0.12499824531E+03 0.  0.
          2    1    1    2  501    0 -0.19445609631E+02  0.83650634288E+02 -0.81238191408E+03  0.81690876765E+03  0.00000000000E+00 0. -1.
          1    1    1    2  502    0  0.19321570154E+02 -0.34290061752E+02  0.13414906816E+03  0.13980380501E+03  0.00000000000E+00 0. -1.
         22    1    3    3    0    0 -0.14854580353E+02 -0.36647735944E+02 -0.76700153059E+01  0.40280817296E+02  0.00000000000E+00 0.  1.
         22    1    3    3    0    0  0.14978619831E+02 -0.12712836592E+02 -0.24605753058E+03  0.24684060367E+03  0.00000000000E+00 0.  1.
</event>
<event>
 7    1  0.5789396E-006  0.9388660E+02  0.7818608E-02  0.1429039E+00
          2   -1    0    0  502    0  0.00000000000E+00  0.00000000000E+00  0.10924514445E+04  0.10924514445E+04  0.00000000000E+00 0. -1.
          1   -1    0    0  501    0 -0.00000000000E+00 -0.00000000000E+00 -0.11373580004E+03  0.11373580004E+03  0.00000000000E+00 0. -1.
         25    2    1    2    0    0 -0.63471929658E+02 -0.20546361870E+02  0.60701846686E+02  0.15414473966E+03  0.12500019093E+03 0.  0.
          2    1    1    2  501    0 -0.22996144303E+02 -0.19409828549E+02 -0.61204454855E+02  0.68202268226E+02  0.00000000000E+00 0. -1.
          1    1    1    2  502    0  0.86468073961E+02  0.39956190418E+02  0.97921825263E+03  0.98384023665E+03  0.00000000000E+00 0. -1.
         22    1    3    3    0    0  0.98854582614E+01  0.37164826047E+02 -0.66715568695E+01  0.39031477696E+02  0.00000000000E+00 0. -1.
         22    1    3    3    0    0 -0.73357387920E+02 -0.57711187916E+02  0.67373403555E+02  0.11511326196E+03  0.00000000000E+00 0. -1.
</event>
<event>
 7    1  0.5789396E-006  0.7140916E+02  0.7818608E-02  0.1445847E+00
          2   -1    0    0  502    0  0.00000000000E+00  0.00000000000E+00  0.27214983800E+04  0.27214983800E+04  0.00000000000E+00 0. -1.
          1   -1    0    0  501    0 -0.00000000000E+00 -0.00000000000E+00 -0.10297915853E+04  0.10297915853E+04  0.00000000000E+00 0. -1.
         25    2    1    2    0    0  0.57193429827E+02  0.77366042741E+01  0.19043490952E+03  0.23499271849E+03  0.12500071807E+03 0.  0.
          2    1    1    2  501    0 -0.57454988308E+02 -0.42614183830E+02 -0.10061215191E+04  0.10086612690E+04  0.00000000000E+00 0. -1.
          1    1    1    2  502    0  0.26155848140E+00  0.34877579556E+02  0.25073934043E+04  0.25076359779E+04  0.00000000000E+00 0. -1.
         22    1    3    3    0    0 -0.39762093284E+02 -0.25536573530E+01  0.47978875097E+02  0.62365997817E+02  0.00000000000E+00 0.  1.
         22    1    3    3    0    0  0.96955523111E+02  0.10290261627E+02  0.14245603443E+03  0.17262672067E+03  0.00000000000E+00 0.  1.
</event>
<event>
 7    1  0.5789396E-006  0.6114903E+02  0.7818608E-02  0.1547684E+00
          2   -1    0    0  502    0  0.00000000000E+00  0.00000000000E+00  0.22981308711E+04  0.22981308711E+04  0.00000000000E+00 0. -1.
          1   -1    0    0  501    0 -0.00000000000E+00 -0.00000000000E+00 -0.99716841326E+02  0.99716841326E+02  0.00000000000E+00 0. -1.
         25    2    1    2    0    0  0.35671527090E+02 -0.34283641563E+02  0.59308369182E+03  0.60812947336E+03  0.12500145975E+03 0.  0.
          2    1    1    2  501    0  0.19404605564E+02  0.54357874648E+01 -0.90516261175E+02  0.92732303107E+02  0.00000000000E+00 0. -1.
          1    1    1    2  502    0 -0.55076132654E+02  0.28847854098E+02  0.16958465991E+04  0.16969859360E+04  0.00000000000E+00 0. -1.
         22    1    3    3    0    0 -0.33128953770E+02  0.23488703272E+02  0.25956153978E+03  0.26271931732E+03  0.00000000000E+00 0.  1.
         22    1    3    3    0    0  0.68800480861E+02 -0.57772344835E+02  0.33352215205E+03  0.34541015605E+03  0.00000000000E+00 0.  1.
</event>
<event>
 7    1  0.5789396E-006  0.8926561E+02  0.7818608E-02  0.1370277E+00
          2   -1    0    0  502    0  0.00000000000E+00  0.00000000000E+00  0.37501812848E+03  0.37501812848E+03  0.00000000000E+00 0. -1.
          1   -1    0    0  501    0 -0.00000000000E+00 -0.00000000000E+00 -0.93034565888E+03  0.93034565888E+03  0.00000000000E+00 0. -1.
         25    2    1    2    0    0  0.11636469005E+03 -0.64964995494E+02 -0.27362756705E+03  0.32902636935E+03  0.12500045819E+03 0.  0.
          2    1    1    2  501    0 -0.68007669498E+02  0.50676509623E+02 -0.62430602982E+03  0.63004061028E+03  0.00000000000E+00 0. -1.
          1    1    1    2  502    0 -0.48357020553E+02  0.14288485872E+02  0.34260606646E+03  0.34629680773E+03  0.00000000000E+00 0. -1.
         22    1    3    3    0    0  0.78337469565E+02 -0.10173175980E+03 -0.17422615568E+03  0.21642750151E+03  0.00000000000E+00 0.  1.
         22    1    3    3    0    0  0.38027220486E+02  0.36766764305E+02 -0.99401411375E+02  0.11259886784E+03  0.00000000000E+00 0.  1.
</event>
<event>
 7    1  0.8428495E-006  0.8881029E+02  0.7818608E-02  0.1337863E+00
          2   -1    0    0  502    0  0.00000000000E+00  0.00000000000E+00  0.12389272895E+04  0.12389272895E+04  0.00000000000E+00 0. -1.
          1   -1    0    0  501    0 -0.00000000000E+00 -0.00000000000E+00 -0.66739499613E+03  0.66739499613E+03  0.00000000000E+00 0. -1.
         25    2    1    2    0    0  0.59524765071E+02 -0.42034074896E+02 -0.26548292799E+03  0.30235328798E+03  0.12500505826E+03 0.  0.
          2    1    1    2  501    0 -0.22153974903E+02  0.97301183373E+02 -0.37605259264E+03  0.38906795206E+03  0.00000000000E+00 0. -1.
          1    1    1    2  502    0 -0.37370790168E+02 -0.55267108477E+02  0.12130678140E+04  0.12149010456E+04  0.00000000000E+00 0. -1.
         22    1    3    3    0    0  0.23227851544E+01  0.72430466982E+01 -0.20625096822E+03  0.20639117943E+03  0.00000000000E+00 0. -1.
         22    1    3    3    0    0  0.57201979917E+02 -0.49277121595E+02 -0.59231959776E+02  0.95962108553E+02  0.00000000000E+00 0. -1.
</event>
<event>
 7    1  0.5789396E-006  0.4340457E+02  0.7818608E-02  0.1581829E+00
          2   -1    0    0  502    0  0.00000000000E+00  0.00000000000E+00  0.97419791303E+02  0.97419791303E+02  0.00000000000E+00 0. -1.
          1   -1    0    0  501    0 -0.00000000000E+00 -0.00000000000E+00 -0.16724363822E+03  0.16724363822E+03  0.00000000000E+00 0. -1.
         25    2    1    2    0    0  0.11176455221E+02 -0.23086423243E+02 -0.47635710442E+02  0.13621622769E+03  0.12501121424E+03 0.  0.
          2    1    1    2  501    0  0.21018770316E+02 -0.90778431338E+01 -0.63178742022E+02  0.67199325778E+02  0.00000000000E+00 0. -1.
          1    1    1    2  502    0 -0.32195225537E+02  0.32164266377E+02  0.40990605544E+02  0.61247876059E+02  0.00000000000E+00 0. -1.
         22    1    3    3    0    0 -0.53582400694E+00 -0.62410893961E+02 -0.66373175724E+02  0.91108755057E+02  0.00000000000E+00 0.  1.
         22    1    3    3    0    0  0.11712279228E+02  0.39324470718E+02  0.18737465282E+02  0.45107472631E+02  0.00000000000E+00 0.  1.
</event>
<event>
 7    1  0.5789396E-006  0.1285624E+03  0.7818608E-02  0.1254415E+00
          2   -1    0    0  502    0  0.00000000000E+00  0.00000000000E+00  0.69484895674E+03  0.69484895674E+03  0.00000000000E+00 0. -1.
          1   -1    0    0  501    0 -0.00000000000E+00 -0.00000000000E+00 -0.51196499743E+03  0.51196499743E+03  0.00000000000E+00 0. -1.
         25    2    1    2    0    0  0.18376776037E+03  0.11760823734E+03  0.16431943431E+03  0.30038605846E+03  0.12501448071E+03 0.  0.
          2    1    1    2  501    0 -0.87167328304E+02 -0.49030501480E+02 -0.43051830159E+03  0.44198205982E+03  0.00000000000E+00 0. -1.
          1    1    1    2  502    0 -0.96600432066E+02 -0.68577735857E+02  0.44908282659E+03  0.46444583588E+03  0.00000000000E+00 0. -1.
         22    1    3    3    0    0  0.13344856462E+03  0.11299659841E+03  0.60691806120E+02  0.18509523490E+03  0.00000000000E+00 0.  1.
         22    1    3    3    0    0  0.50319195748E+02  0.46116389262E+01  0.10362762819E+03  0.11529082357E+03  0.00000000000E+00 0.  1.
</event>
<event>
 7    1  0.5789396E-006  0.6734616E+02  0.7818608E-02  0.1512712E+00
          2   -1    0    0  502    0  0.00000000000E+00  0.00000000000E+00  0.11568616888E+04  0.11568616888E+04  0.00000000000E+00 0. -1.
          1   -1    0    0  501    0 -0.00000000000E+00 -0.00000000000E+00 -0.19752677802E+03  0.19752677802E+03  0.00000000000E+00 0. -1.
         25    2    1    2    0    0  0.14951433737E+02  0.45464389977E+02  0.95083485009E+03  0.96020980359E+03  0.12500159449E+03 0.  0.
          2    1    1    2  501    0 -0.34168666761E+02 -0.58182424745E+02 -0.18623686632E+03  0.19808296927E+03  0.00000000000E+00 0. -1.
          1    1    1    2  502    0  0.19217233024E+02  0.12718034768E+02  0.19473692700E+03  0.19609569397E+03  0.00000000000E+00 0. -1.
         22    1    3    3    0    0 -0.17176764215E+02  0.18863666927E+02  0.85863341769E+03  0.85901235447E+03  0.00000000000E+00 0. -1.
         22    1    3    3    0    0  0.32128197953E+02  0.26600723050E+02  0.92201432410E+02  0.10119744912E+03  0.00000000000E+00 0. -1.
</event>
<event>
 7    1  0.5789396E-006  0.1678178E+03  0.7818608E-02  0.1215696E+00
          2   -1    0    0  502    0  0.00000000000E+00  0.00000000000E+00  0.17576134722E+04  0.17576134722E+04  0.00000000000E+00 0. -1.
          1   -1    0    0  501    0 -0.00000000000E+00 -0.00000000000E+00 -0.14382260070E+03  0.14382260070E+03  0.00000000000E+00 0. -1.
         25    2    1    2    0    0 -0.19884445932E+02 -0.19729557176E+03  0.59428842952E+03  0.63884656907E+03  0.12500107007E+03 0.  0.
          2    1    1    2  501    0 -0.89162789630E+02  0.70876366401E+02 -0.87148093827E+02  0.14341636108E+03  0.00000000000E+00 0. -1.
          1    1    1    2  502    0  0.10904723556E+03  0.12641920535E+03  0.11066505358E+04  0.11191731428E+04  0.00000000000E+00 0. -1.
         22    1    3    3    0    0 -0.58817322365E+02 -0.15101854597E+03  0.32899681076E+03  0.36674920604E+03  0.00000000000E+00 0. -1.
         22    1    3    3    0    0  0.38932876433E+02 -0.46277025782E+02  0.26529161876E+03  0.27209736303E+03  0.00000000000E+00 0. -1.
</event>
<event>
 7    1  0.5789396E-006  0.1765534E+03  0.7818608E-02  0.1395640E+00
          2   -1    0    0  502    0  0.00000000000E+00  0.00000000000E+00  0.12624326399E+04  0.12624326399E+04  0.00000000000E+00 0. -1.
          1   -1    0    0  501    0 -0.00000000000E+00 -0.00000000000E+00 -0.14578772999E+04  0.14578772999E+04  0.00000000000E+00 0. -1.
         25    2    1    2    0    0 -0.82477060441E+02  0.17208154156E+03  0.17335646273E+03  0.28652114594E+03  0.12500952545E+03 0.  0.
          2    1    1    2  501    0  0.63155554438E+02 -0.16451828766E+03 -0.13956493463E+04  0.14067309582E+04  0.00000000000E+00 0. -1.
          1    1    1    2  502    0  0.19321506003E+02 -0.75632538910E+01  0.10268482236E+04  0.10270578357E+04  0.00000000000E+00 0. -1.
         22    1    3    3    0    0 -0.50072017725E+02  0.18533850101E+03  0.15636670899E+03  0.24760475479E+03  0.00000000000E+00 0.  1.
         22    1    3    3    0    0 -0.32405042716E+02 -0.13256959455E+02  0.16989753743E+02  0.38916391143E+02  0.00000000000E+00 0.  1.
</event>
<event>
 7    1  0.5789396E-006  0.9401443E+02  0.7818608E-02  0.1394792E+00
          2   -1    0    0  502    0  0.00000000000E+00  0.00000000000E+00  0.38364825021E+03  0.38364825021E+03  0.00000000000E+00 0. -1.
          1   -1    0    0  501    0 -0.00000000000E+00 -0.00000000000E+00 -0.12968604013E+04  0.12968604013E+04  0.00000000000E+00 0. -1.
         25    2    1    2    0    0  0.65062283052E+02  0.53825926786E+01 -0.41311251565E+03  0.43651934609E+03  0.12500046379E+03 0.  0.
          2    1    1    2  501    0  0.26406411588E+02 -0.29011991803E+02 -0.86559424755E+03  0.86648277284E+03  0.00000000000E+00 0. -1.
          1    1    1    2  502    0 -0.91468694641E+02  0.23629399124E+02  0.36549461215E+03  0.37750653254E+03  0.00000000000E+00 0. -1.
         22    1    3    3    0    0  0.70125208401E+02  0.35852131908E+02 -0.39018026258E+03  0.39804969227E+03  0.00000000000E+00 0.  1.
         22    1    3    3    0    0 -0.50629253483E+01 -0.30469539230E+02 -0.22932253075E+02  0.38469653820E+02  0.00000000000E+00 0.  1.
</event>
<event>
 7    1  0.5789396E-006  0.9459906E+02  0.7818608E-02  0.1308158E+00
          2   -1    0    0  502    0  0.00000000000E+00  0.00000000000E+00  0.23161033420E+03  0.23161033420E+03  0.00000000000E+00 0. -1.
          1   -1    0    0  501    0 -0.00000000000E+00 -0.00000000000E+00 -0.47172476345E+03  0.47172476345E+03  0.00000000000E+00 0. -1.
         25    2    1    2    0    0  0.41433232910E+02 -0.13938412379E+03 -0.20799880685E+03  0.28290434182E+03  0.12500686467E+03 0.  0.
          2    1    1    2  501    0 -0.61414129643E+02  0.60297207435E+02 -0.20879046116E+03  0.22583379998E+03  0.00000000000E+00 0. -1.
          1    1    1    2  502    0  0.19980896733E+02  0.79086916358E+02  0.17667483876E+03  0.19459695585E+03  0.00000000000E+00 0. -1.
         22    1    3    3    0    0 -0.11085128905E+02  0.20450285467E+02 -0.20696072924E+02  0.31135537461E+02  0.00000000000E+00 0.  1.
         22    1    3    3    0    0  0.52518361816E+02 -0.15983440926E+03 -0.18730273393E+03  0.25176880436E+03  0.00000000000E+00 0.  1.
</event>
<event>
 7    1  0.5789396E-006  0.4707904E+02  0.7818608E-02  0.1532444E+00
          2   -1    0    0  502    0  0.00000000000E+00  0.00000000000E+00  0.22073644613E+03  0.22073644613E+03  0.00000000000E+00 0. -1.
          1   -1    0    0  501    0 -0.00000000000E+00 -0.00000000000E+00 -0.58326962222E+03  0.58326962222E+03  0.00000000000E+00 0. -1.
         25    2    1    2    0    0  0.18161119504E+02 -0.72845727636E+01 -0.13050400353E+03  0.18176541180E+03  0.12499791490E+03 0.  0.
          2    1    1    2  501    0  0.20786250702E+02 -0.20083478704E+02 -0.42373181502E+03  0.42471645294E+03  0.00000000000E+00 0. -1.
          1    1    1    2  502    0 -0.38947370205E+02  0.27368051468E+02  0.19170264246E+03  0.19752420361E+03  0.00000000000E+00 0. -1.
         22    1    3    3    0    0 -0.92364825237E+01  0.21684845911E+02  0.16939445289E+02  0.29025677568E+02  0.00000000000E+00 0.  1.
         22    1    3    3    0    0  0.27397602027E+02 -0.28969418674E+02 -0.14744344882E+03  0.15273973424E+03  0.00000000000E+00 0.  1.
</event>
<event>
 7    1  0.5789396E-006  0.1019454E+03  0.7818608E-02  0.1349872E+00
          2   -1    0    0  502    0  0.00000000000E+00  0.00000000000E+00  0.81274965480E+03  0.81274965480E+03  0.00000000000E+00 0. -1.
          1   -1    0    0  501    0 -0.00000000000E+00 -0.00000000000E+00 -0.65786838818E+03  0.65786838818E+03  0.00000000000E+00 0. -1.
         25    2    1    2    0    0  0.85449072947E+02 -0.10600272612E+03  0.10021080599E+03  0.21025037878E+03  0.12499957651E+03 0.  0.
          2    1    1    2  501    0 -0.34149389097E+02  0.95271726135E+02 -0.59754229343E+03  0.60605253486E+03  0.00000000000E+00 0. -1.
          1    1    1    2  502    0 -0.51299683850E+02  0.10730999982E+02  0.65221275406E+03  0.65431512934E+03  0.00000000000E+00 0. -1.
         22    1    3    3    0    0  0.66571451271E+02  0.65381304620E+01  0.16992828241E+02  0.69016385633E+02  0.00000000000E+00 0. -1.
         22    1    3    3    0    0  0.18877621676E+02 -0.11254085658E+03  0.83217977750E+02  0.14123399315E+03  0.00000000000E+00 0. -1.
</event>
<event>
 7    1  0.5789396E-006  0.1443300E+03  0.7818608E-02  0.1353394E+00
          2   -1    0    0  502    0  0.00000000000E+00  0.00000000000E+00  0.11387402842E+04  0.11387402842E+04  0.00000000000E+00 0. -1.
          1   -1    0    0  501    0 -0.00000000000E+00 -0.00000000000E+00 -0.42328270876E+03  0.42328270876E+03  0.00000000000E+00 0. -1.
         25    2    1    2    0    0  0.63391837654E+02  0.14183662651E+03  0.31735147954E+01  0.19942939516E+03  0.12500343498E+03 0.  0.
          2    1    1    2  501    0 -0.27491419612E+02 -0.14048032585E+03 -0.30906920431E+03  0.34060868039E+03  0.00000000000E+00 0. -1.
          1    1    1    2  502    0 -0.35900418042E+02 -0.13563006591E+01  0.10213532649E+04  0.10219849174E+04  0.00000000000E+00 0. -1.
         22    1    3    3    0    0  0.55828127782E+02  0.20858880901E+02 -0.38844803941E+02  0.71139240629E+02  0.00000000000E+00 0. -1.
         22    1    3    3    0    0  0.75637098729E+01  0.12097774561E+03  0.42018318737E+02  0.12829015453E+03  0.00000000000E+00 0. -1.
</event>
<event>
 7    1  0.5789396E-006  0.1373620E+03  0.7818608E-02  0.1266113E+00
          2   -1    0    0  502    0  0.00000000000E+00  0.00000000000E+00  0.79021830583E+03  0.79021830583E+03  0.00000000000E+00 0. -1.
          1   -1    0    0  501    0 -0.00000000000E+00 -0.00000000000E+00 -0.14944991760E+04  0.14944991760E+04  0.00000000000E+00 0. -1.
         25    2    1    2    0    0 -0.17029030214E+03  0.13846174698E+03 -0.96651125576E+03  0.99896926411E+03  0.12500056297E+03 0.  0.
          2    1    1    2  501    0  0.58527710809E+02 -0.59474180507E+02 -0.50223987565E+03  0.50912431072E+03  0.00000000000E+00 0. -1.
          1    1    1    2  502    0  0.11176259133E+03 -0.78987566476E+02  0.76447026128E+03  0.77662390696E+03  0.00000000000E+00 0. -1.
         22    1    3    3    0    0  0.19706425885E+02  0.87538166199E+01 -0.11050526778E+03  0.11258946102E+03  0.00000000000E+00 0. -1.
         22    1    3    3    0    0 -0.18999672802E+03  0.12970793036E+03 -0.85600598798E+03  0.88637980308E+03  0.00000000000E+00 0. -1.
</event>
<event>
 7    1  0.5789396E-006  0.3101912E+02  0.7818608E-02  0.1629117E+00
          2   -1    0    0  502    0  0.00000000000E+00  0.00000000000E+00  0.17658975609E+04  0.17658975609E+04  0.00000000000E+00 0. -1.
          1   -1    0    0  501    0 -0.00000000000E+00 -0.00000000000E+00 -0.34689775740E+03  0.34689775740E+03  0.00000000000E+00 0. -1.
         25    2    1    2    0    0  0.46588458913E+01 -0.37046189191E+02 -0.14024073776E+03  0.19153616039E+03  0.12499804492E+03 0.  0.
          2    1    1    2  501    0 -0.22835968996E+02  0.21144548396E+02 -0.17958709292E+03  0.18226381251E+03  0.00000000000E+00 0. -1.
          1    1    1    2  502    0  0.18177123105E+02  0.15901640796E+02  0.17388276342E+04  0.17389953454E+04  0.00000000000E+00 0. -1.
         22    1    3    3    0    0 -0.49607322870E+02  0.15985269036E+02 -0.75794032618E+02  0.91984513310E+02  0.00000000000E+00 0.  1.
         22    1    3    3    0    0  0.54266168761E+02 -0.53031458227E+02 -0.64446705138E+02  0.99551647083E+02  0.00000000000E+00 0.  1.
</event>
<event>
 7    1  0.5789396E-006  0.9866854E+02  0.7818608E-02  0.1365448E+00
          2   -1    0    0  502    0  0.00000000000E+00  0.00000000000E+00  0.13369689242E+02  0.13369689242E+02  0.00000000000E+00 0. -1.
          1   -1    0    0  501    0 -0.00000000000E+00 -0.00000000000E+00 -0.25608983575E+04  0.25608983575E+04  0.00000000000E+00 0. -1.
         25    2    1    2    0    0  0.11342863457E+03  0.13299950418E+02 -0.13428639869E+04  0.13534959919E+04  0.12499907576E+03 0.  0.
          2    1    1    2  501    0 -0.81920519983E+02 -0.48825287234E+02 -0.11170788964E+04  0.11211423376E+04  0.00000000000E+00 0. -1.
          1    1    1    2  502    0 -0.31508114588E+02  0.35525336816E+02 -0.87585784926E+02  0.99629717262E+02  0.00000000000E+00 0. -1.
         22    1    3    3    0    0  0.11878445421E+03 -0.16049680650E+02 -0.12548756167E+04  0.12605872252E+04  0.00000000000E+00 0. -1.
         22    1    3    3    0    0 -0.53558196414E+01  0.29349631068E+02 -0.87988370136E+02  0.92908766686E+02  0.00000000000E+00 0. -1.
</event>
<event>
 7    1  0.5789396E-006  0.3569017E+02  0.7818608E-02  0.1560044E+00
          2   -1    0    0  502    0  0.00000000000E+00  0.00000000000E+00  0.11723528834E+04  0.11723528834E+04  0.00000000000E+00 0. -1.
          1   -1    0    0  501    0 -0.00000000000E+00 -0.00000000000E+00 -0.26945667893E+02  0.26945667893E+02  0.00000000000E+00 0. -1.
         25    2    1    2    0    0  0.15543280402E+02  0.11599432239E+02  0.84706746434E+03  0.85646021860E+03  0.12499870597E+03 0.  0.
          2    1    1    2  501    0  0.52733618799E+01 -0.35776975612E+02 -0.61490965152E+01  0.36682580572E+02  0.00000000000E+00 0. -1.
          1    1    1    2  502    0 -0.20816642282E+02  0.24177543373E+02  0.30448884769E+03  0.30615575214E+03  0.00000000000E+00 0. -1.
         22    1    3    3    0    0  0.12562163783E+02 -0.68522358485E+01  0.65540627865E+01  0.15739022652E+02  0.00000000000E+00 0.  1.
         22    1    3    3    0    0  0.29811166191E+01  0.18451668088E+02  0.84051340156E+03  0.84072119594E+03  0.00000000000E+00 0.  1.
</event>
<event>
 7    1  0.5789396E-006  0.5948237E+02  0.7818608E-02  0.1472628E+00
          2   -1    0    0  502    0  0.00000000000E+00  0.00000000000E+00  0.47245981549E+03  0.47245981549E+03  0.00000000000E+00 0. -1.
          1   -1    0    0  501    0 -0.00000000000E+00 -0.00000000000E+00 -0.47908995571E+02  0.47908995571E+02  0.00000000000E+00 0. -1.
         25    2    1    2    0    0  0.48964198112E+02 -0.62483123081E+02  0.22937837400E+03  0.27302328581E+03  0.12500257105E+03 0.  0.
          2    1    1    2  501    0  0.44021239812E+00  0.34459372011E+02 -0.88367232010E+01  0.35577096330E+02  0.00000000000E+00 0. -1.
          1    1    1    2  502    0 -0.49404410511E+02  0.28023751070E+02  0.20400916913E+03  0.21176842893E+03  0.00000000000E+00 0. -1.
         22    1    3    3    0    0 -0.19345399639E+01 -0.67721402020E+02  0.20583730348E+03  0.21670008362E+03  0.00000000000E+00 0. -1.
         22    1    3    3    0    0  0.50898738076E+02  0.52382789390E+01  0.23541070518E+02  0.56323202192E+02  0.00000000000E+00 0. -1.
</event>
<event>
 7    1  0.5789396E-006  0.7054178E+02  0.7818608E-02  0.1371547E+00
          2   -1    0    0  502    0  0.00000000000E+00  0.00000000000E+00  0.51736214890E+04  0.51736214890E+04  0.00000000000E+00 0. -1.
          1   -1    0    0  501    0 -0.00000000000E+00 -0.00000000000E+00 -0.14706149609E+02  0.14706149609E+02  0.00000000000E+00 0. -1.
         25    2    1    2    0    0  0.11737100327E+03  0.46213198023E+02  0.11015898089E+04  0.11158116736E+04  0.12499588714E+03 0.  0.
          2    1    1    2  501    0 -0.61347749511E+02 -0.17088729177E+02  0.13076487059E+03  0.14544766212E+03  0.00000000000E+00 0. -1.
          1    1    1    2  502    0 -0.56023253761E+02 -0.29124468847E+02  0.39265606599E+04  0.39270683029E+04  0.00000000000E+00 0. -1.
         22    1    3    3    0    0  0.66728861718E+02  0.87760966432E+02  0.76544586858E+03  0.77334475232E+03  0.00000000000E+00 0. -1.
         22    1    3    3    0    0  0.50642141554E+02 -0.41547768409E+02  0.33614394029E+03  0.34246692126E+03  0.00000000000E+00 0. -1.
</event>
<event>
 7    1  0.5789396E-006  0.9475225E+02  0.7818608E-02  0.1373296E+00
          2   -1    0    0  502    0  0.00000000000E+00  0.00000000000E+00  0.48723359312E+03  0.48723359312E+03  0.00000000000E+00 0. -1.
          1   -1    0    0  501    0 -0.00000000000E+00 -0.00000000000E+00 -0.45228295386E+03  0.45228295386E+03  0.00000000000E+00 0. -1.
         25    2    1    2    0    0  0.58819588231E+02  0.12172932773E+03 -0.93159736116E+02  0.20635340122E+03  0.12500086628E+03 0.  0.
          2    1    1    2  501    0 -0.46506742933E+02 -0.77060907358E+02 -0.29453747441E+03  0.30798309111E+03  0.00000000000E+00 0. -1.
          1    1    1    2  502    0 -0.12312845299E+02 -0.44668420370E+02  0.42264784979E+03  0.42518005464E+03  0.00000000000E+00 0. -1.
         22    1    3    3    0    0 -0.13513289060E+02  0.83848998716E+02 -0.33816009021E+01  0.84998228167E+02  0.00000000000E+00 0. -1.
         22    1    3    3    0    0  0.72332877291E+02  0.37880329011E+02 -0.89778135214E+02  0.12135517305E+03  0.00000000000E+00 0. -1.
</event>
<event>
 7    1  0.5789396E-006  0.8049970E+02  0.7818608E-02  0.1391455E+00
          2   -1    0    0  502    0  0.00000000000E+00  0.00000000000E+00  0.17580956926E+04  0.17580956926E+04  0.00000000000E+00 0. -1.
          1   -1    0    0  501    0 -0.00000000000E+00 -0.00000000000E+00 -0.21174717691E+03  0.21174717691E+03  0.00000000000E+00 0. -1.
         25    2    1    2    0    0  0.60971472899E+02 -0.95095005157E+02  0.22079275573E+03  0.27773003211E+03  0.12499579688E+03 0.  0.
          2    1    1    2  501    0  0.23819455346E+01  0.46995127685E+02 -0.17919035724E+03  0.18526575457E+03  0.00000000000E+00 0. -1.
          1    1    1    2  502    0 -0.63353418434E+02  0.48099877473E+02  0.15047461172E+04  0.15068470828E+04  0.00000000000E+00 0. -1.
         22    1    3    3    0    0  0.46304970260E+02 -0.10656760331E+03  0.22945195656E+03  0.25719448811E+03  0.00000000000E+00 0. -1.
         22    1    3    3    0    0  0.14666502640E+02  0.11472598153E+02 -0.86592008327E+01  0.20535543994E+02  0.00000000000E+00 0. -1.
</event>
<event>
 7    1  0.5789396E-006  0.1089657E+03  0.7818608E-02  0.1276904E+00
          2   -1    0    0  502    0  0.00000000000E+00  0.00000000000E+00  0.16008199895E+04  0.16008199895E+04  0.00000000000E+00 0. -1.
          1   -1    0    0  501    0 -0.00000000000E+00 -0.00000000000E+00 -0.11268585126E+04  0.11268585126E+04  0.00000000000E+00 0. -1.
         25    2    1    2    0    0 -0.12964089244E+03 -0.10615336513E+03  0.71837260573E+03  0.74816975134E+03  0.12499391278E+03 0.  0.
          2    1    1    2  501    0  0.94046278734E+02  0.11847102708E+02 -0.11069996719E+04  0.11110505524E+04  0.00000000000E+00 0. -1.
          1    1    1    2  502    0  0.35594613704E+02  0.94306262422E+02  0.86258854310E+03  0.86845819838E+03  0.00000000000E+00 0. -1.
         22    1    3    3    0    0  0.80055741135E+01  0.20456357609E+02  0.80935399906E+02  0.83863524499E+02  0.00000000000E+00 0. -1.
         22    1    3    3    0    0 -0.13764646655E+03 -0.12660972274E+03  0.63743720583E+03  0.66430622684E+03  0.00000000000E+00 0. -1.
</event>
<event>
 7    1  0.5789396E-006  0.4467391E+02  0.7818608E-02  0.1566566E+00
          2   -1    0    0  502    0  0.00000000000E+00  0.00000000000E+00  0.67671410419E+03  0.67671410419E+03  0.00000000000E+00 0. -1.
          1   -1    0    0  501    0 -0.00000000000E+00 -0.00000000000E+00 -0.15572336602E+03  0.15572336602E+03  0.00000000000E+00 0. -1.
         25    2    1    2    0    0 -0.17921729759E+02  0.63520900524E+02  0.35720955440E+00  0.14134772637E+03  0.12499183553E+03 0.  0.
          2    1    1    2  501    0 -0.29486577767E+01 -0.24282228560E+02 -0.82638605320E+02  0.86182714599E+02  0.00000000000E+00 0. -1.
          1    1    1    2  502    0  0.20870387536E+02 -0.39238671965E+02  0.60327213393E+03  0.60490702925E+03  0.00000000000E+00 0. -1.
         22    1    3    3    0    0  0.36851899227E+01  0.47291060988E+02  0.59635784446E+02  0.76200077826E+02  0.00000000000E+00 0. -1.
         22    1    3    3    0    0 -0.21606919682E+02  0.16229839536E+02 -0.59278574892E+02  0.65147648543E+02  0.00000000000E+00 0. -1.
</event>
<event>
 7    1  0.5789396E-006  0.7817947E+02  0.7818608E-02  0.1403132E+00
          2   -1    0    0  502    0  0.00000000000E+00  0.00000000000E+00  0.22810576956E+03  0.22810576956E+03  0.00000000000E+00 0. -1.
          1   -1    0    0  501    0 -0.00000000000E+00 -0.00000000000E+00 -0.55210153197E+03  0.55210153197E+03  0.00000000000E+00 0. -1.
         25    2    1    2    0    0 -0.11105628001E+03  0.44194747644E+02 -0.72664938901E+02  0.18759545621E+03  0.12500075519E+03 0.  0.
          2    1    1    2  501    0  0.39907064007E+02 -0.18900901253E+02 -0.41238074541E+03  0.41473810653E+03  0.00000000000E+00 0. -1.
          1    1    1    2  502    0  0.71149215999E+02 -0.25293846391E+02  0.16104992190E+03  0.17787373878E+03  0.00000000000E+00 0. -1.
         22    1    3    3    0    0  0.23639244717E+02  0.11023021870E+02  0.78042042671E+01  0.27225475316E+02  0.00000000000E+00 0. -1.
         22    1    3    3    0    0 -0.13469552472E+03  0.33171725774E+02 -0.80469143168E+02  0.16036998090E+03  0.00000000000E+00 0. -1.
</event>
<event>
 7    1  0.5789396E-006  0.4603757E+02  0.7818608E-02  0.1489989E+00
          2   -1    0    0  502    0  0.00000000000E+00  0.00000000000E+00  0.28603224373E+03  0.28603224373E+03  0.00000000000E+00 0. -1.
          1   -1    0    0  501    0 -0.00000000000E+00 -0.00000000000E+00 -0.77101997803E+03  0.77101997803E+03  0.00000000000E+00 0. -1.
         25    2    1    2    0    0 -0.23548356494E+02 -0.61332009135E+02  0.61540902912E+02  0.15403738000E+03  0.12499636502E+03 0.  0.
          2    1    1    2  501    0 -0.14658148707E+02  0.36567791679E+02 -0.72131786769E+03  0.72239292006E+03  0.00000000000E+00 0. -1.
          1    1    1    2  502    0  0.38206505201E+02  0.24764217456E+02  0.17478923048E+03  0.18062192170E+03  0.00000000000E+00 0. -1.
         22    1    3    3    0    0 -0.22021335125E+02  0.35850233370E+02  0.30644461845E+02  0.52050566521E+02  0.00000000000E+00 0. -1.
         22    1    3    3    0    0 -0.15270213691E+01 -0.97182242505E+02  0.30896441067E+02  0.10198681348E+03  0.00000000000E+00 0. -1.
</event>
<event>
 7    1  0.5789396E-006  0.1460969E+03  0.7818608E-02  0.1327134E+00
          2   -1    0    0  502    0  0.00000000000E+00  0.00000000000E+00  0.16655699827E+03  0.16655699827E+03  0.00000000000E+00 0. -1.
          1   -1    0    0  501    0 -0.00000000000E+00 -0.00000000000E+00 -0.19687260885E+04  0.19687260885E+04  0.00000000000E+00 0. -1.
         25    2    1    2    0    0 -0.95158723248E+02  0.14990786584E+03 -0.98154513919E+03  0.10052784679E+04  0.12500554770E+03 0.  0.
          2    1    1    2  501    0  0.78314801984E+02 -0.10866083344E+03 -0.96739330911E+03  0.97662183032E+03  0.00000000000E+00 0. -1.
          1    1    1    2  502    0  0.16843921264E+02 -0.41247032402E+02  0.14676935804E+03  0.15338278856E+03  0.00000000000E+00 0. -1.
         22    1    3    3    0    0 -0.58059607345E+02  0.16533256084E+03 -0.74381166933E+03  0.76417378462E+03  0.00000000000E+00 0.  1.
         22    1    3    3    0    0 -0.37099115903E+02 -0.15424695000E+02 -0.23773346986E+03  0.24110468330E+03  0.00000000000E+00 0.  1.
</event>
<event>
 7    1  0.5789396E-006  0.7996271E+02  0.7818608E-02  0.1406016E+00
          2   -1    0    0  502    0  0.00000000000E+00  0.00000000000E+00  0.16922210748E+03  0.16922210748E+03  0.00000000000E+00 0. -1.
          1   -1    0    0  501    0 -0.00000000000E+00 -0.00000000000E+00 -0.74487378368E+03  0.74487378368E+03  0.00000000000E+00 0. -1.
         25    2    1    2    0    0 -0.71281114613E+02 -0.94454236303E+02 -0.40821667723E+02  0.17690213131E+03  0.12500142179E+03 0.  0.
          2    1    1    2  501    0  0.37560431803E+02  0.69075410935E+02 -0.62905446628E+03  0.63394930396E+03  0.00000000000E+00 0. -1.
          1    1    1    2  502    0  0.33720682811E+02  0.25378825368E+02  0.94224457804E+02  0.10324445590E+03  0.00000000000E+00 0. -1.
         22    1    3    3    0    0  0.50949950247E+01 -0.86227724099E+02 -0.49564647053E+02  0.99588320676E+02  0.00000000000E+00 0. -1.
         22    1    3    3    0    0 -0.76376109638E+02 -0.82265122042E+01  0.87429793305E+01  0.77313810630E+02  0.00000000000E+00 0. -1.
</event>
<event>
 7    1  0.5789396E-006  0.7718030E+02  0.7818608E-02  0.1375716E+00
          2   -1    0    0  502    0  0.00000000000E+00  0.00000000000E+00  0.88422356795E+03  0.88422356795E+03  0.00000000000E+00 0. -1.
          1   -1    0    0  501    0 -0.00000000000E+00 -0.00000000000E+00 -0.74029388499E+03  0.74029388499E+03  0.00000000000E+00 0. -1.
         25    2    1    2    0    0  0.17416596359E+02  0.13793382215E+02 -0.24139901887E+03  0.27274938355E+03  0.12500057877E+03 0.  0.
          2    1    1    2  501    0  0.50504301594E+02  0.23639853669E+02 -0.47987071834E+03  0.48309981730E+03  0.00000000000E+00 0. -1.
          1    1    1    2  502    0 -0.67920897953E+02 -0.37433235884E+02  0.86519942017E+03  0.86866825209E+03  0.00000000000E+00 0. -1.
         22    1    3    3    0    0 -0.38496437926E+01 -0.25147503787E+02 -0.22343928608E+03  0.22488292792E+03  0.00000000000E+00 0. -1.
         22    1    3    3    0    0  0.21266240151E+02  0.38940886002E+02 -0.17959732791E+02  0.47866455632E+02  0.00000000000E+00 0. -1.
</event>
<event>
 7    1  0.5789396E-006  0.1501833E+03  0.7818608E-02  0.1418758E+00
          2   -1    0    0  502    0  0.00000000000E+00  0.00000000000E+00  0.47964327556E+04  0.47964327556E+04  0.00000000000E+00 0. -1.
          1   -1    0    0  501    0 -0.00000000000E+00 -0.00000000000E+00 -0.61328608997E+03  0.61328608997E+03  0.00000000000E+00 0. -1.
         25    2    1    2    0    0 -0.16528133455E+03  0.88967068162E+01 -0.18092739957E+03  0.27523979675E+03  0.12500060343E+03 0.  0.
          2    1    1    2  501    0  0.16603940803E+02  0.11767502198E+02 -0.38374672314E+03  0.38428597747E+03  0.00000000000E+00 0. -1.
          1    1    1    2  502    0  0.14867739375E+03 -0.20664209015E+02  0.47478207884E+04  0.47501930714E+04  0.00000000000E+00 0. -1.
         22    1    3    3    0    0 -0.12008417260E+03  0.63191949892E+02 -0.13198480983E+03  0.18929717660E+03  0.00000000000E+00 0. -1.
         22    1    3    3    0    0 -0.45197161951E+02 -0.54295243076E+02 -0.48942589734E+02  0.85942620155E+02  0.00000000000E+00 0. -1.
</event>
<event>
 7    1  0.5789396E-006  0.1153035E+03  0.7818608E-02  0.1355970E+00
          2   -1    0    0  502    0  0.00000000000E+00  0.00000000000E+00  0.20272512270E+04  0.20272512270E+04  0.00000000000E+00 0. -1.
          1   -1    0    0  501    0 -0.00000000000E+00 -0.00000000000E+00 -0.20844446037E+02  0.20844446037E+02  0.00000000000E+00 0. -1.
         25    2    1    2    0    0 -0.39089045683E+02 -0.92345333943E+02  0.76629860857E+03  0.78287588490E+03  0.12500191782E+03 0.  0.
          2    1    1    2  501    0  0.74756439807E+01  0.12294813756E+03  0.30300616972E+03  0.32708541494E+03  0.00000000000E+00 0. -1.
          1    1    1    2  502    0  0.31613401702E+02 -0.30602803621E+02  0.93710200266E+03  0.93813437318E+03  0.00000000000E+00 0. -1.
         22    1    3    3    0    0 -0.73254685652E+02 -0.49411751186E+02  0.62640951470E+03  0.63261097859E+03  0.00000000000E+00 0. -1.
         22    1    3    3    0    0  0.34165639969E+02 -0.42933582757E+02  0.13988909387E+03  0.15026490630E+03  0.00000000000E+00 0. -1.
</event>
<event>
 7    1  0.5789396E-006  0.1594401E+03  0.7818608E-02  0.1255384E+00
          2   -1    0    0  502    0  0.00000000000E+00  0.00000000000E+00  0.67954822964E+02  0.67954822964E+02  0.00000000000E+00 0. -1.
          1   -1    0    0  501    0 -0.00000000000E+00 -0.00000000000E+00 -0.27522990931E+04  0.27522990931E+04  0.00000000000E+00 0. -1.
         25    2    1    2    0    0 -0.75175718545E+01  0.10527504655E+03 -0.91020121663E+03  0.92478715754E+03  0.12500273069E+03 0.  0.
          2    1    1    2  501    0  0.59010909689E+02  0.53826040522E+02 -0.17168367084E+04  0.17186936357E+04  0.00000000000E+00 0. -1.
          1    1    1    2  502    0 -0.51493337835E+02 -0.15910108708E+03 -0.57306345055E+02  0.17677312277E+03  0.00000000000E+00 0. -1.
         22    1    3    3    0    0  0.26945181861E+02 -0.74271233220E+01 -0.56990406445E+02  0.63475281907E+02  0.00000000000E+00 0.  1.
         22    1    3    3    0    0 -0.34462753716E+02  0.11270216988E+03 -0.85321081019E+03  0.86131187563E+03  0.00000000000E+00 0.  1.
</event>
<event>
 7    1  0.5789396E-006  0.1095405E+03  0.7818608E-02  0.1412155E+00
          2   -1    0    0  502    0  0.00000000000E+00  0.00000000000E+00  0.58522718426E+02  0.58522718426E+02  0.00000000000E+00 0. -1.
          1   -1    0    0  501    0 -0.00000000000E+00 -0.00000000000E+00 -0.15948813557E+04  0.15948813557E+04  0.00000000000E+00 0. -1.
         25    2    1    2    0    0 -0.99260809151E+02  0.92623088553E+02 -0.35567495938E+03  0.40070066594E+03  0.12499840873E+03 0.  0.
          2    1    1    2  501    0  0.75074991177E+02 -0.75968939892E+02 -0.12079313438E+04  0.12126440802E+04  0.00000000000E+00 0. -1.
          1    1    1    2  502    0  0.24185817974E+02 -0.16654148661E+02  0.27247665874E+02  0.40059327931E+02  0.00000000000E+00 0. -1.
         22    1    3    3    0    0  0.13953720788E+02 -0.20289944411E+02 -0.45383789153E+02  0.51634063233E+02  0.00000000000E+00 0.  1.
         22    1    3    3    0    0 -0.11321452994E+03  0.11291303296E+03 -0.31029117023E+03  0.34906660270E+03  0.00000000000E+00 0.  1.
</event>
<event>
 7    1  0.5789396E-006  0.6641311E+02  0.7818608E-02  0.1427817E+00
          2   -1    0    0  502    0  0.00000000000E+00  0.00000000000E+00  0.20114077413E+04  0.20114077413E+04  0.00000000000E+00 0. -1.
          1   -1    0    0  501    0 -0.00000000000E+00 -0.00000000000E+00 -0.18495593905E+03  0.18495593905E+03  0.00000000000E+00 0. -1.
         25    2    1    2    0    0  0.82704717362E+02  0.56248334887E+02  0.16457514518E+03  0.22959902771E+03  0.12500715844E+03 0.  0.
          2    1    1    2  501    0 -0.42765137203E+02 -0.38477972335E+01 -0.14880940127E+03  0.15488027767E+03  0.00000000000E+00 0. -1.
          1    1    1    2  502    0 -0.39939580159E+02 -0.52400537653E+02  0.18106860584E+04  0.18118843750E+04  0.00000000000E+00 0. -1.
         22    1    3    3    0    0  0.11053236733E+03  0.67631412771E+02  0.14002105865E+03  0.19078078805E+03  0.00000000000E+00 0.  1.
         22    1    3    3    0    0 -0.27827649971E+02 -0.11383077884E+02  0.24554086526E+02  0.38818239658E+02  0.00000000000E+00 0.  1.
</event>
<event>
 7    1  0.5789396E-006  0.2722585E+03  0.7818608E-02  0.1175622E+00
          2   -1    0    0  502    0  0.00000000000E+00  0.00000000000E+00  0.10940965450E+04  0.10940965450E+04  0.00000000000E+00 0. -1.
          1   -1    0    0  501    0 -0.00000000000E+00 -0.00000000000E+00 -0.59320518081E+03  0.59320518081E+03  0.00000000000E+00 0. -1.
         25    2    1    2    0    0  0.34078724168E+03 -0.74570646042E+02  0.45220038276E+03  0.58464260626E+03  0.12500026218E+03 0.  0.
          2    1    1    2  501    0 -0.24069562982E+03  0.11735757493E+03 -0.48713688899E+03  0.55588626105E+03  0.00000000000E+00 0. -1.
          1    1    1    2  502    0 -0.10009161186E+03 -0.42786928891E+02  0.53582787042E+03  0.54677285848E+03  0.00000000000E+00 0. -1.
         22    1    3    3    0    0  0.39732977314E+02  0.56080734817E+01  0.61993066165E+01  0.40602849370E+02  0.00000000000E+00 0.  1.
         22    1    3    3    0    0  0.30105426437E+03 -0.80178719524E+02  0.44600107614E+03  0.54403975689E+03  0.00000000000E+00 0.  1.
</event>
<event>
 7    1  0.5789396E-006  0.6044183E+02  0.7818608E-02  0.1418790E+00
          2   -1    0    0  502    0  0.00000000000E+00  0.00000000000E+00  0.93341226719E+03  0.93341226719E+03  0.00000000000E+00 0. -1.
          1   -1    0    0  501    0 -0.00000000000E+00 -0.00000000000E+00 -0.15482728357E+04  0.15482728357E+04  0.00000000000E+00 0. -1.
         25    2    1    2    0    0 -0.74138496315E+02 -0.42487224604E+02 -0.59807496751E+02  0.16280085078E+03  0.12500199781E+03 0.  0.
          2    1    1    2  501    0  0.25118492987E+02  0.54849360090E+02 -0.14356101523E+04  0.14368771347E+04  0.00000000000E+00 0. -1.
          1    1    1    2  502    0  0.49020003329E+02 -0.12362135486E+02  0.88055708050E+03  0.88200711739E+03  0.00000000000E+00 0. -1.
         22    1    3    3    0    0 -0.52203175871E+02 -0.16582417820E+02  0.33023443095E+02  0.63958548652E+02  0.00000000000E+00 0.  1.
         22    1    3    3    0    0 -0.21935320444E+02 -0.25904806784E+02 -0.92830939846E+02  0.98842302129E+02  0.00000000000E+00 0.  1.
</event>
<event>
 7    1  0.5789396E-006  0.6623213E+02  0.7818608E-02  0.1432439E+00
          2   -1    0    0  502    0  0.00000000000E+00  0.00000000000E+00  0.77235326427E+03  0.77235326427E+03  0.00000000000E+00 0. -1.
          1   -1    0    0  501    0 -0.00000000000E+00 -0.00000000000E+00 -0.50276140118E+02  0.50276140118E+02  0.00000000000E+00 0. -1.
         25    2    1    2    0    0 -0.21828484738E+02  0.49602682062E+02  0.30630749385E+03  0.33524051297E+03  0.12500004772E+03 0.  0.
          2    1    1    2  501    0 -0.16076012819E+02 -0.66677965302E+02 -0.95550102250E+00  0.68595205570E+02  0.00000000000E+00 0. -1.
          1    1    1    2  502    0  0.37904497558E+02  0.17075283241E+02  0.41672513132E+03  0.41879368585E+03  0.00000000000E+00 0. -1.
         22    1    3    3    0    0  0.10785115696E+02  0.12875009549E+02 -0.69347229040E+01  0.18170717465E+02  0.00000000000E+00 0.  1.
         22    1    3    3    0    0 -0.32613600434E+02  0.36727672513E+02  0.31324221676E+03  0.31706979550E+03  0.00000000000E+00 0.  1.
</event>
<event>
 7    1  0.5789396E-006  0.9445912E+02  0.7818608E-02  0.1378635E+00
          2   -1    0    0  502    0  0.00000000000E+00  0.00000000000E+00  0.20610692748E+04  0.20610692748E+04  0.00000000000E+00 0. -1.
          1   -1    0    0  501    0 -0.00000000000E+00 -0.00000000000E+00 -0.17516502909E+04  0.17516502909E+04  0.00000000000E+00 0. -1.
         25    2    1    2    0    0  0.62104604311E+02  0.48869973258E+02  0.95794919487E+03  0.96929644411E+03  0.12499472169E+03 0.  0.
          2    1    1    2  501    0  0.37925779248E+02 -0.23252465870E+02 -0.17432633752E+04  0.17438309085E+04  0.00000000000E+00 0. -1.
          1    1    1    2  502    0 -0.10003038356E+03 -0.25617507389E+02  0.10947331643E+04  0.10995922132E+04  0.00000000000E+00 0. -1.
         22    1    3    3    0    0 -0.39479675509E+01 -0.35596808359E+02  0.14756370011E+03  0.15184783437E+03  0.00000000000E+00 0. -1.
         22    1    3    3    0    0  0.66052571862E+02  0.84466781618E+02  0.81038549476E+03  0.81744860974E+03  0.00000000000E+00 0. -1.
</event>
<event>
 7    1  0.5789396E-006  0.5257463E+02  0.7818608E-02  0.1548765E+00
          2   -1    0    0  502    0  0.00000000000E+00  0.00000000000E+00  0.12328022443E+04  0.12328022443E+04  0.00000000000E+00 0. -1.
          1   -1    0    0  501    0 -0.00000000000E+00 -0.00000000000E+00 -0.38261352632E+02  0.38261352632E+02  0.00000000000E+00 0. -1.
         25    2    1    2    0    0  0.25941339518E+02  0.24579135042E+02  0.67031124964E+03  0.68280289238E+03  0.12500212588E+03 0.  0.
          2    1    1    2  501    0  0.54269745627E+01  0.22634078513E+02 -0.26127942833E+02  0.34991755597E+02  0.00000000000E+00 0. -1.
          1    1    1    2  502    0 -0.31368314081E+02 -0.47213213555E+02  0.55035758482E+03  0.55326894892E+03  0.00000000000E+00 0. -1.
         22    1    3    3    0    0  0.27723111167E+02 -0.36253549061E+02  0.10854005364E+03  0.11774478314E+03  0.00000000000E+00 0.  1.
         22    1    3    3    0    0 -0.17817716482E+01  0.60832684103E+02  0.56177119600E+03  0.56505810924E+03  0.00000000000E+00 0.  1.
</event>
<event>
 7    1  0.5789396E-006  0.3061117E+03  0.7818608E-02  0.1204134E+00
          2   -1    0    0  502    0  0.00000000000E+00  0.00000000000E+00  0.15064552359E+04  0.15064552359E+04  0.00000000000E+00 0. -1.
          1   -1    0    0  501    0 -0.00000000000E+00 -0.00000000000E+00 -0.40267148069E+03  0.40267148069E+03  0.00000000000E+00 0. -1.
         25    2    1    2    0    0  0.35011462894E+03 -0.98227777883E+02  0.61990454802E+03  0.72947633163E+03  0.12500048001E+03 0.  0.
          2    1    1    2  501    0 -0.28027826424E+03  0.10890921266E+03 -0.28097594840E+03  0.41153931233E+03  0.00000000000E+00 0. -1.
          1    1    1    2  502    0 -0.69836364698E+02 -0.10681434781E+02  0.76485515562E+03  0.76811107267E+03  0.00000000000E+00 0. -1.
         22    1    3    3    0    0  0.10136065504E+02  0.27990033920E+01 -0.44483151560E+01  0.11417607088E+02  0.00000000000E+00 0. -1.
         22    1    3    3    0    0  0.33997856344E+03 -0.10102678128E+03  0.62435286318E+03  0.71805872454E+03  0.00000000000E+00 0. -1.
</event>
<event>
 7    1  0.5789396E-006  0.2094102E+03  0.7818608E-02  0.1343220E+00
          2   -1    0    0  502    0  0.00000000000E+00  0.00000000000E+00  0.20047403401E+03  0.20047403401E+03  0.00000000000E+00 0. -1.
          1   -1    0    0  501    0 -0.00000000000E+00 -0.00000000000E+00 -0.16362541063E+04  0.16362541063E+04  0.00000000000E+00 0. -1.
         25    2    1    2    0    0 -0.16677826809E+03  0.10578616934E+03 -0.12446099067E+03  0.26479868933E+03  0.12498841284E+03 0.  0.
          2    1    1    2  501    0 -0.26147697707E+01  0.26885271839E+02 -0.13525756996E+04  0.13528454006E+04  0.00000000000E+00 0. -1.
          1    1    1    2  502    0  0.16939303786E+03 -0.13267144118E+03  0.41256618000E+02  0.21908405033E+03  0.00000000000E+00 0. -1.
         22    1    3    3    0    0 -0.96193932285E+02  0.11793065473E+03 -0.46951591875E+02  0.15926507436E+03  0.00000000000E+00 0.  1.
         22    1    3    3    0    0 -0.70584335804E+02 -0.12144485389E+02 -0.77509398797E+02  0.10553361497E+03  0.00000000000E+00 0.  1.
</event>
<event>
 7    1  0.5789396E-006  0.6127180E+02  0.7818608E-02  0.1454225E+00
          2   -1    0    0  502    0  0.00000000000E+00  0.00000000000E+00  0.57489895278E+03  0.57489895278E+03  0.00000000000E+00 0. -1.
          1   -1    0    0  501    0 -0.00000000000E+00 -0.00000000000E+00 -0.11659254693E+03  0.11659254693E+03  0.00000000000E+00 0. -1.
         25    2    1    2    0    0  0.43990310797E+01  0.89096437347E+02  0.15725082289E+03  0.21979440821E+03  0.12499693580E+03 0.  0.
          2    1    1    2  501    0  0.17064741803E+02 -0.57476946615E+02 -0.73694406765E+02  0.95003528321E+02  0.00000000000E+00 0. -1.
          1    1    1    2  502    0 -0.21463772882E+02 -0.31619490731E+02  0.37474998972E+03  0.37669356318E+03  0.00000000000E+00 0. -1.
         22    1    3    3    0    0  0.60564716356E+02  0.70927343568E+02  0.82287502463E+02  0.12437847882E+03  0.00000000000E+00 0.  1.
         22    1    3    3    0    0 -0.56165685277E+02  0.18169093778E+02  0.74963320432E+02  0.95415929391E+02  0.00000000000E+00 0.  1.
</event>
<event>
 7    1  0.5789396E-006  0.6617232E+02  0.7818608E-02  0.1411906E+00
          2   -1    0    0  502    0  0.00000000000E+00  0.00000000000E+00  0.43130244756E+03  0.43130244756E+03  0.00000000000E+00 0. -1.
          1   -1    0    0  501    0 -0.00000000000E+00 -0.00000000000E+00 -0.83339368633E+03  0.83339368633E+03  0.00000000000E+00 0. -1.
         25    2    1    2    0    0  0.36353866080E+02  0.85444468951E+02 -0.53657128177E+03  0.55870974619E+03  0.12500191686E+03 0.  0.
          2    1    1    2  501    0  0.54104880467E+01 -0.60386701730E+02 -0.28109902626E+03  0.28756301864E+03  0.00000000000E+00 0. -1.
          1    1    1    2  502    0 -0.41764354127E+02 -0.25057767221E+02  0.41557906925E+03  0.41842336906E+03  0.00000000000E+00 0. -1.
         22    1    3    3    0    0  0.83244647390E+02  0.54525324596E+02 -0.33702785000E+03  0.35141208576E+03  0.00000000000E+00 0. -1.
         22    1    3    3    0    0 -0.46890781310E+02  0.30919144355E+02 -0.19954343177E+03  0.20729766043E+03  0.00000000000E+00 0. -1.
</event>
<event>
 7    1  0.5789396E-006  0.6196054E+02  0.7818608E-02  0.1426756E+00
          2   -1    0    0  502    0  0.00000000000E+00  0.00000000000E+00  0.32053747113E+03  0.32053747113E+03  0.00000000000E+00 0. -1.
          1   -1    0    0  501    0 -0.00000000000E+00 -0.00000000000E+00 -0.16056500322E+04  0.16056500322E+04  0.00000000000E+00 0. -1.
         25    2    1    2    0    0 -0.22768501555E+02  0.82987156370E+01 -0.31274323937E+03  0.33766698450E+03  0.12499354105E+03 0.  0.
          2    1    1    2  501    0 -0.86755573327E+01  0.45578265533E+02 -0.12768613871E+04  0.12777040524E+04  0.00000000000E+00 0. -1.
          1    1    1    2  502    0  0.31444058887E+02 -0.53876981170E+02  0.30449206539E+03  0.31081646647E+03  0.00000000000E+00 0. -1.
         22    1    3    3    0    0 -0.60820597316E+02  0.19274579195E+02 -0.83800732112E+02  0.10532434269E+03  0.00000000000E+00 0.  1.
         22    1    3    3    0    0  0.38052095762E+02 -0.10975863558E+02 -0.22894250725E+03  0.23234264180E+03  0.00000000000E+00 0.  1.
</event>
<event>
 7    1  0.5789396E-006  0.1403157E+03  0.7818608E-02  0.1379161E+00
          2   -1    0    0  502    0  0.00000000000E+00  0.00000000000E+00  0.15255190090E+04  0.15255190090E+04  0.00000000000E+00 0. -1.
          1   -1    0    0  501    0 -0.00000000000E+00 -0.00000000000E+00 -0.55566145373E+02  0.55566145373E+02  0.00000000000E+00 0. -1.
         25    2    1    2    0    0 -0.45132540137E+02  0.10835893325E+03  0.52701361344E+03  0.55420949362E+03  0.12500483778E+03 0.  0.
          2    1    1    2  501    0  0.46545558047E+02 -0.13814482865E+03  0.85664587206E+02  0.16908253653E+03  0.00000000000E+00 0. -1.
          1    1    1    2  502    0 -0.14130179094E+01  0.29785895401E+02  0.85727466295E+03  0.85779312420E+03  0.00000000000E+00 0. -1.
         22    1    3    3    0    0  0.34353812369E+02  0.14557914603E+02  0.55112536409E+02  0.66554556352E+02  0.00000000000E+00 0. -1.
         22    1    3    3    0    0 -0.79486352506E+02  0.93801018650E+02  0.47190107703E+03  0.48765493727E+03  0.00000000000E+00 0. -1.
</event>
<event>
 7    1  0.5789396E-006  0.1033388E+03  0.7818608E-02  0.1355376E+00
          2   -1    0    0  502    0  0.00000000000E+00  0.00000000000E+00  0.18851788260E+04  0.18851788260E+04  0.00000000000E+00 0. -1.
          1   -1    0    0  501    0 -0.00000000000E+00 -0.00000000000E+00 -0.28362883883E+03  0.28362883883E+03  0.00000000000E+00 0. -1.
         25    2    1    2    0    0  0.60462346815E+02  0.98515151235E+02  0.87248493334E+03  0.88894037988E+03  0.12499643864E+03 0.  0.
          2    1    1    2  501    0 -0.86457296741E+02 -0.56577582965E+02 -0.26507648693E+03  0.28450207552E+03  0.00000000000E+00 0. -1.
          1    1    1    2  502    0  0.25994949926E+02 -0.41937568270E+02  0.99414154079E+03  0.99536520944E+03  0.00000000000E+00 0. -1.
         22    1    3    3    0    0 -0.35047952307E+02  0.54547324793E+01  0.23456329841E+03  0.23722996022E+03  0.00000000000E+00 0.  1.
         22    1    3    3    0    0  0.95510299122E+02  0.93060418756E+02  0.63792163493E+03  0.65171041966E+03  0.00000000000E+00 0.  1.
</event>
<event>
 7    1  0.5789396E-006  0.4810025E+02  0.7818608E-02  0.1583115E+00
          2   -1    0    0  502    0  0.00000000000E+00  0.00000000000E+00  0.23240279801E+04  0.23240279801E+04  0.00000000000E+00 0. -1.
          1   -1    0    0  501    0 -0.00000000000E+00 -0.00000000000E+00 -0.29936315725E+03  0.29936315725E+03  0.00000000000E+00 0. -1.
         25    2    1    2    0    0  0.24692264218E+02 -0.22413971960E+02  0.86231903330E+03  0.87196827915E+03  0.12498988201E+03 0.  0.
          2    1    1    2  501    0 -0.44686544887E+02  0.17900392892E+02 -0.29249895836E+03  0.29643372278E+03  0.00000000000E+00 0. -1.
          1    1    1    2  502    0  0.19994280669E+02  0.45135790676E+01  0.14548447480E+04  0.14549891355E+04  0.00000000000E+00 0. -1.
         22    1    3    3    0    0  0.47879702574E+02  0.22982389746E+02  0.69574130903E+03  0.69776545145E+03  0.00000000000E+00 0. -1.
         22    1    3    3    0    0 -0.23187438356E+02 -0.45396361706E+02  0.16657772427E+03  0.17420282770E+03  0.00000000000E+00 0. -1.
</event>
<event>
 7    1  0.5789396E-006  0.7461339E+02  0.7818608E-02  0.1433395E+00
          2   -1    0    0  502    0  0.00000000000E+00  0.00000000000E+00  0.34834104693E+04  0.34834104693E+04  0.00000000000E+00 0. -1.
          1   -1    0    0  501    0 -0.00000000000E+00 -0.00000000000E+00 -0.63626135089E+02  0.63626135089E+02  0.00000000000E+00 0. -1.
         25    2    1    2    0    0  0.89024498148E+02  0.14948039732E+02  0.48373211943E+03  0.50771081342E+03  0.12499880614E+03 0.  0.
          2    1    1    2  501    0 -0.16856060940E+02 -0.32529914321E+02 -0.44616468965E+02  0.57731719349E+02  0.00000000000E+00 0. -1.
          1    1    1    2  502    0 -0.72168437207E+02  0.17581874589E+02  0.29806686837E+04  0.29815940716E+04  0.00000000000E+00 0. -1.
         22    1    3    3    0    0  0.10891537163E+03  0.43141686430E+02  0.40807092396E+03  0.42455346220E+03  0.00000000000E+00 0.  1.
         22    1    3    3    0    0 -0.19890873485E+02 -0.28193646698E+02  0.75661195468E+02  0.83157351219E+02  0.00000000000E+00 0.  1.
</event>
<event>
 7    1  0.5789396E-006  0.2181856E+03  0.7818608E-02  0.1191860E+00
          2   -1    0    0  502    0  0.00000000000E+00  0.00000000000E+00  0.27845826658E+03  0.27845826658E+03  0.00000000000E+00 0. -1.
          1   -1    0    0  501    0 -0.00000000000E+00 -0.00000000000E+00 -0.12665482898E+04  0.12665482898E+04  0.00000000000E+00 0. -1.
         25    2    1    2    0    0  0.13802745217E+03  0.21169278110E+03 -0.27854448120E+03  0.39632951796E+03  0.12499859072E+03 0.  0.
          2    1    1    2  501    0  0.48569264837E+02 -0.10236607326E+03 -0.87128476885E+03  0.87862104167E+03  0.00000000000E+00 0. -1.
          1    1    1    2  502    0 -0.18659671700E+03 -0.10932670784E+03  0.16173922688E+03  0.27005599670E+03  0.00000000000E+00 0. -1.
         22    1    3    3    0    0  0.24699115794E+02  0.14971757953E+03 -0.16726043098E+03  0.22583500993E+03  0.00000000000E+00 0. -1.
         22    1    3    3    0    0  0.11332833637E+03  0.61975201568E+02 -0.11128405022E+03  0.17049450803E+03  0.00000000000E+00 0. -1.
</event>
<event>
 7    1  0.5789396E-006  0.1772202E+03  0.7818608E-02  0.1280786E+00
          2   -1    0    0  502    0  0.00000000000E+00  0.00000000000E+00  0.24223796814E+03  0.24223796814E+03  0.00000000000E+00 0. -1.
          1   -1    0    0  501    0 -0.00000000000E+00 -0.00000000000E+00 -0.83641350160E+03  0.83641350160E+03  0.00000000000E+00 0. -1.
         25    2    1    2    0    0  0.11374164679E+03 -0.88206946803E+02 -0.17025081869E+03  0.25560155179E+03  0.12501673621E+03 0.  0.
          2    1    1    2  501    0 -0.12339480115E+03  0.14353586630E+03 -0.60476161382E+03  0.63369190575E+03  0.00000000000E+00 0. -1.
          1    1    1    2  502    0  0.96531543653E+01 -0.55328919493E+02  0.18083689906E+03  0.18935801219E+03  0.00000000000E+00 0. -1.
         22    1    3    3    0    0  0.11623376750E+03 -0.10492271080E+03 -0.10581555895E+03  0.18898676267E+03  0.00000000000E+00 0.  1.
         22    1    3    3    0    0 -0.24921207119E+01  0.16715763993E+02 -0.64435259740E+02  0.66614789118E+02  0.00000000000E+00 0.  1.
</event>
<event>
 7    1  0.5789396E-006  0.5413296E+02  0.7818608E-02  0.1495790E+00
          2   -1    0    0  502    0  0.00000000000E+00  0.00000000000E+00  0.41444877593E+03  0.41444877593E+03  0.00000000000E+00 0. -1.
          1   -1    0    0  501    0 -0.00000000000E+00 -0.00000000000E+00 -0.20647988716E+04  0.20647988716E+04  0.00000000000E+00 0. -1.
         25    2    1    2    0    0  0.55037795301E+02  0.61543049466E+02  0.83369382257E+02  0.17144229580E+03  0.12500120416E+03 0.  0.
          2    1    1    2  501    0 -0.27537654267E+02 -0.16655800477E+02 -0.20182195363E+04  0.20184761170E+04  0.00000000000E+00 0. -1.
          1    1    1    2  502    0 -0.27500141035E+02 -0.44887248989E+02  0.28450005837E+03  0.28932923476E+03  0.00000000000E+00 0. -1.
         22    1    3    3    0    0 -0.12520294546E+02 -0.31236787823E+02  0.95488283814E+01  0.34981063627E+02  0.00000000000E+00 0. -1.
         22    1    3    3    0    0  0.67558089848E+02  0.92779837289E+02  0.73820553876E+02  0.13646123217E+03  0.00000000000E+00 0. -1.
</event>
<event>
 7    1  0.5789396E-006  0.1055221E+03  0.7818608E-02  0.1358864E+00
          2   -1    0    0  502    0  0.00000000000E+00  0.00000000000E+00  0.58432783169E+03  0.58432783169E+03  0.00000000000E+00 0. -1.
          1   -1    0    0  501    0 -0.00000000000E+00 -0.00000000000E+00 -0.18772408574E+04  0.18772408574E+04  0.00000000000E+00 0. -1.
         25    2    1    2    0    0 -0.88120256646E+02 -0.28375031477E+02  0.16645908096E+03  0.22782476703E+03  0.12500070718E+03 0.  0.
          2    1    1    2  501    0  0.10454080049E+03 -0.15575808954E+02 -0.18436174533E+04  0.18466447138E+04  0.00000000000E+00 0. -1.
          1    1    1    2  502    0 -0.16420543845E+02  0.43950840431E+02  0.38424534664E+03  0.38709920828E+03  0.00000000000E+00 0. -1.
         22    1    3    3    0    0  0.25705157087E+02  0.11710742263E+02  0.62331525098E+02  0.68433293113E+02  0.00000000000E+00 0.  1.
         22    1    3    3    0    0 -0.11382541373E+03 -0.40085773739E+02  0.10412755586E+03  0.15939147392E+03  0.00000000000E+00 0.  1.
</event>
<event>
 7    1  0.5789396E-006  0.1604245E+03  0.7818608E-02  0.1209172E+00
          2   -1    0    0  502    0  0.00000000000E+00  0.00000000000E+00  0.76359306528E+03  0.76359306528E+03  0.00000000000E+00 0. -1.
          1   -1    0    0  501    0 -0.00000000000E+00 -0.00000000000E+00 -0.13458951198E+04  0.13458951198E+04  0.00000000000E+00 0. -1.
         25    2    1    2    0    0 -0.33480722241E+02  0.23072704322E+02  0.10976351272E+03  0.17125050887E+03  0.12500159845E+03 0.  0.
          2    1    1    2  501    0  0.73892594803E+02  0.14239346050E+03 -0.12984818965E+04  0.13083544049E+04  0.00000000000E+00 0. -1.
          1    1    1    2  502    0 -0.40411872563E+02 -0.16546616482E+03  0.60641632926E+03  0.62988327136E+03  0.00000000000E+00 0. -1.
         22    1    3    3    0    0  0.71517482581E+01  0.53479831924E+02  0.41973346560E+01  0.54118920388E+02  0.00000000000E+00 0.  1.
         22    1    3    3    0    0 -0.40632470499E+02 -0.30407127602E+02  0.10556617807E+03  0.11713158848E+03  0.00000000000E+00 0.  1.
</event>
<event>
 7    1  0.5789396E-006  0.8941283E+02  0.7818608E-02  0.1399970E+00
          2   -1    0    0  502    0  0.00000000000E+00  0.00000000000E+00  0.88356505359E+01  0.88356505359E+01  0.00000000000E+00 0. -1.
          1   -1    0    0  501    0 -0.00000000000E+00 -0.00000000000E+00 -0.29414334871E+04  0.29414334871E+04  0.00000000000E+00 0. -1.
         25    2    1    2    0    0 -0.21487807568E+02 -0.75275482176E+02 -0.19030373306E+04  0.19087437659E+04  0.12499423135E+03 0.  0.
          2    1    1    2  501    0 -0.63814308243E+01  0.10338842166E+03 -0.90291372832E+03  0.90883611789E+03  0.00000000000E+00 0. -1.
          1    1    1    2  502    0  0.27869238392E+02 -0.28112939489E+02 -0.12664677764E+03  0.13268925391E+03  0.00000000000E+00 0. -1.
         22    1    3    3    0    0  0.45968833448E+02 -0.55302686383E+02 -0.12128842773E+04  0.12150143172E+04  0.00000000000E+00 0. -1.
         22    1    3    3    0    0 -0.67456641016E+02 -0.19972795792E+02 -0.69015305332E+03  0.69372944871E+03  0.00000000000E+00 0. -1.
</event>
<event>
 7    1  0.5789396E-006  0.3179602E+02  0.7818608E-02  0.1645048E+00
          2   -1    0    0  502    0  0.00000000000E+00  0.00000000000E+00  0.15234863498E+04  0.15234863498E+04  0.00000000000E+00 0. -1.
          1   -1    0    0  501    0 -0.00000000000E+00 -0.00000000000E+00 -0.81361034094E+03  0.81361034094E+03  0.00000000000E+00 0. -1.
         25    2    1    2    0    0 -0.28590799885E+02 -0.44690918948E+02 -0.39799009588E+03  0.42051769289E+03  0.12499720612E+03 0.  0.
          2    1    1    2  501    0  0.13580991516E+02  0.16670478211E+02 -0.40390339704E+03  0.40447534203E+03  0.00000000000E+00 0. -1.
          1    1    1    2  502    0  0.15009808369E+02  0.28020440737E+02  0.15117695018E+04  0.15121036558E+04  0.00000000000E+00 0. -1.
         22    1    3    3    0    0  0.13001815588E+02 -0.50474624105E+02 -0.36042624741E+03  0.36417552734E+03  0.00000000000E+00 0.  1.
         22    1    3    3    0    0 -0.41592615473E+02  0.57837051572E+01 -0.37563848468E+02  0.56342165550E+02  0.00000000000E+00 0.  1.
</event>
<event>
 7    1  0.5789396E-006  0.4368166E+03  0.7818608E-02  0.1157765E+00
          2   -1    0    0  502    0  0.00000000000E+00  0.00000000000E+00  0.10184471675E+04  0.10184471675E+04  0.00000000000E+00 0. -1.
          1   -1    0    0  501    0 -0.00000000000E+00 -0.00000000000E+00 -0.61161141020E+03  0.61161141020E+03  0.00000000000E+00 0. -1.
         25    2    1    2    0    0  0.45108672314E+03 -0.20723425079E+02 -0.18184211955E+03  0.50259358219E+03  0.12500024108E+03 0.  0.
          2    1    1    2  501    0 -0.42107816762E+03 -0.57003150353E+02 -0.97734846781E+02  0.43601408540E+03  0.00000000000E+00 0. -1.
          1    1    1    2  502    0 -0.30008555524E+02  0.77726575432E+02  0.68641272367E+03  0.69145091016E+03  0.00000000000E+00 0. -1.
         22    1    3    3    0    0  0.24634907419E+03  0.46456927795E+02 -0.12291914102E+03  0.27920463414E+03  0.00000000000E+00 0. -1.
         22    1    3    3    0    0  0.20473764896E+03 -0.67180352874E+02 -0.58922978522E+02  0.22338894805E+03  0.00000000000E+00 0. -1.
</event>
<event>
 7    1  0.5789396E-006  0.4946231E+02  0.7818608E-02  0.1457053E+00
          2   -1    0    0  502    0  0.00000000000E+00  0.00000000000E+00  0.28834026385E+04  0.28834026385E+04  0.00000000000E+00 0. -1.
          1   -1    0    0  501    0 -0.00000000000E+00 -0.00000000000E+00 -0.10102993530E+04  0.10102993530E+04  0.00000000000E+00 0. -1.
         25    2    1    2    0    0  0.73945563308E+02 -0.48413336403E+02  0.78119563395E+03  0.79605436444E+03  0.12499654062E+03 0.  0.
          2    1    1    2  501    0 -0.45368787427E+02  0.95936575545E+01 -0.10020564070E+04  0.10031288092E+04  0.00000000000E+00 0. -1.
          1    1    1    2  502    0 -0.28576775881E+02  0.38819678849E+02  0.20939640586E+04  0.20945188178E+04  0.00000000000E+00 0. -1.
         22    1    3    3    0    0 -0.17246121650E+02 -0.58459203984E+02  0.28425642004E+03  0.29071742221E+03  0.00000000000E+00 0. -1.
         22    1    3    3    0    0  0.91191684958E+02  0.10045867581E+02  0.49693921390E+03  0.50533694222E+03  0.00000000000E+00 0. -1.
</event>
<event>
 7    1  0.5789396E-006  0.1297471E+03  0.7818608E-02  0.1313196E+00
          2   -1    0    0  502    0  0.00000000000E+00  0.00000000000E+00  0.16301305256E+04  0.16301305256E+04  0.00000000000E+00 0. -1.
          1   -1    0    0  501    0 -0.00000000000E+00 -0.00000000000E+00 -0.29831761221E+03  0.29831761221E+03  0.00000000000E+00 0. -1.
         25    2    1    2    0    0  0.60272661394E+02 -0.53557199983E+02  0.80623052694E+02  0.16917211475E+03  0.12497183843E+03 0.  0.
          2    1    1    2  501    0 -0.96457556172E+02  0.97364358623E+02 -0.23497568149E+03  0.27202472198E+03  0.00000000000E+00 0. -1.
          1    1    1    2  502    0  0.36184894778E+02 -0.43807158640E+02  0.14861655422E+04  0.14872513011E+04  0.00000000000E+00 0. -1.
         22    1    3    3    0    0  0.35849526878E+02  0.29394394233E+01  0.98677654811E+02  0.10502908378E+03  0.00000000000E+00 0. -1.
         22    1    3    3    0    0  0.24423134516E+02 -0.56496639406E+02 -0.18054602117E+02  0.64143030965E+02  0.00000000000E+00 0. -1.
</event>
<event>
 7    1  0.5789396E-006  0.1313736E+03  0.7818608E-02  0.1309925E+00
          2   -1    0    0  502    0  0.00000000000E+00  0.00000000000E+00  0.24397841104E+04  0.24397841104E+04  0.00000000000E+00 0. -1.
          1   -1    0    0  501    0 -0.00000000000E+00 -0.00000000000E+00 -0.39774685845E+03  0.39774685845E+03  0.00000000000E+00 0. -1.
         25    2    1    2    0    0  0.30530946471E+02  0.88078888729E+02  0.17866025280E+02  0.15695243933E+03  0.12499937608E+03 0.  0.
          2    1    1    2  501    0 -0.83981060301E+02 -0.11008200985E+03 -0.31322756949E+03  0.34246514811E+03  0.00000000000E+00 0. -1.
          1    1    1    2  502    0  0.53450113829E+02  0.22003121117E+02  0.23373987962E+04  0.23381133815E+04  0.00000000000E+00 0. -1.
         22    1    3    3    0    0 -0.23483423968E+02  0.33271008828E+02 -0.42714391857E+02  0.59016527359E+02  0.00000000000E+00 0. -1.
         22    1    3    3    0    0  0.54014370440E+02  0.54807879900E+02  0.60580417138E+02  0.97935911972E+02  0.00000000000E+00 0. -1.
</event>
<event>
 7    1  0.5789396E-006  0.5162200E+02  0.7818608E-02  0.1469203E+00
          2   -1    0    0  502    0  0.00000000000E+00  0.00000000000E+00  0.44339691760E+03  0.44339691760E+03  0.00000000000E+00 0. -1.
          1   -1    0    0  501    0 -0.00000000000E+00 -0.00000000000E+00 -0.18930980015E+04  0.18930980015E+04  0.00000000000E+00 0. -1.
         25    2    1    2    0    0 -0.29687062974E+02  0.84032185345E+02 -0.55623586616E+02  0.16328451791E+03  0.12500048208E+03 0.  0.
          2    1    1    2  501    0  0.23316370260E+02 -0.33352530718E+02 -0.17817363110E+04  0.17822009781E+04  0.00000000000E+00 0. -1.
          1    1    1    2  502    0  0.63706927137E+01 -0.50679654627E+02  0.38765881370E+03  0.39100942310E+03  0.00000000000E+00 0. -1.
         22    1    3    3    0    0  0.29346875482E+02  0.17594858146E+02 -0.65462375389E+02  0.73865693832E+02  0.00000000000E+00 0.  1.
         22    1    3    3    0    0 -0.59033938456E+02  0.66437327200E+02  0.98387887730E+01  0.89418824079E+02  0.00000000000E+00 0.  1.
</event>
<event>
 7    1  0.5789396E-006  0.9521978E+02  0.7818608E-02  0.1331622E+00
          2   -1    0    0  502    0  0.00000000000E+00  0.00000000000E+00  0.14359994354E+04  0.14359994354E+04  0.00000000000E+00 0. -1.
          1   -1    0    0  501    0 -0.00000000000E+00 -0.00000000000E+00 -0.48470642663E+03  0.48470642663E+03  0.00000000000E+00 0. -1.
         25    2    1    2    0    0 -0.12133513479E+02 -0.15634922681E+03 -0.33075302435E+02  0.20325160668E+03  0.12499974846E+03 0.  0.
          2    1    1    2  501    0  0.65502322857E+01  0.90876205602E+02 -0.36006616043E+03  0.37141490300E+03  0.00000000000E+00 0. -1.
          1    1    1    2  502    0  0.55832811932E+01  0.65473021211E+02  0.13444344716E+04  0.13460393523E+04  0.00000000000E+00 0. -1.
         22    1    3    3    0    0  0.23461266366E+02 -0.14851510048E+03 -0.55712906872E+02  0.16034679317E+03  0.00000000000E+00 0.  1.
         22    1    3    3    0    0 -0.35594779845E+02 -0.78341263360E+01  0.22637604437E+02  0.42904813510E+02  0.00000000000E+00 0.  1.
</event>
<event>
 7    1  0.5789396E-006  0.6939113E+02  0.7818608E-02  0.1498614E+00
          2   -1    0    0  502    0  0.00000000000E+00  0.00000000000E+00  0.15430317064E+04  0.15430317064E+04  0.00000000000E+00 0. -1.
          1   -1    0    0  501    0 -0.00000000000E+00 -0.00000000000E+00 -0.61070740022E+02  0.61070740022E+02  0.00000000000E+00 0. -1.
         25    2    1    2    0    0 -0.32617434334E+02 -0.50192613810E+02  0.32366466486E+03  0.35208908899E+03  0.12499886322E+03 0.  0.
          2    1    1    2  501    0  0.56041377830E+02  0.42606037476E+02 -0.20216367972E+02  0.73243511606E+02  0.00000000000E+00 0. -1.
          1    1    1    2  502    0 -0.23423943496E+02  0.75865763349E+01  0.11785126695E+04  0.11787698459E+04  0.00000000000E+00 0. -1.
         22    1    3    3    0    0 -0.24852444774E+02  0.40465885126E+02  0.10430068596E+03  0.11460263942E+03  0.00000000000E+00 0.  1.
         22    1    3    3    0    0 -0.77649895596E+01 -0.90658498936E+02  0.21936397889E+03  0.23748644957E+03  0.00000000000E+00 0.  1.
</event>
<event>
 7    1  0.5789396E-006  0.1316695E+03  0.7818608E-02  0.1339166E+00
          2   -1    0    0  502    0  0.00000000000E+00  0.00000000000E+00  0.23875625887E+03  0.23875625887E+03  0.00000000000E+00 0. -1.
          1   -1    0    0  501    0 -0.00000000000E+00 -0.00000000000E+00 -0.27383367140E+03  0.27383367140E+03  0.00000000000E+00 0. -1.
         25    2    1    2    0    0 -0.10491939254E+03 -0.95346097759E+02 -0.26127351996E+02  0.19079818306E+03  0.12498940295E+03 0.  0.
          2    1    1    2  501    0 -0.14252645254E+02  0.42148872129E+02 -0.13390932668E+03  0.14110766489E+03  0.00000000000E+00 0. -1.
          1    1    1    2  502    0  0.11917203779E+03  0.53197225629E+02  0.12495926614E+03  0.18068408231E+03  0.00000000000E+00 0. -1.
         22    1    3    3    0    0 -0.68042323962E+02  0.71533892596E+01 -0.42647791963E+02  0.80621107580E+02  0.00000000000E+00 0. -1.
         22    1    3    3    0    0 -0.36877068574E+02 -0.10249948702E+03  0.16520439967E+02  0.11017707548E+03  0.00000000000E+00 0. -1.
</event>
<event>
 7    1  0.5789396E-006  0.4223268E+02  0.7818608E-02  0.1536844E+00
          2   -1    0    0  502    0  0.00000000000E+00  0.00000000000E+00  0.92126670559E+03  0.92126670559E+03  0.00000000000E+00 0. -1.
          1   -1    0    0  501    0 -0.00000000000E+00 -0.00000000000E+00 -0.27671350289E+03  0.27671350289E+03  0.00000000000E+00 0. -1.
         25    2    1    2    0    0  0.73131588441E+02  0.21546847913E+01  0.71116069174E+02  0.16135718597E+03  0.12500309706E+03 0.  0.
          2    1    1    2  501    0 -0.31290318238E+02 -0.93058214145E+00 -0.22998775748E+03  0.23210841990E+03  0.00000000000E+00 0. -1.
          1    1    1    2  502    0 -0.41841270203E+02 -0.12241026498E+01  0.80342489100E+03  0.80451460260E+03  0.00000000000E+00 0. -1.
         22    1    3    3    0    0  0.37195026681E+02 -0.60235924720E+02  0.21755333293E+02  0.74061671351E+02  0.00000000000E+00 0. -1.
         22    1    3    3    0    0  0.35936561761E+02  0.62390609511E+02  0.49360735881E+02  0.87295514622E+02  0.00000000000E+00 0. -1.
</event>
<event>
 7    1  0.5789396E-006  0.1527002E+03  0.7818608E-02  0.1392054E+00
          2   -1    0    0  502    0  0.00000000000E+00  0.00000000000E+00  0.19307539227E+03  0.19307539227E+03  0.00000000000E+00 0. -1.
          1   -1    0    0  501    0 -0.00000000000E+00 -0.00000000000E+00 -0.22629352294E+04  0.22629352294E+04  0.00000000000E+00 0. -1.
         25    2    1    2    0    0 -0.46832429267E+02 -0.12314273810E+03 -0.88715103270E+02  0.20212985191E+03  0.12501478756E+03 0.  0.
          2    1    1    2  501    0  0.43190792151E+02  0.14756018672E+03 -0.21135796117E+04  0.21191645118E+04  0.00000000000E+00 0. -1.
          1    1    1    2  502    0  0.36416371158E+01 -0.24417448623E+02  0.13243487777E+03  0.13471625799E+03  0.00000000000E+00 0. -1.
         22    1    3    3    0    0  0.26823926866E+02 -0.77891121557E+02 -0.80685650924E+02  0.11531142240E+03  0.00000000000E+00 0. -1.
         22    1    3    3    0    0 -0.73656356133E+02 -0.45251616541E+02 -0.80294523455E+01  0.86818429515E+02  0.00000000000E+00 0. -1.
</event>
<event>
 7    1  0.5789396E-006  0.5774233E+02  0.7818608E-02  0.1483002E+00
          2   -1    0    0  502    0  0.00000000000E+00  0.00000000000E+00  0.78366856005E+03  0.78366856005E+03  0.00000000000E+00 0. -1.
          1   -1    0    0  501    0 -0.00000000000E+00 -0.00000000000E+00 -0.31080524502E+03  0.31080524502E+03  0.00000000000E+00 0. -1.
         25    2    1    2    0    0  0.85274555243E+02  0.29090695108E+02  0.23711227703E+02  0.15590079379E+03  0.12499926749E+03 0.  0.
          2    1    1    2  501    0 -0.31655796962E+02 -0.92684805629E+01 -0.24241424177E+03  0.24464803049E+03  0.00000000000E+00 0. -1.
          1    1    1    2  502    0 -0.53618758282E+02 -0.19822214545E+02  0.69156632909E+03  0.69392498079E+03  0.00000000000E+00 0. -1.
         22    1    3    3    0    0  0.10717439456E+03  0.33870232623E+02  0.48556050866E+02  0.12243869316E+03  0.00000000000E+00 0. -1.
         22    1    3    3    0    0 -0.21899839313E+02 -0.47795375151E+01 -0.24844823163E+02  0.33462100634E+02  0.00000000000E+00 0. -1.
</event>
<event>
 7    1  0.5789396E-006  0.8391955E+02  0.7818608E-02  0.1433216E+00
          2   -1    0    0  502    0  0.00000000000E+00  0.00000000000E+00  0.19519763458E+04  0.19519763458E+04  0.00000000000E+00 0. -1.
          1   -1    0    0  501    0 -0.00000000000E+00 -0.00000000000E+00 -0.51691015246E+02  0.51691015246E+02  0.00000000000E+00 0. -1.
         25    2    1    2    0    0  0.34917298739E+02  0.85364167486E+02  0.69629930455E+03  0.71341704522E+03  0.12499960021E+03 0.  0.
          2    1    1    2  501    0 -0.32556587903E+02 -0.20155650987E+01 -0.35357176966E+02  0.48105341507E+02  0.00000000000E+00 0. -1.
          1    1    1    2  502    0 -0.23607108357E+01 -0.83348602388E+02  0.12393432030E+04  0.12421449743E+04  0.00000000000E+00 0. -1.
         22    1    3    3    0    0  0.65708807878E+02  0.79742663902E+02  0.64572863034E+03  0.65394342563E+03  0.00000000000E+00 0.  1.
         22    1    3    3    0    0 -0.30791509139E+02  0.56215035842E+01  0.50570674210E+02  0.59473619594E+02  0.00000000000E+00 0.  1.
</event>
<event>
 7    1  0.5789396E-006  0.9481016E+02  0.7818608E-02  0.1409350E+00
          2   -1    0    0  502    0  0.00000000000E+00  0.00000000000E+00  0.23208608897E+03  0.23208608897E+03  0.00000000000E+00 0. -1.
          1   -1    0    0  501    0 -0.00000000000E+00 -0.00000000000E+00 -0.53056564832E+03  0.53056564832E+03  0.00000000000E+00 0. -1.
         25    2    1    2    0    0  0.40422498406E+01  0.79059153911E+02  0.97400018538E+01  0.14827702543E+03  0.12499807611E+03 0.  0.
          2    1    1    2  501    0  0.31970326770E+02  0.13432216209E+02 -0.44446130712E+03  0.44581204532E+03  0.00000000000E+00 0. -1.
          1    1    1    2  502    0 -0.36012576611E+02 -0.92491370120E+02  0.13624174592E+03  0.16856266654E+03  0.00000000000E+00 0. -1.
         22    1    3    3    0    0 -0.23259913402E+02  0.39011084311E+02 -0.52480940499E+02  0.69405600539E+02  0.00000000000E+00 0. -1.
         22    1    3    3    0    0  0.27302163243E+02  0.40048069600E+02  0.62220942352E+02  0.78871424887E+02  0.00000000000E+00 0. -1.
</event>
<event>
 7    1  0.5789396E-006  0.1349902E+03  0.7818608E-02  0.1257801E+00
          2   -1    0    0  502    0  0.00000000000E+00  0.00000000000E+00  0.57914530689E+03  0.57914530689E+03  0.00000000000E+00 0. -1.
          1   -1    0    0  501    0 -0.00000000000E+00 -0.00000000000E+00 -0.28458876095E+03  0.28458876095E+03  0.00000000000E+00 0. -1.
         25    2    1    2    0    0 -0.71199934757E+02 -0.15556623097E+03  0.63635163278E+02  0.22123227618E+03  0.12499601230E+03 0.  0.
          2    1    1    2  501    0  0.11125564350E+03  0.72619520078E+02 -0.17868556999E+03  0.22266554702E+03  0.00000000000E+00 0. -1.
          1    1    1    2  502    0 -0.40055708746E+02  0.82946710893E+02  0.40960695265E+03  0.41983624464E+03  0.00000000000E+00 0. -1.
         22    1    3    3    0    0 -0.53464280441E+02 -0.15763131565E+01 -0.47528005898E+00  0.53489624577E+02  0.00000000000E+00 0.  1.
         22    1    3    3    0    0 -0.17735654316E+02 -0.15398991781E+03  0.64110443337E+02  0.16774265160E+03  0.00000000000E+00 0.  1.
</event>
<event>
 7    1  0.5789396E-006  0.4255811E+03  0.7818608E-02  0.1196429E+00
          2   -1    0    0  502    0  0.00000000000E+00  0.00000000000E+00  0.22202275157E+04  0.22202275157E+04  0.00000000000E+00 0. -1.
          1   -1    0    0  501    0 -0.00000000000E+00 -0.00000000000E+00 -0.74487428923E+03  0.74487428923E+03  0.00000000000E+00 0. -1.
         25    2    1    2    0    0 -0.19456211480E+03  0.36152093759E+03  0.75438589414E+01  0.42922449153E+03  0.12499979796E+03 0.  0.
          2    1    1    2  501    0  0.24921834025E+03 -0.35344887525E+03 -0.44601185825E+03  0.62125877557E+03  0.00000000000E+00 0. -1.
          1    1    1    2  502    0 -0.54656225444E+02 -0.80720623455E+01  0.19138212257E+04  0.19146185378E+04  0.00000000000E+00 0. -1.
         22    1    3    3    0    0 -0.17653547023E+02  0.12324400938E+03  0.39794567396E+02  0.13070708154E+03  0.00000000000E+00 0.  1.
         22    1    3    3    0    0 -0.17690856778E+03  0.23827692821E+03 -0.32250708455E+02  0.29851740999E+03  0.00000000000E+00 0.  1.
</event>
<event>
 7    1  0.5789396E-006  0.6643205E+02  0.7818608E-02  0.1432793E+00
          2   -1    0    0  502    0  0.00000000000E+00  0.00000000000E+00  0.12672506432E+04  0.12672506432E+04  0.00000000000E+00 0. -1.
          1   -1    0    0  501    0 -0.00000000000E+00 -0.00000000000E+00 -0.12105789288E+03  0.12105789288E+03  0.00000000000E+00 0. -1.
         25    2    1    2    0    0  0.28110698041E+02 -0.49488306309E+02  0.99368241758E+02  0.16951482508E+03  0.12498769797E+03 0.  0.
          2    1    1    2  501    0 -0.62884316326E+02  0.27137083774E+02 -0.71903395751E+02  0.99302350808E+02  0.00000000000E+00 0. -1.
          1    1    1    2  502    0  0.34773618285E+02  0.22351222535E+02  0.11187279043E+04  0.11194913602E+04  0.00000000000E+00 0. -1.
         22    1    3    3    0    0  0.12843370906E+02  0.27065186103E+02  0.85023169479E+02  0.90146635119E+02  0.00000000000E+00 0. -1.
         22    1    3    3    0    0  0.15267327135E+02 -0.76553492412E+02  0.14345072279E+02  0.79368189957E+02  0.00000000000E+00 0. -1.
</event>
<event>
 7    1  0.5789396E-006  0.5040055E+02  0.7818608E-02  0.1480892E+00
          2   -1    0    0  502    0  0.00000000000E+00  0.00000000000E+00  0.41645981653E+03  0.41645981653E+03  0.00000000000E+00 0. -1.
          1   -1    0    0  501    0 -0.00000000000E+00 -0.00000000000E+00 -0.27061351072E+03  0.27061351072E+03  0.00000000000E+00 0. -1.
         25    2    1    2    0    0  0.51570072335E+01  0.18908035511E+02 -0.13026532412E+03  0.18160004549E+03  0.12500165329E+03 0.  0.
          2    1    1    2  501    0 -0.27580973786E+02  0.26654140594E+02 -0.10976301639E+03  0.11627154894E+03  0.00000000000E+00 0. -1.
          1    1    1    2  502    0  0.22423966552E+02 -0.45562176104E+02  0.38587464631E+03  0.38920173283E+03  0.00000000000E+00 0. -1.
         22    1    3    3    0    0  0.68797139053E+01  0.73895202288E+01  0.24447092708E+02  0.26449873619E+02  0.00000000000E+00 0.  1.
         22    1    3    3    0    0 -0.17227066718E+01  0.11518515282E+02 -0.15471241683E+03  0.15515017187E+03  0.00000000000E+00 0.  1.
</event>
<event>
 7    1  0.5789396E-006  0.4505957E+02  0.7818608E-02  0.1480065E+00
          2   -1    0    0  502    0  0.00000000000E+00  0.00000000000E+00  0.13947655662E+03  0.13947655662E+03  0.00000000000E+00 0. -1.
          1   -1    0    0  501    0 -0.00000000000E+00 -0.00000000000E+00 -0.60442841159E+03  0.60442841159E+03  0.00000000000E+00 0. -1.
         25    2    1    2    0    0  0.49324033154E+02  0.30922806123E+00 -0.16305038112E+03  0.21128962205E+03  0.12499968694E+03 0.  0.
          2    1    1    2  501    0 -0.22380547449E+02 -0.36895972417E+02 -0.41161203223E+03  0.41386793396E+03  0.00000000000E+00 0. -1.
          1    1    1    2  502    0 -0.26943485705E+02  0.36586744355E+02  0.10971055838E+03  0.11874741220E+03  0.00000000000E+00 0. -1.
         22    1    3    3    0    0  0.29383752887E+02  0.62371964990E+02 -0.77423207121E+02  0.10367265768E+03  0.00000000000E+00 0.  1.
         22    1    3    3    0    0  0.19940280267E+02 -0.62062736929E+02 -0.85627174001E+02  0.10761696437E+03  0.00000000000E+00 0.  1.
</event>
<event>
 7    1  0.5789396E-006  0.9789900E+02  0.7818608E-02  0.1295613E+00
          2   -1    0    0  502    0  0.00000000000E+00  0.00000000000E+00  0.60196939478E+02  0.60196939478E+02  0.00000000000E+00 0. -1.
          1   -1    0    0  501    0 -0.00000000000E+00 -0.00000000000E+00 -0.54838730490E+03  0.54838730490E+03  0.00000000000E+00 0. -1.
         25    2    1    2    0    0  0.67395139070E+02 -0.15792179850E+02 -0.18176666378E+03  0.23118602349E+03  0.12496543394E+03 0.  0.
          2    1    1    2  501    0 -0.20699814642E+02 -0.95685588271E+02 -0.15952412300E+03  0.18716880068E+03  0.00000000000E+00 0. -1.
          1    1    1    2  502    0 -0.46695324428E+02  0.11147776812E+03 -0.14689957864E+03  0.19022942021E+03  0.00000000000E+00 0. -1.
         22    1    3    3    0    0 -0.34652539034E+02 -0.12590757309E+02 -0.26682336732E+02  0.45511237344E+02  0.00000000000E+00 0. -1.
         22    1    3    3    0    0  0.10204767810E+03 -0.32014225413E+01 -0.15508432705E+03  0.18567478615E+03  0.00000000000E+00 0. -1.
</event>
<event>
 7    1  0.5789396E-006  0.9945618E+02  0.7818608E-02  0.1342036E+00
          2   -1    0    0  502    0  0.00000000000E+00  0.00000000000E+00  0.40509081658E+04  0.40509081658E+04  0.00000000000E+00 0. -1.
          1   -1    0    0  501    0 -0.00000000000E+00 -0.00000000000E+00 -0.11875290641E+04  0.11875290641E+04  0.00000000000E+00 0. -1.
         25    2    1    2    0    0 -0.13264775595E+03  0.32014445093E+02  0.72554705114E+03  0.74877564445E+03  0.12500436169E+03 0.  0.
          2    1    1    2  501    0  0.35816709372E+02 -0.44930676887E+02 -0.11744923010E+04  0.11758970055E+04  0.00000000000E+00 0. -1.
          1    1    1    2  502    0  0.96831046576E+02  0.12916231794E+02  0.33123243516E+04  0.33137645799E+04  0.00000000000E+00 0. -1.
         22    1    3    3    0    0 -0.11271281773E+03 -0.32042802831E+02  0.42725241027E+03  0.44302995675E+03  0.00000000000E+00 0.  1.
         22    1    3    3    0    0 -0.19934938222E+02  0.64057247924E+02  0.29829464087E+03  0.30574568770E+03  0.00000000000E+00 0.  1.
</event>
<event>
 7    1  0.5789396E-006  0.3292455E+02  0.7818608E-02  0.1572047E+00
          2   -1    0    0  502    0  0.00000000000E+00  0.00000000000E+00  0.57914238844E+03  0.57914238844E+03  0.00000000000E+00 0. -1.
          1   -1    0    0  501    0 -0.00000000000E+00 -0.00000000000E+00 -0.24503708506E+03  0.24503708506E+03  0.00000000000E+00 0. -1.
         25    2    1    2    0    0 -0.42902378948E+01  0.73709720164E+01  0.17661390920E+03  0.21654245194E+03  0.12500169279E+03 0.  0.
          2    1    1    2  501    0 -0.29296942719E+02 -0.13044740972E+02 -0.22316604789E+03  0.22545855728E+03  0.00000000000E+00 0. -1.
          1    1    1    2  502    0  0.33587180614E+02  0.56737689558E+01  0.38065744208E+03  0.38217846429E+03  0.00000000000E+00 0. -1.
         22    1    3    3    0    0 -0.16161874691E+02  0.64727930679E+02  0.94960418692E+02  0.11605340289E+03  0.00000000000E+00 0. -1.
         22    1    3    3    0    0  0.11871636796E+02 -0.57356958663E+02  0.81653490506E+02  0.10048904905E+03  0.00000000000E+00 0. -1.
</event>
<event>
 7    1  0.5789396E-006  0.1328828E+03  0.7818608E-02  0.1426124E+00
          2   -1    0    0  502    0  0.00000000000E+00  0.00000000000E+00  0.22415674195E+04  0.22415674195E+04  0.00000000000E+00 0. -1.
          1   -1    0    0  501    0 -0.00000000000E+00 -0.00000000000E+00 -0.14578438094E+04  0.14578438094E+04  0.00000000000E+00 0. -1.
         25    2    1    2    0    0 -0.12301003706E+03  0.59526246672E+02 -0.85069366717E+02  0.20380414578E+03  0.12499795767E+03 0.  0.
          2    1    1    2  501    0  0.14094602587E+02  0.16549645106E+02 -0.13112948290E+04  0.13114750006E+04  0.00000000000E+00 0. -1.
          1    1    1    2  502    0  0.10891543447E+03 -0.76075891779E+02  0.21800878058E+04  0.21841320826E+04  0.00000000000E+00 0. -1.
         22    1    3    3    0    0 -0.10745003940E+03  0.95806650882E+02 -0.77889555681E+02  0.16368020102E+03  0.00000000000E+00 0. -1.
         22    1    3    3    0    0 -0.15559997660E+02 -0.36280404210E+02 -0.71798110357E+01  0.40123944763E+02  0.00000000000E+00 0. -1.
</event>
<event>
 7    1  0.5789396E-006  0.1511493E+03  0.7818608E-02  0.1318615E+00
          2   -1    0    0  502    0  0.00000000000E+00  0.00000000000E+00  0.19244836053E+04  0.19244836053E+04  0.00000000000E+00 0. -1.
          1   -1    0    0  501    0 -0.00000000000E+00 -0.00000000000E+00 -0.50239592324E+03  0.50239592324E+03  0.00000000000E+00 0. -1.
         25    2    1    2    0    0  0.87470576479E+02 -0.12621050781E+03  0.64917351655E+03  0.67869839666E+03  0.12500026002E+03 0.  0.
          2    1    1    2  501    0 -0.44750050362E+02  0.14445779679E+03 -0.47546576050E+03  0.49893718189E+03  0.00000000000E+00 0. -1.
          1    1    1    2  502    0 -0.42720526117E+02 -0.18247288980E+02  0.12483799260E+04  0.12492439500E+04  0.00000000000E+00 0. -1.
         22    1    3    3    0    0  0.19702809379E+02 -0.12396190674E+03  0.48712025190E+03  0.50303170361E+03  0.00000000000E+00 0.  1.
         22    1    3    3    0    0  0.67767767100E+02 -0.22486010666E+01  0.16205326465E+03  0.17566669305E+03  0.00000000000E+00 0.  1.
</event>
<event>
 7    1  0.5789396E-006  0.1508812E+03  0.7818608E-02  0.1367787E+00
          2   -1    0    0  502    0  0.00000000000E+00  0.00000000000E+00  0.30494843442E+03  0.30494843442E+03  0.00000000000E+00 0. -1.
          1   -1    0    0  501    0 -0.00000000000E+00 -0.00000000000E+00 -0.11704397613E+04  0.11704397613E+04  0.00000000000E+00 0. -1.
         25    2    1    2    0    0 -0.95070411599E+02 -0.76190219250E+02 -0.70675506848E+03  0.72799102421E+03  0.12499948732E+03 0.  0.
          2    1    1    2  501    0 -0.18938609276E+02 -0.23849309815E+02 -0.43295532859E+03  0.43402508805E+03  0.00000000000E+00 0. -1.
          1    1    1    2  502    0  0.11400902087E+03  0.10003952906E+03  0.27421907021E+03  0.31337208345E+03  0.00000000000E+00 0. -1.
         22    1    3    3    0    0 -0.10727599842E+03 -0.36335923994E+02 -0.32914435998E+03  0.34808684105E+03  0.00000000000E+00 0.  1.
         22    1    3    3    0    0  0.12205586823E+02 -0.39854295256E+02 -0.37761070851E+03  0.37990418315E+03  0.00000000000E+00 0.  1.
</event>
<event>
 7    1  0.5789396E-006  0.3514788E+02  0.7818608E-02  0.1631103E+00
          2   -1    0    0  502    0  0.00000000000E+00  0.00000000000E+00  0.10791252742E+04  0.10791252742E+04  0.00000000000E+00 0. -1.
          1   -1    0    0  501    0 -0.00000000000E+00 -0.00000000000E+00 -0.17288310891E+03  0.17288310891E+03  0.00000000000E+00 0. -1.
         25    2    1    2    0    0 -0.20629148616E+01 -0.16027669912E+02 -0.98493617332E+01  0.12642252431E+03  0.12499801161E+03 0.  0.
          2    1    1    2  501    0 -0.51256323322E+01  0.35833757628E+02 -0.10150748400E+03  0.10776873202E+03  0.00000000000E+00 0. -1.
          1    1    1    2  502    0  0.71885471938E+01 -0.19806087716E+02  0.10175990110E+04  0.10178171268E+04  0.00000000000E+00 0. -1.
         22    1    3    3    0    0  0.97496451240E+01  0.40423530268E+02  0.34208796002E+02  0.53845697166E+02  0.00000000000E+00 0. -1.
         22    1    3    3    0    0 -0.11812559986E+02 -0.56451200180E+02 -0.44058157735E+02  0.72576827143E+02  0.00000000000E+00 0. -1.
</event>
<event>
 7    1  0.5789396E-006  0.1085007E+03  0.7818608E-02  0.1387587E+00
          2   -1    0    0  502    0  0.00000000000E+00  0.00000000000E+00  0.92590410202E+03  0.92590410202E+03  0.00000000000E+00 0. -1.
          1   -1    0    0  501    0 -0.00000000000E+00 -0.00000000000E+00 -0.10885865919E+03  0.10885865919E+03  0.00000000000E+00 0. -1.
         25    2    1    2    0    0  0.11535720351E+03 -0.45669455980E+02  0.31442339402E+03  0.36038900534E+03  0.12500072341E+03 0.  0.
          2    1    1    2  501    0 -0.30929443314E+02 -0.18450740650E+02 -0.77068658612E+02  0.85068433831E+02  0.00000000000E+00 0. -1.
          1    1    1    2  502    0 -0.84427760195E+02  0.64120196631E+02  0.57969070742E+03  0.58930532203E+03  0.00000000000E+00 0. -1.
         22    1    3    3    0    0  0.10704539436E+03 -0.44729747258E+02  0.12410463038E+03  0.16988650925E+03  0.00000000000E+00 0. -1.
         22    1    3    3    0    0  0.83118091474E+01 -0.93970872226E+00  0.19031876364E+03  0.19050249609E+03  0.00000000000E+00 0. -1.
</event>
<event>
 7    1  0.5789396E-006  0.9652969E+02  0.7818608E-02  0.1375885E+00
          2   -1    0    0  502    0  0.00000000000E+00  0.00000000000E+00  0.32884771396E+03  0.32884771396E+03  0.00000000000E+00 0. -1.
          1   -1    0    0  501    0 -0.00000000000E+00 -0.00000000000E+00 -0.10203110976E+03  0.10203110976E+03  0.00000000000E+00 0. -1.
         25    2    1    2    0    0  0.87354281913E+02  0.12801615588E+02  0.16363148008E+03  0.22404246218E+03  0.12500044661E+03 0.  0.
          2    1    1    2  501    0 -0.94662162755E+02  0.31117947038E+02 -0.29576978428E+02  0.10394252902E+03  0.00000000000E+00 0. -1.
          1    1    1    2  502    0  0.73078808423E+01 -0.43919562626E+02  0.92762102542E+02  0.10289383253E+03  0.00000000000E+00 0. -1.
         22    1    3    3    0    0  0.10248063499E+03 -0.30594187570E+02  0.11860972193E+03  0.15970770488E+03  0.00000000000E+00 0. -1.
         22    1    3    3    0    0 -0.15126353080E+02  0.43395803158E+02  0.45021758151E+02  0.64334757295E+02  0.00000000000E+00 0. -1.
</event>
<event>
 7    1  0.5789396E-006  0.1435844E+03  0.7818608E-02  0.1222773E+00
          2   -1    0    0  502    0  0.00000000000E+00  0.00000000000E+00  0.20989338138E+04  0.20989338138E+04  0.00000000000E+00 0. -1.
          1   -1    0    0  501    0 -0.00000000000E+00 -0.00000000000E+00 -0.51436435063E+03  0.51436435063E+03  0.00000000000E+00 0. -1.
         25    2    1    2    0    0  0.13429097457E+03 -0.20785090664E+03  0.72266881845E+02  0.28650052656E+03  0.12499593699E+03 0.  0.
          2    1    1    2  501    0 -0.22305409618E+02  0.12155050536E+03 -0.39519560212E+03  0.41406716917E+03  0.00000000000E+00 0. -1.
          1    1    1    2  502    0 -0.11198556495E+03  0.86300401283E+02  0.19074981835E+04  0.19127304687E+04  0.00000000000E+00 0. -1.
         22    1    3    3    0    0  0.69264428607E+02 -0.17200001373E+03  0.95665345106E+02  0.20864664878E+03  0.00000000000E+00 0.  1.
         22    1    3    3    0    0  0.65026545960E+02 -0.35850892912E+02 -0.23398463261E+02  0.77853877778E+02  0.00000000000E+00 0.  1.
</event>
<event>
 7    1  0.5789396E-006  0.4011932E+02  0.7818608E-02  0.1552298E+00
          2   -1    0    0  502    0  0.00000000000E+00  0.00000000000E+00  0.21728374916E+04  0.21728374916E+04  0.00000000000E+00 0. -1.
          1   -1    0    0  501    0 -0.00000000000E+00 -0.00000000000E+00 -0.73035042981E+02  0.73035042981E+02  0.00000000000E+00 0. -1.
         25    2    1    2    0    0  0.71321991948E+01  0.65304624689E+02  0.44549263881E+03  0.46733707821E+03  0.12499876468E+03 0.  0.
          2    1    1    2  501    0 -0.15460156303E+02 -0.36673413022E+02 -0.55594154152E+02  0.68371526468E+02  0.00000000000E+00 0. -1.
          1    1    1    2  502    0  0.83279571083E+01 -0.28631211667E+02  0.17099039639E+04  0.17101639299E+04  0.00000000000E+00 0. -1.
         22    1    3    3    0    0  0.24821617116E+02 -0.32993197661E+02  0.12495548214E+03  0.13159990990E+03  0.00000000000E+00 0. -1.
         22    1    3    3    0    0 -0.17689417921E+02  0.98297822351E+02  0.32053715667E+03  0.33573716832E+03  0.00000000000E+00 0. -1.
</event>
<event>
 7    1  0.5789396E-006  0.1370942E+03  0.7818608E-02  0.1269003E+00
          2   -1    0    0  502    0  0.00000000000E+00  0.00000000000E+00  0.62971528144E+03  0.62971528144E+03  0.00000000000E+00 0. -1.
          1   -1    0    0  501    0 -0.00000000000E+00 -0.00000000000E+00 -0.44388329022E+03  0.44388329022E+03  0.00000000000E+00 0. -1.
         25    2    1    2    0    0 -0.71247633642E+01  0.14084187191E+03  0.17151812835E+03  0.25481563170E+03  0.12500137068E+03 0.  0.
          2    1    1    2  501    0 -0.71034070197E+02 -0.11848756709E+03 -0.38616720407E+03  0.41013443184E+03  0.00000000000E+00 0. -1.
          1    1    1    2  502    0  0.78158833562E+02 -0.22354304819E+02  0.40048106693E+03  0.40864850811E+03  0.00000000000E+00 0. -1.
         22    1    3    3    0    0  0.35829853083E+02  0.24298385283E+02  0.30379343804E+00  0.43292980837E+02  0.00000000000E+00 0. -1.
         22    1    3    3    0    0 -0.42954616447E+02  0.11654348663E+03  0.17121433491E+03  0.21152265087E+03  0.00000000000E+00 0. -1.
</event>
<event>
 7    1  0.5789396E-006  0.1038587E+03  0.7818608E-02  0.1338246E+00
          2   -1    0    0  502    0  0.00000000000E+00  0.00000000000E+00  0.58300628286E+03  0.58300628286E+03  0.00000000000E+00 0. -1.
          1   -1    0    0  501    0 -0.00000000000E+00 -0.00000000000E+00 -0.72127340003E+03  0.72127340003E+03  0.00000000000E+00 0. -1.
         25    2    1    2    0    0  0.60503382424E+01  0.48760608186E+02 -0.10014491851E+03  0.16753744357E+03  0.12500234714E+03 0.  0.
          2    1    1    2  501    0  0.38616019128E+01  0.56728609337E+02 -0.58092201190E+03  0.58369806492E+03  0.00000000000E+00 0. -1.
          1    1    1    2  502    0 -0.99119401552E+01 -0.10548921752E+03  0.54279981325E+03  0.55304417440E+03  0.00000000000E+00 0. -1.
         22    1    3    3    0    0 -0.86274318453E+01  0.85948391011E+02 -0.92994685441E+02  0.12692348096E+03  0.00000000000E+00 0. -1.
         22    1    3    3    0    0  0.14677770088E+02 -0.37187782825E+02 -0.71502330740E+01  0.40613962614E+02  0.00000000000E+00 0. -1.
</event>
<event>
 7    1  0.5789396E-006  0.1251797E+03  0.7818608E-02  0.1320347E+00
          2   -1    0    0  502    0  0.00000000000E+00  0.00000000000E+00  0.17549601627E+03  0.17549601627E+03  0.00000000000E+00 0. -1.
          1   -1    0    0  501    0 -0.00000000000E+00 -0.00000000000E+00 -0.12228667712E+04  0.12228667712E+04  0.00000000000E+00 0. -1.
         25    2    1    2    0    0 -0.57693692598E+02  0.97988282807E+02 -0.90937452573E+03  0.92494196343E+03  0.12500136773E+03 0.  0.
          2    1    1    2  501    0  0.46623962866E+02 -0.15209744705E+03 -0.27945497624E+03  0.32156260830E+03  0.00000000000E+00 0. -1.
          1    1    1    2  502    0  0.11069729733E+02  0.54109164243E+02  0.14145874704E+03  0.15185821574E+03  0.00000000000E+00 0. -1.
         22    1    3    3    0    0 -0.10162966524E+02  0.52944313485E+02 -0.10617806762E+03  0.11908051168E+03  0.00000000000E+00 0. -1.
         22    1    3    3    0    0 -0.47530726074E+02  0.45043969321E+02 -0.80319645811E+03  0.80586145175E+03  0.00000000000E+00 0. -1.
</event>
<event>
 7    1  0.5789396E-006  0.9330891E+02  0.7818608E-02  0.1320264E+00
          2   -1    0    0  502    0  0.00000000000E+00  0.00000000000E+00  0.45878642728E+03  0.45878642728E+03  0.00000000000E+00 0. -1.
          1   -1    0    0  501    0 -0.00000000000E+00 -0.00000000000E+00 -0.40975108519E+03  0.40975108519E+03  0.00000000000E+00 0. -1.
         25    2    1    2    0    0  0.45456462949E+02  0.64963066906E+02  0.21817532399E+02  0.14962187288E+03  0.12499684012E+03 0.  0.
          2    1    1    2  501    0 -0.95866701497E+02 -0.10585507177E+02 -0.33529798263E+03  0.34889427421E+03  0.00000000000E+00 0. -1.
          1    1    1    2  502    0  0.50410238548E+02 -0.54377559729E+02  0.36251579232E+03  0.37002136538E+03  0.00000000000E+00 0. -1.
         22    1    3    3    0    0 -0.26988538955E+00  0.90909199446E+02  0.31402814465E+02  0.96180518497E+02  0.00000000000E+00 0.  1.
         22    1    3    3    0    0  0.45726348339E+02 -0.25946132540E+02 -0.95852820659E+01  0.53441354385E+02  0.00000000000E+00 0.  1.
</event>
<event>
 7    1  0.5789396E-006  0.7694920E+02  0.7818608E-02  0.1384719E+00
          2   -1    0    0  502    0  0.00000000000E+00  0.00000000000E+00  0.61107395557E+03  0.61107395557E+03  0.00000000000E+00 0. -1.
          1   -1    0    0  501    0 -0.00000000000E+00 -0.00000000000E+00 -0.60602139662E+03  0.60602139662E+03  0.00000000000E+00 0. -1.
         25    2    1    2    0    0 -0.10947031354E+03 -0.57522056471E+02 -0.36888329916E+03  0.40864595517E+03  0.12499636696E+03 0.  0.
          2    1    1    2  501    0  0.35286904909E+02  0.38156807258E+02 -0.21161337793E+03  0.21790210949E+03  0.00000000000E+00 0. -1.
          1    1    1    2  502    0  0.74183408631E+02  0.19365249213E+02  0.58554923604E+03  0.59054728754E+03  0.00000000000E+00 0. -1.
         22    1    3    3    0    0  0.22682573683E+02 -0.31178996869E+02 -0.56120643873E+02  0.68089321214E+02  0.00000000000E+00 0.  1.
         22    1    3    3    0    0 -0.13215288722E+03 -0.26343059602E+02 -0.31276265529E+03  0.34055663396E+03  0.00000000000E+00 0.  1.
</event>
<event>
 7    1  0.5789396E-006  0.1194109E+03  0.7818608E-02  0.1358565E+00
          2   -1    0    0  502    0  0.00000000000E+00  0.00000000000E+00  0.20282733035E+04  0.20282733035E+04  0.00000000000E+00 0. -1.
          1   -1    0    0  501    0 -0.00000000000E+00 -0.00000000000E+00 -0.13170226620E+03  0.13170226620E+03  0.00000000000E+00 0. -1.
         25    2    1    2    0    0 -0.78670859368E+02 -0.49817792710E+02  0.48060530699E+02  0.16311182450E+03  0.12499894438E+03 0.  0.
          2    1    1    2  501    0  0.11389246529E+03  0.71888836349E+02 -0.12616546545E+02  0.13527259770E+03  0.00000000000E+00 0. -1.
          1    1    1    2  502    0 -0.35221605922E+02 -0.22071043639E+02  0.18611270532E+04  0.18615911475E+04  0.00000000000E+00 0. -1.
         22    1    3    3    0    0 -0.32734675875E+02 -0.49884019012E+02  0.85217634355E+02  0.10402893618E+03  0.00000000000E+00 0.  1.
         22    1    3    3    0    0 -0.45936183492E+02  0.66226301851E-01 -0.37157103657E+02  0.59082888317E+02  0.00000000000E+00 0.  1.
</event>
<event>
 7    1  0.5789396E-006  0.7035082E+02  0.7818608E-02  0.1372791E+00
          2   -1    0    0  502    0  0.00000000000E+00  0.00000000000E+00  0.20548233144E+03  0.20548233144E+03  0.00000000000E+00 0. -1.
          1   -1    0    0  501    0 -0.00000000000E+00 -0.00000000000E+00 -0.22998415640E+03  0.22998415640E+03  0.00000000000E+00 0. -1.
         25    2    1    2    0    0 -0.41746789381E+01  0.30110184366E+02  0.18726055688E+02  0.12999808337E+03  0.12499914148E+03 0.  0.
          2    1    1    2  501    0  0.70349923195E+02  0.35614929907E+00 -0.15604693620E+03  0.17117209128E+03  0.00000000000E+00 0. -1.
          1    1    1    2  502    0 -0.66175244257E+02 -0.30466333665E+02  0.11281905555E+03  0.13429631319E+03  0.00000000000E+00 0. -1.
         22    1    3    3    0    0  0.19997322147E+02  0.70739464936E+02 -0.10738492271E+02  0.74291856947E+02  0.00000000000E+00 0. -1.
         22    1    3    3    0    0 -0.24172001085E+02 -0.40629280569E+02  0.29464547958E+02  0.55706226424E+02  0.00000000000E+00 0. -1.
</event>
<event>
 7    1  0.5789396E-006  0.9795456E+02  0.7818608E-02  0.1434135E+00
          2   -1    0    0  502    0  0.00000000000E+00  0.00000000000E+00  0.28577871671E+03  0.28577871671E+03  0.00000000000E+00 0. -1.
          1   -1    0    0  501    0 -0.00000000000E+00 -0.00000000000E+00 -0.56886802589E+03  0.56886802589E+03  0.00000000000E+00 0. -1.
         25    2    1    2    0    0 -0.11567638801E+03  0.17550926675E+02 -0.42491211427E+02  0.17640690381E+03  0.12499932357E+03 0.  0.
          2    1    1    2  501    0  0.24440524989E+02  0.13147385801E+02 -0.44838244695E+03  0.44924048320E+03  0.00000000000E+00 0. -1.
          1    1    1    2  502    0  0.91235863023E+02 -0.30698312476E+02  0.20778434920E+03  0.22899935559E+03  0.00000000000E+00 0. -1.
         22    1    3    3    0    0 -0.97954319253E+02 -0.28538790615E+02 -0.66208659094E+02  0.12162687930E+03  0.00000000000E+00 0. -1.
         22    1    3    3    0    0 -0.17722068759E+02  0.46089717290E+02  0.23717447667E+02  0.54780024505E+02  0.00000000000E+00 0. -1.
</event>
<event>
 7    1  0.5789396E-006  0.1456591E+03  0.7818608E-02  0.1230171E+00
          2   -1    0    0  502    0  0.00000000000E+00  0.00000000000E+00  0.22141524484E+03  0.22141524484E+03  0.00000000000E+00 0. -1.
          1   -1    0    0  501    0 -0.00000000000E+00 -0.00000000000E+00 -0.63260010257E+03  0.63260010257E+03  0.00000000000E+00 0. -1.
         25    2    1    2    0    0 -0.44283443753E+02  0.13815984009E+03 -0.24790889207E+03  0.31326151324E+03  0.12499916840E+03 0.  0.
          2    1    1    2  501    0  0.11271687436E+03 -0.46076963162E+01 -0.31060446213E+03  0.33045643665E+03  0.00000000000E+00 0. -1.
          1    1    1    2  502    0 -0.68433430611E+02 -0.13355214378E+03  0.14732849647E+03  0.21029739752E+03  0.00000000000E+00 0. -1.
         22    1    3    3    0    0 -0.49052413078E+02  0.11628537533E+03 -0.25912119697E+03  0.28822252248E+03  0.00000000000E+00 0.  1.
         22    1    3    3    0    0  0.47689693253E+01  0.21874464766E+02  0.11212304894E+02  0.25038990760E+02  0.00000000000E+00 0.  1.
</event>
<event>
 7    1  0.5789396E-006  0.1743174E+03  0.7818608E-02  0.1392222E+00
          2   -1    0    0  502    0  0.00000000000E+00  0.00000000000E+00  0.52812803524E+03  0.52812803524E+03  0.00000000000E+00 0. -1.
          1   -1    0    0  501    0 -0.00000000000E+00 -0.00000000000E+00 -0.75929801464E+03  0.75929801464E+03  0.00000000000E+00 0. -1.
         25    2    1    2    0    0  0.13684884629E+03  0.11513637409E+03  0.63685665148E+02  0.22729920860E+03  0.12500029967E+03 0.  0.
          2    1    1    2  501    0 -0.18284213497E+02  0.11494220120E+02 -0.65764328830E+03  0.65799781474E+03  0.00000000000E+00 0. -1.
          1    1    1    2  502    0 -0.11856463279E+03 -0.12663059421E+03  0.36278764374E+03  0.40212902654E+03  0.00000000000E+00 0. -1.
         22    1    3    3    0    0  0.27825854762E+02  0.68306666533E+02  0.78510286149E+02  0.10772160376E+03  0.00000000000E+00 0.  1.
         22    1    3    3    0    0  0.10902299152E+03  0.46829707555E+02 -0.14824621001E+02  0.11957760484E+03  0.00000000000E+00 0.  1.
</event>
<event>
 7    1  0.5789396E-006  0.7001647E+02  0.7818608E-02  0.1374302E+00
          2   -1    0    0  502    0  0.00000000000E+00  0.00000000000E+00  0.68216382506E+03  0.68216382506E+03  0.00000000000E+00 0. -1.
          1   -1    0    0  501    0 -0.00000000000E+00 -0.00000000000E+00 -0.83034451787E+03  0.83034451787E+03  0.00000000000E+00 0. -1.
         25    2    1    2    0    0  0.20820753012E+02  0.34152535181E+02  0.32296698713E+03  0.34861583506E+03  0.12500170505E+03 0.  0.
          2    1    1    2  501    0 -0.36000126772E+02  0.50706923295E+02 -0.81094731939E+03  0.81332819700E+03  0.00000000000E+00 0. -1.
          1    1    1    2  502    0  0.15179373760E+02 -0.84859458476E+02  0.33979963945E+03  0.35056431087E+03  0.00000000000E+00 0. -1.
         22    1    3    3    0    0  0.48313143436E+02 -0.22913971985E+02  0.71437954676E+02  0.89233353120E+02  0.00000000000E+00 0.  1.
         22    1    3    3    0    0 -0.27492390424E+02  0.57066507165E+02  0.25152903245E+03  0.25938248194E+03  0.00000000000E+00 0.  1.
</event>
<event>
 7    1  0.5789396E-006  0.1495701E+03  0.7818608E-02  0.1228162E+00
          2   -1    0    0  502    0  0.00000000000E+00  0.00000000000E+00  0.32671685891E+03  0.32671685891E+03  0.00000000000E+00 0. -1.
          1   -1    0    0  501    0 -0.00000000000E+00 -0.00000000000E+00 -0.13162155082E+04  0.13162155082E+04  0.00000000000E+00 0. -1.
         25    2    1    2    0    0 -0.14367339873E+03  0.30068239477E+02 -0.42353007199E+02  0.19739755431E+03  0.12500349076E+03 0.  0.
          2    1    1    2  501    0  0.53384509809E+02  0.98647537007E+02 -0.11685849531E+04  0.11739557211E+04  0.00000000000E+00 0. -1.
          1    1    1    2  502    0  0.90288888919E+02 -0.12871577648E+03  0.22143931103E+03  0.27157909170E+03  0.00000000000E+00 0. -1.
         22    1    3    3    0    0 -0.16326051794E+03  0.26130718419E+02 -0.54411567966E+02  0.17406156925E+03  0.00000000000E+00 0.  1.
         22    1    3    3    0    0  0.19587119208E+02  0.39375210582E+01  0.12058560767E+02  0.23335985060E+02  0.00000000000E+00 0.  1.
</event>
<event>
 7    1  0.5789396E-006  0.1205198E+03  0.7818608E-02  0.1382008E+00
          2   -1    0    0  502    0  0.00000000000E+00  0.00000000000E+00  0.14957782724E+04  0.14957782724E+04  0.00000000000E+00 0. -1.
          1   -1    0    0  501    0 -0.00000000000E+00 -0.00000000000E+00 -0.33894836070E+02  0.33894836070E+02  0.00000000000E+00 0. -1.
         25    2    1    2    0    0 -0.11364250520E+03  0.35263013173E+02  0.67148238620E+03  0.69330533235E+03  0.12500235915E+03 0.  0.
          2    1    1    2  501    0  0.12178525326E+03 -0.23335201838E+01  0.14202404618E+03  0.18710404304E+03  0.00000000000E+00 0. -1.
          1    1    1    2  502    0 -0.81427480554E+01 -0.32929492990E+02  0.64837700390E+03  0.64926373304E+03  0.00000000000E+00 0. -1.
         22    1    3    3    0    0 -0.13785347192E+03  0.38893076607E+02  0.61954827241E+03  0.63589017368E+03  0.00000000000E+00 0.  1.
         22    1    3    3    0    0  0.24210966718E+02 -0.36300634338E+01  0.51934113788E+02  0.57415158668E+02  0.00000000000E+00 0.  1.
</event>
<event>
 7    1  0.5790413E-006  0.7509892E+02  0.7818608E-02  0.1398943E+00
          2   -1    0    0  502    0  0.00000000000E+00  0.00000000000E+00  0.15872067543E+04  0.15872067543E+04  0.00000000000E+00 0. -1.
          1   -1    0    0  501    0 -0.00000000000E+00 -0.00000000000E+00 -0.74632594572E+03  0.74632594572E+03  0.00000000000E+00 0. -1.
         25    2    1    2    0    0  0.22716754783E+02  0.18711830978E+02 -0.46464985994E+03  0.48206882098E+03  0.12499868898E+03 0.  0.
          2    1    1    2  501    0  0.46062576070E+02  0.11661859517E+02 -0.26999547612E+03  0.27414470085E+03  0.00000000000E+00 0. -1.
          1    1    1    2  502    0 -0.68779330853E+02 -0.30373690494E+02  0.15755261447E+04  0.15773191782E+04  0.00000000000E+00 0. -1.
         22    1    3    3    0    0  0.60004025605E+02 -0.26776297282E+02 -0.18560639570E+03  0.19689384782E+03  0.00000000000E+00 0.  1.
         22    1    3    3    0    0 -0.37287270822E+02  0.45488128260E+02 -0.27904346424E+03  0.28517497316E+03  0.00000000000E+00 0.  1.
</event>
<event>
 7    1  0.5789396E-006  0.7809385E+02  0.7818608E-02  0.1355741E+00
          2   -1    0    0  502    0  0.00000000000E+00  0.00000000000E+00  0.43860227161E+03  0.43860227161E+03  0.00000000000E+00 0. -1.
          1   -1    0    0  501    0 -0.00000000000E+00 -0.00000000000E+00 -0.29774069681E+03  0.29774069681E+03  0.00000000000E+00 0. -1.
         25    2    1    2    0    0 -0.19069458725E+02  0.38709413888E+02 -0.39568097171E+02  0.13803191767E+03  0.12500045201E+03 0.  0.
          2    1    1    2  501    0 -0.29898044921E+02 -0.81591595566E+02 -0.19699790586E+03  0.21531199797E+03  0.00000000000E+00 0. -1.
          1    1    1    2  502    0  0.48967503647E+02  0.42882181678E+02  0.37742757784E+03  0.38299905278E+03  0.00000000000E+00 0. -1.
         22    1    3    3    0    0  0.20692929987E+02  0.62135047227E+02  0.14366854126E+02  0.67047505120E+02  0.00000000000E+00 0.  1.
         22    1    3    3    0    0 -0.39762388712E+02 -0.23425633339E+02 -0.53934951298E+02  0.70984412549E+02  0.00000000000E+00 0.  1.
</event>
<event>
 7    1  0.5789396E-006  0.8502430E+02  0.7818608E-02  0.1472003E+00
          2   -1    0    0  502    0  0.00000000000E+00  0.00000000000E+00  0.26680974995E+03  0.26680974995E+03  0.00000000000E+00 0. -1.
          1   -1    0    0  501    0 -0.00000000000E+00 -0.00000000000E+00 -0.19721854811E+03  0.19721854811E+03  0.00000000000E+00 0. -1.
         25    2    1    2    0    0  0.16169917557E+02 -0.86240380826E+02  0.78207854831E+02  0.17158280706E+03  0.12500128640E+03 0.  0.
          2    1    1    2  501    0 -0.38132023772E+02  0.76035337570E+02 -0.13729421184E+03  0.16150889883E+03  0.00000000000E+00 0. -1.
          1    1    1    2  502    0  0.21962106215E+02  0.10205043256E+02  0.12867755886E+03  0.13093659218E+03  0.00000000000E+00 0. -1.
         22    1    3    3    0    0 -0.53869107854E+02 -0.51444131721E+02  0.39815416929E+02  0.84460919334E+02  0.00000000000E+00 0. -1.
         22    1    3    3    0    0  0.70039025410E+02 -0.34796249105E+02  0.38392437903E+02  0.87121887722E+02  0.00000000000E+00 0. -1.
</event>
<event>
 7    1  0.5789396E-006  0.8367046E+02  0.7818608E-02  0.1319736E+00
          2   -1    0    0  502    0  0.00000000000E+00  0.00000000000E+00  0.66437961274E+03  0.66437961274E+03  0.00000000000E+00 0. -1.
          1   -1    0    0  501    0 -0.00000000000E+00 -0.00000000000E+00 -0.22166425522E+04  0.22166425522E+04  0.00000000000E+00 0. -1.
         25    2    1    2    0    0  0.29953209562E+02  0.66336887656E+02 -0.18469795242E+04  0.18526343363E+04  0.12499137464E+03 0.  0.
          2    1    1    2  501    0 -0.11446505859E+02 -0.14733118538E+03 -0.34917524458E+03  0.37915808327E+03  0.00000000000E+00 0. -1.
          1    1    1    2  502    0 -0.18506703703E+02  0.80994297727E+02  0.64389182935E+03  0.64922974536E+03  0.00000000000E+00 0. -1.
         22    1    3    3    0    0  0.11874645291E+02 -0.29681266505E+02 -0.18168955810E+03  0.18448056891E+03  0.00000000000E+00 0.  1.
         22    1    3    3    0    0  0.18078564271E+02  0.96018154161E+02 -0.16652899661E+04  0.16681537674E+04  0.00000000000E+00 0.  1.
</event>
<event>
 7    1  0.5789396E-006  0.8017869E+02  0.7818608E-02  0.1458735E+00
          2   -1    0    0  502    0  0.00000000000E+00  0.00000000000E+00  0.20476621573E+04  0.20476621573E+04  0.00000000000E+00 0. -1.
          1   -1    0    0  501    0 -0.00000000000E+00 -0.00000000000E+00 -0.32734665642E+02  0.32734665642E+02  0.00000000000E+00 0. -1.
         25    2    1    2    0    0  0.52037471882E+02 -0.15680216595E+02  0.38254438991E+03  0.40610268995E+03  0.12500166743E+03 0.  0.
          2    1    1    2  501    0  0.25776044507E+02 -0.11581956613E+02 -0.99000409161E+01  0.29942561673E+02  0.00000000000E+00 0. -1.
          1    1    1    2  502    0 -0.77813516390E+02  0.27262173208E+02  0.16422831426E+04  0.16443515713E+04  0.00000000000E+00 0. -1.
         22    1    3    3    0    0  0.65836445108E+02 -0.46908385326E+01  0.38281203690E+03  0.38846041892E+03  0.00000000000E+00 0. -1.
         22    1    3    3    0    0 -0.13798973226E+02 -0.10989378063E+02 -0.26764698845E+00  0.17642271033E+02  0.00000000000E+00 0. -1.
</event>
<event>
 7    1  0.5789396E-006  0.8384562E+02  0.7818608E-02  0.1448830E+00
          2   -1    0    0  502    0  0.00000000000E+00  0.00000000000E+00  0.11205913618E+04  0.11205913618E+04  0.00000000000E+00 0. -1.
          1   -1    0    0  501    0 -0.00000000000E+00 -0.00000000000E+00 -0.21430452822E+03  0.21430452822E+03  0.00000000000E+00 0. -1.
         25    2    1    2    0    0 -0.68351777294E+02  0.79337410446E+02  0.26954652989E+03  0.31503466792E+03  0.12500048024E+03 0.  0.
          2    1    1    2  501    0  0.66318805311E+02 -0.50351445859E+02 -0.18224197181E+03  0.20036364023E+03  0.00000000000E+00 0. -1.
          1    1    1    2  502    0  0.20329719830E+01 -0.28985964587E+02  0.81898227545E+03  0.81949758183E+03  0.00000000000E+00 0. -1.
         22    1    3    3    0    0 -0.64070033498E+02  0.95630626084E+02  0.27434738803E+03  0.29751752076E+03  0.00000000000E+00 0.  1.
         22    1    3    3    0    0 -0.42817437964E+01 -0.16293215638E+02 -0.48008581451E+01  0.17517147162E+02  0.00000000000E+00 0.  1.
</event>
<event>
 7    1  0.5789396E-006  0.5998624E+02  0.7818608E-02  0.1429190E+00
          2   -1    0    0  502    0  0.00000000000E+00  0.00000000000E+00  0.19380305864E+03  0.19380305864E+03  0.00000000000E+00 0. -1.
          1   -1    0    0  501    0 -0.00000000000E+00 -0.00000000000E+00 -0.33400504949E+03  0.33400504949E+03  0.00000000000E+00 0. -1.
         25    2    1    2    0    0  0.57084792684E+02  0.17843206677E+02 -0.27939594968E+02  0.14136138504E+03  0.12500146652E+03 0.  0.
          2    1    1    2  501    0 -0.30304697944E+01 -0.46947132614E+02 -0.24008228696E+03  0.24464815863E+03  0.00000000000E+00 0. -1.
          1    1    1    2  502    0 -0.54054322890E+02  0.29103925937E+02  0.12781989108E+03  0.14179856446E+03  0.00000000000E+00 0. -1.
         22    1    3    3    0    0 -0.39572481640E+01  0.61361841430E+02 -0.24880549412E+02  0.66332323461E+02  0.00000000000E+00 0.  1.
         22    1    3    3    0    0  0.61042040848E+02 -0.43518634753E+02 -0.30590455563E+01  0.75029061579E+02  0.00000000000E+00 0.  1.
</event>
<event>
 7    1  0.7032548E-006  0.1021981E+03  0.7818608E-02  0.1380386E+00
          2   -1    0    0  502    0  0.00000000000E+00  0.00000000000E+00  0.21765009607E+04  0.21765009607E+04  0.00000000000E+00 0. -1.
          1   -1    0    0  501    0 -0.00000000000E+00 -0.00000000000E+00 -0.80241051644E+03  0.80241051644E+03  0.00000000000E+00 0. -1.
         25    2    1    2    0    0 -0.47549510158E+02 -0.92341064213E+02 -0.30911725316E+03  0.34923808258E+03  0.12500373621E+03 0.  0.
          2    1    1    2  501    0  0.84793615411E+01  0.10313690195E+03 -0.46738215782E+03  0.47870157881E+03  0.00000000000E+00 0. -1.
          1    1    1    2  502    0  0.39070148617E+02 -0.10795837734E+02  0.21505898552E+04  0.21509718157E+04  0.00000000000E+00 0. -1.
         22    1    3    3    0    0  0.10996030853E+02  0.17352726998E+02 -0.56808274630E+01  0.21314352663E+02  0.00000000000E+00 0.  1.
         22    1    3    3    0    0 -0.58545541011E+02 -0.10969379121E+03 -0.30343642570E+03  0.32792372992E+03  0.00000000000E+00 0.  1.
</event>
<event>
 7    1  0.5789396E-006  0.1337774E+03  0.7818608E-02  0.1258707E+00
          2   -1    0    0  502    0  0.00000000000E+00  0.00000000000E+00  0.26394941502E+03  0.26394941502E+03  0.00000000000E+00 0. -1.
          1   -1    0    0  501    0 -0.00000000000E+00 -0.00000000000E+00 -0.21919025144E+03  0.21919025144E+03  0.00000000000E+00 0. -1.
         25    2    1    2    0    0  0.32189517484E+02 -0.48319715884E+02  0.14787055620E+03  0.20214350103E+03  0.12500133456E+03 0.  0.
          2    1    1    2  501    0 -0.73256214716E+02  0.13078095949E+03 -0.11387402689E+03  0.18824831038E+03  0.00000000000E+00 0. -1.
          1    1    1    2  502    0  0.41066697232E+02 -0.82461243609E+02  0.10762634277E+02  0.92747855046E+02  0.00000000000E+00 0. -1.
         22    1    3    3    0    0  0.65054936897E+02 -0.31363360630E+02  0.29296978964E+02  0.77936629265E+02  0.00000000000E+00 0.  1.
         22    1    3    3    0    0 -0.32865419413E+02 -0.16956355254E+02  0.11857357723E+03  0.12420687177E+03  0.00000000000E+00 0.  1.
</event>
<event>
 7    1  0.5789396E-006  0.1443699E+03  0.7818608E-02  0.1330838E+00
          2   -1    0    0  502    0  0.00000000000E+00  0.00000000000E+00  0.14630015031E+04  0.14630015031E+04  0.00000000000E+00 0. -1.
          1   -1    0    0  501    0 -0.00000000000E+00 -0.00000000000E+00 -0.22689005218E+03  0.22689005218E+03  0.00000000000E+00 0. -1.
         25    2    1    2    0    0  0.15996598835E+03 -0.64622829345E+02  0.24415924847E+03  0.32404130028E+03  0.12499519257E+03 0.  0.
          2    1    1    2  501    0 -0.20733355489E+02  0.38399286686E+02 -0.18007666671E+03  0.18528891802E+03  0.00000000000E+00 0. -1.
          1    1    1    2  502    0 -0.13923263287E+03  0.26223542659E+02  0.11720288692E+04  0.11805613370E+04  0.00000000000E+00 0. -1.
         22    1    3    3    0    0  0.78471069597E+02 -0.92294924935E+02  0.10447759141E+03  0.15997383861E+03  0.00000000000E+00 0.  1.
         22    1    3    3    0    0  0.81494918758E+02  0.27672095590E+02  0.13968165707E+03  0.16406746167E+03  0.00000000000E+00 0.  1.
</event>
<event>
 7    1  0.5789396E-006  0.5449806E+02  0.7818608E-02  0.1514377E+00
          2   -1    0    0  502    0  0.00000000000E+00  0.00000000000E+00  0.44486172501E+03  0.44486172501E+03  0.00000000000E+00 0. -1.
          1   -1    0    0  501    0 -0.00000000000E+00 -0.00000000000E+00 -0.17272729685E+04  0.17272729685E+04  0.00000000000E+00 0. -1.
         25    2    1    2    0    0  0.76587561369E+02 -0.12993289034E+02 -0.97976606203E+03  0.99075797310E+03  0.12500137936E+03 0.  0.
          2    1    1    2  501    0 -0.48529501170E+02  0.15379437608E+02 -0.74068514928E+03  0.74243257603E+03  0.00000000000E+00 0. -1.
          1    1    1    2  502    0 -0.28058060199E+02 -0.23861485742E+01  0.43803996784E+03  0.43894414436E+03  0.00000000000E+00 0. -1.
         22    1    3    3    0    0  0.65382697854E+02  0.42708274010E+01 -0.95996288370E+03  0.96219638080E+03  0.00000000000E+00 0. -1.
         22    1    3    3    0    0  0.11204863516E+02 -0.17264116435E+02 -0.19803178324E+02  0.28561592295E+02  0.00000000000E+00 0. -1.
</event>
<event>
 7    1  0.5789396E-006  0.7504518E+02  0.7818608E-02  0.1473769E+00
          2   -1    0    0  502    0  0.00000000000E+00  0.00000000000E+00  0.19429967372E+04  0.19429967372E+04  0.00000000000E+00 0. -1.
          1   -1    0    0  501    0 -0.00000000000E+00 -0.00000000000E+00 -0.43594770129E+03  0.43594770129E+03  0.00000000000E+00 0. -1.
         25    2    1    2    0    0  0.25722751706E+02  0.89388070856E+02 -0.25993115493E+03  0.30305078463E+03  0.12499474227E+03 0.  0.
          2    1    1    2  501    0 -0.29017641704E+02 -0.62495041587E+02 -0.14667162076E+03  0.16205004810E+03  0.00000000000E+00 0. -1.
          1    1    1    2  502    0  0.32948899981E+01 -0.26893029269E+02  0.19136518116E+04  0.19138436058E+04  0.00000000000E+00 0. -1.
         22    1    3    3    0    0 -0.31248057066E+02  0.86701054085E+02 -0.11547415541E+03  0.14774232440E+03  0.00000000000E+00 0.  1.
         22    1    3    3    0    0  0.56970808772E+02  0.26870167714E+01 -0.14445699951E+03  0.15530846023E+03  0.00000000000E+00 0.  1.
</event>
<event>
 7    1  0.5789396E-006  0.1637157E+03  0.7818608E-02  0.1333269E+00
          2   -1    0    0  502    0  0.00000000000E+00  0.00000000000E+00  0.25829594825E+04  0.25829594825E+04  0.00000000000E+00 0. -1.
          1   -1    0    0  501    0 -0.00000000000E+00 -0.00000000000E+00 -0.90036113710E+03  0.90036113710E+03  0.00000000000E+00 0. -1.
         25    2    1    2    0    0  0.15297572083E+03  0.11395719372E+03 -0.97302549148E+02  0.24794823398E+03  0.12499090967E+03 0.  0.
          2    1    1    2  501    0 -0.11536276988E+03 -0.11186915115E+03 -0.71872093164E+03  0.73646660022E+03  0.00000000000E+00 0. -1.
          1    1    1    2  502    0 -0.37612950951E+02 -0.20880425707E+01  0.24986218262E+04  0.24989057854E+04  0.00000000000E+00 0. -1.
         22    1    3    3    0    0 -0.18159467389E+01 -0.11157936294E+02 -0.38920518180E+02  0.40529050572E+02  0.00000000000E+00 0.  1.
         22    1    3    3    0    0  0.15479166757E+03  0.12511513001E+03 -0.58382030969E+02  0.20741918341E+03  0.00000000000E+00 0.  1.
</event>
<event>
 7    1  0.5789396E-006  0.5021361E+02  0.7818608E-02  0.1455622E+00
          2   -1    0    0  502    0  0.00000000000E+00  0.00000000000E+00  0.48005799880E+03  0.48005799880E+03  0.00000000000E+00 0. -1.
          1   -1    0    0  501    0 -0.00000000000E+00 -0.00000000000E+00 -0.37629818858E+03  0.37629818858E+03  0.00000000000E+00 0. -1.
         25    2    1    2    0    0  0.82315272706E+02 -0.45139175173E+02 -0.31481621021E+02  0.15946695084E+03  0.12500106676E+03 0.  0.
          2    1    1    2  501    0 -0.44123123732E+02  0.13553815331E+02 -0.27743444419E+03  0.28124798093E+03  0.00000000000E+00 0. -1.
          1    1    1    2  502    0 -0.38192148974E+02  0.31585359842E+02  0.41267587543E+03  0.41564125561E+03  0.00000000000E+00 0. -1.
         22    1    3    3    0    0  0.92564317982E+02 -0.39931167476E+01 -0.58138325400E+02  0.10938081562E+03  0.00000000000E+00 0. -1.
         22    1    3    3    0    0 -0.10249045276E+02 -0.41146058426E+02  0.26656704379E+02  0.50086135221E+02  0.00000000000E+00 0. -1.
</event>
<event>
 7    1  0.5789396E-006  0.1093471E+03  0.7818608E-02  0.1306778E+00
          2   -1    0    0  502    0  0.00000000000E+00  0.00000000000E+00  0.17122103360E+03  0.17122103360E+03  0.00000000000E+00 0. -1.
          1   -1    0    0  501    0 -0.00000000000E+00 -0.00000000000E+00 -0.22086041178E+04  0.22086041178E+04  0.00000000000E+00 0. -1.
         25    2    1    2    0    0 -0.17407227613E+03  0.26607412753E+02 -0.35395610714E+03  0.41463159420E+03  0.12500128557E+03 0.  0.
          2    1    1    2  501    0  0.71461888419E+02 -0.36345184555E+00 -0.18035962738E+04  0.18050114826E+04  0.00000000000E+00 0. -1.
          1    1    1    2  502    0  0.10261038771E+03 -0.26243960907E+02  0.12016929671E+03  0.16018207460E+03  0.00000000000E+00 0. -1.
         22    1    3    3    0    0 -0.17512315122E+03  0.11319490949E+02 -0.22784440483E+03  0.28759228393E+03  0.00000000000E+00 0. -1.
         22    1    3    3    0    0  0.10508750856E+01  0.15287921803E+02 -0.12611170232E+03  0.12703931026E+03  0.00000000000E+00 0. -1.
</event>
<event>
 7    1  0.5789396E-006  0.9742345E+02  0.7818608E-02  0.1334872E+00
          2   -1    0    0  502    0  0.00000000000E+00  0.00000000000E+00  0.69854276942E+03  0.69854276942E+03  0.00000000000E+00 0. -1.
          1   -1    0    0  501    0 -0.00000000000E+00 -0.00000000000E+00 -0.11437637081E+03  0.11437637081E+03  0.00000000000E+00 0. -1.
         25    2    1    2    0    0  0.64939859575E+02  0.14197366987E+03  0.49417364552E+03  0.53310963207E+03  0.12499831829E+03 0.  0.
          2    1    1    2  501    0 -0.46558156634E+02 -0.82317994810E+02 -0.63631968680E+02  0.11398658542E+03  0.00000000000E+00 0. -1.
          1    1    1    2  502    0 -0.18381702941E+02 -0.59655675060E+02  0.15362472176E+03  0.16582292274E+03  0.00000000000E+00 0. -1.
         22    1    3    3    0    0  0.12731091626E+02 -0.12087656601E+02  0.60078145098E+01  0.18554944659E+02  0.00000000000E+00 0. -1.
         22    1    3    3    0    0  0.52208767949E+02  0.15406132647E+03  0.48816583101E+03  0.51455468741E+03  0.00000000000E+00 0. -1.
</event>
<event>
 7    1  0.5789396E-006  0.2328533E+03  0.7818608E-02  0.1226726E+00
          2   -1    0    0  502    0  0.00000000000E+00  0.00000000000E+00  0.16824477741E+04  0.16824477741E+04  0.00000000000E+00 0. -1.
          1   -1    0    0  501    0 -0.00000000000E+00 -0.00000000000E+00 -0.77772692763E+03  0.77772692763E+03  0.00000000000E+00 0. -1.
         25    2    1    2    0    0 -0.68243007226E+02  0.16657172864E+03 -0.15308642070E+03  0.26732580533E+03  0.12499754068E+03 0.  0.
          2    1    1    2  501    0  0.31921859477E+02  0.65794600855E+02 -0.55660850914E+03  0.56139199056E+03  0.00000000000E+00 0. -1.
          1    1    1    2  502    0  0.36321147749E+02 -0.23236632949E+03  0.16144157763E+04  0.16314569058E+04  0.00000000000E+00 0. -1.
         22    1    3    3    0    0  0.33928755615E+02  0.70097749843E+02 -0.44127149915E+02  0.89510113117E+02  0.00000000000E+00 0. -1.
         22    1    3    3    0    0 -0.10217176284E+03  0.96473978794E+02 -0.10895927078E+03  0.17781569221E+03  0.00000000000E+00 0. -1.
</event>
<event>
 7    1  0.5789396E-006  0.1168286E+03  0.7818608E-02  0.1306492E+00
          2   -1    0    0  502    0  0.00000000000E+00  0.00000000000E+00  0.77360843138E+02  0.77360843138E+02  0.00000000000E+00 0. -1.
          1   -1    0    0  501    0 -0.00000000000E+00 -0.00000000000E+00 -0.29216626160E+04  0.29216626160E+04  0.00000000000E+00 0. -1.
         25    2    1    2    0    0  0.19097200409E+01 -0.53600943491E+02 -0.40477349135E+02  0.14191277939E+03  0.12499645190E+03 0.  0.
          2    1    1    2  501    0  0.21413276833E+02  0.11647559896E+03 -0.27849187492E+04  0.27874356555E+04  0.00000000000E+00 0. -1.
          1    1    1    2  502    0 -0.23322996874E+02 -0.62874655471E+02 -0.18905674539E+02  0.69675024317E+02  0.00000000000E+00 0. -1.
         22    1    3    3    0    0  0.58641589954E+02 -0.22691358779E+02  0.47370429944E+01  0.63056906140E+02  0.00000000000E+00 0. -1.
         22    1    3    3    0    0 -0.56731869913E+02 -0.30909584712E+02 -0.45214392130E+02  0.78855873254E+02  0.00000000000E+00 0. -1.
</event>
<event>
 7    1  0.5789396E-006  0.3677543E+02  0.7818608E-02  0.1618233E+00
          2   -1    0    0  502    0  0.00000000000E+00  0.00000000000E+00  0.43812637142E+03  0.43812637142E+03  0.00000000000E+00 0. -1.
          1   -1    0    0  501    0 -0.00000000000E+00 -0.00000000000E+00 -0.50619366885E+03  0.50619366885E+03  0.00000000000E+00 0. -1.
         25    2    1    2    0    0 -0.47342428338E+02  0.15912360524E+02 -0.28304968751E+03  0.31342626728E+03  0.12499756270E+03 0.  0.
          2    1    1    2  501    0  0.10711516559E+02 -0.18879952535E+02 -0.20658761505E+03  0.20772489472E+03  0.00000000000E+00 0. -1.
          1    1    1    2  502    0  0.36630911779E+02  0.29675920114E+01  0.42157000514E+03  0.42316887827E+03  0.00000000000E+00 0. -1.
         22    1    3    3    0    0  0.21539029286E+02  0.43308109115E+02 -0.53118341988E+02  0.71840659471E+02  0.00000000000E+00 0.  1.
         22    1    3    3    0    0 -0.68881457624E+02 -0.27395748591E+02 -0.22993134553E+03  0.24158560781E+03  0.00000000000E+00 0.  1.
</event>
<event>
 7    1  0.5789396E-006  0.5745572E+02  0.7818608E-02  0.1479038E+00
          2   -1    0    0  502    0  0.00000000000E+00  0.00000000000E+00  0.15410774890E+04  0.15410774890E+04  0.00000000000E+00 0. -1.
          1   -1    0    0  501    0 -0.00000000000E+00 -0.00000000000E+00 -0.31224207091E+02  0.31224207091E+02  0.00000000000E+00 0. -1.
         25    2    1    2    0    0  0.12411827469E+02 -0.24997111004E+02  0.16287279109E+03  0.20719586129E+03  0.12499467925E+03 0.  0.
          2    1    1    2  501    0  0.31140559578E+02 -0.13868755949E+02  0.26093230475E+02  0.42929401569E+02  0.00000000000E+00 0. -1.
          1    1    1    2  502    0 -0.43552387047E+02  0.38865866953E+02  0.13208872603E+04  0.13221764332E+04  0.00000000000E+00 0. -1.
         22    1    3    3    0    0  0.54002681550E+02 -0.54067284718E+02  0.10973795952E+03  0.13372352318E+03  0.00000000000E+00 0. -1.
         22    1    3    3    0    0 -0.41590854080E+02  0.29070173714E+02  0.53134831564E+02  0.73472338116E+02  0.00000000000E+00 0. -1.
</event>
<event>
 7    1  0.5789396E-006  0.8478161E+02  0.7818608E-02  0.1343190E+00
          2   -1    0    0  502    0  0.00000000000E+00  0.00000000000E+00  0.18855307693E+04  0.18855307693E+04  0.00000000000E+00 0. -1.
          1   -1    0    0  501    0 -0.00000000000E+00 -0.00000000000E+00 -0.15422996355E+03  0.15422996355E+03  0.00000000000E+00 0. -1.
         25    2    1    2    0    0  0.86337243755E+02  0.31722941902E+02  0.41315067080E+03  0.44133775299E+03  0.12500028290E+03 0.  0.
          2    1    1    2  501    0 -0.73077678324E+01 -0.66336151419E+02 -0.13083420055E+03  0.14687231356E+03  0.00000000000E+00 0. -1.
          1    1    1    2  502    0 -0.79029475923E+02  0.34613209516E+02  0.14489843355E+04  0.14515506663E+04  0.00000000000E+00 0. -1.
         22    1    3    3    0    0  0.80628017473E+02  0.33870367653E+02  0.12191288553E+03  0.15003609787E+03  0.00000000000E+00 0.  1.
         22    1    3    3    0    0  0.57092262825E+01 -0.21474257513E+01  0.29123778527E+03  0.29130165511E+03  0.00000000000E+00 0.  1.
</event>
<event>
 7    1  0.5789396E-006  0.4230681E+02  0.7818608E-02  0.1498696E+00
          2   -1    0    0  502    0  0.00000000000E+00  0.00000000000E+00  0.14454104013E+04  0.14454104013E+04  0.00000000000E+00 0. -1.
          1   -1    0    0  501    0 -0.00000000000E+00 -0.00000000000E+00 -0.52308087834E+02  0.52308087834E+02  0.00000000000E+00 0. -1.
         25    2    1    2    0    0  0.79635081340E+02 -0.57172143013E+01  0.83265937771E+03  0.84576615391E+03  0.12499726034E+03 0.  0.
          2    1    1    2  501    0 -0.39897525155E+02  0.12788570931E+02 -0.35335444469E+02  0.54808336007E+02  0.00000000000E+00 0. -1.
          1    1    1    2  502    0 -0.39737556185E+02 -0.70713566299E+01  0.59577838020E+03  0.59714399919E+03  0.00000000000E+00 0. -1.
         22    1    3    3    0    0  0.15237642951E+02 -0.47535148852E+02  0.13570174291E+03  0.14459162897E+03  0.00000000000E+00 0. -1.
         22    1    3    3    0    0  0.64397438389E+02  0.41817934551E+02  0.69695763480E+03  0.70117452494E+03  0.00000000000E+00 0. -1.
</event>
<event>
 7    1  0.5789396E-006  0.1154962E+03  0.7818608E-02  0.1256901E+00
          2   -1    0    0  502    0  0.00000000000E+00  0.00000000000E+00  0.27455975245E+03  0.27455975245E+03  0.00000000000E+00 0. -1.
          1   -1    0    0  501    0 -0.00000000000E+00 -0.00000000000E+00 -0.14579769160E+04  0.14579769160E+04  0.00000000000E+00 0. -1.
         25    2    1    2    0    0 -0.68433915827E+02 -0.25827455784E+02 -0.25474975941E+03  0.29304036620E+03  0.12499983199E+03 0.  0.
          2    1    1    2  501    0 -0.19740112768E+02  0.10681096113E+03 -0.11673916625E+04  0.11724340268E+04  0.00000000000E+00 0. -1.
          1    1    1    2  502    0  0.88174028595E+02 -0.80983505349E+02  0.23872425835E+03  0.26706227547E+03  0.00000000000E+00 0. -1.
         22    1    3    3    0    0 -0.46527307976E+02 -0.67952090717E+02 -0.21788298225E+03  0.23292760887E+03  0.00000000000E+00 0. -1.
         22    1    3    3    0    0 -0.21906607851E+02  0.42124634933E+02 -0.36866777162E+02  0.60112757333E+02  0.00000000000E+00 0. -1.
</event>
<event>
 7    1  0.5789396E-006  0.9398535E+02  0.7818608E-02  0.1356117E+00
          2   -1    0    0  502    0  0.00000000000E+00  0.00000000000E+00  0.12923620732E+04  0.12923620732E+04  0.00000000000E+00 0. -1.
          1   -1    0    0  501    0 -0.00000000000E+00 -0.00000000000E+00 -0.61575402433E+03  0.61575402433E+03  0.00000000000E+00 0. -1.
         25    2    1    2    0    0 -0.41178652574E+02  0.13342504155E+03  0.92754921433E+02  0.20910701449E+03  0.12499737965E+03 0.  0.
          2    1    1    2  501    0  0.35000870233E+02 -0.41006100249E+02 -0.55438910833E+03  0.55700434882E+03  0.00000000000E+00 0. -1.
          1    1    1    2  502    0  0.61777823408E+01 -0.92418941300E+02  0.11382422357E+04  0.11420047342E+04  0.00000000000E+00 0. -1.
         22    1    3    3    0    0 -0.47948627663E+02  0.87090629499E+02  0.11928858419E+03  0.15528559160E+03  0.00000000000E+00 0. -1.
         22    1    3    3    0    0  0.67699750895E+01  0.46334412049E+02 -0.26533662756E+02  0.53821422890E+02  0.00000000000E+00 0. -1.
</event>
<event>
 7    1  0.5789396E-006  0.4071252E+03  0.7818608E-02  0.1153896E+00
          2   -1    0    0  502    0  0.00000000000E+00  0.00000000000E+00  0.22337980538E+04  0.22337980538E+04  0.00000000000E+00 0. -1.
          1   -1    0    0  501    0 -0.00000000000E+00 -0.00000000000E+00 -0.77002165178E+03  0.77002165178E+03  0.00000000000E+00 0. -1.
         25    2    1    2    0    0  0.25396346262E+03  0.35349523298E+03  0.25900969676E+03  0.52169251415E+03  0.12498294371E+03 0.  0.
          2    1    1    2  501    0 -0.29897897359E+03 -0.27149584229E+03 -0.57348582125E+03  0.70141600082E+03  0.00000000000E+00 0. -1.
          1    1    1    2  502    0  0.45015510962E+02 -0.81999390689E+02  0.17782525265E+04  0.17807111906E+04  0.00000000000E+00 0. -1.
         22    1    3    3    0    0  0.18342509505E+03  0.20696213967E+03  0.22268298767E+03  0.35505746823E+03  0.00000000000E+00 0.  1.
         22    1    3    3    0    0  0.70538367578E+02  0.14653309331E+03  0.36326709088E+02  0.16663504592E+03  0.00000000000E+00 0.  1.
</event>
<event>
 7    1  0.5789396E-006  0.1466217E+03  0.7818608E-02  0.1223768E+00
          2   -1    0    0  502    0  0.00000000000E+00  0.00000000000E+00  0.44190993938E+04  0.44190993938E+04  0.00000000000E+00 0. -1.
          1   -1    0    0  501    0 -0.00000000000E+00 -0.00000000000E+00 -0.18959461231E+04  0.18959461231E+04  0.00000000000E+00 0. -1.
         25    2    1    2    0    0 -0.34465586782E+02 -0.20964632526E+03 -0.61561716507E+03  0.66313528329E+03  0.12499780657E+03 0.  0.
          2    1    1    2  501    0  0.93112357853E+02  0.75330875295E+02 -0.12524906414E+04  0.12582040609E+04  0.00000000000E+00 0. -1.
          1    1    1    2  502    0 -0.58646771071E+02  0.13431544997E+03  0.43912610772E+04  0.43937061727E+04  0.00000000000E+00 0. -1.
         22    1    3    3    0    0 -0.22662974431E+02 -0.12761293808E+03 -0.52313216902E+03  0.53894892025E+03  0.00000000000E+00 0. -1.
         22    1    3    3    0    0 -0.11802612351E+02 -0.82033387182E+02 -0.92484996052E+02  0.12418636304E+03  0.00000000000E+00 0. -1.
</event>
<event>
 7    1  0.5789396E-006  0.2287828E+03  0.7818608E-02  0.1220162E+00
          2   -1    0    0  502    0  0.00000000000E+00  0.00000000000E+00  0.23722140673E+04  0.23722140673E+04  0.00000000000E+00 0. -1.
          1   -1    0    0  501    0 -0.00000000000E+00 -0.00000000000E+00 -0.16679419879E+04  0.16679419879E+04  0.00000000000E+00 0. -1.
         25    2    1    2    0    0  0.68664210826E+02 -0.29685220707E+03  0.58730359444E+02  0.33452959899E+03  0.12499916317E+03 0.  0.
          2    1    1    2  501    0 -0.97500239064E+01  0.79110501061E+02 -0.15231504776E+04  0.15252347071E+04  0.00000000000E+00 0. -1.
          1    1    1    2  502    0 -0.58914186919E+02  0.21774170601E+03  0.21686921976E+04  0.21803917492E+04  0.00000000000E+00 0. -1.
         22    1    3    3    0    0  0.10291467274E+03 -0.21984567527E+03  0.26050366658E+02  0.24413556153E+03  0.00000000000E+00 0.  1.
         22    1    3    3    0    0 -0.34250461914E+02 -0.77006531801E+02  0.32679992786E+02  0.90394037468E+02  0.00000000000E+00 0.  1.
</event>
<event>
 7    1  0.5789396E-006  0.1643501E+03  0.7818608E-02  0.1236247E+00
          2   -1    0    0  502    0  0.00000000000E+00  0.00000000000E+00  0.40982557327E+03  0.40982557327E+03  0.00000000000E+00 0. -1.
          1   -1    0    0  501    0 -0.00000000000E+00 -0.00000000000E+00 -0.94226875871E+03  0.94226875871E+03  0.00000000000E+00 0. -1.
         25    2    1    2    0    0  0.92197609971E+02 -0.22447975227E+03 -0.13819998938E+03  0.30596766622E+03  0.12500166895E+03 0.  0.
          2    1    1    2  501    0 -0.33979762176E+01  0.93871706824E+02 -0.69771892397E+03  0.70401359393E+03  0.00000000000E+00 0. -1.
          1    1    1    2  502    0 -0.88799633754E+02  0.13060804545E+03  0.30347572790E+03  0.34211307183E+03  0.00000000000E+00 0. -1.
         22    1    3    3    0    0 -0.25749682372E+02 -0.11291124086E+02 -0.23655594540E+02  0.36744016907E+02  0.00000000000E+00 0.  1.
         22    1    3    3    0    0  0.11794729234E+03 -0.21318862819E+03 -0.11454439484E+03  0.26922364931E+03  0.00000000000E+00 0.  1.
</event>
<event>
 7    1  0.5789396E-006  0.1481219E+03  0.7818608E-02  0.1281791E+00
          2   -1    0    0  502    0  0.00000000000E+00  0.00000000000E+00  0.20326218528E+03  0.20326218528E+03  0.00000000000E+00 0. -1.
          1   -1    0    0  501    0 -0.00000000000E+00 -0.00000000000E+00 -0.25983174208E+04  0.25983174208E+04  0.00000000000E+00 0. -1.
         25    2    1    2    0    0  0.64359057300E+00 -0.17207682521E+03 -0.78904230177E+03  0.81720478094E+03  0.12500020807E+03 0.  0.
          2    1    1    2  501    0  0.56159081591E+02  0.35726990964E+02 -0.17656389802E+04  0.17668931119E+04  0.00000000000E+00 0. -1.
          1    1    1    2  502    0 -0.56802672164E+02  0.13634983425E+03  0.15962604651E+03  0.21748171323E+03  0.00000000000E+00 0. -1.
         22    1    3    3    0    0  0.15457891150E+02 -0.18875000087E+03 -0.72749002731E+03  0.75173615655E+03  0.00000000000E+00 0. -1.
         22    1    3    3    0    0 -0.14814300577E+02  0.16673175655E+02 -0.61552274463E+02  0.65468624390E+02  0.00000000000E+00 0. -1.
</event>
<event>
 7    1  0.5789396E-006  0.8584454E+02  0.7818608E-02  0.1478292E+00
          2   -1    0    0  502    0  0.00000000000E+00  0.00000000000E+00  0.37360936069E+03  0.37360936069E+03  0.00000000000E+00 0. -1.
          1   -1    0    0  501    0 -0.00000000000E+00 -0.00000000000E+00 -0.74266920064E+03  0.74266920064E+03  0.00000000000E+00 0. -1.
         25    2    1    2    0    0 -0.79130263550E+02 -0.23095401441E+02 -0.28406922219E+02  0.15240332010E+03  0.12499929028E+03 0.  0.
          2    1    1    2  501    0  0.73274621628E+02  0.45272017647E+02 -0.64899280697E+03  0.65468342674E+03  0.00000000000E+00 0. -1.
          1    1    1    2  502    0  0.58556419216E+01 -0.22176616206E+02  0.30833988924E+03  0.30919181448E+03  0.00000000000E+00 0. -1.
         22    1    3    3    0    0 -0.10338398738E+03  0.44494854388E+01 -0.44103863824E+02  0.11248643284E+03  0.00000000000E+00 0.  1.
         22    1    3    3    0    0  0.24253723833E+02 -0.27544886879E+02  0.15696941605E+02  0.39916887263E+02  0.00000000000E+00 0.  1.
</event>
<event>
 7    1  0.5789396E-006  0.5503754E+02  0.7818608E-02  0.1491276E+00
          2   -1    0    0  502    0  0.00000000000E+00  0.00000000000E+00  0.18312068257E+04  0.18312068257E+04  0.00000000000E+00 0. -1.
          1   -1    0    0  501    0 -0.00000000000E+00 -0.00000000000E+00 -0.35496578210E+03  0.35496578210E+03  0.00000000000E+00 0. -1.
         25    2    1    2    0    0 -0.85002843540E+02 -0.11413865005E+02  0.23680462638E+03  0.28116921364E+03  0.12499574353E+03 0.  0.
          2    1    1    2  501    0  0.54770187029E+02 -0.94235469778E+00 -0.33035826394E+03  0.33486899524E+03  0.00000000000E+00 0. -1.
          1    1    1    2  502    0  0.30232656512E+02  0.12356219702E+02  0.15697946811E+04  0.15701343989E+04  0.00000000000E+00 0. -1.
         22    1    3    3    0    0 -0.43951083394E+02  0.33079284588E+02  0.20605091014E+03  0.21326723698E+03  0.00000000000E+00 0.  1.
         22    1    3    3    0    0 -0.41051760147E+02 -0.44493149593E+02  0.30753716242E+02  0.67901976661E+02  0.00000000000E+00 0.  1.
</event>
<event>
 7    1  0.5789396E-006  0.9297679E+02  0.7818608E-02  0.1369623E+00
          2   -1    0    0  502    0  0.00000000000E+00  0.00000000000E+00  0.42210775184E+03  0.42210775184E+03  0.00000000000E+00 0. -1.
          1   -1    0    0  501    0 -0.00000000000E+00 -0.00000000000E+00 -0.12998835287E+04  0.12998835287E+04  0.00000000000E+00 0. -1.
         25    2    1    2    0    0 -0.37742068627E+02  0.39654998950E+02  0.89309729534E+02  0.16308823375E+03  0.12499824604E+03 0.  0.
          2    1    1    2  501    0 -0.42468883649E+02  0.23780981589E+02 -0.12536724643E+04  0.12546169889E+04  0.00000000000E+00 0. -1.
          1    1    1    2  502    0  0.80210952277E+02 -0.63435980538E+02  0.28658695797E+03  0.30428605780E+03  0.00000000000E+00 0. -1.
         22    1    3    3    0    0 -0.77408294467E+01  0.66327672833E+01  0.11239344635E+03  0.11285477758E+03  0.00000000000E+00 0.  1.
         22    1    3    3    0    0 -0.30001239181E+02  0.33022231666E+02 -0.23083716811E+02  0.50233456166E+02  0.00000000000E+00 0.  1.
</event>
<event>
 7    1  0.5789396E-006  0.2007338E+03  0.7818608E-02  0.1353063E+00
          2   -1    0    0  502    0  0.00000000000E+00  0.00000000000E+00  0.11897286597E+04  0.11897286597E+04  0.00000000000E+00 0. -1.
          1   -1    0    0  501    0 -0.00000000000E+00 -0.00000000000E+00 -0.39288120074E+03  0.39288120074E+03  0.00000000000E+00 0. -1.
         25    2    1    2    0    0 -0.14274455751E+03 -0.16132384840E+03  0.41372790599E+03  0.48290819147E+03  0.12501259311E+03 0.  0.
          2    1    1    2  501    0  0.11685439676E+03  0.16216774427E+03 -0.33015994125E+03  0.38595195831E+03  0.00000000000E+00 0. -1.
          1    1    1    2  502    0  0.25890160749E+02 -0.84389586937E+00  0.71327949418E+03  0.71374971061E+03  0.00000000000E+00 0. -1.
         22    1    3    3    0    0 -0.29932133943E+02 -0.25463281888E+01  0.54230384371E+01  0.30525821455E+02  0.00000000000E+00 0. -1.
         22    1    3    3    0    0 -0.11281242357E+03 -0.15877752021E+03  0.40830486755E+03  0.45238237002E+03  0.00000000000E+00 0. -1.
</event>
<event>
 7    1  0.5789396E-006  0.4056358E+02  0.7818608E-02  0.1511003E+00
          2   -1    0    0  502    0  0.00000000000E+00  0.00000000000E+00  0.29713900998E+03  0.29713900998E+03  0.00000000000E+00 0. -1.
          1   -1    0    0  501    0 -0.00000000000E+00 -0.00000000000E+00 -0.22697031790E+03  0.22697031790E+03  0.00000000000E+00 0. -1.
         25    2    1    2    0    0 -0.26593003160E+02  0.68237404280E+02  0.84276290309E+01  0.14512058741E+03  0.12500171519E+03 0.  0.
          2    1    1    2  501    0  0.51371339600E+00 -0.39638284181E+02 -0.15440096953E+03  0.15940864740E+03  0.00000000000E+00 0. -1.
          1    1    1    2  502    0  0.26079289764E+02 -0.28599120099E+02  0.21614203258E+03  0.21958009307E+03  0.00000000000E+00 0. -1.
         22    1    3    3    0    0 -0.18626569565E+02  0.49468189615E+02 -0.56319092172E+02  0.77239180605E+02  0.00000000000E+00 0. -1.
         22    1    3    3    0    0 -0.79664335955E+01  0.18769214665E+02  0.64746721203E+02  0.67881406805E+02  0.00000000000E+00 0. -1.
</event>
<event>
 7    1  0.5789396E-006  0.1416844E+03  0.7818608E-02  0.1307352E+00
          2   -1    0    0  502    0  0.00000000000E+00  0.00000000000E+00  0.38290292658E+02  0.38290292658E+02  0.00000000000E+00 0. -1.
          1   -1    0    0  501    0 -0.00000000000E+00 -0.00000000000E+00 -0.22565682496E+04  0.22565682496E+04  0.00000000000E+00 0. -1.
         25    2    1    2    0    0 -0.10259626790E+03  0.25441442968E+00 -0.90907163809E+03  0.92334260995E+03  0.12499709303E+03 0.  0.
          2    1    1    2  501    0 -0.43770210510E+02 -0.33080154746E+02 -0.11553013348E+04  0.11566033469E+04  0.00000000000E+00 0. -1.
          1    1    1    2  502    0  0.14636647841E+03  0.32825740317E+02 -0.15390498403E+03  0.21491258534E+03  0.00000000000E+00 0. -1.
         22    1    3    3    0    0  0.91737717064E+01 -0.40141875671E+02 -0.29685205917E+03  0.29969429975E+03  0.00000000000E+00 0. -1.
         22    1    3    3    0    0 -0.11177003960E+03  0.40396290101E+02 -0.61221957892E+03  0.62364831021E+03  0.00000000000E+00 0. -1.
</event>
<event>
 7    1  0.5789396E-006  0.8217026E+02  0.7818608E-02  0.1337943E+00
          2   -1    0    0  502    0  0.00000000000E+00  0.00000000000E+00  0.12050490983E+04  0.12050490983E+04  0.00000000000E+00 0. -1.
          1   -1    0    0  501    0 -0.00000000000E+00 -0.00000000000E+00 -0.20025557344E+04  0.20025557344E+04  0.00000000000E+00 0. -1.
         25    2    1    2    0    0 -0.10028061372E+03  0.42181998023E+02 -0.72447953190E+02  0.18085781489E+03  0.12500128335E+03 0.  0.
          2    1    1    2  501    0  0.22428037136E+02 -0.68478345017E+02 -0.18737425891E+04  0.18751276198E+04  0.00000000000E+00 0. -1.
          1    1    1    2  502    0  0.77852576585E+02  0.26296346994E+02  0.11486839062E+04  0.11516193980E+04  0.00000000000E+00 0. -1.
         22    1    3    3    0    0 -0.68903460169E+01 -0.18470686879E+02 -0.66478999195E+02  0.69340467809E+02  0.00000000000E+00 0. -1.
         22    1    3    3    0    0 -0.93390267704E+02  0.60652684901E+02 -0.59689539942E+01  0.11151734708E+03  0.00000000000E+00 0. -1.
</event>
<event>
 7    1  0.5789396E-006  0.5516127E+02  0.7818608E-02  0.1445822E+00
          2   -1    0    0  502    0  0.00000000000E+00  0.00000000000E+00  0.17229153879E+03  0.17229153879E+03  0.00000000000E+00 0. -1.
          1   -1    0    0  501    0 -0.00000000000E+00 -0.00000000000E+00 -0.17243430302E+04  0.17243430302E+04  0.00000000000E+00 0. -1.
         25    2    1    2    0    0  0.14061239687E+02  0.97693086382E+02 -0.65008681066E+01  0.15940758023E+03  0.12500743082E+03 0.  0.
          2    1    1    2  501    0 -0.15850414306E+02 -0.52567877265E+02 -0.16355823258E+04  0.16365036394E+04  0.00000000000E+00 0. -1.
          1    1    1    2  502    0  0.17891746198E+01 -0.45125209117E+02  0.90031702504E+02  0.10072334933E+03  0.00000000000E+00 0. -1.
         22    1    3    3    0    0  0.80063615234E+01  0.91296479502E+02  0.48511667624E+02  0.10369441108E+03  0.00000000000E+00 0.  1.
         22    1    3    3    0    0  0.60548781632E+01  0.63966068802E+01 -0.55012535730E+02  0.55713169149E+02  0.00000000000E+00 0.  1.
</event>
<event>
 7    1  0.5789396E-006  0.8092884E+02  0.7818608E-02  0.1414798E+00
          2   -1    0    0  502    0  0.00000000000E+00  0.00000000000E+00  0.26111836040E+03  0.26111836040E+03  0.00000000000E+00 0. -1.
          1   -1    0    0  501    0 -0.00000000000E+00 -0.00000000000E+00 -0.57529434131E+03  0.57529434131E+03  0.00000000000E+00 0. -1.
         25    2    1    2    0    0  0.85447165073E+02  0.51295867703E+02 -0.75077082892E+02  0.17662026891E+03  0.12500266778E+03 0.  0.
          2    1    1    2  501    0 -0.79023067756E+02 -0.12889653145E+02 -0.44403175958E+03  0.45119285445E+03  0.00000000000E+00 0. -1.
          1    1    1    2  502    0 -0.64240973170E+01 -0.38406214558E+02  0.20493286156E+03  0.20859957835E+03  0.00000000000E+00 0. -1.
         22    1    3    3    0    0  0.10749943006E+03  0.59800194617E+02 -0.31398423143E+02  0.12695688920E+03  0.00000000000E+00 0.  1.
         22    1    3    3    0    0 -0.22052264983E+02 -0.85043269138E+01 -0.43678659749E+02  0.49663379714E+02  0.00000000000E+00 0.  1.
</event>
<event>
 7    1  0.5789396E-006  0.5671027E+02  0.7818608E-02  0.1446202E+00
          2   -1    0    0  502    0  0.00000000000E+00  0.00000000000E+00  0.21958391834E+04  0.21958391834E+04  0.00000000000E+00 0. -1.
          1   -1    0    0  501    0 -0.00000000000E+00 -0.00000000000E+00 -0.32946342928E+02  0.32946342928E+02  0.00000000000E+00 0. -1.
         25    2    1    2    0    0  0.33290882466E+02 -0.44669379050E+02  0.74696404530E+03  0.75939810437E+03  0.12500623848E+03 0.  0.
          2    1    1    2  501    0  0.88166395532E+01  0.56739642879E+02  0.48457501739E+01  0.57624660536E+02  0.00000000000E+00 0. -1.
          1    1    1    2  502    0 -0.42107522019E+02 -0.12070263829E+02  0.14110830450E+04  0.14117627615E+04  0.00000000000E+00 0. -1.
         22    1    3    3    0    0  0.71596086649E+02  0.75829772517E+01  0.40551557412E+03  0.41185723500E+03  0.00000000000E+00 0. -1.
         22    1    3    3    0    0 -0.38305204183E+02 -0.52252356302E+02  0.34144847118E+03  0.34754086937E+03  0.00000000000E+00 0. -1.
</event>
<event>
 7    1  0.5789396E-006  0.2207336E+03  0.7818608E-02  0.1190827E+00
          2   -1    0    0  502    0  0.00000000000E+00  0.00000000000E+00  0.17852286975E+04  0.17852286975E+04  0.00000000000E+00 0. -1.
          1   -1    0    0  501    0 -0.00000000000E+00 -0.00000000000E+00 -0.16369749388E+03  0.16369749388E+03  0.00000000000E+00 0. -1.
         25    2    1    2    0    0 -0.28959928531E+03  0.63092988705E+02  0.42586066753E+03  0.53369535068E+03  0.12499979167E+03 0.  0.
          2    1    1    2  501    0  0.10613152547E+03  0.39598357844E+02 -0.69373966970E+02  0.13283327119E+03  0.00000000000E+00 0. -1.
          1    1    1    2  502    0  0.18346775984E+03 -0.10269134655E+03  0.12650445031E+04  0.12823975696E+04  0.00000000000E+00 0. -1.
         22    1    3    3    0    0 -0.20420226772E+03 -0.10987334895E+02  0.23185118319E+03  0.30915086740E+03  0.00000000000E+00 0.  1.
         22    1    3    3    0    0 -0.85397017592E+02  0.74080323600E+02  0.19400948433E+03  0.22454448328E+03  0.00000000000E+00 0.  1.
</event>
<event>
 7    1  0.5789396E-006  0.1226749E+03  0.7818608E-02  0.1393901E+00
          2   -1    0    0  502    0  0.00000000000E+00  0.00000000000E+00  0.39022336839E+03  0.39022336839E+03  0.00000000000E+00 0. -1.
          1   -1    0    0  501    0 -0.00000000000E+00 -0.00000000000E+00 -0.38998416733E+03  0.38998416733E+03  0.00000000000E+00 0. -1.
         25    2    1    2    0    0 -0.13781385351E+03  0.50622422843E+01 -0.12551783028E+03  0.22449431461E+03  0.12499874823E+03 0.  0.
          2    1    1    2  501    0  0.11541997386E+03 -0.25442358180E+02 -0.19797327576E+03  0.23056995006E+03  0.00000000000E+00 0. -1.
          1    1    1    2  502    0  0.22393879650E+02  0.20380115895E+02  0.32373030711E+03  0.32514327105E+03  0.00000000000E+00 0. -1.
         22    1    3    3    0    0 -0.25466180772E+02  0.51796794458E+02 -0.13887628035E+02  0.59365819220E+02  0.00000000000E+00 0.  1.
         22    1    3    3    0    0 -0.11234767273E+03 -0.46734552174E+02 -0.11163020225E+03  0.16512849539E+03  0.00000000000E+00 0.  1.
</event>
<event>
 7    1  0.5789396E-006  0.1185428E+03  0.7818608E-02  0.1339836E+00
          2   -1    0    0  502    0  0.00000000000E+00  0.00000000000E+00  0.12340643773E+04  0.12340643773E+04  0.00000000000E+00 0. -1.
          1   -1    0    0  501    0 -0.00000000000E+00 -0.00000000000E+00 -0.74246432309E+03  0.74246432309E+03  0.00000000000E+00 0. -1.
         25    2    1    2    0    0  0.35386543822E+02 -0.84394541312E+02  0.87446056542E+03  0.88807700192E+03  0.12499933915E+03 0.  0.
          2    1    1    2  501    0 -0.23876466095E+00  0.11872809917E+03 -0.72912001986E+03  0.73872350843E+03  0.00000000000E+00 0. -1.
          1    1    1    2  502    0 -0.35147779161E+02 -0.34333557861E+02  0.34625950860E+03  0.34972818999E+03  0.00000000000E+00 0. -1.
         22    1    3    3    0    0 -0.65169669773E+01 -0.10123234247E+03  0.72126968006E+03  0.72836831987E+03  0.00000000000E+00 0.  1.
         22    1    3    3    0    0  0.41903510799E+02  0.16837801163E+02  0.15319088536E+03  0.15970868205E+03  0.00000000000E+00 0.  1.
</event>
<event>
 7    1  0.5789396E-006  0.1099583E+03  0.7818608E-02  0.1311455E+00
          2   -1    0    0  502    0  0.00000000000E+00  0.00000000000E+00  0.62979132482E+02  0.62979132482E+02  0.00000000000E+00 0. -1.
          1   -1    0    0  501    0 -0.00000000000E+00 -0.00000000000E+00 -0.27054366571E+04  0.27054366571E+04  0.00000000000E+00 0. -1.
         25    2    1    2    0    0 -0.51229153001E+02  0.58414312311E+02 -0.77717327288E+03  0.79098734067E+03  0.12500407600E+03 0.  0.
          2    1    1    2  501    0  0.11593536527E+03 -0.37157652175E+02 -0.18979787392E+04  0.19018793323E+04  0.00000000000E+00 0. -1.
          1    1    1    2  502    0 -0.64706212268E+02 -0.21256660136E+02  0.32694487510E+02  0.75549116604E+02  0.00000000000E+00 0. -1.
         22    1    3    3    0    0 -0.60438617592E+02  0.16216055687E+02 -0.69799774543E+03  0.70079714582E+03  0.00000000000E+00 0. -1.
         22    1    3    3    0    0  0.92094645907E+01  0.42198256624E+02 -0.79175527450E+02  0.90190194850E+02  0.00000000000E+00 0. -1.
</event>
<event>
 7    1  0.5789396E-006  0.1168767E+03  0.7818608E-02  0.1348500E+00
          2   -1    0    0  502    0  0.00000000000E+00  0.00000000000E+00  0.10365667035E+04  0.10365667035E+04  0.00000000000E+00 0. -1.
          1   -1    0    0  501    0 -0.00000000000E+00 -0.00000000000E+00 -0.41318595202E+03  0.41318595202E+03  0.00000000000E+00 0. -1.
         25    2    1    2    0    0  0.11299836293E+03 -0.39750545347E+02  0.26764725022E+03  0.31876960551E+03  0.12502109808E+03 0.  0.
          2    1    1    2  501    0  0.45836608789E+01  0.46025795532E+02 -0.38155643109E+03  0.38434970262E+03  0.00000000000E+00 0. -1.
          1    1    1    2  502    0 -0.11758202381E+03 -0.62752501854E+01  0.73728993238E+03  0.74663334742E+03  0.00000000000E+00 0. -1.
         22    1    3    3    0    0  0.57954627149E+02  0.38283903901E+02  0.16254720807E+03  0.17676535564E+03  0.00000000000E+00 0.  1.
         22    1    3    3    0    0  0.55043735783E+02 -0.78034449248E+02  0.10510004216E+03  0.14200424987E+03  0.00000000000E+00 0.  1.
</event>
<event>
 7    1  0.5789396E-006  0.2098882E+03  0.7818608E-02  0.1184009E+00
          2   -1    0    0  502    0  0.00000000000E+00  0.00000000000E+00  0.19572008837E+04  0.19572008837E+04  0.00000000000E+00 0. -1.
          1   -1    0    0  501    0 -0.00000000000E+00 -0.00000000000E+00 -0.89256316013E+03  0.89256316013E+03  0.00000000000E+00 0. -1.
         25    2    1    2    0    0 -0.32284612893E+03 -0.47834964662E+01 -0.36697203003E+03  0.50452530260E+03  0.12499922134E+03 0.  0.
          2    1    1    2  501    0  0.12037174531E+03 -0.44961028112E+02 -0.44187990378E+03  0.46018333355E+03  0.00000000000E+00 0. -1.
          1    1    1    2  502    0  0.20247438362E+03  0.49744524578E+02  0.18734896574E+04  0.18850554077E+04  0.00000000000E+00 0. -1.
         22    1    3    3    0    0 -0.25543937614E+02 -0.31357250169E+02 -0.15261768406E+02  0.43228364089E+02  0.00000000000E+00 0.  1.
         22    1    3    3    0    0 -0.29730219132E+03  0.26573753702E+02 -0.35171026162E+03  0.46129693851E+03  0.00000000000E+00 0.  1.
</event>
<event>
 7    1  0.5789396E-006  0.1169481E+03  0.7818608E-02  0.1353359E+00
          2   -1    0    0  502    0  0.00000000000E+00  0.00000000000E+00  0.48301522056E+03  0.48301522056E+03  0.00000000000E+00 0. -1.
          1   -1    0    0  501    0 -0.00000000000E+00 -0.00000000000E+00 -0.70070682102E+03  0.70070682102E+03  0.00000000000E+00 0. -1.
         25    2    1    2    0    0  0.11898128679E+03  0.17059636314E+02  0.21436478349E+03  0.27572805863E+03  0.12500449639E+03 0.  0.
          2    1    1    2  501    0 -0.40466535429E+01 -0.44165811164E+02 -0.65457872838E+03  0.65607949665E+03  0.00000000000E+00 0. -1.
          1    1    1    2  502    0 -0.11493463325E+03  0.27106174850E+02  0.22252234442E+03  0.25191448629E+03  0.00000000000E+00 0. -1.
         22    1    3    3    0    0 -0.13436939848E+01  0.48408057003E+02  0.71155588974E+02  0.86071268949E+02  0.00000000000E+00 0. -1.
         22    1    3    3    0    0  0.12032498078E+03 -0.31348420689E+02  0.14320919452E+03  0.18965678968E+03  0.00000000000E+00 0. -1.
</event>
<event>
 7    1  0.5789396E-006  0.6056277E+02  0.7818608E-02  0.1524575E+00
          2   -1    0    0  502    0  0.00000000000E+00  0.00000000000E+00  0.91990746389E+03  0.91990746389E+03  0.00000000000E+00 0. -1.
          1   -1    0    0  501    0 -0.00000000000E+00 -0.00000000000E+00 -0.54006581232E+03  0.54006581232E+03  0.00000000000E+00 0. -1.
         25    2    1    2    0    0  0.44594777835E+02 -0.49555371757E+01 -0.19810977975E+03  0.23850679940E+03  0.12499902786E+03 0.  0.
          2    1    1    2  501    0 -0.58422156007E+02  0.24164257701E+02 -0.31849417567E+03  0.32470848403E+03  0.00000000000E+00 0. -1.
          1    1    1    2  502    0  0.13827378173E+02 -0.19208720526E+02  0.89644560700E+03  0.89675799279E+03  0.00000000000E+00 0. -1.
         22    1    3    3    0    0  0.59159449450E+02  0.19144212284E+02 -0.20081201014E+03  0.21021846907E+03  0.00000000000E+00 0.  1.
         22    1    3    3    0    0 -0.14564671615E+02 -0.24099749460E+02  0.27022303911E+01  0.28288330322E+02  0.00000000000E+00 0.  1.
</event>
<event>
 7    1  0.5789396E-006  0.7827954E+02  0.7818608E-02  0.1393475E+00
          2   -1    0    0  502    0  0.00000000000E+00  0.00000000000E+00  0.13034438809E+02  0.13034438809E+02  0.00000000000E+00 0. -1.
          1   -1    0    0  501    0 -0.00000000000E+00 -0.00000000000E+00 -0.35124512598E+04  0.35124512598E+04  0.00000000000E+00 0. -1.
         25    2    1    2    0    0  0.51276204846E+02 -0.21251184202E+02 -0.22640549127E+04  0.22681822090E+04  0.12500009440E+03 0.  0.
          2    1    1    2  501    0 -0.95667042445E+02  0.38470711447E+02 -0.11790924740E+04  0.11835925147E+04  0.00000000000E+00 0. -1.
          1    1    1    2  502    0  0.44390837599E+02 -0.17219527245E+02 -0.56269434309E+02  0.73710974886E+02  0.00000000000E+00 0. -1.
         22    1    3    3    0    0 -0.19772763488E+02  0.29236676638E+02 -0.28030053980E+03  0.28251396081E+03  0.00000000000E+00 0.  1.
         22    1    3    3    0    0  0.71048968333E+02 -0.50487860840E+02 -0.19837543729E+04  0.19856682482E+04  0.00000000000E+00 0.  1.
</event>
<event>
 7    1  0.5789396E-006  0.1011793E+03  0.7818608E-02  0.1329567E+00
          2   -1    0    0  502    0  0.00000000000E+00  0.00000000000E+00  0.96037029637E+03  0.96037029637E+03  0.00000000000E+00 0. -1.
          1   -1    0    0  501    0 -0.00000000000E+00 -0.00000000000E+00 -0.17851882778E+04  0.17851882778E+04  0.00000000000E+00 0. -1.
         25    2    1    2    0    0  0.15933136699E+03 -0.93876715359E+01 -0.25356789353E+02  0.20431075314E+03  0.12500121679E+03 0.  0.
          2    1    1    2  501    0 -0.60026806748E+02  0.19018875196E+02 -0.16669006545E+04  0.16680895440E+04  0.00000000000E+00 0. -1.
          1    1    1    2  502    0 -0.99304560240E+02 -0.96312036605E+01  0.86743946238E+03  0.87315827698E+03  0.00000000000E+00 0. -1.
         22    1    3    3    0    0  0.12627448339E+03  0.47991217132E+02 -0.28324668926E+02  0.13802423319E+03  0.00000000000E+00 0. -1.
         22    1    3    3    0    0  0.33056883594E+02 -0.57378888668E+02  0.29678795730E+01  0.66286519948E+02  0.00000000000E+00 0. -1.
</event>
<event>
 7    1  0.5789396E-006  0.1543598E+03  0.7818608E-02  0.1314808E+00
          2   -1    0    0  502    0  0.00000000000E+00  0.00000000000E+00  0.14245643644E+04  0.14245643644E+04  0.00000000000E+00 0. -1.
          1   -1    0    0  501    0 -0.00000000000E+00 -0.00000000000E+00 -0.20991490841E+03  0.20991490841E+03  0.00000000000E+00 0. -1.
         25    2    1    2    0    0 -0.29853615278E+02  0.11050010297E+03  0.18327076608E+03  0.24963740054E+03  0.12501658670E+03 0.  0.
          2    1    1    2  501    0  0.35294212666E+02 -0.15725477443E+03 -0.13941689002E+03  0.21310048041E+03  0.00000000000E+00 0. -1.
          1    1    1    2  502    0 -0.54405973879E+01  0.46754671464E+02  0.11707955799E+04  0.11717413919E+04  0.00000000000E+00 0. -1.
         22    1    3    3    0    0  0.86829231352E+01 -0.25280465486E+02  0.17642804484E+02  0.32027545011E+02  0.00000000000E+00 0.  1.
         22    1    3    3    0    0 -0.38536538414E+02  0.13578056845E+03  0.16562796160E+03  0.21760985553E+03  0.00000000000E+00 0.  1.
</event>
<event>
 7    1  0.5789396E-006  0.7452056E+02  0.7818608E-02  0.1349088E+00
          2   -1    0    0  502    0  0.00000000000E+00  0.00000000000E+00  0.11447393956E+03  0.11447393956E+03  0.00000000000E+00 0. -1.
          1   -1    0    0  501    0 -0.00000000000E+00 -0.00000000000E+00 -0.55529018107E+03  0.55529018107E+03  0.00000000000E+00 0. -1.
         25    2    1    2    0    0  0.17284542667E+02 -0.11902743646E+02 -0.37400037785E+03  0.39489202679E+03  0.12499199762E+03 0.  0.
          2    1    1    2  501    0 -0.34568438347E+02 -0.63362967852E+02 -0.14686581157E+03  0.16364415429E+03  0.00000000000E+00 0. -1.
          1    1    1    2  502    0  0.17283895681E+02  0.75265711497E+02  0.80049947912E+02  0.11122793956E+03  0.00000000000E+00 0. -1.
         22    1    3    3    0    0 -0.20647131728E+02  0.46483174612E+02 -0.10010211916E+03  0.11228278510E+03  0.00000000000E+00 0. -1.
         22    1    3    3    0    0  0.37931674395E+02 -0.58385918257E+02 -0.27389825869E+03  0.28260924168E+03  0.00000000000E+00 0. -1.
</event>
<event>
 7    1  0.5789396E-006  0.1879038E+03  0.7818608E-02  0.1257177E+00
          2   -1    0    0  502    0  0.00000000000E+00  0.00000000000E+00  0.14504635252E+04  0.14504635252E+04  0.00000000000E+00 0. -1.
          1   -1    0    0  501    0 -0.00000000000E+00 -0.00000000000E+00 -0.27112786779E+03  0.27112786779E+03  0.00000000000E+00 0. -1.
         25    2    1    2    0    0 -0.19546113109E+03  0.16661018104E+02  0.71908974438E+03  0.75578015728E+03  0.12502376729E+03 0.  0.
          2    1    1    2  501    0  0.14830138664E+02 -0.64909635090E+02 -0.23583760108E+03  0.24505625440E+03  0.00000000000E+00 0. -1.
          1    1    1    2  502    0  0.18063099242E+03  0.48248616986E+02  0.69608351407E+03  0.72075498127E+03  0.00000000000E+00 0. -1.
         22    1    3    3    0    0 -0.56637167865E+02  0.25540745623E+02  0.77735826875E+02  0.99513603345E+02  0.00000000000E+00 0.  1.
         22    1    3    3    0    0 -0.13882396322E+03 -0.88797275187E+01  0.64135391750E+03  0.65626655394E+03  0.00000000000E+00 0.  1.
</event>
<event>
 7    1  0.5789396E-006  0.4725734E+02  0.7818608E-02  0.1539879E+00
          2   -1    0    0  502    0  0.00000000000E+00  0.00000000000E+00  0.17912425098E+04  0.17912425098E+04  0.00000000000E+00 0. -1.
          1   -1    0    0  501    0 -0.00000000000E+00 -0.00000000000E+00 -0.38128556541E+02  0.38128556541E+02  0.00000000000E+00 0. -1.
         25    2    1    2    0    0 -0.14351080997E+01  0.67391987495E+02  0.33072240464E+03  0.35992295854E+03  0.12499395040E+03 0.  0.
          2    1    1    2  501    0  0.15070776668E+02 -0.43594509217E+02 -0.66151338367E+00  0.46130761356E+02  0.00000000000E+00 0. -1.
          1    1    1    2  502    0 -0.13635668569E+02 -0.23797478277E+02  0.14230530620E+04  0.14233173465E+04  0.00000000000E+00 0. -1.
         22    1    3    3    0    0 -0.19342080105E+02  0.39167218427E+02  0.21118481342E+02  0.48519865172E+02  0.00000000000E+00 0.  1.
         22    1    3    3    0    0  0.17906972006E+02  0.28224769067E+02  0.30960392330E+03  0.31140309336E+03  0.00000000000E+00 0.  1.
</event>
<event>
 7    1  0.5789396E-006  0.1486459E+03  0.7818608E-02  0.1372894E+00
          2   -1    0    0  502    0  0.00000000000E+00  0.00000000000E+00  0.12303493438E+04  0.12303493438E+04  0.00000000000E+00 0. -1.
          1   -1    0    0  501    0 -0.00000000000E+00 -0.00000000000E+00 -0.48124425315E+03  0.48124425315E+03  0.00000000000E+00 0. -1.
         25    2    1    2    0    0  0.82486107046E+02 -0.90772842390E+02 -0.32399201618E+03  0.36829238853E+03  0.12499916053E+03 0.  0.
          2    1    1    2  501    0  0.61642738729E+01 -0.28985065916E+02 -0.12881963517E+03  0.13218407893E+03  0.00000000000E+00 0. -1.
          1    1    1    2  502    0 -0.88650380919E+02  0.11975790831E+03  0.12019167420E+04  0.12111171295E+04  0.00000000000E+00 0. -1.
         22    1    3    3    0    0  0.10375587251E+03 -0.10615018535E+03 -0.26537140473E+03  0.30406434414E+03  0.00000000000E+00 0. -1.
         22    1    3    3    0    0 -0.21269765467E+02  0.15377342962E+02 -0.58620611448E+02  0.64228044389E+02  0.00000000000E+00 0. -1.
</event>
<event>
 7    1  0.5789396E-006  0.2709843E+03  0.7818608E-02  0.1275322E+00
          2   -1    0    0  502    0  0.00000000000E+00  0.00000000000E+00  0.17874864837E+03  0.17874864837E+03  0.00000000000E+00 0. -1.
          1   -1    0    0  501    0 -0.00000000000E+00 -0.00000000000E+00 -0.13510259895E+04  0.13510259895E+04  0.00000000000E+00 0. -1.
         25    2    1    2    0    0  0.31475332790E+02 -0.29830948057E+03 -0.35929653536E+03  0.48445616715E+03  0.12499813916E+03 0.  0.
          2    1    1    2  501    0 -0.36181076730E+02  0.25989918647E+03 -0.90670885160E+03  0.94391609744E+03  0.00000000000E+00 0. -1.
          1    1    1    2  502    0  0.47057439404E+01  0.38410294101E+02  0.93728045868E+02  0.10140237325E+03  0.00000000000E+00 0. -1.
         22    1    3    3    0    0  0.78281695281E+02 -0.16753323577E+03 -0.18486891119E+03  0.26148025399E+03  0.00000000000E+00 0.  1.
         22    1    3    3    0    0 -0.46806362491E+02 -0.13077624480E+03 -0.17442762418E+03  0.22297591316E+03  0.00000000000E+00 0.  1.
</event>
<event>
 7    1  0.5789396E-006  0.1287690E+03  0.7818608E-02  0.1437817E+00
          2   -1    0    0  502    0  0.00000000000E+00  0.00000000000E+00  0.26897839307E+04  0.26897839307E+04  0.00000000000E+00 0. -1.
          1   -1    0    0  501    0 -0.00000000000E+00 -0.00000000000E+00 -0.28848440725E+02  0.28848440725E+02  0.00000000000E+00 0. -1.
         25    2    1    2    0    0  0.10865432148E+02  0.13660052126E+03  0.15827924391E+04  0.15936231504E+04  0.12500032058E+03 0.  0.
          2    1    1    2  501    0 -0.27767355100E+02 -0.12493821901E+03  0.15229313605E+03  0.19893160600E+03  0.00000000000E+00 0. -1.
          1    1    1    2  502    0  0.16901922952E+02 -0.11662302253E+02  0.92584991480E+03  0.92607761501E+03  0.00000000000E+00 0. -1.
         22    1    3    3    0    0  0.65400138362E+02  0.94963301991E+02  0.88905510531E+03  0.89650108037E+03  0.00000000000E+00 0. -1.
         22    1    3    3    0    0 -0.54534706214E+02  0.41637219274E+02  0.69373733380E+03  0.69712207003E+03  0.00000000000E+00 0. -1.
</event>
<event>
 7    1  0.5789396E-006  0.1280500E+03  0.7818608E-02  0.1303168E+00
          2   -1    0    0  502    0  0.00000000000E+00  0.00000000000E+00  0.66300273070E+03  0.66300273070E+03  0.00000000000E+00 0. -1.
          1   -1    0    0  501    0 -0.00000000000E+00 -0.00000000000E+00 -0.88551615991E+02  0.88551615991E+02  0.00000000000E+00 0. -1.
         25    2    1    2    0    0  0.85961285087E+02  0.14171076653E+03  0.28116719570E+03  0.34950206973E+03  0.12500168370E+03 0.  0.
          2    1    1    2  501    0  0.17568859417E+01 -0.63048936354E+02 -0.20945141310E+02  0.66460168282E+02  0.00000000000E+00 0. -1.
          1    1    1    2  502    0 -0.87718171029E+02 -0.78661830172E+02  0.31422906033E+03  0.33559210868E+03  0.00000000000E+00 0. -1.
         22    1    3    3    0    0 -0.98241047932E+01  0.89069500253E+02  0.17761575518E+03  0.19894030612E+03  0.00000000000E+00 0.  1.
         22    1    3    3    0    0  0.95785389880E+02  0.52641266273E+02  0.10355144051E+03  0.15056176361E+03  0.00000000000E+00 0.  1.
</event>
<event>
 7    1  0.5789396E-006  0.1213983E+03  0.7818608E-02  0.1414401E+00
          2   -1    0    0  502    0  0.00000000000E+00  0.00000000000E+00  0.18226789516E+04  0.18226789516E+04  0.00000000000E+00 0. -1.
          1   -1    0    0  501    0 -0.00000000000E+00 -0.00000000000E+00 -0.25060064398E+03  0.25060064398E+03  0.00000000000E+00 0. -1.
         25    2    1    2    0    0 -0.86269571595E+02  0.43248762983E+02 -0.11967956462E+01  0.15792081491E+03  0.12499862791E+03 0.  0.
          2    1    1    2  501    0 -0.25230018979E+02  0.64386091844E+01 -0.16790142345E+03  0.16990849756E+03  0.00000000000E+00 0. -1.
          1    1    1    2  502    0  0.11149959057E+03 -0.49687372167E+02  0.17411765267E+04  0.17454502831E+04  0.00000000000E+00 0. -1.
         22    1    3    3    0    0 -0.63286738682E+01  0.62507782050E+02  0.30444468813E+02  0.69815045736E+02  0.00000000000E+00 0.  1.
         22    1    3    3    0    0 -0.79940897727E+02 -0.19259019067E+02 -0.31641264459E+02  0.88105769172E+02  0.00000000000E+00 0.  1.
</event>
<event>
 7    1  0.5789396E-006  0.1106705E+03  0.7818608E-02  0.1317848E+00
          2   -1    0    0  502    0  0.00000000000E+00  0.00000000000E+00  0.35960767415E+03  0.35960767415E+03  0.00000000000E+00 0. -1.
          1   -1    0    0  501    0 -0.00000000000E+00 -0.00000000000E+00 -0.43022716349E+03  0.43022716349E+03  0.00000000000E+00 0. -1.
         25    2    1    2    0    0 -0.85355960396E+02 -0.12755662800E+03  0.10797755045E+03  0.22547789758E+03  0.12499919029E+03 0.  0.
          2    1    1    2  501    0  0.60003569994E+01  0.63600779851E+02 -0.35495965653E+03  0.36066247551E+03  0.00000000000E+00 0. -1.
          1    1    1    2  502    0  0.79355603397E+02  0.63955848149E+02  0.17636261674E+03  0.20369446455E+03  0.00000000000E+00 0. -1.
         22    1    3    3    0    0  0.24646750514E+02 -0.38541814514E+02  0.61262547911E+02  0.76459358836E+02  0.00000000000E+00 0.  1.
         22    1    3    3    0    0 -0.11000271091E+03 -0.89014813485E+02  0.46715002542E+02  0.14901853875E+03  0.00000000000E+00 0.  1.
</event>
<event>
 7    1  0.5789396E-006  0.1633327E+03  0.7818608E-02  0.1334827E+00
          2   -1    0    0  502    0  0.00000000000E+00  0.00000000000E+00  0.10781893577E+04  0.10781893577E+04  0.00000000000E+00 0. -1.
          1   -1    0    0  501    0 -0.00000000000E+00 -0.00000000000E+00 -0.70501261522E+02  0.70501261522E+02  0.00000000000E+00 0. -1.
         25    2    1    2    0    0  0.10832252282E+03 -0.13373289317E+03  0.41218154075E+03  0.46382136341E+03  0.12497351300E+03 0.  0.
          2    1    1    2  501    0 -0.35885131547E+02 -0.99853616463E+01 -0.24322558353E+02  0.44486368229E+02  0.00000000000E+00 0. -1.
          1    1    1    2  502    0 -0.72437391269E+02  0.14371825482E+03  0.61982911378E+03  0.64038288759E+03  0.00000000000E+00 0. -1.
         22    1    3    3    0    0  0.96917402016E+02 -0.23467558623E+02  0.16281134720E+03  0.19092208855E+03  0.00000000000E+00 0.  1.
         22    1    3    3    0    0  0.11405120801E+02 -0.11026533455E+03  0.24937019355E+03  0.27289927485E+03  0.00000000000E+00 0.  1.
</event>
<event>
 7    1  0.5789396E-006  0.2536506E+03  0.7818608E-02  0.1218863E+00
          2   -1    0    0  502    0  0.00000000000E+00  0.00000000000E+00  0.17982101571E+04  0.17982101571E+04  0.00000000000E+00 0. -1.
          1   -1    0    0  501    0 -0.00000000000E+00 -0.00000000000E+00 -0.21190296236E+04  0.21190296236E+04  0.00000000000E+00 0. -1.
         25    2    1    2    0    0  0.20377934497E+03 -0.14655862545E+03 -0.24205628975E+00  0.28041315753E+03  0.12500411272E+03 0.  0.
          2    1    1    2  501    0 -0.48079850413E+02 -0.54774132306E+02 -0.19682569422E+04  0.19696058662E+04  0.00000000000E+00 0. -1.
          1    1    1    2  502    0 -0.15569949455E+03  0.20133275776E+03  0.16476795320E+04  0.16672207569E+04  0.00000000000E+00 0. -1.
         22    1    3    3    0    0  0.59296468472E+02 -0.93951911123E+02  0.45403817356E+02  0.12001891271E+03  0.00000000000E+00 0. -1.
         22    1    3    3    0    0  0.14448287650E+03 -0.52606714327E+02 -0.45645873646E+02  0.16039424483E+03  0.00000000000E+00 0. -1.
</event>
<event>
 7    1  0.5789396E-006  0.7147111E+02  0.7818608E-02  0.1396982E+00
          2   -1    0    0  502    0  0.00000000000E+00  0.00000000000E+00  0.43756749095E+03  0.43756749095E+03  0.00000000000E+00 0. -1.
          1   -1    0    0  501    0 -0.00000000000E+00 -0.00000000000E+00 -0.96062392174E+03  0.96062392174E+03  0.00000000000E+00 0. -1.
         25    2    1    2    0    0 -0.19626386686E+02 -0.19872717117E+02  0.33643940933E+02  0.13242710187E+03  0.12499961043E+03 0.  0.
          2    1    1    2  501    0 -0.50002586780E+02 -0.84481988212E+01 -0.90653140519E+03  0.90794868762E+03  0.00000000000E+00 0. -1.
          1    1    1    2  502    0  0.69628973466E+02  0.28320915938E+02  0.34983103347E+03  0.35781562320E+03  0.00000000000E+00 0. -1.
         22    1    3    3    0    0  0.45045749677E+02 -0.15500275004E+02 -0.16565131861E+02  0.50435916595E+02  0.00000000000E+00 0. -1.
         22    1    3    3    0    0 -0.64672136363E+02 -0.43724421129E+01  0.50209072794E+02  0.81991185274E+02  0.00000000000E+00 0. -1.
</event>
<event>
 7    1  0.5789396E-006  0.4613347E+03  0.7818608E-02  0.1253954E+00
          2   -1    0    0  502    0  0.00000000000E+00  0.00000000000E+00  0.42327908599E+03  0.42327908599E+03  0.00000000000E+00 0. -1.
          1   -1    0    0  501    0 -0.00000000000E+00 -0.00000000000E+00 -0.19186356071E+04  0.19186356071E+04  0.00000000000E+00 0. -1.
         25    2    1    2    0    0 -0.42746412399E+03  0.11450786902E+03 -0.54511711458E+03  0.71317213598E+03  0.12499679027E+03 0.  0.
          2    1    1    2  501    0 -0.18600670894E+02  0.20926491416E+02 -0.11290915866E+04  0.11294386721E+04  0.00000000000E+00 0. -1.
          1    1    1    2  502    0  0.44606479488E+03 -0.13543436044E+03  0.17885218014E+03  0.49930388498E+03  0.00000000000E+00 0. -1.
         22    1    3    3    0    0 -0.43585932437E+03  0.11437688507E+03 -0.54008786404E+03  0.70338490413E+03  0.00000000000E+00 0.  1.
         22    1    3    3    0    0  0.83952003874E+01  0.13098395000E+00 -0.50292505416E+01  0.97872318532E+01  0.00000000000E+00 0.  1.
</event>
<event>
 7    1  0.5789396E-006  0.4548355E+02  0.7818608E-02  0.1593030E+00
          2   -1    0    0  502    0  0.00000000000E+00  0.00000000000E+00  0.14271830398E+03  0.14271830398E+03  0.00000000000E+00 0. -1.
          1   -1    0    0  501    0 -0.00000000000E+00 -0.00000000000E+00 -0.28444352499E+04  0.28444352499E+04  0.00000000000E+00 0. -1.
         25    2    1    2    0    0  0.27859959780E+02 -0.94541707904E+01  0.48827399532E+02  0.13736783866E+03  0.12498099636E+03 0.  0.
          2    1    1    2  501    0 -0.45512302938E+02 -0.77598121925E+00 -0.27978748347E+04  0.27982450862E+04  0.00000000000E+00 0. -1.
          1    1    1    2  502    0  0.17652343158E+02  0.10230152010E+02  0.47330489233E+02  0.51540629024E+02  0.00000000000E+00 0. -1.
         22    1    3    3    0    0  0.51712518975E+02 -0.28332683065E+02 -0.19880906142E+02  0.62226810760E+02  0.00000000000E+00 0. -1.
         22    1    3    3    0    0 -0.23852559195E+02  0.18878512275E+02  0.68708305674E+02  0.75141027904E+02  0.00000000000E+00 0. -1.
</event>
<event>
 7    1  0.5789396E-006  0.8879810E+02  0.7818608E-02  0.1392067E+00
          2   -1    0    0  502    0  0.00000000000E+00  0.00000000000E+00  0.61207444080E+03  0.61207444080E+03  0.00000000000E+00 0. -1.
          1   -1    0    0  501    0 -0.00000000000E+00 -0.00000000000E+00 -0.83194240026E+03  0.83194240026E+03  0.00000000000E+00 0. -1.
         25    2    1    2    0    0  0.50367437110E+02 -0.15146041461E+01 -0.86449810748E+02  0.16011438999E+03  0.12499550135E+03 0.  0.
          2    1    1    2  501    0  0.37774858200E+02  0.19364825638E+02 -0.70450262689E+03  0.70578033954E+03  0.00000000000E+00 0. -1.
          1    1    1    2  502    0 -0.88142295311E+02 -0.17850221492E+02  0.57108447817E+03  0.57812211153E+03  0.00000000000E+00 0. -1.
         22    1    3    3    0    0  0.77246574496E+02  0.37497530390E+02 -0.66951184833E+02  0.10888323658E+03  0.00000000000E+00 0. -1.
         22    1    3    3    0    0 -0.26879137386E+02 -0.39012134537E+02 -0.19498625915E+02  0.51231153415E+02  0.00000000000E+00 0. -1.
</event>
<event>
 7    1  0.5789396E-006  0.1281565E+03  0.7818608E-02  0.1295354E+00
          2   -1    0    0  502    0  0.00000000000E+00  0.00000000000E+00  0.54434531653E+03  0.54434531653E+03  0.00000000000E+00 0. -1.
          1   -1    0    0  501    0 -0.00000000000E+00 -0.00000000000E+00 -0.35257390496E+03  0.35257390496E+03  0.00000000000E+00 0. -1.
         25    2    1    2    0    0  0.13871086079E+03 -0.21175956864E+01 -0.21293420950E+03  0.28321363950E+03  0.12499520355E+03 0.  0.
          2    1    1    2  501    0 -0.10857751267E+03  0.62778662861E+02 -0.63532529901E+02  0.14059380898E+03  0.00000000000E+00 0. -1.
          1    1    1    2  502    0 -0.30133348124E+02 -0.60661067175E+02  0.46823815097E+03  0.47311177301E+03  0.00000000000E+00 0. -1.
         22    1    3    3    0    0 -0.46831171327E+01 -0.35329837823E+02 -0.21096114787E+02  0.41414672349E+02  0.00000000000E+00 0.  1.
         22    1    3    3    0    0  0.14339397793E+03  0.33212242136E+02 -0.19183809471E+03  0.24179896715E+03  0.00000000000E+00 0.  1.
</event>
<event>
 7    1  0.5789396E-006  0.8735564E+02  0.7818608E-02  0.1348690E+00
          2   -1    0    0  502    0  0.00000000000E+00  0.00000000000E+00  0.17692048632E+04  0.17692048632E+04  0.00000000000E+00 0. -1.
          1   -1    0    0  501    0 -0.00000000000E+00 -0.00000000000E+00 -0.21320156015E+03  0.21320156015E+03  0.00000000000E+00 0. -1.
         25    2    1    2    0    0  0.11076114190E+03 -0.44612771699E+02  0.33059911111E+03  0.37306669251E+03  0.12499861935E+03 0.  0.
          2    1    1    2  501    0 -0.57303080444E+02 -0.23100292861E+02 -0.18564474487E+03  0.19565591700E+03  0.00000000000E+00 0. -1.
          1    1    1    2  502    0 -0.53458061457E+02  0.67713064560E+02  0.14110489368E+04  0.14136838138E+04  0.00000000000E+00 0. -1.
         22    1    3    3    0    0  0.10232218204E+03 -0.19599163831E+02  0.11232512335E+03  0.15320211975E+03  0.00000000000E+00 0. -1.
         22    1    3    3    0    0  0.84389598617E+01 -0.25013607868E+02  0.21827398776E+03  0.21986457276E+03  0.00000000000E+00 0. -1.
</event>
<event>
 7    1  0.5789396E-006  0.9933474E+02  0.7818608E-02  0.1317947E+00
          2   -1    0    0  502    0  0.00000000000E+00  0.00000000000E+00  0.37292783156E+03  0.37292783156E+03  0.00000000000E+00 0. -1.
          1   -1    0    0  501    0 -0.00000000000E+00 -0.00000000000E+00 -0.12751979271E+04  0.12751979271E+04  0.00000000000E+00 0. -1.
         25    2    1    2    0    0  0.17377417842E+02  0.37630438110E+02 -0.86143366924E+03  0.87143654397E+03  0.12496263101E+03 0.  0.
          2    1    1    2  501    0  0.70408978983E+02  0.99593110268E+01 -0.39878389618E+03  0.40507432410E+03  0.00000000000E+00 0. -1.
          1    1    1    2  502    0 -0.87786396825E+02 -0.47589749137E+02  0.35794746989E+03  0.37161489057E+03  0.00000000000E+00 0. -1.
         22    1    3    3    0    0 -0.35978185181E+02  0.29161876562E+02 -0.69311802425E+03  0.69466354475E+03  0.00000000000E+00 0. -1.
         22    1    3    3    0    0  0.53355603023E+02  0.84685615481E+01 -0.16831564499E+03  0.17677299923E+03  0.00000000000E+00 0. -1.
</event>
<event>
 7    1  0.5789396E-006  0.2316503E+03  0.7818608E-02  0.1240516E+00
          2   -1    0    0  502    0  0.00000000000E+00  0.00000000000E+00  0.33383490024E+04  0.33383490024E+04  0.00000000000E+00 0. -1.
          1   -1    0    0  501    0 -0.00000000000E+00 -0.00000000000E+00 -0.19821889107E+03  0.19821889107E+03  0.00000000000E+00 0. -1.
         25    2    1    2    0    0  0.15535673910E+03 -0.20857128976E+03  0.48903127190E+03  0.56781467531E+03  0.12499688518E+03 0.  0.
          2    1    1    2  501    0 -0.63795098243E+02 -0.13127044031E+01 -0.14754789570E+03  0.16075422009E+03  0.00000000000E+00 0. -1.
          1    1    1    2  502    0 -0.91561640855E+02  0.20988399417E+03  0.27986467352E+04  0.28079989981E+04  0.00000000000E+00 0. -1.
         22    1    3    3    0    0  0.25393119782E+02 -0.11127339933E+03  0.28547084049E+03  0.30744134514E+03  0.00000000000E+00 0.  1.
         22    1    3    3    0    0  0.12996361932E+03 -0.97297890437E+02  0.20356043141E+03  0.26037333017E+03  0.00000000000E+00 0.  1.
</event>
<event>
 7    1  0.5789396E-006  0.8210012E+02  0.7818608E-02  0.1380121E+00
          2   -1    0    0  502    0  0.00000000000E+00  0.00000000000E+00  0.42214315193E+02  0.42214315193E+02  0.00000000000E+00 0. -1.
          1   -1    0    0  501    0 -0.00000000000E+00 -0.00000000000E+00 -0.66648201551E+03  0.66648201551E+03  0.00000000000E+00 0. -1.
         25    2    1    2    0    0  0.67984261912E+02 -0.49815337743E+02 -0.23370030738E+03  0.27810822399E+03  0.12499969136E+03 0.  0.
          2    1    1    2  501    0  0.17566893760E+02  0.47416565811E+02 -0.30642280320E+03  0.31056699888E+03  0.00000000000E+00 0. -1.
          1    1    1    2  502    0 -0.85551155672E+02  0.23987719324E+01 -0.84144589736E+02  0.12002110783E+03  0.00000000000E+00 0. -1.
         22    1    3    3    0    0 -0.90713342283E+01 -0.61824442288E+02 -0.55438914272E+02  0.83534567603E+02  0.00000000000E+00 0.  1.
         22    1    3    3    0    0  0.77055596140E+02  0.12009104545E+02 -0.17826139311E+03  0.19457365639E+03  0.00000000000E+00 0.  1.
</event>
<event>
 7    1  0.5789396E-006  0.1403958E+03  0.7818608E-02  0.1417234E+00
          2   -1    0    0  502    0  0.00000000000E+00  0.00000000000E+00  0.67820977222E+03  0.67820977222E+03  0.00000000000E+00 0. -1.
          1   -1    0    0  501    0 -0.00000000000E+00 -0.00000000000E+00 -0.34543920711E+03  0.34543920711E+03  0.00000000000E+00 0. -1.
         25    2    1    2    0    0 -0.14813517937E+03 -0.49897329235E+02  0.24113079613E+03  0.31336230067E+03  0.12497238017E+03 0.  0.
          2    1    1    2  501    0  0.22017776416E+02  0.64345361160E+00 -0.29747493895E+03  0.29828934915E+03  0.00000000000E+00 0. -1.
          1    1    1    2  502    0  0.12611740295E+03  0.49253875623E+02  0.38911470793E+03  0.41199732951E+03  0.00000000000E+00 0. -1.
         22    1    3    3    0    0 -0.11629845630E+03 -0.20150832524E+02  0.70998916686E+02  0.13773972978E+03  0.00000000000E+00 0.  1.
         22    1    3    3    0    0 -0.31836723071E+02 -0.29746496711E+02  0.17013187945E+03  0.17562257089E+03  0.00000000000E+00 0.  1.
</event>
<event>
 7    1  0.5789396E-006  0.8220789E+02  0.7818608E-02  0.1323317E+00
          2   -1    0    0  502    0  0.00000000000E+00  0.00000000000E+00  0.10073925618E+04  0.10073925618E+04  0.00000000000E+00 0. -1.
          1   -1    0    0  501    0 -0.00000000000E+00 -0.00000000000E+00 -0.65607229628E+03  0.65607229628E+03  0.00000000000E+00 0. -1.
         25    2    1    2    0    0  0.70522562788E+02  0.35835240200E+02  0.18672571349E+03  0.23821388255E+03  0.12498706118E+03 0.  0.
          2    1    1    2  501    0 -0.65047163772E+02  0.49770140365E+02 -0.62533583277E+03  0.63067670334E+03  0.00000000000E+00 0. -1.
          1    1    1    2  502    0 -0.54753990154E+01 -0.85605380565E+02  0.78993038480E+03  0.79457427218E+03  0.00000000000E+00 0. -1.
         22    1    3    3    0    0  0.23747298463E+02  0.32376958154E+02  0.18704879655E+03  0.19130983742E+03  0.00000000000E+00 0.  1.
         22    1    3    3    0    0  0.46775264325E+02  0.34582820454E+01 -0.32308305894E+00  0.46904045135E+02  0.00000000000E+00 0.  1.
</event>
<event>
 7    1  0.5789396E-006  0.4964231E+02  0.7818608E-02  0.1496217E+00
          2   -1    0    0  502    0  0.00000000000E+00  0.00000000000E+00  0.68538050664E+03  0.68538050664E+03  0.00000000000E+00 0. -1.
          1   -1    0    0  501    0 -0.00000000000E+00 -0.00000000000E+00 -0.51757621482E+03  0.51757621482E+03  0.00000000000E+00 0. -1.
         25    2    1    2    0    0  0.53626902911E+02  0.26738496748E+02 -0.49547014313E+02  0.14720735122E+03  0.12499722277E+03 0.  0.
          2    1    1    2  501    0 -0.49021041136E+02  0.79478932104E+01 -0.41724456696E+03  0.42018955263E+03  0.00000000000E+00 0. -1.
          1    1    1    2  502    0 -0.46058617748E+01 -0.34686389959E+02  0.63459587310E+03  0.63555981761E+03  0.00000000000E+00 0. -1.
         22    1    3    3    0    0  0.59561073976E+02 -0.31900836997E+02 -0.56213380099E+02  0.87892713215E+02  0.00000000000E+00 0. -1.
         22    1    3    3    0    0 -0.59341710648E+01  0.58639333745E+02  0.66663657854E+01  0.59314638000E+02  0.00000000000E+00 0. -1.
</event>
<event>
 7    1  0.5789396E-006  0.4255715E+02  0.7818608E-02  0.1495190E+00
          2   -1    0    0  502    0  0.00000000000E+00  0.00000000000E+00  0.98848557388E+03  0.98848557388E+03  0.00000000000E+00 0. -1.
          1   -1    0    0  501    0 -0.00000000000E+00 -0.00000000000E+00 -0.53064385350E+03  0.53064385350E+03  0.00000000000E+00 0. -1.
         25    2    1    2    0    0 -0.19947039994E+01  0.11922243823E+01  0.22663629729E+03  0.25883130192E+03  0.12499692541E+03 0.  0.
          2    1    1    2  501    0  0.41348201349E+02  0.10685951565E+02 -0.51309207597E+03  0.51486633385E+03  0.00000000000E+00 0. -1.
          1    1    1    2  502    0 -0.39353497349E+02 -0.11878175947E+02  0.74429749906E+03  0.74543179160E+03  0.00000000000E+00 0. -1.
         22    1    3    3    0    0  0.36123402468E+00  0.45528075728E+01 -0.15755840237E+02  0.16404421611E+02  0.00000000000E+00 0. -1.
         22    1    3    3    0    0 -0.23559380240E+01 -0.33605831905E+01  0.24239213752E+03  0.24242688031E+03  0.00000000000E+00 0. -1.
</event>
<event>
 7    1  0.5789396E-006  0.5403650E+02  0.7818608E-02  0.1446746E+00
          2   -1    0    0  502    0  0.00000000000E+00  0.00000000000E+00  0.18250299229E+04  0.18250299229E+04  0.00000000000E+00 0. -1.
          1   -1    0    0  501    0 -0.00000000000E+00 -0.00000000000E+00 -0.97528221176E+02  0.97528221176E+02  0.00000000000E+00 0. -1.
         25    2    1    2    0    0  0.56656757902E+01  0.74620593027E+02  0.10080578289E+04  0.10185316649E+04  0.12500333275E+03 0.  0.
          2    1    1    2  501    0 -0.35952092716E+02 -0.40282481634E+02 -0.83686261450E+02  0.99592277074E+02  0.00000000000E+00 0. -1.
          1    1    1    2  502    0  0.30286416926E+02 -0.34338111394E+02  0.80313013430E+03  0.80443420214E+03  0.00000000000E+00 0. -1.
         22    1    3    3    0    0  0.37240774559E+02  0.39401760734E+02  0.15582653571E+03  0.16498873680E+03  0.00000000000E+00 0. -1.
         22    1    3    3    0    0 -0.31575098769E+02  0.35218832293E+02  0.85223129320E+03  0.85354292811E+03  0.00000000000E+00 0. -1.
</event>
<event>
 7    1  0.5789396E-006  0.3151119E+02  0.7818608E-02  0.1614829E+00
          2   -1    0    0  502    0  0.00000000000E+00  0.00000000000E+00  0.40014238294E+03  0.40014238294E+03  0.00000000000E+00 0. -1.
          1   -1    0    0  501    0 -0.00000000000E+00 -0.00000000000E+00 -0.52079196807E+03  0.52079196807E+03  0.00000000000E+00 0. -1.
         25    2    1    2    0    0 -0.37109698350E+02 -0.68747289256E+01  0.11997244773E+03  0.17731964658E+03  0.12499790894E+03 0.  0.
          2    1    1    2  501    0  0.26688388508E+02 -0.16777421089E+02 -0.49094746057E+03  0.49195849518E+03  0.00000000000E+00 0. -1.
          1    1    1    2  502    0  0.10421309842E+02  0.23652150015E+02  0.25032542771E+03  0.25165620925E+03  0.00000000000E+00 0. -1.
         22    1    3    3    0    0 -0.17433570571E+02 -0.23862152090E+02 -0.19525747985E+02  0.35420142851E+02  0.00000000000E+00 0.  1.
         22    1    3    3    0    0 -0.19676127780E+02  0.16987423164E+02  0.13949819572E+03  0.14189950373E+03  0.00000000000E+00 0.  1.
</event>
<event>
 7    1  0.5789396E-006  0.3043747E+02  0.7818608E-02  0.1632439E+00
          2   -1    0    0  502    0  0.00000000000E+00  0.00000000000E+00  0.16598253632E+04  0.16598253632E+04  0.00000000000E+00 0. -1.
          1   -1    0    0  501    0 -0.00000000000E+00 -0.00000000000E+00 -0.82494340575E+02  0.82494340575E+02  0.00000000000E+00 0. -1.
         25    2    1    2    0    0 -0.82725285495E+01 -0.17656136334E+02  0.11418795819E+04  0.11488673520E+04  0.12500815611E+03 0.  0.
          2    1    1    2  501    0 -0.23013100291E+02  0.73026217042E+01 -0.76613645147E+02  0.80327963322E+02  0.00000000000E+00 0. -1.
          1    1    1    2  502    0  0.31285628840E+02  0.10353514629E+02  0.51206508594E+03  0.51312438851E+03  0.00000000000E+00 0. -1.
         22    1    3    3    0    0 -0.31098158233E+02 -0.39337133215E+02  0.10593670225E+04  0.10605531547E+04  0.00000000000E+00 0. -1.
         22    1    3    3    0    0  0.22825629683E+02  0.21680996881E+02  0.82512559365E+02  0.88314197325E+02  0.00000000000E+00 0. -1.
</event>
<event>
 7    1  0.5789396E-006  0.9391318E+02  0.7818608E-02  0.1298388E+00
          2   -1    0    0  502    0  0.00000000000E+00  0.00000000000E+00  0.11020657697E+04  0.11020657697E+04  0.00000000000E+00 0. -1.
          1   -1    0    0  501    0 -0.00000000000E+00 -0.00000000000E+00 -0.63733744159E+02  0.63733744159E+02  0.00000000000E+00 0. -1.
         25    2    1    2    0    0  0.84440222612E+02  0.61623995232E+01  0.76446549868E+03  0.77923164259E+03  0.12500531101E+03 0.  0.
          2    1    1    2  501    0 -0.43931316068E+02 -0.86383406740E+02 -0.14827419273E+01  0.96923949647E+02  0.00000000000E+00 0. -1.
          1    1    1    2  502    0 -0.40508906544E+02  0.80221007217E+02  0.27534926876E+03  0.28964392159E+03  0.00000000000E+00 0. -1.
         22    1    3    3    0    0  0.74812538012E+01  0.56566517927E+02  0.23460150226E+03  0.24144068623E+03  0.00000000000E+00 0.  1.
         22    1    3    3    0    0  0.76958968811E+02 -0.50404118404E+02  0.52986399643E+03  0.53779095636E+03  0.00000000000E+00 0.  1.
</event>
<event>
 7    1  0.5789396E-006  0.1535859E+03  0.7818608E-02  0.1207192E+00
          2   -1    0    0  502    0  0.00000000000E+00  0.00000000000E+00  0.85500944144E+03  0.85500944144E+03  0.00000000000E+00 0. -1.
          1   -1    0    0  501    0 -0.00000000000E+00 -0.00000000000E+00 -0.27319500046E+04  0.27319500046E+04  0.00000000000E+00 0. -1.
         25    2    1    2    0    0  0.18540487772E+02  0.93098476252E+01 -0.29440908288E+03  0.32051813668E+03  0.12499897964E+03 0.  0.
          2    1    1    2  501    0 -0.72302024906E+01 -0.16247869109E+03 -0.24147239682E+04  0.24201949185E+04  0.00000000000E+00 0. -1.
          1    1    1    2  502    0 -0.11310285281E+02  0.15316884347E+03  0.83219248790E+03  0.84624639088E+03  0.00000000000E+00 0. -1.
         22    1    3    3    0    0 -0.89057592759E+01 -0.55320983585E+02 -0.14432373388E+03  0.15481945593E+03  0.00000000000E+00 0.  1.
         22    1    3    3    0    0  0.27446247047E+02  0.64630831210E+02 -0.15008534900E+03  0.16569868075E+03  0.00000000000E+00 0.  1.
</event>
<event>
 7    1  0.5789396E-006  0.5804837E+02  0.7818608E-02  0.1460331E+00
          2   -1    0    0  502    0  0.00000000000E+00  0.00000000000E+00  0.44633090406E+03  0.44633090406E+03  0.00000000000E+00 0. -1.
          1   -1    0    0  501    0 -0.00000000000E+00 -0.00000000000E+00 -0.30655656075E+03  0.30655656075E+03  0.00000000000E+00 0. -1.
         25    2    1    2    0    0 -0.40288882954E+02 -0.77606926095E+02  0.37778999818E+03  0.40742553966E+03  0.12499703425E+03 0.  0.
          2    1    1    2  501    0  0.74289717085E+01  0.57388495678E+02 -0.28146678557E+03  0.28735375487E+03  0.00000000000E+00 0. -1.
          1    1    1    2  502    0  0.32859911246E+02  0.20218430416E+02  0.43451130688E+02  0.58108170283E+02  0.00000000000E+00 0. -1.
         22    1    3    3    0    0  0.21170995683E+01  0.16551922503E+02  0.20820562170E+03  0.20887323705E+03  0.00000000000E+00 0.  1.
         22    1    3    3    0    0 -0.42405982522E+02 -0.94158848598E+02  0.16958437649E+03  0.19855230261E+03  0.00000000000E+00 0.  1.
</event>
<event>
 7    1  0.5789396E-006  0.3042915E+02  0.7818608E-02  0.1631884E+00
          2   -1    0    0  502    0  0.00000000000E+00  0.00000000000E+00  0.10863048964E+03  0.10863048964E+03  0.00000000000E+00 0. -1.
          1   -1    0    0  501    0 -0.00000000000E+00 -0.00000000000E+00 -0.43252451926E+03  0.43252451926E+03  0.00000000000E+00 0. -1.
         25    2    1    2    0    0  0.34021624439E+01 -0.22606577955E+02 -0.30231306956E+02  0.13061902649E+03  0.12499906433E+03 0.  0.
          2    1    1    2  501    0  0.20825603937E+02  0.22480533893E+02 -0.34888726698E+03  0.35023050302E+03  0.00000000000E+00 0. -1.
          1    1    1    2  502    0 -0.24227766381E+02  0.12604406208E+00  0.55224544311E+02  0.60305479397E+02  0.00000000000E+00 0. -1.
         22    1    3    3    0    0 -0.12788018667E+02 -0.72847859358E+02 -0.22231932386E+02  0.77230841327E+02  0.00000000000E+00 0.  1.
         22    1    3    3    0    0  0.16190181111E+02  0.50241281402E+02 -0.79993745702E+01  0.53388185162E+02  0.00000000000E+00 0.  1.
</event>
<event>
 7    1  0.5789396E-006  0.3101079E+03  0.7818608E-02  0.1151328E+00
          2   -1    0    0  502    0  0.00000000000E+00  0.00000000000E+00  0.94345787263E+03  0.94345787263E+03  0.00000000000E+00 0. -1.
          1   -1    0    0  501    0 -0.00000000000E+00 -0.00000000000E+00 -0.69282900147E+03  0.69282900147E+03  0.00000000000E+00 0. -1.
         25    2    1    2    0    0  0.33250668732E+03 -0.13922581461E+03 -0.90240498863E+02  0.39206339313E+03  0.12500332809E+03 0.  0.
          2    1    1    2  501    0 -0.22141573577E+03  0.19990789466E+03 -0.39643381569E+03  0.49613291024E+03  0.00000000000E+00 0. -1.
          1    1    1    2  502    0 -0.11109095155E+03 -0.60682080050E+02  0.73730318572E+03  0.74809057074E+03  0.00000000000E+00 0. -1.
         22    1    3    3    0    0  0.27624009939E+02  0.14335205409E+02 -0.33994822389E+02  0.46089391279E+02  0.00000000000E+00 0. -1.
         22    1    3    3    0    0  0.30488267738E+03 -0.15356102002E+03 -0.56245676474E+02  0.34597400185E+03  0.00000000000E+00 0. -1.
</event>
<event>
 7    1  0.5789396E-006  0.7783722E+02  0.7818608E-02  0.1406912E+00
          2   -1    0    0  502    0  0.00000000000E+00  0.00000000000E+00  0.44617481127E+03  0.44617481127E+03  0.00000000000E+00 0. -1.
          1   -1    0    0  501    0 -0.00000000000E+00 -0.00000000000E+00 -0.43425998632E+03  0.43425998632E+03  0.00000000000E+00 0. -1.
         25    2    1    2    0    0  0.84912936026E+02  0.26039804445E+02  0.26960957884E+03  0.31016609776E+03  0.12500162031E+03 0.  0.
          2    1    1    2  501    0 -0.76151481888E+02  0.16111860006E+02 -0.40725937849E+03  0.41463097038E+03  0.00000000000E+00 0. -1.
          1    1    1    2  502    0 -0.87614541382E+01 -0.42151664451E+02  0.14956462461E+03  0.15563772945E+03  0.00000000000E+00 0. -1.
         22    1    3    3    0    0  0.44822515535E+02  0.25929056763E+02  0.17157373942E+02  0.54550429550E+02  0.00000000000E+00 0. -1.
         22    1    3    3    0    0  0.40090420492E+02  0.11074768227E+00  0.25245220489E+03  0.25561566821E+03  0.00000000000E+00 0. -1.
</event>
<event>
 7    1  0.5789396E-006  0.1305837E+03  0.7818608E-02  0.1380951E+00
          2   -1    0    0  502    0  0.00000000000E+00  0.00000000000E+00  0.53983147142E+03  0.53983147142E+03  0.00000000000E+00 0. -1.
          1   -1    0    0  501    0 -0.00000000000E+00 -0.00000000000E+00 -0.12820414600E+03  0.12820414600E+03  0.00000000000E+00 0. -1.
         25    2    1    2    0    0 -0.62803874072E+02  0.84307053039E+02  0.23001628594E+03  0.28210722050E+03  0.12499994508E+03 0.  0.
          2    1    1    2  501    0  0.89405207243E+02 -0.10132194526E+03 -0.55968360112E+02  0.14625964928E+03  0.00000000000E+00 0. -1.
          1    1    1    2  502    0 -0.26601333170E+02  0.17014892220E+02  0.23757939959E+03  0.23966874763E+03  0.00000000000E+00 0. -1.
         22    1    3    3    0    0 -0.71113412937E+02 -0.30886239347E+01  0.71416930471E+02  0.10083171651E+03  0.00000000000E+00 0. -1.
         22    1    3    3    0    0  0.83095388646E+01  0.87395676973E+02  0.15859935547E+03  0.18127550399E+03  0.00000000000E+00 0. -1.
</event>
<event>
 7    1  0.5789396E-006  0.8851183E+02  0.7818608E-02  0.1400850E+00
          2   -1    0    0  502    0  0.00000000000E+00  0.00000000000E+00  0.21827828376E+04  0.21827828376E+04  0.00000000000E+00 0. -1.
          1   -1    0    0  501    0 -0.00000000000E+00 -0.00000000000E+00 -0.14095896637E+03  0.14095896637E+03  0.00000000000E+00 0. -1.
         25    2    1    2    0    0 -0.18520223945E+02 -0.10248135909E+03  0.10569301436E+02  0.16305219997E+03  0.12501552754E+03 0.  0.
          2    1    1    2  501    0 -0.16378605518E+02  0.83532621632E+02 -0.36453453367E+02  0.92600280009E+02  0.00000000000E+00 0. -1.
          1    1    1    2  502    0  0.34898829463E+02  0.18948737462E+02  0.20677080231E+04  0.20680893240E+04  0.00000000000E+00 0. -1.
         22    1    3    3    0    0  0.40208132410E+02 -0.28911099478E+02 -0.32806135883E+02  0.59403603733E+02  0.00000000000E+00 0.  1.
         22    1    3    3    0    0 -0.58728356355E+02 -0.73570259616E+02  0.43375437319E+02  0.10364859624E+03  0.00000000000E+00 0.  1.
</event>
<event>
 7    1  0.5789396E-006  0.6461548E+02  0.7818608E-02  0.1413375E+00
          2   -1    0    0  502    0  0.00000000000E+00  0.00000000000E+00  0.13613630102E+04  0.13613630102E+04  0.00000000000E+00 0. -1.
          1   -1    0    0  501    0 -0.00000000000E+00 -0.00000000000E+00 -0.62186716456E+03  0.62186716456E+03  0.00000000000E+00 0. -1.
         25    2    1    2    0    0 -0.14832321650E+01  0.72726216843E+02  0.75985993600E+03  0.77350122230E+03  0.12500286386E+03 0.  0.
          2    1    1    2  501    0 -0.41876032295E+02 -0.49238854687E+02 -0.61232021987E+03  0.61572243629E+03  0.00000000000E+00 0. -1.
          1    1    1    2  502    0  0.43359264460E+02 -0.23487362156E+02  0.59195612954E+03  0.59400651620E+03  0.00000000000E+00 0. -1.
         22    1    3    3    0    0 -0.46684079602E+02  0.26600715356E+02  0.57842777879E+03  0.58091797753E+03  0.00000000000E+00 0. -1.
         22    1    3    3    0    0  0.45200847437E+02  0.46125501488E+02  0.18143215721E+03  0.19258324477E+03  0.00000000000E+00 0. -1.
</event>
<event>
 7    1  0.5789396E-006  0.1042408E+03  0.7818608E-02  0.1378865E+00
          2   -1    0    0  502    0  0.00000000000E+00  0.00000000000E+00  0.39898652602E+03  0.39898652602E+03  0.00000000000E+00 0. -1.
          1   -1    0    0  501    0 -0.00000000000E+00 -0.00000000000E+00 -0.10508346697E+04  0.10508346697E+04  0.00000000000E+00 0. -1.
         25    2    1    2    0    0  0.53186009889E+02 -0.88371393690E+02 -0.21560345089E+03  0.26971882417E+03  0.12500056482E+03 0.  0.
          2    1    1    2  501    0  0.30683232958E+02  0.26028903552E+02 -0.80031759591E+03  0.80132840891E+03  0.00000000000E+00 0. -1.
          1    1    1    2  502    0 -0.83869242846E+02  0.62342490138E+02  0.36407290313E+03  0.37877396263E+03  0.00000000000E+00 0. -1.
         22    1    3    3    0    0  0.88580605526E+02 -0.47813085901E+02 -0.17649144370E+03  0.20317934088E+03  0.00000000000E+00 0.  1.
         22    1    3    3    0    0 -0.35394595637E+02 -0.40558307789E+02 -0.39112007190E+02  0.66539483297E+02  0.00000000000E+00 0.  1.
</event>
<event>
 7    1  0.5789396E-006  0.1302325E+03  0.7818608E-02  0.1395925E+00
          2   -1    0    0  502    0  0.00000000000E+00  0.00000000000E+00  0.32697404226E+03  0.32697404226E+03  0.00000000000E+00 0. -1.
          1   -1    0    0  501    0 -0.00000000000E+00 -0.00000000000E+00 -0.33188070898E+03  0.33188070898E+03  0.00000000000E+00 0. -1.
         25    2    1    2    0    0  0.86484254588E+02 -0.11729750243E+03  0.52423459340E+02  0.19902831630E+03  0.12500328488E+03 0.  0.
          2    1    1    2  501    0 -0.58575464700E+02  0.11433847460E+03 -0.24149245774E+03  0.27353789314E+03  0.00000000000E+00 0. -1.
          1    1    1    2  502    0 -0.27908789889E+02  0.29590278346E+01  0.18416233168E+03  0.18628854181E+03  0.00000000000E+00 0. -1.
         22    1    3    3    0    0  0.10487269792E+03 -0.59733486724E+02  0.26188551530E+01  0.12071963638E+03  0.00000000000E+00 0.  1.
         22    1    3    3    0    0 -0.18388443329E+02 -0.57564015707E+02  0.49804604187E+02  0.78308679918E+02  0.00000000000E+00 0.  1.
</event>
<event>
 7    1  0.5789396E-006  0.8710977E+02  0.7818608E-02  0.1320707E+00
          2   -1    0    0  502    0  0.00000000000E+00  0.00000000000E+00  0.20031331327E+04  0.20031331327E+04  0.00000000000E+00 0. -1.
          1   -1    0    0  501    0 -0.00000000000E+00 -0.00000000000E+00 -0.10513119573E+03  0.10513119573E+03  0.00000000000E+00 0. -1.
         25    2    1    2    0    0 -0.11666697879E+03 -0.10864686826E+02  0.69781975386E+03  0.71854748491E+03  0.12501541440E+03 0.  0.
          2    1    1    2  501    0  0.58521993285E+02  0.64510992855E+02 -0.73263701543E+02  0.11381591216E+03  0.00000000000E+00 0. -1.
          1    1    1    2  502    0  0.58144985507E+02 -0.53646306029E+02  0.12734458846E+04  0.12759009313E+04  0.00000000000E+00 0. -1.
         22    1    3    3    0    0 -0.10112279152E+03 -0.59334464556E+02  0.54516556093E+03  0.55763060037E+03  0.00000000000E+00 0.  1.
         22    1    3    3    0    0 -0.15544187273E+02  0.48469777729E+02  0.15265419293E+03  0.16091688454E+03  0.00000000000E+00 0.  1.
</event>
<event>
 7    1  0.5789396E-006  0.7597579E+02  0.7818608E-02  0.1341331E+00
          2   -1    0    0  502    0  0.00000000000E+00  0.00000000000E+00  0.76955509119E+03  0.76955509119E+03  0.00000000000E+00 0. -1.
          1   -1    0    0  501    0 -0.00000000000E+00 -0.00000000000E+00 -0.34335910627E+03  0.34335910627E+03  0.00000000000E+00 0. -1.
         25    2    1    2    0    0  0.56189149688E+02 -0.32339275999E+02  0.13776547800E+03  0.19699711007E+03  0.12500194052E+03 0.  0.
          2    1    1    2  501    0  0.54068307711E+01  0.76816860595E+02 -0.30656582300E+03  0.31608965140E+03  0.00000000000E+00 0. -1.
          1    1    1    2  502    0 -0.61595980460E+02 -0.44477584596E+02  0.59499632992E+03  0.59982743598E+03  0.00000000000E+00 0. -1.
         22    1    3    3    0    0  0.81024349036E+02  0.95107675313E+01  0.47373748408E+02  0.94338072240E+02  0.00000000000E+00 0.  1.
         22    1    3    3    0    0 -0.24835199348E+02 -0.41850043530E+02  0.90391729592E+02  0.10265903783E+03  0.00000000000E+00 0.  1.
</event>
<event>
 7    1  0.5789396E-006  0.9083277E+02  0.7818608E-02  0.1332955E+00
          2   -1    0    0  502    0  0.00000000000E+00  0.00000000000E+00  0.72856261958E+03  0.72856261958E+03  0.00000000000E+00 0. -1.
          1   -1    0    0  501    0 -0.00000000000E+00 -0.00000000000E+00 -0.32779922843E+03  0.32779922843E+03  0.00000000000E+00 0. -1.
         25    2    1    2    0    0  0.12717582781E+03  0.26799250995E+01 -0.24001327965E+02  0.17994962026E+03  0.12499971565E+03 0.  0.
          2    1    1    2  501    0 -0.75188978564E+02 -0.46644286597E+02 -0.21528114380E+03  0.23275532829E+03  0.00000000000E+00 0. -1.
          1    1    1    2  502    0 -0.51986849247E+02  0.43964361498E+02  0.64004586291E+03  0.64365689945E+03  0.00000000000E+00 0. -1.
         22    1    3    3    0    0  0.35631693868E+02  0.35086064728E+02  0.39666609706E+02  0.63828594467E+02  0.00000000000E+00 0. -1.
         22    1    3    3    0    0  0.91544133943E+02 -0.32406139629E+02 -0.63667937671E+02  0.11612102580E+03  0.00000000000E+00 0. -1.
</event>
<event>
 7    1  0.5789396E-006  0.2083380E+03  0.7818608E-02  0.1355249E+00
          2   -1    0    0  502    0  0.00000000000E+00  0.00000000000E+00  0.59188965745E+03  0.59188965745E+03  0.00000000000E+00 0. -1.
          1   -1    0    0  501    0 -0.00000000000E+00 -0.00000000000E+00 -0.79022095064E+03  0.79022095064E+03  0.00000000000E+00 0. -1.
         25    2    1    2    0    0 -0.22670990067E+02 -0.18491746363E+03  0.12972715504E+03  0.25915679025E+03  0.12499866011E+03 0.  0.
          2    1    1    2  501    0  0.31822935124E+02  0.20764403260E+03 -0.70989911020E+03  0.74032796120E+03  0.00000000000E+00 0. -1.
          1    1    1    2  502    0 -0.91519450575E+01 -0.22726568968E+02  0.38184066197E+03  0.38262585664E+03  0.00000000000E+00 0. -1.
         22    1    3    3    0    0  0.24287252071E+02 -0.17290322796E+03  0.11254803082E+03  0.20773169256E+03  0.00000000000E+00 0. -1.
         22    1    3    3    0    0 -0.46958242138E+02 -0.12014235677E+02  0.17179124219E+02  0.51425097691E+02  0.00000000000E+00 0. -1.
</event>
<event>
 7    1  0.5789396E-006  0.7210494E+02  0.7818608E-02  0.1446092E+00
          2   -1    0    0  502    0  0.00000000000E+00  0.00000000000E+00  0.25930021698E+04  0.25930021698E+04  0.00000000000E+00 0. -1.
          1   -1    0    0  501    0 -0.00000000000E+00 -0.00000000000E+00 -0.15743230083E+03  0.15743230083E+03  0.00000000000E+00 0. -1.
         25    2    1    2    0    0 -0.32851978581E+02  0.93985402814E+02  0.85105431309E+03  0.86592795181E+03  0.12500106184E+03 0.  0.
          2    1    1    2  501    0 -0.31861841172E+01 -0.34331875206E+02 -0.14730383724E+03  0.15128532609E+03  0.00000000000E+00 0. -1.
          1    1    1    2  502    0  0.36038162698E+02 -0.59653527608E+02  0.17318193932E+04  0.17332211928E+04  0.00000000000E+00 0. -1.
         22    1    3    3    0    0 -0.49098890937E+02 -0.10204223625E+02  0.18953992074E+03  0.19606174749E+03  0.00000000000E+00 0.  1.
         22    1    3    3    0    0  0.16246912356E+02  0.10418962644E+03  0.66151439234E+03  0.66986620432E+03  0.00000000000E+00 0.  1.
</event>
<event>
 7    1  0.5789396E-006  0.1234855E+03  0.7818608E-02  0.1333042E+00
          2   -1    0    0  502    0  0.00000000000E+00  0.00000000000E+00  0.22123200282E+03  0.22123200282E+03  0.00000000000E+00 0. -1.
          1   -1    0    0  501    0 -0.00000000000E+00 -0.00000000000E+00 -0.63274690197E+03  0.63274690197E+03  0.00000000000E+00 0. -1.
         25    2    1    2    0    0  0.10347592317E+03 -0.83828003825E+02  0.83522568962E+01  0.18283794245E+03  0.12500220839E+03 0.  0.
          2    1    1    2  501    0 -0.44187669957E+02 -0.23489433401E+02 -0.51408514726E+03  0.51651509396E+03  0.00000000000E+00 0. -1.
          1    1    1    2  502    0 -0.59288253218E+02  0.10731743723E+03  0.94217991210E+02  0.15462586837E+03  0.00000000000E+00 0. -1.
         22    1    3    3    0    0  0.63447600302E+02 -0.10336597970E+03  0.40541890429E+02  0.12788185416E+03  0.00000000000E+00 0. -1.
         22    1    3    3    0    0  0.40028322873E+02  0.19537975876E+02 -0.32189633533E+02  0.54956088292E+02  0.00000000000E+00 0. -1.
</event>
<event>
 7    1  0.5789396E-006  0.1188333E+03  0.7818608E-02  0.1335677E+00
          2   -1    0    0  502    0  0.00000000000E+00  0.00000000000E+00  0.79225252354E+03  0.79225252354E+03  0.00000000000E+00 0. -1.
          1   -1    0    0  501    0 -0.00000000000E+00 -0.00000000000E+00 -0.28438909862E+04  0.28438909862E+04  0.00000000000E+00 0. -1.
         25    2    1    2    0    0 -0.15898754122E+03 -0.22605422513E+02  0.30519818174E+03  0.36682227392E+03  0.12499842846E+03 0.  0.
          2    1    1    2  501    0  0.50621782132E+02  0.44696849384E+01 -0.28062306200E+04  0.28066907267E+04  0.00000000000E+00 0. -1.
          1    1    1    2  502    0  0.10836575909E+03  0.18135737575E+02  0.44939397555E+03  0.46263050914E+03  0.00000000000E+00 0. -1.
         22    1    3    3    0    0  0.45976505372E+01 -0.17959254944E+02 -0.21074900108E+01  0.18657833281E+02  0.00000000000E+00 0. -1.
         22    1    3    3    0    0 -0.16358519175E+03 -0.46461675688E+01  0.30730567175E+03  0.34816444064E+03  0.00000000000E+00 0. -1.
</event>
<event>
 7    1  0.5789396E-006  0.1056255E+03  0.7818608E-02  0.1399398E+00
          2   -1    0    0  502    0  0.00000000000E+00  0.00000000000E+00  0.98023140883E+03  0.98023140883E+03  0.00000000000E+00 0. -1.
          1   -1    0    0  501    0 -0.00000000000E+00 -0.00000000000E+00 -0.10683721073E+04  0.10683721073E+04  0.00000000000E+00 0. -1.
         25    2    1    2    0    0 -0.77115403619E+01 -0.10403979562E+03 -0.60145135551E+03  0.62309886391E+03  0.12499885691E+03 0.  0.
          2    1    1    2  501    0  0.33623232869E+02  0.16096788675E+01 -0.45259119159E+03  0.45384127133E+03  0.00000000000E+00 0. -1.
          1    1    1    2  502    0 -0.25911692507E+02  0.10243011675E+03  0.96590184862E+03  0.97166338090E+03  0.00000000000E+00 0. -1.
         22    1    3    3    0    0  0.28812977498E+02  0.91879247279E+01 -0.46014347893E+02  0.55062926231E+02  0.00000000000E+00 0.  1.
         22    1    3    3    0    0 -0.36524517860E+02 -0.11322772035E+03 -0.55543700762E+03  0.56803593768E+03  0.00000000000E+00 0.  1.
</event>
<event>
 7    1  0.5789396E-006  0.1719887E+03  0.7818608E-02  0.1231030E+00
          2   -1    0    0  502    0  0.00000000000E+00  0.00000000000E+00  0.23598138002E+04  0.23598138002E+04  0.00000000000E+00 0. -1.
          1   -1    0    0  501    0 -0.00000000000E+00 -0.00000000000E+00 -0.88197172187E+03  0.88197172187E+03  0.00000000000E+00 0. -1.
         25    2    1    2    0    0 -0.16326146744E+02 -0.26251932435E+03  0.19934083170E+03  0.35291040588E+03  0.12500419460E+03 0.  0.
          2    1    1    2  501    0  0.10123969170E+01  0.16906828001E+03 -0.79521916813E+03  0.81299362458E+03  0.00000000000E+00 0. -1.
          1    1    1    2  502    0  0.15313749827E+02  0.93451044343E+02  0.20737204147E+04  0.20758814916E+04  0.00000000000E+00 0. -1.
         22    1    3    3    0    0  0.36598209837E+02 -0.85981334242E+02  0.19611282943E+02  0.95482046584E+02  0.00000000000E+00 0.  1.
         22    1    3    3    0    0 -0.52924356581E+02 -0.17653799011E+03  0.17972954876E+03  0.25742835929E+03  0.00000000000E+00 0.  1.
</event>
<event>
 7    1  0.5789397E-006  0.9738933E+02  0.7818608E-02  0.1324275E+00
          2   -1    0    0  502    0  0.00000000000E+00  0.00000000000E+00  0.34392249448E+04  0.34392249448E+04  0.00000000000E+00 0. -1.
          1   -1    0    0  501    0 -0.00000000000E+00 -0.00000000000E+00 -0.21470809455E+04  0.21470809455E+04  0.00000000000E+00 0. -1.
         25    2    1    2    0    0 -0.11759203822E+02  0.11842188617E+03 -0.39582315958E+03  0.43181325999E+03  0.12499878338E+03 0.  0.
          2    1    1    2  501    0  0.59717692703E+02 -0.33659344917E+02 -0.17318914598E+04  0.17332475827E+04  0.00000000000E+00 0. -1.
          1    1    1    2  502    0 -0.47958488881E+02 -0.84762541255E+02  0.34198586187E+04  0.34212450477E+04  0.00000000000E+00 0. -1.
         22    1    3    3    0    0 -0.31563062918E+02  0.10382218181E+03 -0.39221118227E+03  0.40694579967E+03  0.00000000000E+00 0.  1.
         22    1    3    3    0    0  0.19803859096E+02  0.14599704366E+02 -0.36119773111E+01  0.24867460320E+02  0.00000000000E+00 0.  1.
</event>
<event>
 7    1  0.5789396E-006  0.8830041E+02  0.7818608E-02  0.1368886E+00
          2   -1    0    0  502    0  0.00000000000E+00  0.00000000000E+00  0.10880581516E+04  0.10880581516E+04  0.00000000000E+00 0. -1.
          1   -1    0    0  501    0 -0.00000000000E+00 -0.00000000000E+00 -0.78637804111E+03  0.78637804111E+03  0.00000000000E+00 0. -1.
         25    2    1    2    0    0 -0.45136353271E+02 -0.77560599205E+02  0.20228425408E+02  0.15520110154E+03  0.12500102315E+03 0.  0.
          2    1    1    2  501    0  0.79584418290E+02  0.39189435147E+02 -0.71548613883E+03  0.72096456662E+03  0.00000000000E+00 0. -1.
          1    1    1    2  502    0 -0.34448065018E+02  0.38371164058E+02  0.99693782388E+03  0.99827052450E+03  0.00000000000E+00 0. -1.
         22    1    3    3    0    0 -0.74578518323E+02 -0.11738276066E+02  0.32254567378E+02  0.82098109826E+02  0.00000000000E+00 0.  1.
         22    1    3    3    0    0  0.29442165052E+02 -0.65822323139E+02 -0.12026141970E+02  0.73102991710E+02  0.00000000000E+00 0.  1.
</event>
<event>
 7    1  0.5789396E-006  0.9527315E+02  0.7818608E-02  0.1417699E+00
          2   -1    0    0  502    0  0.00000000000E+00  0.00000000000E+00  0.53817204503E+03  0.53817204503E+03  0.00000000000E+00 0. -1.
          1   -1    0    0  501    0 -0.00000000000E+00 -0.00000000000E+00 -0.40252005628E+03  0.40252005628E+03  0.00000000000E+00 0. -1.
         25    2    1    2    0    0 -0.30900889439E+02 -0.55881380390E+02  0.24303931274E+03  0.28065908014E+03  0.12499527226E+03 0.  0.
          2    1    1    2  501    0  0.50279334427E+02  0.81776475281E+02 -0.37672334691E+03  0.38876198822E+03  0.00000000000E+00 0. -1.
          1    1    1    2  502    0 -0.19378444988E+02 -0.25895094891E+02  0.26933602292E+03  0.27127103294E+03  0.00000000000E+00 0. -1.
         22    1    3    3    0    0 -0.18644855071E+02 -0.31109810024E+02  0.24962623150E+03  0.25224731188E+03  0.00000000000E+00 0.  1.
         22    1    3    3    0    0 -0.12256034368E+02 -0.24771570366E+02 -0.65869187576E+01  0.28411768258E+02  0.00000000000E+00 0.  1.
</event>
<event>
 7    1  0.5789396E-006  0.1746881E+03  0.7818608E-02  0.1244571E+00
          2   -1    0    0  502    0  0.00000000000E+00  0.00000000000E+00  0.28019142651E+03  0.28019142651E+03  0.00000000000E+00 0. -1.
          1   -1    0    0  501    0 -0.00000000000E+00 -0.00000000000E+00 -0.21244131709E+04  0.21244131709E+04  0.00000000000E+00 0. -1.
         25    2    1    2    0    0 -0.70767546933E+02  0.18840252460E+03 -0.40222460107E+03  0.46681119350E+03  0.12499801477E+03 0.  0.
          2    1    1    2  501    0 -0.50423257924E+02 -0.63666491060E+02 -0.16582759589E+04  0.16602635582E+04  0.00000000000E+00 0. -1.
          1    1    1    2  502    0  0.12119080486E+03 -0.12473603354E+03  0.21627881549E+03  0.27752984574E+03  0.00000000000E+00 0. -1.
         22    1    3    3    0    0 -0.60636724102E+02  0.11725624936E+03 -0.13004376455E+03  0.18530305184E+03  0.00000000000E+00 0.  1.
         22    1    3    3    0    0 -0.10130822832E+02  0.71146275243E+02 -0.27218083652E+03  0.28150814166E+03  0.00000000000E+00 0.  1.
</event>
<event>
 7    1  0.5789396E-006  0.5576213E+02  0.7818608E-02  0.1472455E+00
          2   -1    0    0  502    0  0.00000000000E+00  0.00000000000E+00  0.68623231248E+03  0.68623231248E+03  0.00000000000E+00 0. -1.
          1   -1    0    0  501    0 -0.00000000000E+00 -0.00000000000E+00 -0.59388009547E+03  0.59388009547E+03  0.00000000000E+00 0. -1.
         25    2    1    2    0    0  0.47982047817E+02  0.36028538099E+02  0.22131128318E+02  0.14041614448E+03  0.12500629712E+03 0.  0.
          2    1    1    2  501    0  0.79435306061E+01 -0.35939259562E+02 -0.53280881383E+03  0.53407861046E+03  0.00000000000E+00 0. -1.
          1    1    1    2  502    0 -0.55925578423E+02 -0.89278536760E-01  0.60302990252E+03  0.60561765301E+03  0.00000000000E+00 0. -1.
         22    1    3    3    0    0 -0.55923407553E+01  0.69502627140E+02  0.31572616527E+02  0.76542273084E+02  0.00000000000E+00 0.  1.
         22    1    3    3    0    0  0.53574388572E+02 -0.33474089041E+02 -0.94414882089E+01  0.63873871400E+02  0.00000000000E+00 0.  1.
</event>
<event>
 7    1  0.5789396E-006  0.9315398E+02  0.7818608E-02  0.1480831E+00
          2   -1    0    0  502    0  0.00000000000E+00  0.00000000000E+00  0.14811103348E+04  0.14811103348E+04  0.00000000000E+00 0. -1.
          1   -1    0    0  501    0 -0.00000000000E+00 -0.00000000000E+00 -0.36888506280E+03  0.36888506280E+03  0.00000000000E+00 0. -1.
         25    2    1    2    0    0  0.59390670724E+02  0.94039291608E+02 -0.18353040122E+03  0.24835214864E+03  0.12499896571E+03 0.  0.
          2    1    1    2  501    0 -0.22258528248E+01 -0.20641370845E+02 -0.15073796820E+03  0.15216095316E+03  0.00000000000E+00 0. -1.
          1    1    1    2  502    0 -0.57164817900E+02 -0.73397920763E+02  0.14464936414E+04  0.14494822958E+04  0.00000000000E+00 0. -1.
         22    1    3    3    0    0 -0.31790837913E+01  0.70300743043E+02 -0.22358725741E+02  0.73839106596E+02  0.00000000000E+00 0.  1.
         22    1    3    3    0    0  0.62569754516E+02  0.23738548565E+02 -0.16117167548E+03  0.17451304205E+03  0.00000000000E+00 0.  1.
</event>
<event>
 7    1  0.5789396E-006  0.1105016E+03  0.7818608E-02  0.1380378E+00
          2   -1    0    0  502    0  0.00000000000E+00  0.00000000000E+00  0.15345352741E+04  0.15345352741E+04  0.00000000000E+00 0. -1.
          1   -1    0    0  501    0 -0.00000000000E+00 -0.00000000000E+00 -0.10035468712E+03  0.10035468712E+03  0.00000000000E+00 0. -1.
         25    2    1    2    0    0 -0.29869813841E+02  0.72494951065E+02  0.34522486842E+03  0.37543666066E+03  0.12499901074E+03 0.  0.
          2    1    1    2  501    0  0.29862744379E+02 -0.10998585139E+03 -0.46710258844E+02  0.12316866196E+03  0.00000000000E+00 0. -1.
          1    1    1    2  502    0  0.70694625576E-02  0.37490900327E+02  0.11356659774E+04  0.11362846386E+04  0.00000000000E+00 0. -1.
         22    1    3    3    0    0 -0.40840016702E+02 -0.77866925933E+01  0.23491301983E+03  0.23856375758E+03  0.00000000000E+00 0.  1.
         22    1    3    3    0    0  0.10970202861E+02  0.80281643658E+02  0.11031184859E+03  0.13687290309E+03  0.00000000000E+00 0.  1.
</event>
<event>
 7    1  0.5789396E-006  0.1958609E+03  0.7818608E-02  0.1203685E+00
          2   -1    0    0  502    0  0.00000000000E+00  0.00000000000E+00  0.49481190812E+03  0.49481190812E+03  0.00000000000E+00 0. -1.
          1   -1    0    0  501    0 -0.00000000000E+00 -0.00000000000E+00 -0.66262628790E+03  0.66262628790E+03  0.00000000000E+00 0. -1.
         25    2    1    2    0    0 -0.35260542509E+01  0.13005874241E+03  0.70619004485E+02  0.19375174707E+03  0.12499994464E+03 0.  0.
          2    1    1    2  501    0 -0.31515707795E+02  0.10638253033E+03 -0.55558175520E+03  0.56655235355E+03  0.00000000000E+00 0. -1.
          1    1    1    2  502    0  0.35041762045E+02 -0.23644127274E+03  0.31714837094E+03  0.39713409541E+03  0.00000000000E+00 0. -1.
         22    1    3    3    0    0 -0.14252007506E+02  0.12892918541E+03  0.77300081617E+01  0.12994463280E+03  0.00000000000E+00 0. -1.
         22    1    3    3    0    0  0.10725953255E+02  0.11295570023E+01  0.62888996323E+02  0.63807114265E+02  0.00000000000E+00 0. -1.
</event>
<event>
 7    1  0.5789396E-006  0.8196176E+02  0.7818608E-02  0.1422050E+00
          2   -1    0    0  502    0  0.00000000000E+00  0.00000000000E+00  0.86182443291E+03  0.86182443291E+03  0.00000000000E+00 0. -1.
          1   -1    0    0  501    0 -0.00000000000E+00 -0.00000000000E+00 -0.19727687864E+04  0.19727687864E+04  0.00000000000E+00 0. -1.
         25    2    1    2    0    0 -0.19285311602E+02 -0.11371677968E+03 -0.11559143341E+03  0.20564432552E+03  0.12499911966E+03 0.  0.
          2    1    1    2  501    0  0.29127205202E+01  0.81253163191E+02 -0.18108336606E+04  0.18126580226E+04  0.00000000000E+00 0. -1.
          1    1    1    2  502    0  0.16372591082E+02  0.32463616490E+02  0.81548074056E+03  0.81629087117E+03  0.00000000000E+00 0. -1.
         22    1    3    3    0    0  0.16643483079E+02 -0.78320960456E+02 -0.13045203203E+03  0.15306505491E+03  0.00000000000E+00 0. -1.
         22    1    3    3    0    0 -0.35928794681E+02 -0.35395819225E+02  0.14860598622E+02  0.52579270604E+02  0.00000000000E+00 0. -1.
</event>
<event>
 7    1  0.5789396E-006  0.1382179E+03  0.7818608E-02  0.1326030E+00
          2   -1    0    0  502    0  0.00000000000E+00  0.00000000000E+00  0.10834408596E+03  0.10834408596E+03  0.00000000000E+00 0. -1.
          1   -1    0    0  501    0 -0.00000000000E+00 -0.00000000000E+00 -0.45754341839E+03  0.45754341839E+03  0.00000000000E+00 0. -1.
         25    2    1    2    0    0 -0.81466685563E+02 -0.75545038550E+02 -0.33260179604E+03  0.37227971538E+03  0.12499743217E+03 0.  0.
          2    1    1    2  501    0  0.41956611077E+01 -0.47370236720E+02 -0.77333838604E+00  0.47561969590E+02  0.00000000000E+00 0. -1.
          1    1    1    2  502    0  0.77271024455E+02  0.12291527527E+03 -0.15824198001E+02  0.14604581938E+03  0.00000000000E+00 0. -1.
         22    1    3    3    0    0 -0.48388440250E+02 -0.99257286671E+02 -0.15649424471E+03  0.19153041204E+03  0.00000000000E+00 0. -1.
         22    1    3    3    0    0 -0.33078245313E+02  0.23712248121E+02 -0.17610755133E+03  0.18074930335E+03  0.00000000000E+00 0. -1.
</event>
<event>
 7    1  0.5789396E-006  0.9453106E+02  0.7818608E-02  0.1311070E+00
          2   -1    0    0  502    0  0.00000000000E+00  0.00000000000E+00  0.11034135321E+03  0.11034135321E+03  0.00000000000E+00 0. -1.
          1   -1    0    0  501    0 -0.00000000000E+00 -0.00000000000E+00 -0.11573176867E+04  0.11573176867E+04  0.00000000000E+00 0. -1.
         25    2    1    2    0    0  0.11986900820E+03  0.71996273042E+02 -0.20570966060E+03  0.27837760438E+03  0.12500233477E+03 0.  0.
          2    1    1    2  501    0 -0.28554348375E+02 -0.74194915646E+02 -0.88461221057E+03  0.88817734683E+03  0.00000000000E+00 0. -1.
          1    1    1    2  502    0 -0.91314659826E+02  0.21986426039E+01  0.43345537638E+02  0.10110408875E+03  0.00000000000E+00 0. -1.
         22    1    3    3    0    0  0.14598993227E+03  0.67768889361E+02 -0.18035045137E+03  0.24172705268E+03  0.00000000000E+00 0. -1.
         22    1    3    3    0    0 -0.26120924068E+02  0.42273836813E+01 -0.25359209229E+02  0.36650551697E+02  0.00000000000E+00 0. -1.
</event>
<event>
 7    1  0.5789396E-006  0.7227379E+02  0.7818608E-02  0.1378778E+00
          2   -1    0    0  502    0  0.00000000000E+00  0.00000000000E+00  0.11584584107E+04  0.11584584107E+04  0.00000000000E+00 0. -1.
          1   -1    0    0  501    0 -0.00000000000E+00 -0.00000000000E+00 -0.80582329691E+02  0.80582329691E+02  0.00000000000E+00 0. -1.
         25    2    1    2    0    0  0.35447994723E+02 -0.39781123726E+01  0.52781363920E+03  0.54358859196E+03  0.12501573453E+03 0.  0.
          2    1    1    2  501    0  0.48063427551E+02  0.32596438767E+02 -0.57373213401E+02  0.81635203829E+02  0.00000000000E+00 0. -1.
          1    1    1    2  502    0 -0.83511422273E+02 -0.28618326394E+02  0.60743565524E+03  0.61381694463E+03  0.00000000000E+00 0. -1.
         22    1    3    3    0    0 -0.22102845898E+02 -0.43483704037E+02  0.33490302062E+03  0.33843670241E+03  0.00000000000E+00 0. -1.
         22    1    3    3    0    0  0.57550840621E+02  0.39505591664E+02  0.19291061858E+03  0.20515188956E+03  0.00000000000E+00 0. -1.
</event>
<event>
 7    1  0.5789396E-006  0.3624541E+02  0.7818608E-02  0.1579353E+00
          2   -1    0    0  502    0  0.00000000000E+00  0.00000000000E+00  0.24589787371E+04  0.24589787371E+04  0.00000000000E+00 0. -1.
          1   -1    0    0  501    0 -0.00000000000E+00 -0.00000000000E+00 -0.83051056759E+02  0.83051056759E+02  0.00000000000E+00 0. -1.
         25    2    1    2    0    0  0.81834335967E+01 -0.76048858296E+01  0.46681634685E+03  0.48339041733E+03  0.12499596397E+03 0.  0.
          2    1    1    2  501    0  0.27839399567E+02  0.10492389590E+00 -0.71995618601E+02  0.77190752522E+02  0.00000000000E+00 0. -1.
          1    1    1    2  502    0 -0.36022833164E+02  0.74999619337E+01  0.19811069521E+04  0.19814486240E+04  0.00000000000E+00 0. -1.
         22    1    3    3    0    0  0.42066117146E+01  0.28379652285E+02  0.43268305276E+03  0.43363316800E+03  0.00000000000E+00 0. -1.
         22    1    3    3    0    0  0.39768218820E+01 -0.35984538115E+02  0.34133294093E+02  0.49757249334E+02  0.00000000000E+00 0. -1.
</event>
<event>
 7    1  0.5789396E-006  0.4552504E+02  0.7818608E-02  0.1574185E+00
          2   -1    0    0  502    0  0.00000000000E+00  0.00000000000E+00  0.18158537216E+04  0.18158537216E+04  0.00000000000E+00 0. -1.
          1   -1    0    0  501    0 -0.00000000000E+00 -0.00000000000E+00 -0.32857088663E+02  0.32857088663E+02  0.00000000000E+00 0. -1.
         25    2    1    2    0    0  0.21308013308E+02  0.26944141925E+02  0.17478631244E+03  0.21761145558E+03  0.12499788946E+03 0.  0.
          2    1    1    2  501    0 -0.13868037772E+02  0.18206621103E+02  0.65833852526E+00  0.22896220938E+02  0.00000000000E+00 0. -1.
          1    1    1    2  502    0 -0.74399755352E+01 -0.45150763028E+02  0.16075519820E+04  0.16082031338E+04  0.00000000000E+00 0. -1.
         22    1    3    3    0    0  0.42720948511E+02  0.55768622691E+02  0.16656632875E+03  0.18077488927E+03  0.00000000000E+00 0. -1.
         22    1    3    3    0    0 -0.21412935203E+02 -0.28824480766E+02  0.82199836880E+01  0.36836566307E+02  0.00000000000E+00 0. -1.
</event>
<event>
 7    1  0.5789396E-006  0.1172077E+03  0.7818608E-02  0.1403633E+00
          2   -1    0    0  502    0  0.00000000000E+00  0.00000000000E+00  0.28815432536E+03  0.28815432536E+03  0.00000000000E+00 0. -1.
          1   -1    0    0  501    0 -0.00000000000E+00 -0.00000000000E+00 -0.83789436392E+03  0.83789436392E+03  0.00000000000E+00 0. -1.
         25    2    1    2    0    0  0.62810365142E+02  0.92941990668E+02 -0.27725028900E+03  0.32415692219E+03  0.12500652724E+03 0.  0.
          2    1    1    2  501    0 -0.23319021885E+02  0.17801556335E+02 -0.52370398503E+03  0.52452505767E+03  0.00000000000E+00 0. -1.
          1    1    1    2  502    0 -0.39491343257E+02 -0.11074354700E+03  0.25121423547E+03  0.27736670943E+03  0.00000000000E+00 0. -1.
         22    1    3    3    0    0  0.84861569481E+02  0.19880778923E+02 -0.18445327325E+03  0.20400916979E+03  0.00000000000E+00 0. -1.
         22    1    3    3    0    0 -0.22051204339E+02  0.73061211745E+02 -0.92797015749E+02  0.12014775240E+03  0.00000000000E+00 0. -1.
</event>
<event>
 7    1  0.5789396E-006  0.4755777E+02  0.7818608E-02  0.1460954E+00
          2   -1    0    0  502    0  0.00000000000E+00  0.00000000000E+00  0.40952276570E+03  0.40952276570E+03  0.00000000000E+00 0. -1.
          1   -1    0    0  501    0 -0.00000000000E+00 -0.00000000000E+00 -0.71510449984E+03  0.71510449984E+03  0.00000000000E+00 0. -1.
         25    2    1    2    0    0 -0.98230023130E+01 -0.13139970382E+02 -0.22501395152E+03  0.25792367994E+03  0.12499678436E+03 0.  0.
          2    1    1    2  501    0 -0.34007351391E+02  0.32267918577E+02 -0.47101318585E+03  0.47334040580E+03  0.00000000000E+00 0. -1.
          1    1    1    2  502    0  0.43830353704E+02 -0.19127948195E+02  0.39044540324E+03  0.39336317979E+03  0.00000000000E+00 0. -1.
         22    1    3    3    0    0  0.16820069562E+02 -0.63333359947E+02 -0.89047941583E+02  0.11056023301E+03  0.00000000000E+00 0. -1.
         22    1    3    3    0    0 -0.26643071875E+02  0.50193389565E+02 -0.13596600994E+03  0.14736344694E+03  0.00000000000E+00 0. -1.
</event>
<event>
 7    1  0.5789396E-006  0.4723044E+02  0.7818608E-02  0.1486779E+00
          2   -1    0    0  502    0  0.00000000000E+00  0.00000000000E+00  0.59457069783E+03  0.59457069783E+03  0.00000000000E+00 0. -1.
          1   -1    0    0  501    0 -0.00000000000E+00 -0.00000000000E+00 -0.11850910395E+03  0.11850910395E+03  0.00000000000E+00 0. -1.
         25    2    1    2    0    0 -0.85292335072E+02 -0.46922371283E+01  0.19561208778E+03  0.24735749942E+03  0.12499937649E+03 0.  0.
          2    1    1    2  501    0  0.46220431295E+02  0.73612916752E+00 -0.85753606185E+02  0.97419459704E+02  0.00000000000E+00 0. -1.
          1    1    1    2  502    0  0.39071903777E+02  0.39561079608E+01  0.36620311228E+03  0.36830284264E+03  0.00000000000E+00 0. -1.
         22    1    3    3    0    0 -0.78680200325E+02  0.46860927106E+02  0.84135290716E+02  0.12435942890E+03  0.00000000000E+00 0. -1.
         22    1    3    3    0    0 -0.66121347471E+01 -0.51553164234E+02  0.11147679707E+03  0.12299807052E+03  0.00000000000E+00 0. -1.
</event>
<event>
 7    1  0.5789396E-006  0.7407759E+02  0.7818608E-02  0.1475159E+00
          2   -1    0    0  502    0  0.00000000000E+00  0.00000000000E+00  0.30169684688E+03  0.30169684688E+03  0.00000000000E+00 0. -1.
          1   -1    0    0  501    0 -0.00000000000E+00 -0.00000000000E+00 -0.17538945764E+04  0.17538945764E+04  0.00000000000E+00 0. -1.
         25    2    1    2    0    0 -0.79840877662E+02 -0.18320899592E+02  0.80512004352E+02  0.16975685805E+03  0.12499994762E+03 0.  0.
          2    1    1    2  501    0  0.68838894506E+01  0.26291358129E+02 -0.17015323902E+04  0.17017494229E+04  0.00000000000E+00 0. -1.
          1    1    1    2  502    0  0.72956988211E+02 -0.79704585376E+01  0.16882265633E+03  0.18408514233E+03  0.00000000000E+00 0. -1.
         22    1    3    3    0    0 -0.69395584165E+02 -0.66971143968E+02  0.35833787858E+02  0.10288314526E+03  0.00000000000E+00 0. -1.
         22    1    3    3    0    0 -0.10445293497E+02  0.48650244376E+02  0.44678216493E+02  0.66873712796E+02  0.00000000000E+00 0. -1.
</event>
<event>
 7    1  0.5789396E-006  0.8345380E+02  0.7818608E-02  0.1347274E+00
          2   -1    0    0  502    0  0.00000000000E+00  0.00000000000E+00  0.69176454858E+03  0.69176454858E+03  0.00000000000E+00 0. -1.
          1   -1    0    0  501    0 -0.00000000000E+00 -0.00000000000E+00 -0.47797417787E+03  0.47797417787E+03  0.00000000000E+00 0. -1.
         25    2    1    2    0    0 -0.53369902982E+02  0.11694097479E+03  0.25992297801E+03  0.31576662588E+03  0.12500027758E+03 0.  0.
          2    1    1    2  501    0  0.53010657299E+02 -0.38405762439E+02 -0.44381115506E+03  0.44861283278E+03  0.00000000000E+00 0. -1.
          1    1    1    2  502    0  0.35924568343E+00 -0.78535212353E+02  0.39767854776E+03  0.40535926779E+03  0.00000000000E+00 0. -1.
         22    1    3    3    0    0 -0.65897130422E+02  0.45314015881E+01  0.10194835190E+03  0.12147605465E+03  0.00000000000E+00 0. -1.
         22    1    3    3    0    0  0.12527227440E+02  0.11240957320E+03  0.15797462611E+03  0.19429057123E+03  0.00000000000E+00 0. -1.
</event>
<event>
 7    1  0.5789396E-006  0.1303545E+03  0.7818608E-02  0.1355581E+00
          2   -1    0    0  502    0  0.00000000000E+00  0.00000000000E+00  0.53976954136E+03  0.53976954136E+03  0.00000000000E+00 0. -1.
          1   -1    0    0  501    0 -0.00000000000E+00 -0.00000000000E+00 -0.27335874308E+03  0.27335874308E+03  0.00000000000E+00 0. -1.
         25    2    1    2    0    0  0.41550351061E+02 -0.12644969372E+03  0.12569405233E+03  0.22167761540E+03  0.12500405458E+03 0.  0.
          2    1    1    2  501    0  0.33819232954E+02  0.19517899187E+02 -0.21183749368E+03  0.21540615737E+03  0.00000000000E+00 0. -1.
          1    1    1    2  502    0 -0.75369584014E+02  0.10693179453E+03  0.35255423963E+03  0.37604451167E+03  0.00000000000E+00 0. -1.
         22    1    3    3    0    0 -0.44399947742E+02 -0.41774263195E+02  0.31568061598E+02  0.68651197645E+02  0.00000000000E+00 0. -1.
         22    1    3    3    0    0  0.85950298803E+02 -0.84675430523E+02  0.94125990729E+02  0.15302641775E+03  0.00000000000E+00 0. -1.
</event>
<event>
 7    1  0.5789396E-006  0.7776864E+02  0.7818608E-02  0.1379431E+00
          2   -1    0    0  502    0  0.00000000000E+00  0.00000000000E+00  0.10090877671E+03  0.10090877671E+03  0.00000000000E+00 0. -1.
          1   -1    0    0  501    0 -0.00000000000E+00 -0.00000000000E+00 -0.23059129277E+03  0.23059129277E+03  0.00000000000E+00 0. -1.
         25    2    1    2    0    0 -0.38580141848E+02 -0.50155079332E+02 -0.89130771840E+02  0.16604898392E+03  0.12499604492E+03 0.  0.
          2    1    1    2  501    0 -0.44123645941E+02  0.30578320986E+02 -0.57633114075E+02  0.78762336706E+02  0.00000000000E+00 0. -1.
          1    1    1    2  502    0  0.82703787789E+02  0.19576758346E+02  0.17081369855E+02  0.86688748855E+02  0.00000000000E+00 0. -1.
         22    1    3    3    0    0  0.69228637429E+01  0.75963072494E+01 -0.91900152783E+02  0.92473066391E+02  0.00000000000E+00 0.  1.
         22    1    3    3    0    0 -0.45503005591E+02 -0.57751386581E+02  0.27693809429E+01  0.73575917532E+02  0.00000000000E+00 0.  1.
</event>
<event>
 7    1  0.5789396E-006  0.1203158E+03  0.7818608E-02  0.1305038E+00
          2   -1    0    0  502    0  0.00000000000E+00  0.00000000000E+00  0.15597271425E+03  0.15597271425E+03  0.00000000000E+00 0. -1.
          1   -1    0    0  501    0 -0.00000000000E+00 -0.00000000000E+00 -0.67591827163E+03  0.67591827163E+03  0.00000000000E+00 0. -1.
         25    2    1    2    0    0 -0.88756281747E+02 -0.28856228623E+02 -0.22470547641E+03  0.27354796929E+03  0.12500232356E+03 0.  0.
          2    1    1    2  501    0  0.13448026058E+03 -0.18722739489E+02 -0.40672650173E+03  0.42879124136E+03  0.00000000000E+00 0. -1.
          1    1    1    2  502    0 -0.45723978836E+02  0.47578968112E+02  0.11148642077E+03  0.12955177522E+03  0.00000000000E+00 0. -1.
         22    1    3    3    0    0 -0.74020455867E+02  0.39237239739E+02 -0.14688947241E+03  0.16910087514E+03  0.00000000000E+00 0. -1.
         22    1    3    3    0    0 -0.14735825880E+02 -0.68093468362E+02 -0.77816004002E+02  0.10444709415E+03  0.00000000000E+00 0. -1.
</event>
<event>
 7    1  0.5789396E-006  0.9573352E+02  0.7818608E-02  0.1375623E+00
          2   -1    0    0  502    0  0.00000000000E+00  0.00000000000E+00  0.31374546690E+03  0.31374546690E+03  0.00000000000E+00 0. -1.
          1   -1    0    0  501    0 -0.00000000000E+00 -0.00000000000E+00 -0.26751492943E+04  0.26751492943E+04  0.00000000000E+00 0. -1.
         25    2    1    2    0    0  0.16742727012E+01  0.82508424539E+02 -0.45069033851E+03  0.47492803935E+03  0.12499767206E+03 0.  0.
          2    1    1    2  501    0  0.43016607999E+02 -0.87690048658E+02 -0.22095775475E+04  0.22117352716E+04  0.00000000000E+00 0. -1.
          1    1    1    2  502    0 -0.44690880701E+02  0.51816241192E+01  0.29886405857E+03  0.30223145030E+03  0.00000000000E+00 0. -1.
         22    1    3    3    0    0  0.37894779940E+02  0.34386065792E+02 -0.56763302515E+02  0.76423088003E+02  0.00000000000E+00 0.  1.
         22    1    3    3    0    0 -0.36220507239E+02  0.48122358746E+02 -0.39392703600E+03  0.39850495135E+03  0.00000000000E+00 0.  1.
</event>
<event>
 7    1  0.5789396E-006  0.8960573E+02  0.7818608E-02  0.1352471E+00
          2   -1    0    0  502    0  0.00000000000E+00  0.00000000000E+00  0.35264703689E+04  0.35264703689E+04  0.00000000000E+00 0. -1.
          1   -1    0    0  501    0 -0.00000000000E+00 -0.00000000000E+00 -0.58667088826E+02  0.58667088826E+02  0.00000000000E+00 0. -1.
         25    2    1    2    0    0  0.34848326325E+02 -0.18779484952E+01  0.37483157519E+03  0.39666277262E+03  0.12499885153E+03 0.  0.
          2    1    1    2  501    0  0.58228594910E+02  0.33037267618E+01 -0.28986942569E+02  0.65128539944E+02  0.00000000000E+00 0. -1.
          1    1    1    2  502    0 -0.93076921235E+02 -0.14257782667E+01  0.31219586475E+04  0.31233461452E+04  0.00000000000E+00 0. -1.
         22    1    3    3    0    0 -0.44383588404E+01 -0.32060937370E+02  0.32424696254E+03  0.32585839786E+03  0.00000000000E+00 0.  1.
         22    1    3    3    0    0  0.39286685166E+02  0.30182988875E+02  0.50584612643E+02  0.70804374759E+02  0.00000000000E+00 0.  1.
</event>
<event>
 7    1  0.5789396E-006  0.8021232E+02  0.7818608E-02  0.1375742E+00
          2   -1    0    0  502    0  0.00000000000E+00  0.00000000000E+00  0.12124079321E+04  0.12124079321E+04  0.00000000000E+00 0. -1.
          1   -1    0    0  501    0 -0.00000000000E+00 -0.00000000000E+00 -0.65795678297E+03  0.65795678297E+03  0.00000000000E+00 0. -1.
         25    2    1    2    0    0  0.32092339109E+02  0.15855501026E+02  0.25496786615E+03  0.28620545458E+03  0.12499453717E+03 0.  0.
          2    1    1    2  501    0  0.27959755215E+02  0.45780878335E+02 -0.63924652839E+03  0.64149338328E+03  0.00000000000E+00 0. -1.
          1    1    1    2  502    0 -0.60052094324E+02 -0.61636379360E+02  0.93872981136E+03  0.94266587720E+03  0.00000000000E+00 0. -1.
         22    1    3    3    0    0  0.35166832016E+02 -0.13046318375E+01  0.26416232638E+03  0.26649604654E+03  0.00000000000E+00 0. -1.
         22    1    3    3    0    0 -0.30744929075E+01  0.17160132863E+02 -0.91944602355E+01  0.19709408046E+02  0.00000000000E+00 0. -1.
</event>
<event>
 7    1  0.5789396E-006  0.1180853E+03  0.7818608E-02  0.1289897E+00
          2   -1    0    0  502    0  0.00000000000E+00  0.00000000000E+00  0.44904919711E+03  0.44904919711E+03  0.00000000000E+00 0. -1.
          1   -1    0    0  501    0 -0.00000000000E+00 -0.00000000000E+00 -0.10254647325E+04  0.10254647325E+04  0.00000000000E+00 0. -1.
         25    2    1    2    0    0 -0.14511303349E+03 -0.70211547965E+02 -0.11263644773E+03  0.23302298445E+03  0.12500115187E+03 0.  0.
          2    1    1    2  501    0  0.28417210900E+02  0.71938641469E+02 -0.84206541493E+03  0.84561035296E+03  0.00000000000E+00 0. -1.
          1    1    1    2  502    0  0.11669582259E+03 -0.17270935039E+01  0.37828632728E+03  0.39588059218E+03  0.00000000000E+00 0. -1.
         22    1    3    3    0    0  0.88041054808E+01 -0.46059542302E+02 -0.15346158918E+02  0.49340635423E+02  0.00000000000E+00 0. -1.
         22    1    3    3    0    0 -0.15391713898E+03 -0.24152005663E+02 -0.97290288808E+02  0.18368234903E+03  0.00000000000E+00 0. -1.
</event>
<event>
 7    1  0.5789396E-006  0.1116552E+03  0.7818608E-02  0.1392127E+00
          2   -1    0    0  502    0  0.00000000000E+00  0.00000000000E+00  0.88453314703E+03  0.88453314703E+03  0.00000000000E+00 0. -1.
          1   -1    0    0  501    0 -0.00000000000E+00 -0.00000000000E+00 -0.14213298688E+03  0.14213298688E+03  0.00000000000E+00 0. -1.
         25    2    1    2    0    0 -0.71011637494E+02  0.12468248038E+03  0.50925301436E+03  0.54364646610E+03  0.12499789555E+03 0.  0.
          2    1    1    2  501    0  0.50349871343E+02 -0.98005013995E+02 -0.99623448606E+02  0.14854266668E+03  0.00000000000E+00 0. -1.
          1    1    1    2  502    0  0.20661766152E+02 -0.26677466390E+02  0.33277059439E+03  0.33447700113E+03  0.00000000000E+00 0. -1.
         22    1    3    3    0    0  0.21599757893E+02  0.87280808071E+02  0.22158032361E+03  0.23912826853E+03  0.00000000000E+00 0. -1.
         22    1    3    3    0    0 -0.92611395387E+02  0.37401672314E+02  0.28767269075E+03  0.30451819757E+03  0.00000000000E+00 0. -1.
</event>
<event>
 7    1  0.5789396E-006  0.9245736E+02  0.7818608E-02  0.1348081E+00
          2   -1    0    0  502    0  0.00000000000E+00  0.00000000000E+00  0.21853539160E+03  0.21853539160E+03  0.00000000000E+00 0. -1.
          1   -1    0    0  501    0 -0.00000000000E+00 -0.00000000000E+00 -0.28359401471E+03  0.28359401471E+03  0.00000000000E+00 0. -1.
         25    2    1    2    0    0 -0.10313983006E+03 -0.10054613725E+03  0.81878410346E+02  0.20755046754E+03  0.12500308891E+03 0.  0.
          2    1    1    2  501    0  0.74179817043E+02  0.49510857427E+02 -0.19776633258E+03  0.21694582863E+03  0.00000000000E+00 0. -1.
          1    1    1    2  502    0  0.28960013018E+02  0.51035279819E+02  0.50829299126E+02  0.77633110138E+02  0.00000000000E+00 0. -1.
         22    1    3    3    0    0  0.27134589813E+02 -0.19069751963E+02  0.31782311819E+02  0.45935354019E+02  0.00000000000E+00 0.  1.
         22    1    3    3    0    0 -0.13027441987E+03 -0.81476385283E+02  0.50096098526E+02  0.16161511353E+03  0.00000000000E+00 0.  1.
</event>
<event>
 7    1  0.5789396E-006  0.1052307E+03  0.7818608E-02  0.1378816E+00
          2   -1    0    0  502    0  0.00000000000E+00  0.00000000000E+00  0.14271015906E+04  0.14271015906E+04  0.00000000000E+00 0. -1.
          1   -1    0    0  501    0 -0.00000000000E+00 -0.00000000000E+00 -0.69123347180E+02  0.69123347180E+02  0.00000000000E+00 0. -1.
         25    2    1    2    0    0  0.68492102036E+02  0.56363098474E+01  0.92293152078E+03  0.93389019309E+03  0.12500145866E+03 0.  0.
          2    1    1    2  501    0 -0.10469327651E+03 -0.22350830267E+02 -0.17120460608E+02  0.10841287715E+03  0.00000000000E+00 0. -1.
          1    1    1    2  502    0  0.36201174475E+02  0.16714520420E+02  0.45216718322E+03  0.45392186751E+03  0.00000000000E+00 0. -1.
         22    1    3    3    0    0 -0.27624811754E+02 -0.32187559028E+01  0.46829344111E+03  0.46911857520E+03  0.00000000000E+00 0.  1.
         22    1    3    3    0    0  0.96116913790E+02  0.88550657502E+01  0.45463807967E+03  0.46477161789E+03  0.00000000000E+00 0.  1.
</event>
<event>
 7    1  0.5789396E-006  0.2408710E+03  0.7818608E-02  0.1283197E+00
          2   -1    0    0  502    0  0.00000000000E+00  0.00000000000E+00  0.13876249377E+04  0.13876249377E+04  0.00000000000E+00 0. -1.
          1   -1    0    0  501    0 -0.00000000000E+00 -0.00000000000E+00 -0.37991367432E+03  0.37991367432E+03  0.00000000000E+00 0. -1.
         25    2    1    2    0    0  0.15393403764E+03 -0.20803115351E+03  0.45659382359E+03  0.53951450895E+03  0.12500134740E+03 0.  0.
          2    1    1    2  501    0 -0.16843376214E+03  0.17033472427E+03 -0.29552471647E+03  0.38041912224E+03  0.00000000000E+00 0. -1.
          1    1    1    2  502    0  0.14499724497E+02  0.37696429241E+02  0.84664215621E+03  0.84760498079E+03  0.00000000000E+00 0. -1.
         22    1    3    3    0    0  0.53890980452E+02 -0.11982907328E+02  0.16624048870E+03  0.17516771371E+03  0.00000000000E+00 0.  1.
         22    1    3    3    0    0  0.10004305719E+03 -0.19604824618E+03  0.29035333489E+03  0.36434679525E+03  0.00000000000E+00 0.  1.
</event>
<event>
 7    1  0.5789396E-006  0.2935643E+03  0.7818608E-02  0.1331121E+00
          2   -1    0    0  502    0  0.00000000000E+00  0.00000000000E+00  0.76418726947E+03  0.76418726947E+03  0.00000000000E+00 0. -1.
          1   -1    0    0  501    0 -0.00000000000E+00 -0.00000000000E+00 -0.17570666321E+04  0.17570666321E+04  0.00000000000E+00 0. -1.
         25    2    1    2    0    0  0.11457618010E+03  0.25594793368E+03 -0.15015708098E+03  0.34177126124E+03  0.12499360079E+03 0.  0.
          2    1    1    2  501    0 -0.10646555531E+03 -0.27575977453E+03 -0.14964695134E+04  0.15253849915E+04  0.00000000000E+00 0. -1.
          1    1    1    2  502    0 -0.81106247928E+01  0.19811840845E+02  0.65374723172E+03  0.65409764887E+03  0.00000000000E+00 0. -1.
         22    1    3    3    0    0  0.10137706751E+03  0.25255735073E+03 -0.16761777273E+03  0.31962203141E+03  0.00000000000E+00 0. -1.
         22    1    3    3    0    0  0.13199112595E+02  0.33905829502E+01  0.17460691748E+02  0.22149229836E+02  0.00000000000E+00 0. -1.
</event>
<event>
 7    1  0.5789396E-006  0.9321631E+02  0.7818608E-02  0.1327599E+00
          2   -1    0    0  502    0  0.00000000000E+00  0.00000000000E+00  0.27065179563E+03  0.27065179563E+03  0.00000000000E+00 0. -1.
          1   -1    0    0  501    0 -0.00000000000E+00 -0.00000000000E+00 -0.54247069652E+03  0.54247069652E+03  0.00000000000E+00 0. -1.
         25    2    1    2    0    0 -0.13237833915E+03 -0.71206087388E+02  0.54732992835E+02  0.20301609332E+03  0.12500200832E+03 0.  0.
          2    1    1    2  501    0  0.66946782079E+02  0.18822765421E+02 -0.45305186172E+03  0.45835811058E+03  0.00000000000E+00 0. -1.
          1    1    1    2  502    0  0.65431557074E+02  0.52383321968E+02  0.12649996800E+03  0.15174828824E+03  0.00000000000E+00 0. -1.
         22    1    3    3    0    0 -0.11716304768E+03 -0.52968357031E+02  0.92504284318E+02  0.15839781944E+03  0.00000000000E+00 0. -1.
         22    1    3    3    0    0 -0.15215291478E+02 -0.18237730357E+02 -0.37771291483E+02  0.44618273875E+02  0.00000000000E+00 0. -1.
</event>
<event>
 7    1  0.5789396E-006  0.6954320E+02  0.7818608E-02  0.1506771E+00
          2   -1    0    0  502    0  0.00000000000E+00  0.00000000000E+00  0.22733646490E+03  0.22733646490E+03  0.00000000000E+00 0. -1.
          1   -1    0    0  501    0 -0.00000000000E+00 -0.00000000000E+00 -0.19019192301E+03  0.19019192301E+03  0.00000000000E+00 0. -1.
         25    2    1    2    0    0  0.54309215314E+02 -0.29104207112E+02 -0.31614299548E+02  0.14290351764E+03  0.12500162271E+03 0.  0.
          2    1    1    2  501    0 -0.70789160022E+02  0.12726760762E+02 -0.89415755076E+02  0.11475300812E+03  0.00000000000E+00 0. -1.
          1    1    1    2  502    0  0.16479944708E+02  0.16377446350E+02  0.15817459651E+03  0.15987186215E+03  0.00000000000E+00 0. -1.
         22    1    3    3    0    0  0.53600031722E+02  0.35858757444E+02 -0.42215191716E+02  0.77077469455E+02  0.00000000000E+00 0. -1.
         22    1    3    3    0    0  0.70918359139E+00 -0.64962964556E+02  0.10600892168E+02  0.65826048188E+02  0.00000000000E+00 0. -1.
</event>
<event>
 7    1  0.5789396E-006  0.4653407E+02  0.7818608E-02  0.1495281E+00
          2   -1    0    0  502    0  0.00000000000E+00  0.00000000000E+00  0.26683030793E+04  0.26683030793E+04  0.00000000000E+00 0. -1.
          1   -1    0    0  501    0 -0.00000000000E+00 -0.00000000000E+00 -0.87210091983E+01  0.87210091983E+01  0.00000000000E+00 0. -1.
         25    2    1    2    0    0 -0.10312728159E+02  0.10144849949E+02  0.95871793457E+03  0.96694159128E+03  0.12500676995E+03 0.  0.
          2    1    1    2  501    0  0.43227093236E+02 -0.28260039401E+02  0.14778656040E+03  0.15655056325E+03  0.00000000000E+00 0. -1.
          1    1    1    2  502    0 -0.32914365077E+02  0.18115189452E+02  0.15530775751E+04  0.15535319340E+04  0.00000000000E+00 0. -1.
         22    1    3    3    0    0  0.31973040558E+02 -0.34000891944E+02  0.18441860446E+03  0.19023290369E+03  0.00000000000E+00 0.  1.
         22    1    3    3    0    0 -0.42285768717E+02  0.44145741894E+02  0.77429933012E+03  0.77670868759E+03  0.00000000000E+00 0.  1.
</event>
<event>
 7    1  0.5789396E-006  0.7416986E+02  0.7818608E-02  0.1365735E+00
          2   -1    0    0  502    0  0.00000000000E+00  0.00000000000E+00  0.22808988769E+03  0.22808988769E+03  0.00000000000E+00 0. -1.
          1   -1    0    0  501    0 -0.00000000000E+00 -0.00000000000E+00 -0.50744995704E+03  0.50744995704E+03  0.00000000000E+00 0. -1.
         25    2    1    2    0    0 -0.99822318567E+02 -0.36555538104E+02 -0.16157693119E+03  0.23029023321E+03  0.12500273665E+03 0.  0.
          2    1    1    2  501    0  0.69754005395E+02 -0.18827050058E+02 -0.30201545969E+03  0.31053730368E+03  0.00000000000E+00 0. -1.
          1    1    1    2  502    0  0.30068313172E+02  0.55382588161E+02  0.18423232153E+03  0.19471230784E+03  0.00000000000E+00 0. -1.
         22    1    3    3    0    0 -0.75037049151E+01  0.10611011331E+02  0.18437908097E+02  0.22557827996E+02  0.00000000000E+00 0.  1.
         22    1    3    3    0    0 -0.92318613652E+02 -0.47166549435E+02 -0.18001483929E+03  0.20773240522E+03  0.00000000000E+00 0.  1.
</event>
<event>
 7    1  0.5789396E-006  0.7432620E+02  0.7818608E-02  0.1426106E+00
          2   -1    0    0  502    0  0.00000000000E+00  0.00000000000E+00  0.22969546513E+03  0.22969546513E+03  0.00000000000E+00 0. -1.
          1   -1    0    0  501    0 -0.00000000000E+00 -0.00000000000E+00 -0.45563902233E+03  0.45563902233E+03  0.00000000000E+00 0. -1.
         25    2    1    2    0    0 -0.32600056385E+02 -0.28718897575E+02 -0.14011672291E+03  0.19273176581E+03  0.12500119503E+03 0.  0.
          2    1    1    2  501    0  0.68605694723E+02  0.43362569632E+02 -0.28157204543E+03  0.29303561312E+03  0.00000000000E+00 0. -1.
          1    1    1    2  502    0 -0.36005638338E+02 -0.14643672057E+02  0.19574521113E+03  0.19956710852E+03  0.00000000000E+00 0. -1.
         22    1    3    3    0    0  0.46281852803E+02  0.44311729265E+01 -0.55383381803E+02  0.72311577028E+02  0.00000000000E+00 0. -1.
         22    1    3    3    0    0 -0.78881909188E+02 -0.33150070502E+02 -0.84733341109E+02  0.12042018878E+03  0.00000000000E+00 0. -1.
</event>
<event>
 7    1  0.5789396E-006  0.7818004E+02  0.7818608E-02  0.1479584E+00
          2   -1    0    0  502    0  0.00000000000E+00  0.00000000000E+00  0.12888192436E+04  0.12888192436E+04  0.00000000000E+00 0. -1.
          1   -1    0    0  501    0 -0.00000000000E+00 -0.00000000000E+00 -0.42072535470E+03  0.42072535470E+03  0.00000000000E+00 0. -1.
         25    2    1    2    0    0 -0.90776722597E+02 -0.43900763038E+00  0.62663226373E+02  0.16670643208E+03  0.12499499375E+03 0.  0.
          2    1    1    2  501    0  0.15267058600E+02  0.19741508335E+02 -0.36698614441E+03  0.36783371300E+03  0.00000000000E+00 0. -1.
          1    1    1    2  502    0  0.75509663996E+02 -0.19302500705E+02  0.11724168069E+04  0.11750044532E+04  0.00000000000E+00 0. -1.
         22    1    3    3    0    0 -0.29688578445E+02  0.59405823582E+02  0.42494673008E+02  0.78843267306E+02  0.00000000000E+00 0. -1.
         22    1    3    3    0    0 -0.61088144151E+02 -0.59844831212E+02  0.20168553365E+02  0.87863164771E+02  0.00000000000E+00 0. -1.
</event>
<event>
 7    1  0.5789396E-006  0.1949914E+03  0.7818608E-02  0.1374346E+00
          2   -1    0    0  502    0  0.00000000000E+00  0.00000000000E+00  0.25851191663E+03  0.25851191663E+03  0.00000000000E+00 0. -1.
          1   -1    0    0  501    0 -0.00000000000E+00 -0.00000000000E+00 -0.30681586438E+03  0.30681586438E+03  0.00000000000E+00 0. -1.
         25    2    1    2    0    0 -0.10864105491E+03 -0.15132900851E+03 -0.18197927288E+02  0.22508175433E+03  0.12500913545E+03 0.  0.
          2    1    1    2  501    0 -0.22319723854E+02  0.28725121785E+00 -0.11927813693E+03  0.12134878052E+03  0.00000000000E+00 0. -1.
          1    1    1    2  502    0  0.13096077876E+03  0.15104175729E+03  0.89172116470E+02  0.21889724616E+03  0.00000000000E+00 0. -1.
         22    1    3    3    0    0 -0.13525668842E+03 -0.13395525393E+03 -0.26580796562E+02  0.19221061512E+03  0.00000000000E+00 0. -1.
         22    1    3    3    0    0  0.26615633516E+02 -0.17373754580E+02  0.83828692737E+01  0.32871139209E+02  0.00000000000E+00 0. -1.
</event>
<event>
 7    1  0.5789396E-006  0.1168543E+03  0.7818608E-02  0.1269892E+00
          2   -1    0    0  502    0  0.00000000000E+00  0.00000000000E+00  0.49844306689E+03  0.49844306689E+03  0.00000000000E+00 0. -1.
          1   -1    0    0  501    0 -0.00000000000E+00 -0.00000000000E+00 -0.99039446272E+03  0.99039446272E+03  0.00000000000E+00 0. -1.
         25    2    1    2    0    0  0.53370083515E+02 -0.76436277863E+01  0.38299110921E+03  0.40646541419E+03  0.12500060934E+03 0.  0.
          2    1    1    2  501    0 -0.84759280529E+02 -0.81550189513E+02 -0.95271060638E+03  0.95994378406E+03  0.00000000000E+00 0. -1.
          1    1    1    2  502    0  0.31389197014E+02  0.89193817299E+02  0.77768101336E+02  0.12242833136E+03  0.00000000000E+00 0. -1.
         22    1    3    3    0    0  0.69799170566E+02 -0.26745560238E+02  0.11414742800E+03  0.13644370459E+03  0.00000000000E+00 0. -1.
         22    1    3    3    0    0 -0.16429087052E+02  0.19101932452E+02  0.26884368121E+03  0.27002170959E+03  0.00000000000E+00 0. -1.
</event>
<event>
 7    1  0.5789396E-006  0.6698246E+02  0.7818608E-02  0.1464543E+00
          2   -1    0    0  502    0  0.00000000000E+00  0.00000000000E+00  0.10030815561E+02  0.10030815561E+02  0.00000000000E+00 0. -1.
          1   -1    0    0  501    0 -0.00000000000E+00 -0.00000000000E+00 -0.22327115754E+04  0.22327115754E+04  0.00000000000E+00 0. -1.
         25    2    1    2    0    0 -0.95033056845E+02 -0.33388375668E+01 -0.90024673006E+03  0.91384450003E+03  0.12500066207E+03 0.  0.
          2    1    1    2  501    0  0.63019353369E+02  0.85284503914E+01 -0.12152970662E+04  0.12169597908E+04  0.00000000000E+00 0. -1.
          1    1    1    2  502    0  0.32013703476E+02 -0.51896128246E+01 -0.10713696361E+03  0.11193810014E+03  0.00000000000E+00 0. -1.
         22    1    3    3    0    0 -0.68156280187E+02  0.13507831711E+02 -0.18068744605E+03  0.19358639727E+03  0.00000000000E+00 0. -1.
         22    1    3    3    0    0 -0.26876776658E+02 -0.16846669278E+02 -0.71955928401E+03  0.72025810276E+03  0.00000000000E+00 0. -1.
</event>
<event>
 7    1  0.5789396E-006  0.5974525E+02  0.7818608E-02  0.1489261E+00
          2   -1    0    0  502    0  0.00000000000E+00  0.00000000000E+00  0.39568454657E+03  0.39568454657E+03  0.00000000000E+00 0. -1.
          1   -1    0    0  501    0 -0.00000000000E+00 -0.00000000000E+00 -0.20429463975E+03  0.20429463975E+03  0.00000000000E+00 0. -1.
         25    2    1    2    0    0 -0.67353188680E+01  0.39341751192E+02  0.21746927271E+03  0.25399006368E+03  0.12499971989E+03 0.  0.
          2    1    1    2  501    0 -0.17724618681E+02 -0.57581116339E+02 -0.17961557782E+03  0.18945052880E+03  0.00000000000E+00 0. -1.
          1    1    1    2  502    0  0.24459937549E+02  0.18239365147E+02  0.15353621194E+03  0.15653859384E+03  0.00000000000E+00 0. -1.
         22    1    3    3    0    0  0.10730518760E+02 -0.23505617850E+00  0.20977777761E+03  0.21005217272E+03  0.00000000000E+00 0.  1.
         22    1    3    3    0    0 -0.17465837628E+02  0.39576807371E+02  0.76914950952E+01  0.43937890966E+02  0.00000000000E+00 0.  1.
</event>
<event>
 7    1  0.5789396E-006  0.8924921E+02  0.7818608E-02  0.1457624E+00
          2   -1    0    0  502    0  0.00000000000E+00  0.00000000000E+00  0.15441286002E+03  0.15441286002E+03  0.00000000000E+00 0. -1.
          1   -1    0    0  501    0 -0.00000000000E+00 -0.00000000000E+00 -0.10460902449E+04  0.10460902449E+04  0.00000000000E+00 0. -1.
         25    2    1    2    0    0  0.71554935785E+02 -0.16877601716E+02 -0.13692917820E+03  0.19945181860E+03  0.12500586316E+03 0.  0.
          2    1    1    2  501    0  0.19446669167E+02  0.16638081426E+02 -0.86087227545E+03  0.86125261877E+03  0.00000000000E+00 0. -1.
          1    1    1    2  502    0 -0.91001604952E+02  0.23952028985E+00  0.10612406878E+03  0.13979866755E+03  0.00000000000E+00 0. -1.
         22    1    3    3    0    0  0.44199522569E+02  0.25334651370E+02 -0.14007569024E+03  0.14905247852E+03  0.00000000000E+00 0. -1.
         22    1    3    3    0    0  0.27355413216E+02 -0.42212253086E+02  0.31465120397E+01  0.50399340083E+02  0.00000000000E+00 0. -1.
</event>
<event>
 7    1  0.5789396E-006  0.1351904E+03  0.7818608E-02  0.1220783E+00
          2   -1    0    0  502    0  0.00000000000E+00  0.00000000000E+00  0.10780905310E+04  0.10780905310E+04  0.00000000000E+00 0. -1.
          1   -1    0    0  501    0 -0.00000000000E+00 -0.00000000000E+00 -0.68975818954E+03  0.68975818954E+03  0.00000000000E+00 0. -1.
         25    2    1    2    0    0  0.41726235413E+02  0.86489323565E+02  0.13898834989E+03  0.21015487565E+03  0.12500331411E+03 0.  0.
          2    1    1    2  501    0 -0.13780920957E+03  0.86132446008E+01 -0.64173313003E+03  0.65641981719E+03  0.00000000000E+00 0. -1.
          1    1    1    2  502    0  0.96082974160E+02 -0.95102568166E+02  0.89107712156E+03  0.90127402768E+03  0.00000000000E+00 0. -1.
         22    1    3    3    0    0 -0.58986067486E+01  0.65550072964E+02  0.45160910120E+01  0.65969695355E+02  0.00000000000E+00 0.  1.
         22    1    3    3    0    0  0.47624842162E+02  0.20939250601E+02  0.13447225888E+03  0.14418518029E+03  0.00000000000E+00 0.  1.
</event>
<event>
 7    1  0.5789396E-006  0.6414387E+02  0.7818608E-02  0.1492723E+00
          2   -1    0    0  502    0  0.00000000000E+00  0.00000000000E+00  0.78048556820E+03  0.78048556820E+03  0.00000000000E+00 0. -1.
          1   -1    0    0  501    0 -0.00000000000E+00 -0.00000000000E+00 -0.55730948133E+03  0.55730948133E+03  0.00000000000E+00 0. -1.
         25    2    1    2    0    0 -0.34766943962E+02  0.76423766123E+02 -0.17629748933E+03  0.23184992787E+03  0.12499700752E+03 0.  0.
          2    1    1    2  501    0  0.24379363879E+02 -0.13241161165E+02 -0.35132620794E+03  0.35241990029E+03  0.00000000000E+00 0. -1.
          1    1    1    2  502    0  0.10387580083E+02 -0.63182604959E+02  0.75079978413E+03  0.75352522137E+03  0.00000000000E+00 0. -1.
         22    1    3    3    0    0 -0.69019275983E+02  0.15176557365E+02 -0.47413667856E+02  0.85100201235E+02  0.00000000000E+00 0.  1.
         22    1    3    3    0    0  0.34252332020E+02  0.61247208758E+02 -0.12888382148E+03  0.14674972664E+03  0.00000000000E+00 0.  1.
</event>
<event>
 7    1  0.5789396E-006  0.3358196E+02  0.7818608E-02  0.1642642E+00
          2   -1    0    0  502    0  0.00000000000E+00  0.00000000000E+00  0.26244130939E+04  0.26244130939E+04  0.00000000000E+00 0. -1.
          1   -1    0    0  501    0 -0.00000000000E+00 -0.00000000000E+00 -0.58078209170E+01  0.58078209170E+01  0.00000000000E+00 0. -1.
         25    2    1    2    0    0 -0.24857068000E+02  0.96767996328E+01  0.13317089589E+04  0.13378280246E+04  0.12499423173E+03 0.  0.
          2    1    1    2  501    0  0.65429639305E+01  0.19574813483E+02  0.39926853561E+02  0.44945937917E+02  0.00000000000E+00 0. -1.
          1    1    1    2  502    0  0.18314104069E+02 -0.29251613116E+02  0.12469694605E+04  0.12474469523E+04  0.00000000000E+00 0. -1.
         22    1    3    3    0    0 -0.60691701220E+01  0.39440003928E+02  0.12211467495E+04  0.12217985647E+04  0.00000000000E+00 0. -1.
         22    1    3    3    0    0 -0.18787897878E+02 -0.29763204295E+02  0.11056220940E+03  0.11602945998E+03  0.00000000000E+00 0. -1.
</event>
<event>
 7    1  0.5789396E-006  0.7473922E+02  0.7818608E-02  0.1349011E+00
          2   -1    0    0  502    0  0.00000000000E+00  0.00000000000E+00  0.26063665666E+03  0.26063665666E+03  0.00000000000E+00 0. -1.
          1   -1    0    0  501    0 -0.00000000000E+00 -0.00000000000E+00 -0.61259153009E+03  0.61259153009E+03  0.00000000000E+00 0. -1.
         25    2    1    2    0    0 -0.12185522008E+02 -0.74370478201E+01 -0.15258631177E+03  0.19776645245E+03  0.12500076220E+03 0.  0.
          2    1    1    2  501    0  0.75565403939E+02  0.41631175669E+02 -0.42755929718E+03  0.43617684219E+03  0.00000000000E+00 0. -1.
          1    1    1    2  502    0 -0.63379881930E+02 -0.34194127849E+02  0.22819073552E+03  0.23928489210E+03  0.00000000000E+00 0. -1.
         22    1    3    3    0    0 -0.57593711338E+02 -0.29204808742E+02 -0.12414006937E+03  0.13993110184E+03  0.00000000000E+00 0. -1.
         22    1    3    3    0    0  0.45408189330E+02  0.21767760922E+02 -0.28446242395E+02  0.57835350610E+02  0.00000000000E+00 0. -1.
</event>
<event>
 7    1  0.5789396E-006  0.1242049E+03  0.7818608E-02  0.1239390E+00
          2   -1    0    0  502    0  0.00000000000E+00  0.00000000000E+00  0.23665843863E+04  0.23665843863E+04  0.00000000000E+00 0. -1.
          1   -1    0    0  501    0 -0.00000000000E+00 -0.00000000000E+00 -0.12248221958E+03  0.12248221958E+03  0.00000000000E+00 0. -1.
         25    2    1    2    0    0 -0.96916194832E+02 -0.94541081575E+02  0.72856742427E+03  0.75150911085E+03  0.12499874821E+03 0.  0.
          2    1    1    2  501    0 -0.19584357703E+02  0.12483639572E+03 -0.72019707806E+02  0.14544590430E+03  0.00000000000E+00 0. -1.
          1    1    1    2  502    0  0.11650055254E+03 -0.30295314148E+02  0.15875544502E+04  0.15921115907E+04  0.00000000000E+00 0. -1.
         22    1    3    3    0    0 -0.11816616696E+03 -0.10279821160E+03  0.56301063719E+03  0.58439001780E+03  0.00000000000E+00 0. -1.
         22    1    3    3    0    0  0.21249972124E+02  0.82571300224E+01  0.16555678708E+03  0.16711909305E+03  0.00000000000E+00 0. -1.
</event>
<event>
 7    1  0.5789396E-006  0.1072240E+03  0.7818608E-02  0.1297248E+00
          2   -1    0    0  502    0  0.00000000000E+00  0.00000000000E+00  0.23442221073E+03  0.23442221073E+03  0.00000000000E+00 0. -1.
          1   -1    0    0  501    0 -0.00000000000E+00 -0.00000000000E+00 -0.29619952573E+03  0.29619952573E+03  0.00000000000E+00 0. -1.
         25    2    1    2    0    0  0.10019145838E+02 -0.17776136240E+02 -0.66849012000E+02  0.14321483734E+03  0.12500129970E+03 0.  0.
          2    1    1    2  501    0 -0.11317311408E+03 -0.11485429017E+02 -0.15651168998E+03  0.19348379242E+03  0.00000000000E+00 0. -1.
          1    1    1    2  502    0  0.10315396824E+03  0.29261565258E+02  0.16158338697E+03  0.19392310670E+03  0.00000000000E+00 0. -1.
         22    1    3    3    0    0  0.80436527698E+01 -0.70753382302E+01  0.37142007912E+02  0.38656041089E+02  0.00000000000E+00 0.  1.
         22    1    3    3    0    0  0.19754930680E+01 -0.10700798010E+02 -0.10399101991E+03  0.10455879625E+03  0.00000000000E+00 0.  1.
</event>
<event>
 7    1  0.5789396E-006  0.9859799E+02  0.7818608E-02  0.1409092E+00
          2   -1    0    0  502    0  0.00000000000E+00  0.00000000000E+00  0.40656435236E+03  0.40656435236E+03  0.00000000000E+00 0. -1.
          1   -1    0    0  501    0 -0.00000000000E+00 -0.00000000000E+00 -0.65362061866E+03  0.65362061866E+03  0.00000000000E+00 0. -1.
         25    2    1    2    0    0  0.86345830662E+02 -0.41182182959E+02  0.75067785672E+02  0.17438732887E+03  0.12499677339E+03 0.  0.
          2    1    1    2  501    0 -0.15668451698E+02 -0.29510873147E+02 -0.59461306895E+03  0.59555108411E+03  0.00000000000E+00 0. -1.
          1    1    1    2  502    0 -0.70677378964E+02  0.70693056106E+02  0.27248901698E+03  0.29024655804E+03  0.00000000000E+00 0. -1.
         22    1    3    3    0    0  0.65864953483E+02 -0.73105928448E+02  0.90261725641E+02  0.13352845385E+03  0.00000000000E+00 0. -1.
         22    1    3    3    0    0  0.20480877179E+02  0.31923745489E+02 -0.15193939969E+02  0.40858875019E+02  0.00000000000E+00 0. -1.
</event>
<event>
 7    1  0.5789396E-006  0.3871607E+02  0.7818608E-02  0.1601300E+00
          2   -1    0    0  502    0  0.00000000000E+00  0.00000000000E+00  0.56836984237E+03  0.56836984237E+03  0.00000000000E+00 0. -1.
          1   -1    0    0  501    0 -0.00000000000E+00 -0.00000000000E+00 -0.36582490634E+03  0.36582490634E+03  0.00000000000E+00 0. -1.
         25    2    1    2    0    0 -0.37357024596E+02  0.37036261726E+02  0.35476232796E+03  0.37980267741E+03  0.12500612968E+03 0.  0.
          2    1    1    2  501    0  0.14587694056E+02 -0.35832485321E+02 -0.35159388156E+03  0.35371602363E+03  0.00000000000E+00 0. -1.
          1    1    1    2  502    0  0.22769330540E+02 -0.12037764049E+01  0.19937648963E+03  0.20067604767E+03  0.00000000000E+00 0. -1.
         22    1    3    3    0    0  0.22289105678E+02 -0.30451316679E+02  0.17150873649E+03  0.17561131402E+03  0.00000000000E+00 0.  1.
         22    1    3    3    0    0 -0.59646130274E+02  0.67487578405E+02  0.18325359146E+03  0.20419136338E+03  0.00000000000E+00 0.  1.
</event>
<event>
 7    1  0.5789396E-006  0.6770876E+02  0.7818608E-02  0.1464747E+00
          2   -1    0    0  502    0  0.00000000000E+00  0.00000000000E+00  0.30428681742E+02  0.30428681742E+02  0.00000000000E+00 0. -1.
          1   -1    0    0  501    0 -0.00000000000E+00 -0.00000000000E+00 -0.67977355156E+03  0.67977355156E+03  0.00000000000E+00 0. -1.
         25    2    1    2    0    0 -0.93848769572E+01 -0.45730993056E+02 -0.29099756377E+03  0.32013379593E+03  0.12500666196E+03 0.  0.
          2    1    1    2  501    0 -0.67429327744E+01  0.73411822424E+02 -0.34899279535E+03  0.35669417436E+03  0.00000000000E+00 0. -1.
          1    1    1    2  502    0  0.16127809732E+02 -0.27680829368E+02 -0.93545106918E+01  0.33374263011E+02  0.00000000000E+00 0. -1.
         22    1    3    3    0    0 -0.41133989904E+01 -0.88858559369E+02 -0.21345470659E+03  0.23124808191E+03  0.00000000000E+00 0. -1.
         22    1    3    3    0    0 -0.52714779668E+01  0.43127566313E+02 -0.77542857183E+02  0.88885714016E+02  0.00000000000E+00 0. -1.
</event>
<event>
 7    1  0.5789396E-006  0.4643735E+02  0.7818608E-02  0.1469735E+00
          2   -1    0    0  502    0  0.00000000000E+00  0.00000000000E+00  0.17564770170E+03  0.17564770170E+03  0.00000000000E+00 0. -1.
          1   -1    0    0  501    0 -0.00000000000E+00 -0.00000000000E+00 -0.10054783569E+04  0.10054783569E+04  0.00000000000E+00 0. -1.
         25    2    1    2    0    0  0.43723347696E+01  0.85141893581E+01 -0.46262070908E+03  0.47930714485E+03  0.12500323956E+03 0.  0.
          2    1    1    2  501    0 -0.50657534648E+02 -0.47581656762E+01 -0.53005025619E+03  0.53248671349E+03  0.00000000000E+00 0. -1.
          1    1    1    2  502    0  0.46285199879E+02 -0.37560236819E+01  0.16284031010E+03  0.16933220023E+03  0.00000000000E+00 0. -1.
         22    1    3    3    0    0 -0.82771161859E+01 -0.51089259584E+02 -0.32084842796E+03  0.32499590277E+03  0.00000000000E+00 0. -1.
         22    1    3    3    0    0  0.12649450956E+02  0.59603448942E+02 -0.14177228112E+03  0.15431124207E+03  0.00000000000E+00 0. -1.
</event>
<event>
 7    1  0.5789396E-006  0.4348281E+02  0.7818608E-02  0.1524549E+00
          2   -1    0    0  502    0  0.00000000000E+00  0.00000000000E+00  0.30922890605E+03  0.30922890605E+03  0.00000000000E+00 0. -1.
          1   -1    0    0  501    0 -0.00000000000E+00 -0.00000000000E+00 -0.15903728625E+04  0.15903728625E+04  0.00000000000E+00 0. -1.
         25    2    1    2    0    0  0.46634137709E+02  0.58352531883E+02 -0.11651103450E+03  0.18649279796E+03  0.12499992701E+03 0.  0.
          2    1    1    2  501    0 -0.20800593930E+02 -0.37866412844E+02 -0.14375542679E+04  0.14382033247E+04  0.00000000000E+00 0. -1.
          1    1    1    2  502    0 -0.25833543779E+02 -0.20486119038E+02  0.27292134598E+03  0.27490564590E+03  0.00000000000E+00 0. -1.
         22    1    3    3    0    0  0.65819604324E+02  0.64598317801E+02 -0.28984616151E+02  0.96670941598E+02  0.00000000000E+00 0.  1.
         22    1    3    3    0    0 -0.19185466615E+02 -0.62457859180E+01 -0.87526418352E+02  0.89821856363E+02  0.00000000000E+00 0.  1.
</event>
<event>
 7    1  0.5789396E-006  0.5597683E+02  0.7818608E-02  0.1461584E+00
          2   -1    0    0  502    0  0.00000000000E+00  0.00000000000E+00  0.18950028345E+03  0.18950028345E+03  0.00000000000E+00 0. -1.
          1   -1    0    0  501    0 -0.00000000000E+00 -0.00000000000E+00 -0.18286025633E+04  0.18286025633E+04  0.00000000000E+00 0. -1.
         25    2    1    2    0    0  0.95012843092E+02  0.54306462578E+01 -0.45448522037E+02  0.16355120456E+03  0.12500598420E+03 0.  0.
          2    1    1    2  501    0 -0.55676825861E+02 -0.47011146250E+00 -0.17206294097E+04  0.17215300449E+04  0.00000000000E+00 0. -1.
          1    1    1    2  502    0 -0.39336017231E+02 -0.49605347953E+01  0.12697565193E+03  0.13302159727E+03  0.00000000000E+00 0. -1.
         22    1    3    3    0    0  0.11113383402E+03  0.25571969281E+02 -0.64926597300E+02  0.13122544613E+03  0.00000000000E+00 0.  1.
         22    1    3    3    0    0 -0.16120990925E+02 -0.20141323023E+02  0.19478075264E+02  0.32325758421E+02  0.00000000000E+00 0.  1.
</event>
<event>
 7    1  0.5789396E-006  0.6926732E+02  0.7818608E-02  0.1394475E+00
          2   -1    0    0  502    0  0.00000000000E+00  0.00000000000E+00  0.72487416119E+03  0.72487416119E+03  0.00000000000E+00 0. -1.
          1   -1    0    0  501    0 -0.00000000000E+00 -0.00000000000E+00 -0.19847444867E+03  0.19847444867E+03  0.00000000000E+00 0. -1.
         25    2    1    2    0    0  0.66669015891E+02 -0.84975037299E+02  0.16968959976E+03  0.23682209651E+03  0.12499852192E+03 0.  0.
          2    1    1    2  501    0 -0.60259106817E+02  0.31980820445E+02 -0.15640854782E+03  0.17063870212E+03  0.00000000000E+00 0. -1.
          1    1    1    2  502    0 -0.64099090746E+01  0.52994216854E+02  0.51311866057E+03  0.51588781124E+03  0.00000000000E+00 0. -1.
         22    1    3    3    0    0 -0.12327966270E+02  0.13594855813E+02  0.79549642604E+02  0.81639111309E+02  0.00000000000E+00 0. -1.
         22    1    3    3    0    0  0.78996982161E+02 -0.98569893112E+02  0.90139957161E+02  0.15518298520E+03  0.00000000000E+00 0. -1.
</event>
<event>
 7    1  0.5789396E-006  0.2469554E+03  0.7818608E-02  0.1243955E+00
          2   -1    0    0  502    0  0.00000000000E+00  0.00000000000E+00  0.20457188848E+03  0.20457188848E+03  0.00000000000E+00 0. -1.
          1   -1    0    0  501    0 -0.00000000000E+00 -0.00000000000E+00 -0.24603294718E+04  0.24603294718E+04  0.00000000000E+00 0. -1.
         25    2    1    2    0    0 -0.28493740307E+03  0.93597841874E+02 -0.26354190506E+03  0.41836587129E+03  0.12500314743E+03 0.  0.
          2    1    1    2  501    0  0.22914714959E+03 -0.78460253645E+02 -0.21054835067E+04  0.21193690629E+04  0.00000000000E+00 0. -1.
          1    1    1    2  502    0  0.55790253472E+02 -0.15137588229E+02  0.11326782848E+03  0.12716642611E+03  0.00000000000E+00 0. -1.
         22    1    3    3    0    0 -0.26543700003E+03  0.11904557400E+03 -0.24996005956E+03  0.38354749517E+03  0.00000000000E+00 0.  1.
         22    1    3    3    0    0 -0.19500403035E+02 -0.25447732122E+02 -0.13581845505E+02  0.34818376125E+02  0.00000000000E+00 0.  1.
</event>
<event>
 7    1  0.5789396E-006  0.8014375E+02  0.7818608E-02  0.1408470E+00
          2   -1    0    0  502    0  0.00000000000E+00  0.00000000000E+00  0.43346417500E+03  0.43346417500E+03  0.00000000000E+00 0. -1.
          1   -1    0    0  501    0 -0.00000000000E+00 -0.00000000000E+00 -0.27977245008E+04  0.27977245008E+04  0.00000000000E+00 0. -1.
         25    2    1    2    0    0  0.91337577598E+02 -0.21761390371E+02  0.18126266057E+03  0.23936887233E+03  0.12500077493E+03 0.  0.
          2    1    1    2  501    0 -0.61966658714E+02  0.50805958234E+02 -0.27661746588E+04  0.27673350637E+04  0.00000000000E+00 0. -1.
          1    1    1    2  502    0 -0.29370918883E+02 -0.29044567863E+02  0.22065167245E+03  0.22448473969E+03  0.00000000000E+00 0. -1.
         22    1    3    3    0    0  0.61437631993E+02 -0.27510664971E+02  0.19475881993E+03  0.20606410957E+03  0.00000000000E+00 0. -1.
         22    1    3    3    0    0  0.29899945605E+02  0.57492745994E+01 -0.13496159356E+02  0.33304762767E+02  0.00000000000E+00 0. -1.
</event>
<event>
 7    1  0.5789396E-006  0.2455088E+03  0.7818608E-02  0.1297777E+00
          2   -1    0    0  502    0  0.00000000000E+00  0.00000000000E+00  0.28010118319E+03  0.28010118319E+03  0.00000000000E+00 0. -1.
          1   -1    0    0  501    0 -0.00000000000E+00 -0.00000000000E+00 -0.58316544038E+03  0.58316544038E+03  0.00000000000E+00 0. -1.
         25    2    1    2    0    0 -0.21895317925E+03  0.14609895850E+03 -0.16804761856E+03  0.33637797947E+03  0.12499897036E+03 0.  0.
          2    1    1    2  501    0  0.33749420509E+02  0.74959018558E+01 -0.25548112191E+03  0.25780964990E+03  0.00000000000E+00 0. -1.
          1    1    1    2  502    0  0.18520375874E+03 -0.15359486036E+03  0.12046448329E+03  0.26907899419E+03  0.00000000000E+00 0. -1.
         22    1    3    3    0    0 -0.42997269564E+02  0.99530493213E+02 -0.76061945316E+02  0.13244056703E+03  0.00000000000E+00 0. -1.
         22    1    3    3    0    0 -0.17595590968E+03  0.46568465290E+02 -0.91985673247E+02  0.20393741245E+03  0.00000000000E+00 0. -1.
</event>
<event>
 7    1  0.5789396E-006  0.1005863E+03  0.7818608E-02  0.1340849E+00
          2   -1    0    0  502    0  0.00000000000E+00  0.00000000000E+00  0.12898838942E+04  0.12898838942E+04  0.00000000000E+00 0. -1.
          1   -1    0    0  501    0 -0.00000000000E+00 -0.00000000000E+00 -0.24909278004E+03  0.24909278004E+03  0.00000000000E+00 0. -1.
         25    2    1    2    0    0  0.48878617718E+02  0.94961559548E+02  0.21336254285E+03  0.26936062041E+03  0.12499900829E+03 0.  0.
          2    1    1    2  501    0  0.82347088639E+01 -0.10069157199E+03 -0.20871674289E+03  0.23188204299E+03  0.00000000000E+00 0. -1.
          1    1    1    2  502    0 -0.57113326582E+02  0.57300124437E+01  0.10361453142E+04  0.10377340108E+04  0.00000000000E+00 0. -1.
         22    1    3    3    0    0  0.32227671132E+01  0.83558668144E+02  0.45854655623E+02  0.95368163934E+02  0.00000000000E+00 0.  1.
         22    1    3    3    0    0  0.45655850605E+02  0.11402891404E+02  0.16750788723E+03  0.17399245647E+03  0.00000000000E+00 0.  1.
</event>
<event>
 7    1  0.5789396E-006  0.2098307E+03  0.7818608E-02  0.1245640E+00
          2   -1    0    0  502    0  0.00000000000E+00  0.00000000000E+00  0.11690701637E+03  0.11690701637E+03  0.00000000000E+00 0. -1.
          1   -1    0    0  501    0 -0.00000000000E+00 -0.00000000000E+00 -0.11208207657E+04  0.11208207657E+04  0.00000000000E+00 0. -1.
         25    2    1    2    0    0  0.35430659460E+02  0.19146882815E+03 -0.66417121240E+03  0.70332550970E+03  0.12501091728E+03 0.  0.
          2    1    1    2  501    0 -0.95929581756E+02 -0.22000123926E+03 -0.38497005158E+03  0.45365732722E+03  0.00000000000E+00 0. -1.
          1    1    1    2  502    0  0.60498922296E+02  0.28532411104E+02  0.45227514659E+02  0.80744945134E+02  0.00000000000E+00 0. -1.
         22    1    3    3    0    0 -0.32613733474E+02  0.13574445882E+03 -0.34282766003E+03  0.37016350197E+03  0.00000000000E+00 0.  1.
         22    1    3    3    0    0  0.68044392934E+02  0.55724369332E+02 -0.32134355237E+03  0.33316200773E+03  0.00000000000E+00 0.  1.
</event>
<event>
 7    1  0.5789396E-006  0.6096609E+02  0.7818608E-02  0.1448700E+00
          2   -1    0    0  502    0  0.00000000000E+00  0.00000000000E+00  0.78256081474E+03  0.78256081474E+03  0.00000000000E+00 0. -1.
          1   -1    0    0  501    0 -0.00000000000E+00 -0.00000000000E+00 -0.94201647922E+02  0.94201647922E+02  0.00000000000E+00 0. -1.
         25    2    1    2    0    0 -0.89532453497E+02  0.20290670668E+02  0.30627531428E+03  0.34330301047E+03  0.12499846926E+03 0.  0.
          2    1    1    2  501    0  0.51111369282E+02 -0.31418635748E+02 -0.62758442309E+02  0.86822375130E+02  0.00000000000E+00 0. -1.
          1    1    1    2  502    0  0.38421084216E+02  0.11127965081E+02  0.44484229485E+03  0.44663707706E+03  0.00000000000E+00 0. -1.
         22    1    3    3    0    0 -0.12520205654E+02  0.21442640826E+02  0.24119059379E+03  0.24246534789E+03  0.00000000000E+00 0.  1.
         22    1    3    3    0    0 -0.77012247843E+02 -0.11519701579E+01  0.65084720484E+02  0.10083766257E+03  0.00000000000E+00 0.  1.
</event>
<event>
 7    1  0.5789396E-006  0.4357165E+02  0.7818608E-02  0.1544437E+00
          2   -1    0    0  502    0  0.00000000000E+00  0.00000000000E+00  0.13124289631E+03  0.13124289631E+03  0.00000000000E+00 0. -1.
          1   -1    0    0  501    0 -0.00000000000E+00 -0.00000000000E+00 -0.92851568337E+03  0.92851568337E+03  0.00000000000E+00 0. -1.
         25    2    1    2    0    0  0.19152576780E+01 -0.40737936245E+02 -0.30434295941E+03  0.33153144466E+03  0.12500085676E+03 0.  0.
          2    1    1    2  501    0  0.26479629401E+02  0.35466013255E+02 -0.60798945634E+03  0.60959838245E+03  0.00000000000E+00 0. -1.
          1    1    1    2  502    0 -0.28394887079E+02  0.52719229900E+01  0.11505962869E+03  0.11862875258E+03  0.00000000000E+00 0. -1.
         22    1    3    3    0    0  0.52952072782E+01 -0.79882435596E+02 -0.26113215433E+03  0.27312862311E+03  0.00000000000E+00 0. -1.
         22    1    3    3    0    0 -0.33799496001E+01  0.39144499351E+02 -0.43210805078E+02  0.58402821544E+02  0.00000000000E+00 0. -1.
</event>
<event>
 7    1  0.5789396E-006  0.1183511E+03  0.7818608E-02  0.1353204E+00
          2   -1    0    0  502    0  0.00000000000E+00  0.00000000000E+00  0.69113424701E+03  0.69113424701E+03  0.00000000000E+00 0. -1.
          1   -1    0    0  501    0 -0.00000000000E+00 -0.00000000000E+00 -0.19088905574E+04  0.19088905574E+04  0.00000000000E+00 0. -1.
         25    2    1    2    0    0  0.11513213684E+03  0.45573160270E+02 -0.32865915928E+03  0.37279259825E+03  0.12500062587E+03 0.  0.
          2    1    1    2  501    0 -0.27589468077E+02  0.34125046264E+02 -0.15526152784E+04  0.15532353010E+04  0.00000000000E+00 0. -1.
          1    1    1    2  502    0 -0.87542668760E+02 -0.79698206534E+02  0.66351812727E+03  0.67399690518E+03  0.00000000000E+00 0. -1.
         22    1    3    3    0    0  0.12490949203E+02 -0.16749791241E+02 -0.18222539123E+03  0.18341938973E+03  0.00000000000E+00 0. -1.
         22    1    3    3    0    0  0.10264118763E+03  0.62322951512E+02 -0.14643376804E+03  0.18937320853E+03  0.00000000000E+00 0. -1.
</event>
<event>
 7    1  0.5789396E-006  0.7337316E+02  0.7818608E-02  0.1469105E+00
          2   -1    0    0  502    0  0.00000000000E+00  0.00000000000E+00  0.18486131713E+04  0.18486131713E+04  0.00000000000E+00 0. -1.
          1   -1    0    0  501    0 -0.00000000000E+00 -0.00000000000E+00 -0.15546824448E+03  0.15546824448E+03  0.00000000000E+00 0. -1.
         25    2    1    2    0    0  0.62697379780E+02 -0.75225312539E+02  0.16652550632E+02  0.15966377692E+03  0.12500162055E+03 0.  0.
          2    1    1    2  501    0 -0.42820753187E+02  0.54590528706E+02 -0.69492019018E+02  0.98198184479E+02  0.00000000000E+00 0. -1.
          1    1    1    2  502    0 -0.19876626593E+02  0.20634783834E+02  0.17459843952E+04  0.17462194544E+04  0.00000000000E+00 0. -1.
         22    1    3    3    0    0 -0.32152758573E+02 -0.47795806838E+02 -0.72957358203E+01  0.58064333255E+02  0.00000000000E+00 0. -1.
         22    1    3    3    0    0  0.94850138352E+02 -0.27429505701E+02  0.23948286453E+02  0.10159944366E+03  0.00000000000E+00 0. -1.
</event>
<event>
 7    1  0.5789396E-006  0.1318945E+03  0.7818608E-02  0.1296200E+00
          2   -1    0    0  502    0  0.00000000000E+00  0.00000000000E+00  0.71396355874E+03  0.71396355874E+03  0.00000000000E+00 0. -1.
          1   -1    0    0  501    0 -0.00000000000E+00 -0.00000000000E+00 -0.12221809644E+04  0.12221809644E+04  0.00000000000E+00 0. -1.
         25    2    1    2    0    0  0.75656187400E+02  0.16336717713E+03  0.37062959003E+03  0.43058517798E+03  0.12499843692E+03 0.  0.
          2    1    1    2  501    0 -0.31163935358E+02 -0.57382386930E+02 -0.11807296196E+04  0.11825338743E+04  0.00000000000E+00 0. -1.
          1    1    1    2  502    0 -0.44492252043E+02 -0.10598479020E+03  0.30188262389E+03  0.32302547090E+03  0.00000000000E+00 0. -1.
         22    1    3    3    0    0 -0.10064644963E+01  0.98380268388E+02  0.27415130767E+03  0.29127071544E+03  0.00000000000E+00 0. -1.
         22    1    3    3    0    0  0.76662651897E+02  0.64986908739E+02  0.96478282365E+02  0.13931446253E+03  0.00000000000E+00 0. -1.
</event>
<event>
 7    1  0.5789396E-006  0.3072203E+03  0.7818608E-02  0.1312898E+00
          2   -1    0    0  502    0  0.00000000000E+00  0.00000000000E+00  0.79229772939E+03  0.79229772939E+03  0.00000000000E+00 0. -1.
          1   -1    0    0  501    0 -0.00000000000E+00 -0.00000000000E+00 -0.18957732125E+04  0.18957732125E+04  0.00000000000E+00 0. -1.
         25    2    1    2    0    0 -0.28821320330E+03  0.28325676939E+02 -0.19740872217E+03  0.37210909671E+03  0.12500312691E+03 0.  0.
          2    1    1    2  501    0  0.30976842372E+03 -0.17634831846E+02 -0.15958636532E+04  0.16257454485E+04  0.00000000000E+00 0. -1.
          1    1    1    2  502    0 -0.21555220424E+02 -0.10690845093E+02  0.68979689226E+03  0.69021639670E+03  0.00000000000E+00 0. -1.
         22    1    3    3    0    0 -0.26927045753E+03 -0.19596522488E+01 -0.13748256435E+03  0.30234396808E+03  0.00000000000E+00 0.  1.
         22    1    3    3    0    0 -0.18942745764E+02  0.30285329188E+02 -0.59926157820E+02  0.69765128626E+02  0.00000000000E+00 0.  1.
</event>
<event>
 7    1  0.5789396E-006  0.8841702E+02  0.7818608E-02  0.1380326E+00
          2   -1    0    0  502    0  0.00000000000E+00  0.00000000000E+00  0.10517943296E+04  0.10517943296E+04  0.00000000000E+00 0. -1.
          1   -1    0    0  501    0 -0.00000000000E+00 -0.00000000000E+00 -0.36766335931E+02  0.36766335931E+02  0.00000000000E+00 0. -1.
         25    2    1    2    0    0  0.11285382050E+03 -0.42448938097E+02  0.30235184915E+03  0.34867880712E+03  0.12498949034E+03 0.  0.
          2    1    1    2  501    0 -0.27738807475E+02  0.37786551892E+02  0.39409299679E+02  0.61240165293E+02  0.00000000000E+00 0. -1.
          1    1    1    2  502    0 -0.85115013029E+02  0.46623862047E+01  0.67326684487E+03  0.67864169315E+03  0.00000000000E+00 0. -1.
         22    1    3    3    0    0  0.92957284722E+02 -0.46719155141E+02  0.96747149064E+02  0.14206951500E+03  0.00000000000E+00 0.  1.
         22    1    3    3    0    0  0.19896535782E+02  0.42702170441E+01  0.20560470009E+03  0.20660929212E+03  0.00000000000E+00 0.  1.
</event>
<event>
 7    1  0.5789396E-006  0.2584251E+03  0.7818608E-02  0.1163238E+00
          2   -1    0    0  502    0  0.00000000000E+00  0.00000000000E+00  0.48357507042E+03  0.48357507042E+03  0.00000000000E+00 0. -1.
          1   -1    0    0  501    0 -0.00000000000E+00 -0.00000000000E+00 -0.75296578805E+03  0.75296578805E+03  0.00000000000E+00 0. -1.
         25    2    1    2    0    0  0.24841721580E+03 -0.79283466995E+02 -0.86137792921E+01  0.28930267195E+03  0.12499943024E+03 0.  0.
          2    1    1    2  501    0 -0.65821168457E+02 -0.11458963291E+03 -0.54320330630E+03  0.55904654740E+03  0.00000000000E+00 0. -1.
          1    1    1    2  502    0 -0.18259604734E+03  0.19387309990E+03  0.28242636796E+03  0.38819163913E+03  0.00000000000E+00 0. -1.
         22    1    3    3    0    0  0.21583904910E+03 -0.59775067652E+02  0.40113006647E+02  0.22752715691E+03  0.00000000000E+00 0.  1.
         22    1    3    3    0    0  0.32578166698E+02 -0.19508399343E+02 -0.48726785939E+02  0.61775515039E+02  0.00000000000E+00 0.  1.
</event>
<event>
 7    1  0.5789396E-006  0.8265373E+02  0.7818608E-02  0.1404315E+00
          2   -1    0    0  502    0  0.00000000000E+00  0.00000000000E+00  0.89430975454E+03  0.89430975454E+03  0.00000000000E+00 0. -1.
          1   -1    0    0  501    0 -0.00000000000E+00 -0.00000000000E+00 -0.24199455215E+03  0.24199455215E+03  0.00000000000E+00 0. -1.
         25    2    1    2    0    0 -0.94490851840E+02  0.40363202125E+02 -0.46020766170E+02  0.16822129352E+03  0.12499113372E+03 0.  0.
          2    1    1    2  501    0  0.36944526810E+02  0.18636653627E+02 -0.12960489435E+03  0.13605018030E+03  0.00000000000E+00 0. -1.
          1    1    1    2  502    0  0.57546325030E+02 -0.58999855752E+02  0.82794086291E+03  0.83203283287E+03  0.00000000000E+00 0. -1.
         22    1    3    3    0    0 -0.28868024994E+02 -0.42131337064E+02 -0.35683679630E+02  0.62303590762E+02  0.00000000000E+00 0. -1.
         22    1    3    3    0    0 -0.65622826846E+02  0.82494539190E+02 -0.10337086540E+02  0.10591770276E+03  0.00000000000E+00 0. -1.
</event>
<event>
 7    1  0.5789396E-006  0.4633452E+02  0.7818608E-02  0.1474185E+00
          2   -1    0    0  502    0  0.00000000000E+00  0.00000000000E+00  0.19019112163E+04  0.19019112163E+04  0.00000000000E+00 0. -1.
          1   -1    0    0  501    0 -0.00000000000E+00 -0.00000000000E+00 -0.16776922809E+02  0.16776922809E+02  0.00000000000E+00 0. -1.
         25    2    1    2    0    0 -0.99078934174E+01  0.79761488775E+00  0.48176158512E+03  0.49781338384E+03  0.12500055076E+03 0.  0.
          2    1    1    2  501    0  0.49481411196E+02  0.17863065795E+02  0.74062239180E+02  0.90844451927E+02  0.00000000000E+00 0. -1.
          1    1    1    2  502    0 -0.39573517778E+02 -0.18660680683E+02  0.13293104692E+04  0.13300303034E+04  0.00000000000E+00 0. -1.
         22    1    3    3    0    0  0.30591799919E+02 -0.36916792272E+02  0.88280819814E+02  0.10045999662E+03  0.00000000000E+00 0. -1.
         22    1    3    3    0    0 -0.40499693337E+02  0.37714407160E+02  0.39348076531E+03  0.39735338722E+03  0.00000000000E+00 0. -1.
</event>
<event>
 7    1  0.5789396E-006  0.7297142E+02  0.7818608E-02  0.1402662E+00
          2   -1    0    0  502    0  0.00000000000E+00  0.00000000000E+00  0.36282713698E+03  0.36282713698E+03  0.00000000000E+00 0. -1.
          1   -1    0    0  501    0 -0.00000000000E+00 -0.00000000000E+00 -0.67376104259E+02  0.67376104259E+02  0.00000000000E+00 0. -1.
         25    2    1    2    0    0  0.93436749355E+01 -0.30501162615E+02  0.24483948395E+03  0.27673724125E+03  0.12497800852E+03 0.  0.
          2    1    1    2  501    0 -0.34668249646E+02  0.70667969882E+02 -0.67479837702E+01  0.79002435315E+02  0.00000000000E+00 0. -1.
          1    1    1    2  502    0  0.25324574710E+02 -0.40166807266E+02  0.57359532543E+02  0.74463564673E+02  0.00000000000E+00 0. -1.
         22    1    3    3    0    0  0.66017326251E+02 -0.22893439991E+02  0.11056165418E+03  0.13079096427E+03  0.00000000000E+00 0.  1.
         22    1    3    3    0    0 -0.56673651315E+02 -0.76077226239E+01  0.13427782977E+03  0.14594627698E+03  0.00000000000E+00 0.  1.
</event>
<event>
 7    1  0.5789396E-006  0.1000067E+03  0.7818608E-02  0.1362683E+00
          2   -1    0    0  502    0  0.00000000000E+00  0.00000000000E+00  0.47906312439E+03  0.47906312439E+03  0.00000000000E+00 0. -1.
          1   -1    0    0  501    0 -0.00000000000E+00 -0.00000000000E+00 -0.31904264585E+03  0.31904264585E+03  0.00000000000E+00 0. -1.
         25    2    1    2    0    0  0.13340322443E+03 -0.32435495187E+01 -0.95152760532E+02  0.20612203682E+03  0.12500122128E+03 0.  0.
          2    1    1    2  501    0 -0.90893144817E+02 -0.18926712128E+02 -0.15410254020E+03  0.17990935802E+03  0.00000000000E+00 0. -1.
          1    1    1    2  502    0 -0.42510079615E+02  0.22170261647E+02  0.40927577927E+03  0.41207437541E+03  0.00000000000E+00 0. -1.
         22    1    3    3    0    0  0.83203530910E+02 -0.18921589045E+02  0.12568341615E+02  0.86248578532E+02  0.00000000000E+00 0. -1.
         22    1    3    3    0    0  0.50199693522E+02  0.15678039526E+02 -0.10772110215E+03  0.11987345828E+03  0.00000000000E+00 0. -1.
</event>
<event>
 7    1  0.5789396E-006  0.6427870E+02  0.7818608E-02  0.1518501E+00
          2   -1    0    0  502    0  0.00000000000E+00  0.00000000000E+00  0.67062605763E+03  0.67062605763E+03  0.00000000000E+00 0. -1.
          1   -1    0    0  501    0 -0.00000000000E+00 -0.00000000000E+00 -0.16659247467E+04  0.16659247467E+04  0.00000000000E+00 0. -1.
         25    2    1    2    0    0  0.22609910036E+02  0.72593846062E+02 -0.51805236311E+02  0.15520881915E+03  0.12499968206E+03 0.  0.
          2    1    1    2  501    0 -0.97328805131E+00 -0.64160503322E+02 -0.15615407340E+04  0.15628585929E+04  0.00000000000E+00 0. -1.
          1    1    1    2  502    0 -0.21636621985E+02 -0.84333427403E+01  0.61804728124E+03  0.61848339228E+03  0.00000000000E+00 0. -1.
         22    1    3    3    0    0 -0.35803750881E+02 -0.11179371568E+02  0.58010413677E+01  0.37954433295E+02  0.00000000000E+00 0. -1.
         22    1    3    3    0    0  0.58413660917E+02  0.83773217630E+02 -0.57606277678E+02  0.11725438585E+03  0.00000000000E+00 0. -1.
</event>
<event>
 7    1  0.5789396E-006  0.6460063E+02  0.7818608E-02  0.1474091E+00
          2   -1    0    0  502    0  0.00000000000E+00  0.00000000000E+00  0.99814403771E+03  0.99814403771E+03  0.00000000000E+00 0. -1.
          1   -1    0    0  501    0 -0.00000000000E+00 -0.00000000000E+00 -0.24687270532E+03  0.24687270532E+03  0.00000000000E+00 0. -1.
         25    2    1    2    0    0 -0.62445462136E+02 -0.42263155184E+01 -0.48597214721E+02  0.14799891148E+03  0.12499876414E+03 0.  0.
          2    1    1    2  501    0  0.77943796738E+01 -0.30419713995E+02 -0.14579729319E+03  0.14914074579E+03  0.00000000000E+00 0. -1.
          1    1    1    2  502    0  0.54651082462E+02  0.34646029513E+02  0.94566584030E+03  0.94787708575E+03  0.00000000000E+00 0. -1.
         22    1    3    3    0    0 -0.51560109198E+02 -0.93626676429E+01  0.35338019965E+02  0.63205063570E+02  0.00000000000E+00 0. -1.
         22    1    3    3    0    0 -0.10885352938E+02  0.51363521244E+01 -0.83935234686E+02  0.84793847911E+02  0.00000000000E+00 0. -1.
</event>
<event>
 7    1  0.5789396E-006  0.1462414E+03  0.7818608E-02  0.1250818E+00
          2   -1    0    0  502    0  0.00000000000E+00  0.00000000000E+00  0.47651949980E+03  0.47651949980E+03  0.00000000000E+00 0. -1.
          1   -1    0    0  501    0 -0.00000000000E+00 -0.00000000000E+00 -0.45582856753E+03  0.45582856753E+03  0.00000000000E+00 0. -1.
         25    2    1    2    0    0  0.32917567877E+02  0.78369705994E+02  0.25713376494E+03  0.29826975668E+03  0.12498678965E+03 0.  0.
          2    1    1    2  501    0 -0.12384981692E+03 -0.84260583356E+02 -0.41084748423E+03  0.43730341682E+03  0.00000000000E+00 0. -1.
          1    1    1    2  502    0  0.90932249041E+02  0.58908773616E+01  0.17440465157E+03  0.19677489383E+03  0.00000000000E+00 0. -1.
         22    1    3    3    0    0 -0.25756435604E+02  0.47243891253E+02  0.29963270397E+02  0.61588771774E+02  0.00000000000E+00 0. -1.
         22    1    3    3    0    0  0.58674003481E+02  0.31125814741E+02  0.22717049454E+03  0.23668098491E+03  0.00000000000E+00 0. -1.
</event>
<event>
 7    1  0.5789396E-006  0.8894251E+02  0.7818608E-02  0.1420585E+00
          2   -1    0    0  502    0  0.00000000000E+00  0.00000000000E+00  0.35120704325E+03  0.35120704325E+03  0.00000000000E+00 0. -1.
          1   -1    0    0  501    0 -0.00000000000E+00 -0.00000000000E+00 -0.45686638758E+03  0.45686638758E+03  0.00000000000E+00 0. -1.
         25    2    1    2    0    0  0.94475022519E+02 -0.51602897815E+02  0.14784704397E+03  0.22150929767E+03  0.12497692428E+03 0.  0.
          2    1    1    2  501    0 -0.86591212480E+02  0.18648809528E+02 -0.41357216403E+03  0.42295123955E+03  0.00000000000E+00 0. -1.
          1    1    1    2  502    0 -0.78838100398E+01  0.32954088288E+02  0.16006577573E+03  0.16361289361E+03  0.00000000000E+00 0. -1.
         22    1    3    3    0    0 -0.28829720039E+02  0.11861370928E+01  0.40421643684E+02  0.49663557634E+02  0.00000000000E+00 0.  1.
         22    1    3    3    0    0  0.12330474256E+03 -0.52789034908E+02  0.10742540028E+03  0.17184574004E+03  0.00000000000E+00 0.  1.
</event>
<event>
 7    1  0.5789396E-006  0.6475543E+02  0.7818608E-02  0.1390361E+00
          2   -1    0    0  502    0  0.00000000000E+00  0.00000000000E+00  0.12890110793E+04  0.12890110793E+04  0.00000000000E+00 0. -1.
          1   -1    0    0  501    0 -0.00000000000E+00 -0.00000000000E+00 -0.59721437224E+03  0.59721437224E+03  0.00000000000E+00 0. -1.
         25    2    1    2    0    0 -0.82084947981E+02 -0.11811234000E+02  0.84871452653E+03  0.86186914012E+03  0.12499849287E+03 0.  0.
          2    1    1    2  501    0  0.51822518868E+02 -0.38850227050E+02 -0.58683982890E+03  0.59040316597E+03  0.00000000000E+00 0. -1.
          1    1    1    2  502    0  0.30262429113E+02  0.50661461050E+02  0.42992200943E+03  0.43395314544E+03  0.00000000000E+00 0. -1.
         22    1    3    3    0    0 -0.64974729537E+02 -0.35576415754E+02  0.21361031480E+03  0.22609016658E+03  0.00000000000E+00 0.  1.
         22    1    3    3    0    0 -0.17110218443E+02  0.23765181754E+02  0.63510421173E+03  0.63577897354E+03  0.00000000000E+00 0.  1.
</event>
<event>
 7    1  0.5789396E-006  0.3813163E+03  0.7818608E-02  0.1199192E+00
          2   -1    0    0  502    0  0.00000000000E+00  0.00000000000E+00  0.21795647600E+03  0.21795647600E+03  0.00000000000E+00 0. -1.
          1   -1    0    0  501    0 -0.00000000000E+00 -0.00000000000E+00 -0.17457219002E+04  0.17457219002E+04  0.00000000000E+00 0. -1.
         25    2    1    2    0    0 -0.20389300645E+03  0.29188044992E+03 -0.20514385095E+03  0.42950639982E+03  0.12500077114E+03 0.  0.
          2    1    1    2  501    0 -0.19931609697E+02  0.56415667698E+02 -0.10190075955E+04  0.10207626934E+04  0.00000000000E+00 0. -1.
          1    1    1    2  502    0  0.22382461614E+03 -0.34829611761E+03 -0.30361397780E+03  0.51340928298E+03  0.00000000000E+00 0. -1.
         22    1    3    3    0    0 -0.10798838752E+03  0.54055831271E+02 -0.71401838959E+02  0.14029165100E+03  0.00000000000E+00 0.  1.
         22    1    3    3    0    0 -0.95904618924E+02  0.23782461864E+03 -0.13374201199E+03  0.28921474882E+03  0.00000000000E+00 0.  1.
</event>
<event>
 7    1  0.5789396E-006  0.9150475E+02  0.7818608E-02  0.1326997E+00
          2   -1    0    0  502    0  0.00000000000E+00  0.00000000000E+00  0.52589319065E+03  0.52589319065E+03  0.00000000000E+00 0. -1.
          1   -1    0    0  501    0 -0.00000000000E+00 -0.00000000000E+00 -0.77749107855E+03  0.77749107855E+03  0.00000000000E+00 0. -1.
         25    2    1    2    0    0  0.15211048419E+01  0.29031818475E+02 -0.60767020511E+02  0.14199566996E+03  0.12499991705E+03 0.  0.
          2    1    1    2  501    0 -0.45946145021E+02  0.54418425402E+02 -0.66959892076E+03  0.67337591875E+03  0.00000000000E+00 0. -1.
          1    1    1    2  502    0  0.44425040179E+02 -0.83450243877E+02  0.47876805337E+03  0.48801268049E+03  0.00000000000E+00 0. -1.
         22    1    3    3    0    0 -0.57305412187E+02  0.26238207951E+02 -0.91560017230E+01  0.63688195060E+02  0.00000000000E+00 0.  1.
         22    1    3    3    0    0  0.58826517029E+02  0.27936105239E+01 -0.51611018788E+02  0.78307474904E+02  0.00000000000E+00 0.  1.
</event>
<event>
 7    1  0.5789396E-006  0.4998279E+02  0.7818608E-02  0.1456959E+00
          2   -1    0    0  502    0  0.00000000000E+00  0.00000000000E+00  0.89684823396E+03  0.89684823396E+03  0.00000000000E+00 0. -1.
          1   -1    0    0  501    0 -0.00000000000E+00 -0.00000000000E+00 -0.87520715424E+03  0.87520715424E+03  0.00000000000E+00 0. -1.
         25    2    1    2    0    0  0.45893941085E+02 -0.12298294593E+02  0.29984602717E+03  0.32831598729E+03  0.12500498239E+03 0.  0.
          2    1    1    2  501    0 -0.37711101233E+02 -0.32887460241E+02 -0.85933866467E+03  0.86079419886E+03  0.00000000000E+00 0. -1.
          1    1    1    2  502    0 -0.81828398518E+01  0.45185754834E+02  0.58113371722E+03  0.58294520205E+03  0.00000000000E+00 0. -1.
         22    1    3    3    0    0  0.44489684382E+02  0.13998494512E+02  0.26377235576E+02  0.53582165145E+02  0.00000000000E+00 0.  1.
         22    1    3    3    0    0  0.14042567024E+01 -0.26296789105E+02  0.27346879160E+03  0.27473382215E+03  0.00000000000E+00 0.  1.
</event>
<event>
 7    1  0.5789396E-006  0.7329071E+02  0.7818608E-02  0.1362458E+00
          2   -1    0    0  502    0  0.00000000000E+00  0.00000000000E+00  0.36163875130E+04  0.36163875130E+04  0.00000000000E+00 0. -1.
          1   -1    0    0  501    0 -0.00000000000E+00 -0.00000000000E+00 -0.26537968209E+02  0.26537968209E+02  0.00000000000E+00 0. -1.
         25    2    1    2    0    0  0.58895234919E+01 -0.13410650191E+02  0.67545211121E+03  0.68707691772E+03  0.12499841719E+03 0.  0.
          2    1    1    2  501    0 -0.40044490495E+02  0.69352082037E+02  0.58439284565E+02  0.99138400645E+02  0.00000000000E+00 0. -1.
          1    1    1    2  502    0  0.34154967003E+02 -0.55941431847E+02  0.28559581490E+04  0.28567101629E+04  0.00000000000E+00 0. -1.
         22    1    3    3    0    0  0.48890803567E+02 -0.10378221292E+02  0.12051437566E+03  0.13046736332E+03  0.00000000000E+00 0.  1.
         22    1    3    3    0    0 -0.43001280075E+02 -0.30324288992E+01  0.55493773555E+03  0.55660955440E+03  0.00000000000E+00 0.  1.
</event>
<event>
 7    1  0.5789396E-006  0.3729680E+02  0.7818608E-02  0.1568336E+00
          2   -1    0    0  502    0  0.00000000000E+00  0.00000000000E+00  0.14912081471E+04  0.14912081471E+04  0.00000000000E+00 0. -1.
          1   -1    0    0  501    0 -0.00000000000E+00 -0.00000000000E+00 -0.53055823188E+02  0.53055823188E+02  0.00000000000E+00 0. -1.
         25    2    1    2    0    0 -0.28947686762E+02  0.75756474722E+01  0.92149494300E+02  0.15814866813E+03  0.12499645166E+03 0.  0.
          2    1    1    2  501    0  0.19218733093E+02 -0.34868611266E+02  0.13683751146E-01  0.39814318286E+02  0.00000000000E+00 0. -1.
          1    1    1    2  502    0  0.97289536694E+01  0.27292963794E+02  0.13459891458E+04  0.13463009839E+04  0.00000000000E+00 0. -1.
         22    1    3    3    0    0 -0.39814221228E+02  0.96704049352E+01  0.12073403999E+03  0.12749665625E+03  0.00000000000E+00 0.  1.
         22    1    3    3    0    0  0.10866534466E+02 -0.20947574630E+01 -0.28584545685E+02  0.30652011877E+02  0.00000000000E+00 0.  1.
</event>
<event>
 7    1  0.5789396E-006  0.6058380E+02  0.7818608E-02  0.1448224E+00
          2   -1    0    0  502    0  0.00000000000E+00  0.00000000000E+00  0.16016570138E+04  0.16016570138E+04  0.00000000000E+00 0. -1.
          1   -1    0    0  501    0 -0.00000000000E+00 -0.00000000000E+00 -0.21244149489E+03  0.21244149489E+03  0.00000000000E+00 0. -1.
         25    2    1    2    0    0  0.66563364599E+02 -0.74170963564E+02  0.82866186396E+02  0.18006630151E+03  0.12500021899E+03 0.  0.
          2    1    1    2  501    0 -0.31351316434E+02  0.25471415002E+02 -0.16072712958E+03  0.16572540000E+03  0.00000000000E+00 0. -1.
          1    1    1    2  502    0 -0.35212048165E+02  0.48699548562E+02  0.14670764621E+04  0.14683068072E+04  0.00000000000E+00 0. -1.
         22    1    3    3    0    0 -0.32018772420E+02 -0.38926345498E+02  0.48313689976E+02  0.69818871376E+02  0.00000000000E+00 0. -1.
         22    1    3    3    0    0  0.98582137019E+02 -0.35244618066E+02  0.34552496419E+02  0.11024743013E+03  0.00000000000E+00 0. -1.
</event>
<event>
 7    1  0.5789396E-006  0.1231914E+03  0.7818608E-02  0.1347647E+00
          2   -1    0    0  502    0  0.00000000000E+00  0.00000000000E+00  0.15398170883E+04  0.15398170883E+04  0.00000000000E+00 0. -1.
          1   -1    0    0  501    0 -0.00000000000E+00 -0.00000000000E+00 -0.88661095703E+03  0.88661095703E+03  0.00000000000E+00 0. -1.
         25    2    1    2    0    0  0.88120476114E+02 -0.11807852208E+03 -0.44493638568E+03  0.48507898499E+03  0.12500191475E+03 0.  0.
          2    1    1    2  501    0 -0.87871309241E+02  0.73875458661E+02 -0.41345940288E+03  0.42910095340E+03  0.00000000000E+00 0. -1.
          1    1    1    2  502    0 -0.24916687309E+00  0.44203063421E+02  0.15116019198E+04  0.15122481069E+04  0.00000000000E+00 0. -1.
         22    1    3    3    0    0 -0.26504195689E+02 -0.34192406932E+02 -0.54343960522E+02  0.69461205908E+02  0.00000000000E+00 0. -1.
         22    1    3    3    0    0  0.11462467180E+03 -0.83886115150E+02 -0.39059242516E+03  0.41561777908E+03  0.00000000000E+00 0. -1.
</event>
<event>
 7    1  0.5789396E-006  0.6227357E+02  0.7818608E-02  0.1532157E+00
          2   -1    0    0  502    0  0.00000000000E+00  0.00000000000E+00  0.16159675430E+03  0.16159675430E+03  0.00000000000E+00 0. -1.
          1   -1    0    0  501    0 -0.00000000000E+00 -0.00000000000E+00 -0.22864829664E+04  0.22864829664E+04  0.00000000000E+00 0. -1.
         25    2    1    2    0    0 -0.40301400017E+02  0.72229318679E+02 -0.53405445037E+03  0.55469088382E+03  0.12500617309E+03 0.  0.
          2    1    1    2  501    0  0.26667311151E+02 -0.55100798140E+02 -0.17407774423E+04  0.17418534229E+04  0.00000000000E+00 0. -1.
          1    1    1    2  502    0  0.13634088867E+02 -0.17128520539E+02  0.14994568050E+03  0.15153541399E+03  0.00000000000E+00 0. -1.
         22    1    3    3    0    0 -0.31644112741E+02  0.83513936312E+01 -0.43672960389E+03  0.43795415578E+03  0.00000000000E+00 0. -1.
         22    1    3    3    0    0 -0.86572872760E+01  0.63877925048E+02 -0.97324846474E+02  0.11673672804E+03  0.00000000000E+00 0. -1.
</event>
<event>
 7    1  0.5789396E-006  0.6668787E+02  0.7818608E-02  0.1449483E+00
          2   -1    0    0  502    0  0.00000000000E+00  0.00000000000E+00  0.72895888067E+03  0.72895888067E+03  0.00000000000E+00 0. -1.
          1   -1    0    0  501    0 -0.00000000000E+00 -0.00000000000E+00 -0.31099177609E+03  0.31099177609E+03  0.00000000000E+00 0. -1.
         25    2    1    2    0    0  0.96651821474E+02  0.20906143690E+02  0.31123956801E+03  0.34967386695E+03  0.12499241213E+03 0.  0.
          2    1    1    2  501    0 -0.35779097077E+02 -0.64586173964E+01 -0.28816974318E+03  0.29045422774E+03  0.00000000000E+00 0. -1.
          1    1    1    2  502    0 -0.60872724398E+02 -0.14447526294E+02  0.39489727975E+03  0.39982256208E+03  0.00000000000E+00 0. -1.
         22    1    3    3    0    0  0.10705455697E+03  0.33996266475E+02  0.31330079563E+03  0.33282700138E+03  0.00000000000E+00 0. -1.
         22    1    3    3    0    0 -0.10402735493E+02 -0.13090122785E+02 -0.20612276193E+01  0.16846865571E+02  0.00000000000E+00 0. -1.
</event>
<event>
 7    1  0.5789396E-006  0.2625934E+03  0.7818608E-02  0.1249248E+00
          2   -1    0    0  502    0  0.00000000000E+00  0.00000000000E+00  0.14467923104E+04  0.14467923104E+04  0.00000000000E+00 0. -1.
          1   -1    0    0  501    0 -0.00000000000E+00 -0.00000000000E+00 -0.14214970382E+04  0.14214970382E+04  0.00000000000E+00 0. -1.
         25    2    1    2    0    0  0.62933446180E+02  0.29339365296E+03 -0.85300123400E+03  0.91283980197E+03  0.12499977849E+03 0.  0.
          2    1    1    2  501    0 -0.40198501825E+02 -0.32271636633E+02 -0.52518172268E+03  0.52770561862E+03  0.00000000000E+00 0. -1.
          1    1    1    2  502    0 -0.22734944354E+02 -0.26112201632E+03  0.14034782289E+04  0.14277439281E+04  0.00000000000E+00 0. -1.
         22    1    3    3    0    0  0.10117542913E+03  0.22305381309E+03 -0.65100304048E+03  0.69555332629E+03  0.00000000000E+00 0. -1.
         22    1    3    3    0    0 -0.38241982947E+02  0.70339839866E+02 -0.20199819352E+03  0.21728647569E+03  0.00000000000E+00 0. -1.
</event>
<event>
 7    1  0.5789396E-006  0.1252489E+03  0.7818608E-02  0.1267850E+00
          2   -1    0    0  502    0  0.00000000000E+00  0.00000000000E+00  0.13055719673E+04  0.13055719673E+04  0.00000000000E+00 0. -1.
          1   -1    0    0  501    0 -0.00000000000E+00 -0.00000000000E+00 -0.46230911413E+03  0.46230911413E+03  0.00000000000E+00 0. -1.
         25    2    1    2    0    0 -0.28037441376E+02 -0.50939702495E+02  0.20997566833E+02  0.13945207301E+03  0.12500012577E+03 0.  0.
          2    1    1    2  501    0 -0.16501290832E+01  0.13588220052E+03 -0.38991329502E+03  0.41291533391E+03  0.00000000000E+00 0. -1.
          1    1    1    2  502    0  0.29687570459E+02 -0.84942498022E+02  0.12121785813E+04  0.12155136745E+04  0.00000000000E+00 0. -1.
         22    1    3    3    0    0  0.48613585230E+01  0.19659590331E+02  0.51858568107E+02  0.55672644851E+02  0.00000000000E+00 0. -1.
         22    1    3    3    0    0 -0.32898799899E+02 -0.70599292826E+02 -0.30861001274E+02  0.83779428154E+02  0.00000000000E+00 0. -1.
</event>
<event>
 7    1  0.5789396E-006  0.3031998E+03  0.7818608E-02  0.1175047E+00
          2   -1    0    0  502    0  0.00000000000E+00  0.00000000000E+00  0.26935917095E+04  0.26935917095E+04  0.00000000000E+00 0. -1.
          1   -1    0    0  501    0 -0.00000000000E+00 -0.00000000000E+00 -0.22336587005E+03  0.22336587005E+03  0.00000000000E+00 0. -1.
         25    2    1    2    0    0 -0.18143169057E+01 -0.30771206101E+03  0.82523804751E+02  0.34223565598E+03  0.12500024654E+03 0.  0.
          2    1    1    2  501    0  0.98614753518E+02  0.29013129577E+03  0.16157333142E+03  0.34642023587E+03  0.00000000000E+00 0. -1.
          1    1    1    2  502    0 -0.96800436612E+02  0.17580765248E+02  0.22261287032E+04  0.22283016877E+04  0.00000000000E+00 0. -1.
         22    1    3    3    0    0 -0.36197937519E+02 -0.14528548330E+03 -0.13680324755E+02  0.15035063560E+03  0.00000000000E+00 0.  1.
         22    1    3    3    0    0  0.34383620613E+02 -0.16242657771E+03  0.96204129506E+02  0.19188502038E+03  0.00000000000E+00 0.  1.
</event>
<event>
 7    1  0.5789396E-006  0.1733449E+03  0.7818608E-02  0.1208327E+00
          2   -1    0    0  502    0  0.00000000000E+00  0.00000000000E+00  0.58334350885E+03  0.58334350885E+03  0.00000000000E+00 0. -1.
          1   -1    0    0  501    0 -0.00000000000E+00 -0.00000000000E+00 -0.37985502305E+03  0.37985502305E+03  0.00000000000E+00 0. -1.
         25    2    1    2    0    0  0.84378906192E+01 -0.16235951798E+03  0.61730245874E+01  0.20517086118E+03  0.12500065986E+03 0.  0.
          2    1    1    2  501    0  0.11540927142E+03  0.30071333043E+02 -0.24913057248E+03  0.27620576958E+03  0.00000000000E+00 0. -1.
          1    1    1    2  502    0 -0.12384716204E+03  0.13228818494E+03  0.44644603370E+03  0.48182190115E+03  0.00000000000E+00 0. -1.
         22    1    3    3    0    0 -0.20110718065E+01  0.21155593077E+02  0.13880713744E+01  0.21296250149E+02  0.00000000000E+00 0.  1.
         22    1    3    3    0    0  0.10448962426E+02 -0.18351511106E+03  0.47849532130E+01  0.18387461103E+03  0.00000000000E+00 0.  1.
</event>
<event>
 7    1  0.5789396E-006  0.3723446E+02  0.7818608E-02  0.1585166E+00
          2   -1    0    0  502    0  0.00000000000E+00  0.00000000000E+00  0.16138229221E+04  0.16138229221E+04  0.00000000000E+00 0. -1.
          1   -1    0    0  501    0 -0.00000000000E+00 -0.00000000000E+00 -0.35299959383E+03  0.35299959383E+03  0.00000000000E+00 0. -1.
         25    2    1    2    0    0 -0.16638100219E+02  0.47478683311E+02  0.11534380167E+03  0.17736431182E+03  0.12499141880E+03 0.  0.
          2    1    1    2  501    0 -0.70953403788E+01 -0.36505357332E+02 -0.32079860857E+03  0.32294694955E+03  0.00000000000E+00 0. -1.
          1    1    1    2  502    0  0.23733440598E+02 -0.10973325979E+02  0.14662781351E+04  0.14665112545E+04  0.00000000000E+00 0. -1.
         22    1    3    3    0    0  0.38217243358E+02 -0.22940320122E+02  0.29020471420E+02  0.53188379733E+02  0.00000000000E+00 0.  1.
         22    1    3    3    0    0 -0.54855343577E+02  0.70419003433E+02  0.86323330248E+02  0.12417593208E+03  0.00000000000E+00 0.  1.
</event>
<event>
 7    1  0.5789396E-006  0.9732054E+02  0.7818608E-02  0.1307409E+00
          2   -1    0    0  502    0  0.00000000000E+00  0.00000000000E+00  0.23599323931E+04  0.23599323931E+04  0.00000000000E+00 0. -1.
          1   -1    0    0  501    0 -0.00000000000E+00 -0.00000000000E+00 -0.12894646186E+02  0.12894646186E+02  0.00000000000E+00 0. -1.
         25    2    1    2    0    0 -0.35329093748E+02  0.45926253172E+02  0.12211099299E+04  0.12288579068E+04  0.12499971463E+03 0.  0.
          2    1    1    2  501    0  0.88592179697E+01 -0.12124373547E+03  0.62390416015E+03  0.63563742038E+03  0.00000000000E+00 0. -1.
          1    1    1    2  502    0  0.26469875778E+02  0.75317482293E+02  0.50202365688E+03  0.50833171210E+03  0.00000000000E+00 0. -1.
         22    1    3    3    0    0  0.26054552817E+02 -0.15138081976E+02  0.69644628081E+03  0.69709785777E+03  0.00000000000E+00 0.  1.
         22    1    3    3    0    0 -0.61383646565E+02  0.61064335148E+02  0.52466364905E+03  0.53176004901E+03  0.00000000000E+00 0.  1.
</event>
<event>
 7    1  0.5789396E-006  0.9491879E+02  0.7818608E-02  0.1350861E+00
          2   -1    0    0  502    0  0.00000000000E+00  0.00000000000E+00  0.14098228204E+03  0.14098228204E+03  0.00000000000E+00 0. -1.
          1   -1    0    0  501    0 -0.00000000000E+00 -0.00000000000E+00 -0.85019658098E+03  0.85019658098E+03  0.00000000000E+00 0. -1.
         25    2    1    2    0    0  0.46027791009E+02  0.13676338489E+02 -0.37397752641E+02  0.13902913269E+03  0.12499963221E+03 0.  0.
          2    1    1    2  501    0 -0.97789882393E+02  0.72093270496E+01 -0.74983580018E+03  0.75621991690E+03  0.00000000000E+00 0. -1.
          1    1    1    2  502    0  0.51762091385E+02 -0.20885665539E+02  0.78019253871E+02  0.95929813427E+02  0.00000000000E+00 0. -1.
         22    1    3    3    0    0  0.83039000893E+02  0.17367252435E+02 -0.51507779250E+02  0.99247914082E+02  0.00000000000E+00 0. -1.
         22    1    3    3    0    0 -0.37011209884E+02 -0.36909139458E+01  0.14110026609E+02  0.39781218605E+02  0.00000000000E+00 0. -1.
</event>
<event>
 7    1  0.5789396E-006  0.6773569E+02  0.7818608E-02  0.1400312E+00
          2   -1    0    0  502    0  0.00000000000E+00  0.00000000000E+00  0.72483837963E+03  0.72483837963E+03  0.00000000000E+00 0. -1.
          1   -1    0    0  501    0 -0.00000000000E+00 -0.00000000000E+00 -0.14996230644E+03  0.14996230644E+03  0.00000000000E+00 0. -1.
         25    2    1    2    0    0 -0.11120645617E+03  0.24265363654E+02  0.36412908118E+02  0.17293554528E+03  0.12500047671E+03 0.  0.
          2    1    1    2  501    0  0.51786491792E+02  0.58245526048E+01 -0.71389166722E+02  0.88386533309E+02  0.00000000000E+00 0. -1.
          1    1    1    2  502    0  0.59419964380E+02 -0.30089916259E+02  0.60985233180E+03  0.61347860748E+03  0.00000000000E+00 0. -1.
         22    1    3    3    0    0 -0.11053300973E+03  0.63066829987E+02  0.41365270908E+02  0.13381351547E+03  0.00000000000E+00 0.  1.
         22    1    3    3    0    0 -0.67344644116E+00 -0.38801466333E+02 -0.49523627900E+01  0.39122029816E+02  0.00000000000E+00 0.  1.
</event>
<event>
 7    1  0.5789396E-006  0.7612098E+02  0.7818608E-02  0.1441366E+00
          2   -1    0    0  502    0  0.00000000000E+00  0.00000000000E+00  0.71531885850E+03  0.71531885850E+03  0.00000000000E+00 0. -1.
          1   -1    0    0  501    0 -0.00000000000E+00 -0.00000000000E+00 -0.21304493974E+03  0.21304493974E+03  0.00000000000E+00 0. -1.
         25    2    1    2    0    0 -0.46064578222E+02  0.21945869428E+02  0.28362296093E+03  0.31411940714E+03  0.12500180568E+03 0.  0.
          2    1    1    2  501    0  0.53754783355E+02 -0.54888251121E+02 -0.18961064452E+03  0.20458370746E+03  0.00000000000E+00 0. -1.
          1    1    1    2  502    0 -0.76902051328E+01  0.32942381692E+02  0.40826160236E+03  0.40966068364E+03  0.00000000000E+00 0. -1.
         22    1    3    3    0    0  0.28193357847E+02 -0.27724619950E+02  0.48378078628E+02  0.62481665069E+02  0.00000000000E+00 0. -1.
         22    1    3    3    0    0 -0.74257936069E+02  0.49670489378E+02  0.23524488230E+03  0.25163774207E+03  0.00000000000E+00 0. -1.
</event>
<event>
 7    1  0.5789396E-006  0.4322466E+03  0.7818608E-02  0.1184510E+00
          2   -1    0    0  502    0  0.00000000000E+00  0.00000000000E+00  0.19529275459E+04  0.19529275459E+04  0.00000000000E+00 0. -1.
          1   -1    0    0  501    0 -0.00000000000E+00 -0.00000000000E+00 -0.65078354642E+03  0.65078354642E+03  0.00000000000E+00 0. -1.
         25    2    1    2    0    0 -0.29453284272E+02 -0.47683380042E+03  0.16322885839E+03  0.52010119166E+03  0.12499448058E+03 0.  0.
          2    1    1    2  501    0  0.34443002486E+02  0.51608064674E+02 -0.44208416873E+03  0.44641698557E+03  0.00000000000E+00 0. -1.
          1    1    1    2  502    0 -0.49897182139E+01  0.42522573574E+03  0.15809993099E+04  0.16371929151E+04  0.00000000000E+00 0. -1.
         22    1    3    3    0    0  0.26952568185E+00 -0.43725654333E+02  0.59351004831E+02  0.73719381884E+02  0.00000000000E+00 0. -1.
         22    1    3    3    0    0 -0.29722809954E+02 -0.43310814608E+03  0.10387785356E+03  0.44638180977E+03  0.00000000000E+00 0. -1.
</event>
<event>
 7    1  0.5789396E-006  0.4534304E+02  0.7818608E-02  0.1489225E+00
          2   -1    0    0  502    0  0.00000000000E+00  0.00000000000E+00  0.74719882330E+03  0.74719882330E+03  0.00000000000E+00 0. -1.
          1   -1    0    0  501    0 -0.00000000000E+00 -0.00000000000E+00 -0.15685108447E+03  0.15685108447E+03  0.00000000000E+00 0. -1.
         25    2    1    2    0    0 -0.23355540768E+02  0.58279288040E+02 -0.32546009906E+02  0.14361818453E+03  0.12499993387E+03 0.  0.
          2    1    1    2  501    0 -0.13648747104E+02 -0.42537805631E+02 -0.60860088995E+02  0.75496381621E+02  0.00000000000E+00 0. -1.
          1    1    1    2  502    0  0.37004287872E+02 -0.15741482409E+02  0.68375383773E+03  0.68493534162E+03  0.00000000000E+00 0. -1.
         22    1    3    3    0    0 -0.38216510575E+02 -0.22372108268E+02 -0.42041153242E+02  0.61061210885E+02  0.00000000000E+00 0. -1.
         22    1    3    3    0    0  0.14860969807E+02  0.80651396307E+02  0.94951433355E+01  0.82556973642E+02  0.00000000000E+00 0. -1.
</event>
<event>
 7    1  0.5789396E-006  0.3262215E+02  0.7818608E-02  0.1587997E+00
          2   -1    0    0  502    0  0.00000000000E+00  0.00000000000E+00  0.91010252054E+03  0.91010252054E+03  0.00000000000E+00 0. -1.
          1   -1    0    0  501    0 -0.00000000000E+00 -0.00000000000E+00 -0.12614611092E+04  0.12614611092E+04  0.00000000000E+00 0. -1.
         25    2    1    2    0    0 -0.24617695855E+02  0.22483070496E+02 -0.87538163020E+03  0.88488982559E+03  0.12500194213E+03 0.  0.
          2    1    1    2  501    0  0.33883917421E+02  0.53464267839E+01 -0.38031566788E+03  0.38185954404E+03  0.00000000000E+00 0. -1.
          1    1    1    2  502    0 -0.92662215657E+01 -0.27829497280E+02  0.90433870946E+03  0.90481426006E+03  0.00000000000E+00 0. -1.
         22    1    3    3    0    0 -0.58994127569E+02  0.41021571694E+02 -0.75315175045E+03  0.75657163286E+03  0.00000000000E+00 0. -1.
         22    1    3    3    0    0  0.34376431714E+02 -0.18538501198E+02 -0.12222987974E+03  0.12831819273E+03  0.00000000000E+00 0. -1.
</event>
<event>
 7    1  0.5789396E-006  0.1189919E+03  0.7818608E-02  0.1330700E+00
          2   -1    0    0  502    0  0.00000000000E+00  0.00000000000E+00  0.10700406585E+04  0.10700406585E+04  0.00000000000E+00 0. -1.
          1   -1    0    0  501    0 -0.00000000000E+00 -0.00000000000E+00 -0.75675168087E+03  0.75675168087E+03  0.00000000000E+00 0. -1.
         25    2    1    2    0    0  0.12245545590E+03 -0.96972261847E+02  0.53967621202E+03  0.57556446648E+03  0.12500033206E+03 0.  0.
          2    1    1    2  501    0 -0.10964475738E+03  0.45532603642E+02 -0.73264510314E+03  0.74220215438E+03  0.00000000000E+00 0. -1.
          1    1    1    2  502    0 -0.12810698527E+02  0.51439658206E+02  0.50625786878E+03  0.50902571854E+03  0.00000000000E+00 0. -1.
         22    1    3    3    0    0  0.75963367276E+02 -0.48557973403E+02  0.11759088788E+03  0.14817532474E+03  0.00000000000E+00 0. -1.
         22    1    3    3    0    0  0.46492088626E+02 -0.48414288445E+02  0.42208532414E+03  0.42738914175E+03  0.00000000000E+00 0. -1.
</event>
<event>
 7    1  0.5789396E-006  0.9885606E+02  0.7818608E-02  0.1308650E+00
          2   -1    0    0  502    0  0.00000000000E+00  0.00000000000E+00  0.15773086999E+03  0.15773086999E+03  0.00000000000E+00 0. -1.
          1   -1    0    0  501    0 -0.00000000000E+00 -0.00000000000E+00 -0.64230917975E+03  0.64230917975E+03  0.00000000000E+00 0. -1.
         25    2    1    2    0    0  0.22034111473E+02 -0.94896637578E+02 -0.41835302703E+02  0.16390595013E+03  0.12499637612E+03 0.  0.
          2    1    1    2  501    0 -0.86831366025E+02  0.51999267635E+02 -0.51809600639E+03  0.52788927039E+03  0.00000000000E+00 0. -1.
          1    1    1    2  502    0  0.64797254552E+02  0.42897369943E+02  0.75352999329E+02  0.10824482922E+03  0.00000000000E+00 0. -1.
         22    1    3    3    0    0  0.28993454553E+02 -0.61348293278E+02 -0.85021499716E+02  0.10877908305E+03  0.00000000000E+00 0.  1.
         22    1    3    3    0    0 -0.69593430804E+01 -0.33548344300E+02  0.43186197013E+02  0.55126867078E+02  0.00000000000E+00 0.  1.
</event>
<event>
 7    1  0.5789396E-006  0.5511717E+03  0.7818608E-02  0.1163714E+00
          2   -1    0    0  502    0  0.00000000000E+00  0.00000000000E+00  0.86843833938E+03  0.86843833938E+03  0.00000000000E+00 0. -1.
          1   -1    0    0  501    0 -0.00000000000E+00 -0.00000000000E+00 -0.10154251838E+04  0.10154251838E+04  0.00000000000E+00 0. -1.
         25    2    1    2    0    0 -0.45075286669E+03  0.28564612713E+03 -0.27016191582E+03  0.61105154597E+03  0.12499869720E+03 0.  0.
          2    1    1    2  501    0  0.44786930560E+03 -0.34719844007E+03 -0.43303494739E+03  0.71319908675E+03  0.00000000000E+00 0. -1.
          1    1    1    2  502    0  0.28835610863E+01  0.61552312935E+02  0.55621001879E+03  0.55961289045E+03  0.00000000000E+00 0. -1.
         22    1    3    3    0    0 -0.72956264694E+02  0.40032513619E+02  0.44744910377E+01  0.83338105179E+02  0.00000000000E+00 0. -1.
         22    1    3    3    0    0 -0.37779660199E+03  0.24561361351E+03 -0.27463640686E+03  0.52771344079E+03  0.00000000000E+00 0. -1.
</event>
<event>
 7    1  0.5789396E-006  0.4739617E+02  0.7818608E-02  0.1495958E+00
          2   -1    0    0  502    0  0.00000000000E+00  0.00000000000E+00  0.32515738075E+03  0.32515738075E+03  0.00000000000E+00 0. -1.
          1   -1    0    0  501    0 -0.00000000000E+00 -0.00000000000E+00 -0.15362334685E+04  0.15362334685E+04  0.00000000000E+00 0. -1.
         25    2    1    2    0    0  0.52552902980E+01  0.37988880428E+02 -0.62496742203E+03  0.63850118025E+03  0.12501482100E+03 0.  0.
          2    1    1    2  501    0 -0.36636951237E+02 -0.23865000520E+01 -0.90235525506E+03  0.90310185910E+03  0.00000000000E+00 0. -1.
          1    1    1    2  502    0  0.31381660939E+02 -0.35602380376E+02  0.31624658931E+03  0.31978780993E+03  0.00000000000E+00 0. -1.
         22    1    3    3    0    0 -0.40012297257E+02  0.24859588498E+02 -0.53376450529E+03  0.53583908982E+03  0.00000000000E+00 0.  1.
         22    1    3    3    0    0  0.45267587555E+02  0.13129291930E+02 -0.91202916747E+02  0.10266209044E+03  0.00000000000E+00 0.  1.
</event>
<event>
 7    1  0.6452169E-006  0.7118732E+02  0.7818608E-02  0.1426409E+00
          2   -1    0    0  502    0  0.00000000000E+00  0.00000000000E+00  0.68755356234E+03  0.68755356234E+03  0.00000000000E+00 0. -1.
          1   -1    0    0  501    0 -0.00000000000E+00 -0.00000000000E+00 -0.15688186305E+04  0.15688186305E+04  0.00000000000E+00 0. -1.
         25    2    1    2    0    0  0.90963805137E+02 -0.47257784137E+02 -0.84756509009E+03  0.86284528661E+03  0.12501077827E+03 0.  0.
          2    1    1    2  501    0 -0.40395480443E+02 -0.27641790688E+01 -0.71117572709E+03  0.71232741793E+03  0.00000000000E+00 0. -1.
          1    1    1    2  502    0 -0.50568324695E+02  0.50021963206E+02  0.67747574905E+03  0.68119948827E+03  0.00000000000E+00 0. -1.
         22    1    3    3    0    0  0.10355156184E+03  0.42328868883E+01 -0.65368790379E+03  0.66185249025E+03  0.00000000000E+00 0.  1.
         22    1    3    3    0    0 -0.12587756701E+02 -0.51490671025E+02 -0.19387718631E+03  0.20099279637E+03  0.00000000000E+00 0.  1.
</event>
<event>
 7    1  0.5789396E-006  0.5679944E+02  0.7818608E-02  0.1470736E+00
          2   -1    0    0  502    0  0.00000000000E+00  0.00000000000E+00  0.20550928410E+04  0.20550928410E+04  0.00000000000E+00 0. -1.
          1   -1    0    0  501    0 -0.00000000000E+00 -0.00000000000E+00 -0.10032655672E+04  0.10032655672E+04  0.00000000000E+00 0. -1.
         25    2    1    2    0    0 -0.15010505773E+02  0.20655330890E+02  0.87669575450E+02  0.15479985727E+03  0.12500033349E+03 0.  0.
          2    1    1    2  501    0  0.66817411962E+01  0.35965876089E+02 -0.96893178006E+03  0.96962208325E+03  0.00000000000E+00 0. -1.
          1    1    1    2  502    0  0.83287645769E+01 -0.56621206979E+02  0.19330894784E+04  0.19339364676E+04  0.00000000000E+00 0. -1.
         22    1    3    3    0    0  0.31796456977E+02  0.48497217333E+02  0.83591811886E+01  0.58590704685E+02  0.00000000000E+00 0. -1.
         22    1    3    3    0    0 -0.46806962750E+02 -0.27841886443E+02  0.79310394262E+02  0.96209152582E+02  0.00000000000E+00 0. -1.
</event>
<event>
 7    1  0.5789396E-006  0.1748861E+03  0.7818608E-02  0.1327342E+00
          2   -1    0    0  502    0  0.00000000000E+00  0.00000000000E+00  0.78816136724E+03  0.78816136724E+03  0.00000000000E+00 0. -1.
          1   -1    0    0  501    0 -0.00000000000E+00 -0.00000000000E+00 -0.21739371215E+03  0.21739371215E+03  0.00000000000E+00 0. -1.
         25    2    1    2    0    0  0.20171241073E+03  0.23175857430E+02  0.80048101828E+02  0.25150994830E+03  0.12499815390E+03 0.  0.
          2    1    1    2  501    0 -0.16461849045E+03 -0.21112772469E+02 -0.78513439261E+02  0.18360108035E+03  0.00000000000E+00 0. -1.
          1    1    1    2  502    0 -0.37093920279E+02 -0.20630849608E+01  0.56923299253E+03  0.57044405074E+03  0.00000000000E+00 0. -1.
         22    1    3    3    0    0  0.21236666658E+03  0.51132136790E+00  0.64144464812E+02  0.22184313127E+03  0.00000000000E+00 0. -1.
         22    1    3    3    0    0 -0.10654255850E+02  0.22664536062E+02  0.15903637016E+02  0.29666817035E+02  0.00000000000E+00 0. -1.
</event>
<event>
 7    1  0.5789396E-006  0.1018286E+03  0.7818608E-02  0.1285483E+00
          2   -1    0    0  502    0  0.00000000000E+00  0.00000000000E+00  0.12726831255E+04  0.12726831255E+04  0.00000000000E+00 0. -1.
          1   -1    0    0  501    0 -0.00000000000E+00 -0.00000000000E+00 -0.35144102100E+03  0.35144102100E+03  0.00000000000E+00 0. -1.
         25    2    1    2    0    0  0.44218420608E+02  0.26392909512E+02  0.17760499822E+03  0.22318922780E+03  0.12497216337E+03 0.  0.
          2    1    1    2  501    0 -0.72401401964E+02  0.71603750962E+02 -0.31825993761E+03  0.33415333014E+03  0.00000000000E+00 0. -1.
          1    1    1    2  502    0  0.28182981356E+02 -0.97996660474E+02  0.10618970439E+04  0.10667815886E+04  0.00000000000E+00 0. -1.
         22    1    3    3    0    0  0.78008907015E+02  0.45415889558E+02  0.15180065819E+03  0.17661096349E+03  0.00000000000E+00 0. -1.
         22    1    3    3    0    0 -0.33790486408E+02 -0.19022980046E+02  0.25804340031E+02  0.46578264308E+02  0.00000000000E+00 0. -1.
</event>
<event>
 7    1  0.5789396E-006  0.1943099E+03  0.7818608E-02  0.1246051E+00
          2   -1    0    0  502    0  0.00000000000E+00  0.00000000000E+00  0.40299038199E+03  0.40299038199E+03  0.00000000000E+00 0. -1.
          1   -1    0    0  501    0 -0.00000000000E+00 -0.00000000000E+00 -0.10284634689E+04  0.10284634689E+04  0.00000000000E+00 0. -1.
         25    2    1    2    0    0  0.94202705778E+02 -0.20897228166E+03 -0.27914585540E+03  0.38221883026E+03  0.12500104535E+03 0.  0.
          2    1    1    2  501    0 -0.12177440994E+03  0.14253128890E+03 -0.68130203125E+03  0.70662340254E+03  0.00000000000E+00 0. -1.
          1    1    1    2  502    0  0.27571704158E+02  0.66440992756E+02  0.33497479975E+03  0.34261161810E+03  0.00000000000E+00 0. -1.
         22    1    3    3    0    0  0.65577085326E+02 -0.21560686231E+03 -0.26946540455E+03  0.35128090959E+03  0.00000000000E+00 0.  1.
         22    1    3    3    0    0  0.28625620451E+02  0.66345806504E+01 -0.96804508586E+01  0.30937920671E+02  0.00000000000E+00 0.  1.
</event>
<event>
 7    1  0.5789396E-006  0.4898880E+02  0.7818608E-02  0.1453788E+00
          2   -1    0    0  502    0  0.00000000000E+00  0.00000000000E+00  0.12175097709E+04  0.12175097709E+04  0.00000000000E+00 0. -1.
          1   -1    0    0  501    0 -0.00000000000E+00 -0.00000000000E+00 -0.22800829832E+04  0.22800829832E+04  0.00000000000E+00 0. -1.
         25    2    1    2    0    0  0.87729637927E+02  0.12652275605E+02  0.12210131847E+02  0.15371659073E+03  0.12499253376E+03 0.  0.
          2    1    1    2  501    0 -0.46193466468E+02  0.12865393038E+02 -0.22085457385E+04  0.22090662357E+04  0.00000000000E+00 0. -1.
          1    1    1    2  502    0 -0.41536171459E+02 -0.25517668643E+02  0.11337623944E+04  0.11348099277E+04  0.00000000000E+00 0. -1.
         22    1    3    3    0    0 -0.12016138340E+02  0.23407577082E+02 -0.34222839602E+02  0.43168333253E+02  0.00000000000E+00 0. -1.
         22    1    3    3    0    0  0.99745776267E+02 -0.10755301477E+02  0.46432971449E+02  0.11054825747E+03  0.00000000000E+00 0. -1.
</event>
<event>
 7    1  0.5789396E-006  0.7725789E+02  0.7818608E-02  0.1463213E+00
          2   -1    0    0  502    0  0.00000000000E+00  0.00000000000E+00  0.14328208071E+03  0.14328208071E+03  0.00000000000E+00 0. -1.
          1   -1    0    0  501    0 -0.00000000000E+00 -0.00000000000E+00 -0.48941135435E+03  0.48941135435E+03  0.00000000000E+00 0. -1.
         25    2    1    2    0    0  0.15992514222E+02 -0.53274375298E+02  0.36793362646E+01  0.13687126693E+03  0.12500514637E+03 0.  0.
          2    1    1    2  501    0 -0.28270531873E+01  0.78426761145E+02 -0.41624281068E+03  0.42357623462E+03  0.00000000000E+00 0. -1.
          1    1    1    2  502    0 -0.13165461035E+02 -0.25152385846E+02  0.66434200773E+02  0.72245933521E+02  0.00000000000E+00 0. -1.
         22    1    3    3    0    0 -0.36337401200E+02 -0.88979336549E+00  0.40296157716E+02  0.54267658738E+02  0.00000000000E+00 0.  1.
         22    1    3    3    0    0  0.52329915423E+02 -0.52384581933E+02 -0.36616821451E+02  0.82603608188E+02  0.00000000000E+00 0.  1.
</event>
<event>
 7    1  0.5789396E-006  0.1314780E+03  0.7818608E-02  0.1303307E+00
          2   -1    0    0  502    0  0.00000000000E+00  0.00000000000E+00  0.32507894730E+03  0.32507894730E+03  0.00000000000E+00 0. -1.
          1   -1    0    0  501    0 -0.00000000000E+00 -0.00000000000E+00 -0.13346352146E+04  0.13346352146E+04  0.00000000000E+00 0. -1.
         25    2    1    2    0    0 -0.17519125675E+03 -0.81215652893E+01 -0.64939413834E+02  0.22494497039E+03  0.12500070387E+03 0.  0.
          2    1    1    2  501    0  0.53835984913E+02 -0.29420407791E+02 -0.11723762059E+04  0.11739803413E+04  0.00000000000E+00 0. -1.
          1    1    1    2  502    0  0.12135527184E+03  0.37541973080E+02  0.22775935244E+03  0.26078885017E+03  0.00000000000E+00 0. -1.
         22    1    3    3    0    0 -0.15789161495E+03 -0.17040345766E+02 -0.17417160628E+01  0.15881803749E+03  0.00000000000E+00 0. -1.
         22    1    3    3    0    0 -0.17299641801E+02  0.89187804771E+01 -0.63197697771E+02  0.66126932903E+02  0.00000000000E+00 0. -1.
</event>
<event>
 7    1  0.5789396E-006  0.1439229E+03  0.7818608E-02  0.1262804E+00
          2   -1    0    0  502    0  0.00000000000E+00  0.00000000000E+00  0.31081650854E+04  0.31081650854E+04  0.00000000000E+00 0. -1.
          1   -1    0    0  501    0 -0.00000000000E+00 -0.00000000000E+00 -0.41148148668E+02  0.41148148668E+02  0.00000000000E+00 0. -1.
         25    2    1    2    0    0  0.99575372447E+02  0.11846580181E+03  0.82390622790E+03  0.84758303258E+03  0.12500449494E+03 0.  0.
          2    1    1    2  501    0 -0.21422256297E+02 -0.14410638078E+03  0.15769644997E+03  0.21469450943E+03  0.00000000000E+00 0. -1.
          1    1    1    2  502    0 -0.78153116150E+02  0.25640578973E+02  0.20854142588E+04  0.20870356920E+04  0.00000000000E+00 0. -1.
         22    1    3    3    0    0  0.12648051093E+03  0.11140547844E+03  0.74761801226E+03  0.76638188426E+03  0.00000000000E+00 0.  1.
         22    1    3    3    0    0 -0.26905138483E+02  0.70603233622E+01  0.76288215640E+02  0.81201148319E+02  0.00000000000E+00 0.  1.
</event>
<event>
 7    1  0.5789396E-006  0.7831475E+02  0.7818608E-02  0.1380053E+00
          2   -1    0    0  502    0  0.00000000000E+00  0.00000000000E+00  0.87141860517E+02  0.87141860517E+02  0.00000000000E+00 0. -1.
          1   -1    0    0  501    0 -0.00000000000E+00 -0.00000000000E+00 -0.41312254985E+03  0.41312254985E+03  0.00000000000E+00 0. -1.
         25    2    1    2    0    0  0.56669712082E+02 -0.26453267476E+02 -0.62939441551E+02  0.15328826780E+03  0.12499875246E+03 0.  0.
          2    1    1    2  501    0  0.31952481368E+02  0.42334939208E+02 -0.25052290865E+03  0.25607603539E+03  0.00000000000E+00 0. -1.
          1    1    1    2  502    0 -0.88622193450E+02 -0.15881671732E+02 -0.12518339128E+02  0.90900107169E+02  0.00000000000E+00 0. -1.
         22    1    3    3    0    0  0.87937761433E+02  0.93464797985E+01 -0.57413643981E+02  0.10543591933E+03  0.00000000000E+00 0. -1.
         22    1    3    3    0    0 -0.31268049352E+02 -0.35799747274E+02 -0.55257975704E+01  0.47852348469E+02  0.00000000000E+00 0. -1.
</event>
<event>
 7    1  0.5789396E-006  0.1099196E+03  0.7818608E-02  0.1447038E+00
          2   -1    0    0  502    0  0.00000000000E+00  0.00000000000E+00  0.30583120144E+03  0.30583120144E+03  0.00000000000E+00 0. -1.
          1   -1    0    0  501    0 -0.00000000000E+00 -0.00000000000E+00 -0.99966278042E+03  0.99966278042E+03  0.00000000000E+00 0. -1.
         25    2    1    2    0    0 -0.87737386429E+02  0.78034013040E+02  0.30563694397E+02  0.17420069171E+03  0.12499834162E+03 0.  0.
          2    1    1    2  501    0  0.67082141549E+02 -0.86854669342E+02 -0.92396707007E+03  0.93046165631E+03  0.00000000000E+00 0. -1.
          1    1    1    2  502    0  0.20655244880E+02  0.88206563020E+01  0.19957179669E+03  0.20083163384E+03  0.00000000000E+00 0. -1.
         22    1    3    3    0    0 -0.88861025996E+02 -0.16273172164E+01  0.32159617283E+02  0.94515454219E+02  0.00000000000E+00 0.  1.
         22    1    3    3    0    0  0.11236395672E+01  0.79661330257E+02 -0.15959228858E+01  0.79685237491E+02  0.00000000000E+00 0.  1.
</event>
<event>
 7    1  0.5789396E-006  0.4217891E+02  0.7818608E-02  0.1507110E+00
          2   -1    0    0  502    0  0.00000000000E+00  0.00000000000E+00  0.93040402820E+02  0.93040402820E+02  0.00000000000E+00 0. -1.
          1   -1    0    0  501    0 -0.00000000000E+00 -0.00000000000E+00 -0.15428068072E+04  0.15428068072E+04  0.00000000000E+00 0. -1.
         25    2    1    2    0    0 -0.63332452712E+02 -0.14473095468E+01 -0.11245690665E+04  0.11332669122E+04  0.12500085812E+03 0.  0.
          2    1    1    2  501    0  0.29745139376E+02 -0.23997929661E+02 -0.40793980482E+03  0.40972619919E+03  0.00000000000E+00 0. -1.
          1    1    1    2  502    0  0.33587313336E+02  0.25445239207E+02  0.82742466926E+02  0.92854098716E+02  0.00000000000E+00 0. -1.
         22    1    3    3    0    0  0.17470990756E+02  0.50715563328E+01 -0.26122331412E+02  0.31832882371E+02  0.00000000000E+00 0.  1.
         22    1    3    3    0    0 -0.80803443467E+02 -0.65188658797E+01 -0.10984467351E+04  0.11014340298E+04  0.00000000000E+00 0.  1.
</event>
<event>
 7    1  0.5789396E-006  0.4256941E+02  0.7818608E-02  0.1526920E+00
          2   -1    0    0  502    0  0.00000000000E+00  0.00000000000E+00  0.26370653985E+04  0.26370653985E+04  0.00000000000E+00 0. -1.
          1   -1    0    0  501    0 -0.00000000000E+00 -0.00000000000E+00 -0.12274450449E+02  0.12274450449E+02  0.00000000000E+00 0. -1.
         25    2    1    2    0    0  0.44205757494E+02 -0.57651495595E+02  0.90793860478E+03  0.91937785077E+03  0.12500111403E+03 0.  0.
          2    1    1    2  501    0 -0.13156365820E+02  0.30429845364E+02  0.37305273528E+02  0.49907403093E+02  0.00000000000E+00 0. -1.
          1    1    1    2  502    0 -0.31049391674E+02  0.27221650231E+02  0.16795470697E+04  0.16800545950E+04  0.00000000000E+00 0. -1.
         22    1    3    3    0    0 -0.35958111531E+02 -0.27023085940E+01  0.43873277640E+03  0.44021215039E+03  0.00000000000E+00 0.  1.
         22    1    3    3    0    0  0.80163869025E+02 -0.54949187001E+02  0.46920582837E+03  0.47916570039E+03  0.00000000000E+00 0.  1.
</event>
<event>
 7    1  0.5789396E-006  0.1432224E+03  0.7818608E-02  0.1309592E+00
          2   -1    0    0  502    0  0.00000000000E+00  0.00000000000E+00  0.19301534893E+04  0.19301534893E+04  0.00000000000E+00 0. -1.
          1   -1    0    0  501    0 -0.00000000000E+00 -0.00000000000E+00 -0.11820059263E+03  0.11820059263E+03  0.00000000000E+00 0. -1.
         25    2    1    2    0    0  0.51898542452E+02  0.12945301995E+03  0.19568325726E+03  0.27085295840E+03  0.12497137599E+03 0.  0.
          2    1    1    2  501    0 -0.10007126667E+03 -0.10692374299E+03 -0.13312381107E+02  0.14705157163E+03  0.00000000000E+00 0. -1.
          1    1    1    2  502    0  0.48172724219E+02 -0.22529276967E+02  0.16295820205E+04  0.16304495519E+04  0.00000000000E+00 0. -1.
         22    1    3    3    0    0  0.90744982284E+02  0.64736341496E+02  0.10886709875E+03  0.15581235802E+03  0.00000000000E+00 0. -1.
         22    1    3    3    0    0 -0.38846439832E+02  0.64716678459E+02  0.86816158508E+02  0.11504060038E+03  0.00000000000E+00 0. -1.
</event>
<event>
 7    1  0.5789396E-006  0.1411687E+03  0.7818608E-02  0.1322253E+00
          2   -1    0    0  502    0  0.00000000000E+00  0.00000000000E+00  0.31586245420E+03  0.31586245420E+03  0.00000000000E+00 0. -1.
          1   -1    0    0  501    0 -0.00000000000E+00 -0.00000000000E+00 -0.31159979686E+04  0.31159979686E+04  0.00000000000E+00 0. -1.
         25    2    1    2    0    0  0.83480398722E+02 -0.99999006860E+02 -0.14467910787E+04  0.14580122222E+04  0.12500574552E+03 0.  0.
          2    1    1    2  501    0 -0.35183461394E+02 -0.32870518326E+02 -0.16471208458E+04  0.16478244529E+04  0.00000000000E+00 0. -1.
          1    1    1    2  502    0 -0.48296937327E+02  0.13286952519E+03  0.29377641013E+03  0.32602374764E+03  0.00000000000E+00 0. -1.
         22    1    3    3    0    0  0.39438052677E+02 -0.69142437345E+02 -0.12861156846E+04  0.12885765754E+04  0.00000000000E+00 0. -1.
         22    1    3    3    0    0  0.44042346045E+02 -0.30856569515E+02 -0.16067539410E+03  0.16943564677E+03  0.00000000000E+00 0. -1.
</event>
<event>
 7    1  0.5789396E-006  0.1872664E+03  0.7818608E-02  0.1234614E+00
          2   -1    0    0  502    0  0.00000000000E+00  0.00000000000E+00  0.21739601845E+03  0.21739601845E+03  0.00000000000E+00 0. -1.
          1   -1    0    0  501    0 -0.00000000000E+00 -0.00000000000E+00 -0.88352912509E+03  0.88352912509E+03  0.00000000000E+00 0. -1.
         25    2    1    2    0    0 -0.12607470005E+03 -0.14626475321E+03 -0.32542355739E+03  0.39851466482E+03  0.12500095340E+03 0.  0.
          2    1    1    2  501    0  0.50992231135E+02  0.18354293687E+03 -0.49302737427E+03  0.52854915485E+03  0.00000000000E+00 0. -1.
          1    1    1    2  502    0  0.75082468912E+02 -0.37278183661E+02  0.15231782503E+03  0.17386132387E+03  0.00000000000E+00 0. -1.
         22    1    3    3    0    0  0.22434610963E+02 -0.92338158157E+01 -0.61535874181E+02  0.66145588929E+02  0.00000000000E+00 0. -1.
         22    1    3    3    0    0 -0.14850931101E+03 -0.13703093739E+03 -0.26388768321E+03  0.33236907589E+03  0.00000000000E+00 0. -1.
</event>
<event>
 7    1  0.5789396E-006  0.1087917E+03  0.7818608E-02  0.1363295E+00
          2   -1    0    0  502    0  0.00000000000E+00  0.00000000000E+00  0.24088202502E+03  0.24088202502E+03  0.00000000000E+00 0. -1.
          1   -1    0    0  501    0 -0.00000000000E+00 -0.00000000000E+00 -0.24520315153E+03  0.24520315153E+03  0.00000000000E+00 0. -1.
         25    2    1    2    0    0  0.39362233776E+02  0.11672473284E+03 -0.16301780653E+03  0.23952744593E+03  0.12499817360E+03 0.  0.
          2    1    1    2  501    0 -0.43004716401E+02 -0.85563633510E+01 -0.11072502972E+02  0.45224078859E+02  0.00000000000E+00 0. -1.
          1    1    1    2  502    0  0.36424826248E+01 -0.10816836949E+03  0.16976918300E+03  0.20133365176E+03  0.00000000000E+00 0. -1.
         22    1    3    3    0    0  0.65714813370E+02  0.41827902250E+02 -0.27775522933E+02  0.82701207833E+02  0.00000000000E+00 0.  1.
         22    1    3    3    0    0 -0.26352579593E+02  0.74896830587E+02 -0.13524228360E+03  0.15682623810E+03  0.00000000000E+00 0.  1.
</event>
<event>
 7    1  0.5789396E-006  0.1260287E+03  0.7818608E-02  0.1443442E+00
          2   -1    0    0  502    0  0.00000000000E+00  0.00000000000E+00  0.10474293969E+04  0.10474293969E+04  0.00000000000E+00 0. -1.
          1   -1    0    0  501    0 -0.00000000000E+00 -0.00000000000E+00 -0.28553319485E+03  0.28553319485E+03  0.00000000000E+00 0. -1.
         25    2    1    2    0    0 -0.58302765244E+02 -0.93300118952E+02  0.20823260046E+03  0.26662670797E+03  0.12499944351E+03 0.  0.
          2    1    1    2  501    0 -0.34236310439E+01 -0.19825165096E+02 -0.25080501206E+03  0.25161063669E+03  0.00000000000E+00 0. -1.
          1    1    1    2  502    0  0.61726396288E+02  0.11312528405E+03  0.80446861361E+03  0.81472524704E+03  0.00000000000E+00 0. -1.
         22    1    3    3    0    0 -0.38638615936E+02 -0.32132554814E+02  0.19454948266E+03  0.20093517592E+03  0.00000000000E+00 0.  1.
         22    1    3    3    0    0 -0.19664149308E+02 -0.61167564138E+02  0.13683117806E+02  0.65691532053E+02  0.00000000000E+00 0.  1.
</event>
<event>
 7    1  0.5789396E-006  0.1841410E+03  0.7818608E-02  0.1253011E+00
          2   -1    0    0  502    0  0.00000000000E+00  0.00000000000E+00  0.10159362488E+04  0.10159362488E+04  0.00000000000E+00 0. -1.
          1   -1    0    0  501    0 -0.00000000000E+00 -0.00000000000E+00 -0.19880998925E+04  0.19880998925E+04  0.00000000000E+00 0. -1.
         25    2    1    2    0    0 -0.23805306626E+03  0.22043824213E+02 -0.27379256068E+03  0.38437325956E+03  0.12500097536E+03 0.  0.
          2    1    1    2  501    0  0.17884514964E+03  0.16787022421E+02 -0.16528393686E+04  0.16625719142E+04  0.00000000000E+00 0. -1.
          1    1    1    2  502    0  0.59207916617E+02 -0.38830846635E+02  0.95446828551E+03  0.95709096751E+03  0.00000000000E+00 0. -1.
         22    1    3    3    0    0 -0.24055374333E+03 -0.66408088848E+01 -0.23829375866E+03  0.33866520221E+03  0.00000000000E+00 0. -1.
         22    1    3    3    0    0  0.25006770725E+01  0.28684633098E+02 -0.35498802024E+02  0.45708057352E+02  0.00000000000E+00 0. -1.
</event>
<event>
 7    1  0.5789396E-006  0.1708960E+03  0.7818608E-02  0.1346913E+00
          2   -1    0    0  502    0  0.00000000000E+00  0.00000000000E+00  0.72972982688E+03  0.72972982688E+03  0.00000000000E+00 0. -1.
          1   -1    0    0  501    0 -0.00000000000E+00 -0.00000000000E+00 -0.20640008529E+04  0.20640008529E+04  0.00000000000E+00 0. -1.
         25    2    1    2    0    0  0.14341827711E+03 -0.11936942438E+03 -0.26467869839E+03  0.34713035880E+03  0.12500724353E+03 0.  0.
          2    1    1    2  501    0 -0.30884373178E+02 -0.86238876432E+01 -0.17474001359E+04  0.17476943242E+04  0.00000000000E+00 0. -1.
          1    1    1    2  502    0 -0.11253390394E+03  0.12799331202E+03  0.67780780823E+03  0.69890599679E+03  0.00000000000E+00 0. -1.
         22    1    3    3    0    0  0.63840133397E+02 -0.13505395271E+02 -0.18891109938E+02  0.67932557498E+02  0.00000000000E+00 0. -1.
         22    1    3    3    0    0  0.79578143717E+02 -0.10586402911E+03 -0.24578758845E+03  0.27919780130E+03  0.00000000000E+00 0. -1.
</event>
<event>
 7    1  0.5789396E-006  0.7981957E+02  0.7818608E-02  0.1462628E+00
          2   -1    0    0  502    0  0.00000000000E+00  0.00000000000E+00  0.17787921460E+04  0.17787921460E+04  0.00000000000E+00 0. -1.
          1   -1    0    0  501    0 -0.00000000000E+00 -0.00000000000E+00 -0.18655276000E+04  0.18655276000E+04  0.00000000000E+00 0. -1.
         25    2    1    2    0    0 -0.38625882696E+02  0.99917359068E+02  0.34224749448E+01  0.16465559661E+03  0.12499725879E+03 0.  0.
          2    1    1    2  501    0  0.29016849934E+02 -0.74049430506E+02 -0.17839126551E+04  0.17856846465E+04  0.00000000000E+00 0. -1.
          1    1    1    2  502    0  0.96090327617E+01 -0.25867928563E+02  0.16937547263E+04  0.16939795028E+04  0.00000000000E+00 0. -1.
         22    1    3    3    0    0 -0.19064221805E+02  0.14078859950E+02  0.56906158041E+02  0.61643894049E+02  0.00000000000E+00 0. -1.
         22    1    3    3    0    0 -0.19561660890E+02  0.85838499119E+02 -0.53483683096E+02  0.10301170256E+03  0.00000000000E+00 0. -1.
</event>
<event>
 7    1  0.5789396E-006  0.1098927E+03  0.7818608E-02  0.1293382E+00
          2   -1    0    0  502    0  0.00000000000E+00  0.00000000000E+00  0.17198563379E+04  0.17198563379E+04  0.00000000000E+00 0. -1.
          1   -1    0    0  501    0 -0.00000000000E+00 -0.00000000000E+00 -0.23612066574E+03  0.23612066574E+03  0.00000000000E+00 0. -1.
         25    2    1    2    0    0  0.69444450220E+02 -0.10161626904E+03 -0.39601376485E+01  0.17546813853E+03  0.12499994860E+03 0.  0.
          2    1    1    2  501    0 -0.80045840927E+02 -0.80749448347E+01 -0.13334032479E+03  0.15573112598E+03  0.00000000000E+00 0. -1.
          1    1    1    2  502    0  0.10601390707E+02  0.10969121388E+03  0.16210361346E+04  0.16247777392E+04  0.00000000000E+00 0. -1.
         22    1    3    3    0    0  0.42003889762E+02 -0.66206077986E+02  0.59050560732E+02  0.98155693875E+02  0.00000000000E+00 0.  1.
         22    1    3    3    0    0  0.27440560458E+02 -0.35410191055E+02 -0.63010698381E+02  0.77312444660E+02  0.00000000000E+00 0.  1.
</event>
<event>
 7    1  0.5789396E-006  0.5248824E+02  0.7818608E-02  0.1502717E+00
          2   -1    0    0  502    0  0.00000000000E+00  0.00000000000E+00  0.61833781586E+03  0.61833781586E+03  0.00000000000E+00 0. -1.
          1   -1    0    0  501    0 -0.00000000000E+00 -0.00000000000E+00 -0.52630137465E+02  0.52630137465E+02  0.00000000000E+00 0. -1.
         25    2    1    2    0    0 -0.43458791591E+02 -0.60622461498E+02  0.36083484558E+03  0.38908997577E+03  0.12500189620E+03 0.  0.
          2    1    1    2  501    0  0.41234346826E+01  0.31377092422E+02 -0.28999537214E+02  0.42924326449E+02  0.00000000000E+00 0. -1.
          1    1    1    2  502    0  0.39335356908E+02  0.29245369076E+02  0.23387237003E+03  0.23895365111E+03  0.00000000000E+00 0. -1.
         22    1    3    3    0    0  0.36847120496E+02 -0.24006058689E+01  0.17057737841E+03  0.17452826483E+03  0.00000000000E+00 0.  1.
         22    1    3    3    0    0 -0.80305912087E+02 -0.58221855629E+02  0.19025746717E+03  0.21456171094E+03  0.00000000000E+00 0.  1.
</event>
<event>
 7    1  0.5789396E-006  0.7683558E+02  0.7818608E-02  0.1477145E+00
          2   -1    0    0  502    0  0.00000000000E+00  0.00000000000E+00  0.15270505923E+03  0.15270505923E+03  0.00000000000E+00 0. -1.
          1   -1    0    0  501    0 -0.00000000000E+00 -0.00000000000E+00 -0.22909002532E+03  0.22909002532E+03  0.00000000000E+00 0. -1.
         25    2    1    2    0    0 -0.59953947967E+02  0.49493685422E+02 -0.22784196936E+02  0.14896651593E+03  0.12501120935E+03 0.  0.
          2    1    1    2  501    0  0.40136809841E+02 -0.66068891763E+02 -0.13051504597E+03  0.15169126273E+03  0.00000000000E+00 0. -1.
          1    1    1    2  502    0  0.19817138126E+02  0.16575206340E+02  0.76914276824E+02  0.81137305896E+02  0.00000000000E+00 0. -1.
         22    1    3    3    0    0  0.14710995483E+02  0.64752488507E+02 -0.29095993058E+02  0.72497413526E+02  0.00000000000E+00 0.  1.
         22    1    3    3    0    0 -0.74664943450E+02 -0.15258803084E+02  0.63117961214E+01  0.76469102403E+02  0.00000000000E+00 0.  1.
</event>
<event>
 7    1  0.5789396E-006  0.9696540E+02  0.7818608E-02  0.1400205E+00
          2   -1    0    0  502    0  0.00000000000E+00  0.00000000000E+00  0.80553242224E+03  0.80553242224E+03  0.00000000000E+00 0. -1.
          1   -1    0    0  501    0 -0.00000000000E+00 -0.00000000000E+00 -0.18089599524E+04  0.18089599524E+04  0.00000000000E+00 0. -1.
         25    2    1    2    0    0 -0.42389915124E+02  0.98964582193E+02 -0.12739536663E+03  0.20843553130E+03  0.12499959134E+03 0.  0.
          2    1    1    2  501    0  0.65772639252E+02 -0.71023311587E+02 -0.16391820106E+04  0.16420377629E+04  0.00000000000E+00 0. -1.
          1    1    1    2  502    0 -0.23382724128E+02 -0.27941270606E+02  0.76314984702E+03  0.76401908052E+03  0.00000000000E+00 0. -1.
         22    1    3    3    0    0  0.29329542443E+02  0.43694660146E+02 -0.59926475946E+00  0.52628932190E+02  0.00000000000E+00 0. -1.
         22    1    3    3    0    0 -0.71719457567E+02  0.55269922047E+02 -0.12679610187E+03  0.15580659911E+03  0.00000000000E+00 0. -1.
</event>
<event>
 7    1  0.5789396E-006  0.7309849E+02  0.7818608E-02  0.1391166E+00
          2   -1    0    0  502    0  0.00000000000E+00  0.00000000000E+00  0.43605904350E+03  0.43605904350E+03  0.00000000000E+00 0. -1.
          1   -1    0    0  501    0 -0.00000000000E+00 -0.00000000000E+00 -0.16264644822E+04  0.16264644822E+04  0.00000000000E+00 0. -1.
         25    2    1    2    0    0  0.33087210419E+02  0.31499174823E+00  0.11096713921E+03  0.17039078345E+03  0.12499780153E+03 0.  0.
          2    1    1    2  501    0  0.42176162330E+02 -0.30313616277E+02 -0.15907648483E+04  0.15916125617E+04  0.00000000000E+00 0. -1.
          1    1    1    2  502    0 -0.75263372748E+02  0.29998624529E+02  0.28939227039E+03  0.30052018055E+03  0.00000000000E+00 0. -1.
         22    1    3    3    0    0  0.12501462133E+02  0.20209618147E+02 -0.23195577540E+02  0.33207680414E+02  0.00000000000E+00 0. -1.
         22    1    3    3    0    0  0.20585748285E+02 -0.19894626398E+02  0.13416271675E+03  0.13718310304E+03  0.00000000000E+00 0. -1.
</event>
<event>
 7    1  0.5789396E-006  0.9527498E+02  0.7818608E-02  0.1345928E+00
          2   -1    0    0  502    0  0.00000000000E+00  0.00000000000E+00  0.12040493419E+04  0.12040493419E+04  0.00000000000E+00 0. -1.
          1   -1    0    0  501    0 -0.00000000000E+00 -0.00000000000E+00 -0.34101388843E+03  0.34101388843E+03  0.00000000000E+00 0. -1.
         25    2    1    2    0    0  0.11484703636E+03 -0.99761928671E+02  0.38743398544E+03  0.43459336917E+03  0.12499607707E+03 0.  0.
          2    1    1    2  501    0 -0.73524209895E+02  0.59055752551E+02 -0.30933623740E+03  0.32339186619E+03  0.00000000000E+00 0. -1.
          1    1    1    2  502    0 -0.41322826469E+02  0.40706176120E+02  0.78493770547E+03  0.78707799501E+03  0.00000000000E+00 0. -1.
         22    1    3    3    0    0  0.32465776180E+02 -0.31091448470E+02  0.27710424910E+03  0.28072668142E+03  0.00000000000E+00 0.  1.
         22    1    3    3    0    0  0.82381260184E+02 -0.68670480201E+02  0.11032973634E+03  0.15386668776E+03  0.00000000000E+00 0.  1.
</event>
<event>
 7    1  0.5789396E-006  0.1811385E+03  0.7818608E-02  0.1170364E+00
          2   -1    0    0  502    0  0.00000000000E+00  0.00000000000E+00  0.44035872747E+03  0.44035872747E+03  0.00000000000E+00 0. -1.
          1   -1    0    0  501    0 -0.00000000000E+00 -0.00000000000E+00 -0.40532008609E+03  0.40532008609E+03  0.00000000000E+00 0. -1.
         25    2    1    2    0    0  0.10693253952E+03  0.52709166264E+02 -0.63940708271E+02  0.18419092000E+03  0.12500022648E+03 0.  0.
          2    1    1    2  501    0 -0.26319340551E+03  0.23141731343E+02 -0.18922972505E+03  0.32498338000E+03  0.00000000000E+00 0. -1.
          1    1    1    2  502    0  0.15626086598E+03 -0.75850897607E+02  0.28820907470E+03  0.33650451356E+03  0.00000000000E+00 0. -1.
         22    1    3    3    0    0 -0.23717794992E+02  0.15460418642E+02 -0.35469293812E+02  0.45383137258E+02  0.00000000000E+00 0.  1.
         22    1    3    3    0    0  0.13065033452E+03  0.37248747622E+02 -0.28471414459E+02  0.13880778274E+03  0.00000000000E+00 0.  1.
</event>
<event>
 7    1  0.5789396E-006  0.7807252E+02  0.7818608E-02  0.1396598E+00
          2   -1    0    0  502    0  0.00000000000E+00  0.00000000000E+00  0.48812143543E+03  0.48812143543E+03  0.00000000000E+00 0. -1.
          1   -1    0    0  501    0 -0.00000000000E+00 -0.00000000000E+00 -0.23511776782E+04  0.23511776782E+04  0.00000000000E+00 0. -1.
         25    2    1    2    0    0  0.47508873060E+02 -0.31731145767E+02 -0.14119476615E+04  0.14186206260E+04  0.12499729192E+03 0.  0.
          2    1    1    2  501    0 -0.92844379563E+02  0.21099565812E+02 -0.93234525172E+03  0.93719418420E+03  0.00000000000E+00 0. -1.
          1    1    1    2  502    0  0.45335506503E+02  0.10631579955E+02  0.48123667049E+03  0.48348430343E+03  0.00000000000E+00 0. -1.
         22    1    3    3    0    0  0.18829062898E+02  0.45083450715E+02 -0.33341144155E+03  0.33697216576E+03  0.00000000000E+00 0.  1.
         22    1    3    3    0    0  0.28679810162E+02 -0.76814596481E+02 -0.10785362200E+04  0.10816484602E+04  0.00000000000E+00 0.  1.
</event>
<event>
 7    1  0.5789396E-006  0.5686760E+02  0.7818608E-02  0.1498446E+00
          2   -1    0    0  502    0  0.00000000000E+00  0.00000000000E+00  0.15701943006E+04  0.15701943006E+04  0.00000000000E+00 0. -1.
          1   -1    0    0  501    0 -0.00000000000E+00 -0.00000000000E+00 -0.23986064445E+03  0.23986064445E+03  0.00000000000E+00 0. -1.
         25    2    1    2    0    0  0.46235589193E+02  0.21263954256E+02 -0.24306498257E+02  0.13713229961E+03  0.12499830510E+03 0.  0.
          2    1    1    2  501    0 -0.57700657028E+02  0.65442790140E+01 -0.15368882120E+03  0.16429378312E+03  0.00000000000E+00 0. -1.
          1    1    1    2  502    0  0.11465067834E+02 -0.27808233270E+02  0.15083289756E+04  0.15086288623E+04  0.00000000000E+00 0. -1.
         22    1    3    3    0    0 -0.41590055591E+02 -0.79852275772E+01 -0.60234739893E+01  0.42775914045E+02  0.00000000000E+00 0.  1.
         22    1    3    3    0    0  0.87825644784E+02  0.29249181833E+02 -0.18283024268E+02  0.94356385560E+02  0.00000000000E+00 0.  1.
</event>
<event>
 7    1  0.5789396E-006  0.5461019E+02  0.7818608E-02  0.1456303E+00
          2   -1    0    0  502    0  0.00000000000E+00  0.00000000000E+00  0.64223343902E+03  0.64223343902E+03  0.00000000000E+00 0. -1.
          1   -1    0    0  501    0 -0.00000000000E+00 -0.00000000000E+00 -0.10146960423E+04  0.10146960423E+04  0.00000000000E+00 0. -1.
         25    2    1    2    0    0  0.23044439863E+01 -0.18291115642E+02  0.27462580828E+03  0.30229907879E+03  0.12500209235E+03 0.  0.
          2    1    1    2  501    0  0.29488220261E+02  0.46088981291E+02 -0.99884764880E+03  0.10003451279E+04  0.00000000000E+00 0. -1.
          1    1    1    2  502    0 -0.31792664248E+02 -0.27797865649E+02  0.35175923726E+03  0.35428527465E+03  0.00000000000E+00 0. -1.
         22    1    3    3    0    0  0.41030992457E+02 -0.31018632403E+02  0.42793829886E+02  0.66910460875E+02  0.00000000000E+00 0.  1.
         22    1    3    3    0    0 -0.38726548471E+02  0.12727516761E+02  0.23183197839E+03  0.23538861792E+03  0.00000000000E+00 0.  1.
</event>
<event>
 7    1  0.5789396E-006  0.1246024E+03  0.7818608E-02  0.1254016E+00
          2   -1    0    0  502    0  0.00000000000E+00  0.00000000000E+00  0.11500266628E+04  0.11500266628E+04  0.00000000000E+00 0. -1.
          1   -1    0    0  501    0 -0.00000000000E+00 -0.00000000000E+00 -0.13566050914E+03  0.13566050914E+03  0.00000000000E+00 0. -1.
         25    2    1    2    0    0 -0.33004575620E+02  0.34358631595E+02  0.10082826295E+03  0.16751539476E+03  0.12500100517E+03 0.  0.
          2    1    1    2  501    0  0.18992017226E+02  0.10184333747E+03 -0.70076115514E+02  0.12507367457E+03  0.00000000000E+00 0. -1.
          1    1    1    2  502    0  0.14012558394E+02 -0.13620196906E+03  0.98361400625E+03  0.99309810263E+03  0.00000000000E+00 0. -1.
         22    1    3    3    0    0 -0.36606452218E+02 -0.28965049942E+02  0.92413146847E+02  0.10353355095E+03  0.00000000000E+00 0.  1.
         22    1    3    3    0    0  0.36018765979E+01  0.63323681537E+02  0.84151161080E+01  0.63981843812E+02  0.00000000000E+00 0.  1.
</event>
<event>
 7    1  0.5789396E-006  0.2061992E+03  0.7818608E-02  0.1291025E+00
          2   -1    0    0  502    0  0.00000000000E+00  0.00000000000E+00  0.25647955320E+04  0.25647955320E+04  0.00000000000E+00 0. -1.
          1   -1    0    0  501    0 -0.00000000000E+00 -0.00000000000E+00 -0.20261729413E+03  0.20261729413E+03  0.00000000000E+00 0. -1.
         25    2    1    2    0    0  0.21563849078E+03 -0.31495578391E+02  0.72511433040E+03  0.76740909832E+03  0.12503600229E+03 0.  0.
          2    1    1    2  501    0 -0.20529375838E+03 -0.11096588432E+02 -0.12287842292E+03  0.23951569536E+03  0.00000000000E+00 0. -1.
          1    1    1    2  502    0 -0.10344732398E+02  0.42592166823E+02  0.17599423304E+04  0.17604880325E+04  0.00000000000E+00 0. -1.
         22    1    3    3    0    0  0.50401464103E+02 -0.44303612254E+02  0.36326719553E+03  0.36941328210E+03  0.00000000000E+00 0.  1.
         22    1    3    3    0    0  0.16523702667E+03  0.12808033863E+02  0.36184713487E+03  0.39799581622E+03  0.00000000000E+00 0.  1.
</event>
<event>
 7    1  0.5789396E-006  0.1656021E+03  0.7818608E-02  0.1332012E+00
          2   -1    0    0  502    0  0.00000000000E+00  0.00000000000E+00  0.25385877729E+03  0.25385877729E+03  0.00000000000E+00 0. -1.
          1   -1    0    0  501    0 -0.00000000000E+00 -0.00000000000E+00 -0.11701033415E+04  0.11701033415E+04  0.00000000000E+00 0. -1.
         25    2    1    2    0    0 -0.14857350745E+03  0.12029681989E+03 -0.53683031754E+02  0.23463476468E+03  0.12500477153E+03 0.  0.
          2    1    1    2  501    0  0.14108071821E+03 -0.83395773492E+02 -0.10171249101E+04  0.10302435182E+04  0.00000000000E+00 0. -1.
          1    1    1    2  502    0  0.74927892419E+01 -0.36901046402E+02  0.15456337767E+03  0.15908383587E+03  0.00000000000E+00 0. -1.
         22    1    3    3    0    0 -0.12166407899E+03  0.28016352910E+02 -0.59568194882E+02  0.13833088588E+03  0.00000000000E+00 0.  1.
         22    1    3    3    0    0 -0.26909428461E+02  0.92280466983E+02  0.58851631274E+01  0.96303878800E+02  0.00000000000E+00 0.  1.
</event>
<event>
 7    1  0.5789396E-006  0.8638723E+02  0.7818608E-02  0.1408145E+00
          2   -1    0    0  502    0  0.00000000000E+00  0.00000000000E+00  0.14359549519E+03  0.14359549519E+03  0.00000000000E+00 0. -1.
          1   -1    0    0  501    0 -0.00000000000E+00 -0.00000000000E+00 -0.53815188441E+03  0.53815188441E+03  0.00000000000E+00 0. -1.
         25    2    1    2    0    0  0.19466564164E+02 -0.10871891900E+03 -0.19517900493E+03  0.25674589723E+03  0.12499944523E+03 0.  0.
          2    1    1    2  501    0  0.19415384045E+02  0.33151760063E+02 -0.29475906237E+03  0.29725225177E+03  0.00000000000E+00 0. -1.
          1    1    1    2  502    0 -0.38881948209E+02  0.75567158936E+02  0.95381678082E+02  0.12774923060E+03  0.00000000000E+00 0. -1.
         22    1    3    3    0    0  0.30775354957E+02 -0.13388930807E+03 -0.17539007530E+03  0.22278946968E+03  0.00000000000E+00 0.  1.
         22    1    3    3    0    0 -0.11308790793E+02  0.25170389075E+02 -0.19788929634E+02  0.33956427543E+02  0.00000000000E+00 0.  1.
</event>
<event>
 7    1  0.5789396E-006  0.1815860E+03  0.7818608E-02  0.1178730E+00
          2   -1    0    0  502    0  0.00000000000E+00  0.00000000000E+00  0.47395028565E+03  0.47395028565E+03  0.00000000000E+00 0. -1.
          1   -1    0    0  501    0 -0.00000000000E+00 -0.00000000000E+00 -0.57642172667E+03  0.57642172667E+03  0.00000000000E+00 0. -1.
         25    2    1    2    0    0 -0.30367320501E+03  0.59964965007E+02 -0.10352137503E+03  0.34950774758E+03  0.12500311220E+03 0.  0.
          2    1    1    2  501    0  0.15562891830E+03  0.24709743862E+02 -0.30908079802E+03  0.34693208465E+03  0.00000000000E+00 0. -1.
          1    1    1    2  502    0  0.14804428672E+03 -0.84674708870E+02  0.31013073204E+03  0.35393218009E+03  0.00000000000E+00 0. -1.
         22    1    3    3    0    0  0.11066731319E+02  0.10002596025E+02 -0.73636520035E+01  0.16635739845E+02  0.00000000000E+00 0.  1.
         22    1    3    3    0    0 -0.31473993633E+03  0.49962368982E+02 -0.96157723026E+02  0.33287200774E+03  0.00000000000E+00 0.  1.
</event>
<event>
 7    1  0.5789396E-006  0.7479871E+02  0.7818608E-02  0.1353743E+00
          2   -1    0    0  502    0  0.00000000000E+00  0.00000000000E+00  0.84710662074E+03  0.84710662074E+03  0.00000000000E+00 0. -1.
          1   -1    0    0  501    0 -0.00000000000E+00 -0.00000000000E+00 -0.15477106322E+03  0.15477106322E+03  0.00000000000E+00 0. -1.
         25    2    1    2    0    0 -0.12209614025E+03  0.60564542439E+02  0.18290377668E+03  0.26010485348E+03  0.12500084806E+03 0.  0.
          2    1    1    2  501    0  0.54311232008E+02 -0.47060486584E+02 -0.10292338558E+03  0.12552936955E+03  0.00000000000E+00 0. -1.
          1    1    1    2  502    0  0.67784908241E+02 -0.13504055855E+02  0.61235516642E+03  0.61624346094E+03  0.00000000000E+00 0. -1.
         22    1    3    3    0    0 -0.69387966128E+02 -0.15843733803E+02  0.14165049732E+03  0.15852626639E+03  0.00000000000E+00 0.  1.
         22    1    3    3    0    0 -0.52708174121E+02  0.76408276243E+02  0.41253279361E+02  0.10157858709E+03  0.00000000000E+00 0.  1.
</event>
<event>
 7    1  0.5789396E-006  0.9053447E+02  0.7818608E-02  0.1335735E+00
          2   -1    0    0  502    0  0.00000000000E+00  0.00000000000E+00  0.64250540287E+03  0.64250540287E+03  0.00000000000E+00 0. -1.
          1   -1    0    0  501    0 -0.00000000000E+00 -0.00000000000E+00 -0.99151100746E+03  0.99151100746E+03  0.00000000000E+00 0. -1.
         25    2    1    2    0    0  0.54535401884E+02  0.15477532990E+02 -0.19736620737E+02  0.13866728412E+03  0.12500166959E+03 0.  0.
          2    1    1    2  501    0 -0.98209934020E+01  0.65941932591E+02 -0.90737851045E+03  0.90982446197E+03  0.00000000000E+00 0. -1.
          1    1    1    2  502    0 -0.44714408482E+02 -0.81419465581E+02  0.57810952659E+03  0.58552466424E+03  0.00000000000E+00 0. -1.
         22    1    3    3    0    0 -0.25655983209E+02 -0.25410024310E+02  0.18847856375E+02  0.40732548408E+02  0.00000000000E+00 0. -1.
         22    1    3    3    0    0  0.80191385093E+02  0.40887557300E+02 -0.38584477112E+02  0.97934735713E+02  0.00000000000E+00 0. -1.
</event>
<event>
 7    1  0.5789396E-006  0.7949433E+02  0.7818608E-02  0.1361452E+00
          2   -1    0    0  502    0  0.00000000000E+00  0.00000000000E+00  0.34527781074E+03  0.34527781074E+03  0.00000000000E+00 0. -1.
          1   -1    0    0  501    0 -0.00000000000E+00 -0.00000000000E+00 -0.46359990280E+03  0.46359990280E+03  0.00000000000E+00 0. -1.
         25    2    1    2    0    0 -0.50293401651E+02  0.11842267770E+03  0.11425251981E+03  0.21267811605E+03  0.12499994367E+03 0.  0.
          2    1    1    2  501    0  0.63393966379E+01 -0.60609743251E+02 -0.40476166715E+03  0.40932351034E+03  0.00000000000E+00 0. -1.
          1    1    1    2  502    0  0.43954005014E+02 -0.57812934450E+02  0.17218705527E+03  0.18687608715E+03  0.00000000000E+00 0. -1.
         22    1    3    3    0    0 -0.15706793631E+02  0.20654979585E+02  0.10545488304E+03  0.10860047838E+03  0.00000000000E+00 0. -1.
         22    1    3    3    0    0 -0.34586608020E+02  0.97767698116E+02  0.87976367737E+01  0.10407763767E+03  0.00000000000E+00 0. -1.
</event>
<event>
 7    1  0.5789396E-006  0.1004096E+03  0.7818608E-02  0.1409147E+00
          2   -1    0    0  502    0  0.00000000000E+00  0.00000000000E+00  0.10064889949E+04  0.10064889949E+04  0.00000000000E+00 0. -1.
          1   -1    0    0  501    0 -0.00000000000E+00 -0.00000000000E+00 -0.95975297732E+02  0.95975297732E+02  0.00000000000E+00 0. -1.
         25    2    1    2    0    0  0.13054088859E+03 -0.30854373477E+01  0.11861540125E+03  0.21620804079E+03  0.12500343984E+03 0.  0.
          2    1    1    2  501    0 -0.32004780860E+02  0.71585857311E+01 -0.38184847103E+02  0.50335215265E+02  0.00000000000E+00 0. -1.
          1    1    1    2  502    0 -0.98536107726E+02 -0.40731483834E+01  0.83008314304E+03  0.83592103659E+03  0.00000000000E+00 0. -1.
         22    1    3    3    0    0  0.13978485990E+03 -0.29663973873E+02  0.12196368151E+03  0.18786936421E+03  0.00000000000E+00 0.  1.
         22    1    3    3    0    0 -0.92439713120E+01  0.26578536525E+02 -0.33482802596E+01  0.28338676577E+02  0.00000000000E+00 0.  1.
</event>
<event>
 7    1  0.5789396E-006  0.7752460E+02  0.7818608E-02  0.1371436E+00
          2   -1    0    0  502    0  0.00000000000E+00  0.00000000000E+00  0.34777870043E+04  0.34777870043E+04  0.00000000000E+00 0. -1.
          1   -1    0    0  501    0 -0.00000000000E+00 -0.00000000000E+00 -0.15054119017E+02  0.15054119017E+02  0.00000000000E+00 0. -1.
         25    2    1    2    0    0  0.78975833810E+02  0.14413863759E+02  0.81824598741E+03  0.83162286211E+03  0.12500058832E+03 0.  0.
          2    1    1    2  501    0 -0.69098585089E+02  0.42238186438E+02  0.19621481429E+03  0.21227089344E+03  0.00000000000E+00 0. -1.
          1    1    1    2  502    0 -0.98772487209E+01 -0.56652050197E+02  0.24482720836E+04  0.24489473678E+04  0.00000000000E+00 0. -1.
         22    1    3    3    0    0 -0.16485498083E+02  0.13794090608E+02  0.26404672084E+02  0.34047838267E+02  0.00000000000E+00 0.  1.
         22    1    3    3    0    0  0.95461331893E+02  0.61977315105E+00  0.79184131533E+03  0.79757502385E+03  0.00000000000E+00 0.  1.
</event>
<event>
 7    1  0.5789396E-006  0.8150819E+02  0.7818608E-02  0.1344703E+00
          2   -1    0    0  502    0  0.00000000000E+00  0.00000000000E+00  0.52663131365E+02  0.52663131365E+02  0.00000000000E+00 0. -1.
          1   -1    0    0  501    0 -0.00000000000E+00 -0.00000000000E+00 -0.27009788301E+04  0.27009788301E+04  0.00000000000E+00 0. -1.
         25    2    1    2    0    0  0.12325081798E+03  0.77206144945E+02 -0.71217685124E+03  0.73754467527E+03  0.12499891052E+03 0.  0.
          2    1    1    2  501    0 -0.69357186383E+02 -0.34894044061E+02 -0.19454058898E+04  0.19469545680E+04  0.00000000000E+00 0. -1.
          1    1    1    2  502    0 -0.53893631601E+02 -0.42312100884E+02  0.92670423295E+01  0.69142718213E+02  0.00000000000E+00 0. -1.
         22    1    3    3    0    0  0.11530312793E+03  0.10763304883E+03 -0.63287510431E+03  0.65223506665E+03  0.00000000000E+00 0.  1.
         22    1    3    3    0    0  0.79476900531E+01 -0.30426903888E+02 -0.79301746932E+02  0.85309608625E+02  0.00000000000E+00 0.  1.
</event>
<event>
 7    1  0.5789396E-006  0.7284690E+02  0.7818608E-02  0.1502249E+00
          2   -1    0    0  502    0  0.00000000000E+00  0.00000000000E+00  0.74705188788E+03  0.74705188788E+03  0.00000000000E+00 0. -1.
          1   -1    0    0  501    0 -0.00000000000E+00 -0.00000000000E+00 -0.35628437819E+03  0.35628437819E+03  0.00000000000E+00 0. -1.
         25    2    1    2    0    0 -0.51144960029E+02 -0.50784676513E+02  0.32129421881E+03  0.35220771774E+03  0.12500164435E+03 0.  0.
          2    1    1    2  501    0  0.33158388348E+02  0.64919031100E+02 -0.33660419847E+03  0.34440723823E+03  0.00000000000E+00 0. -1.
          1    1    1    2  502    0  0.17986571681E+02 -0.14134354587E+02  0.40607748935E+03  0.40672131011E+03  0.00000000000E+00 0. -1.
         22    1    3    3    0    0 -0.87444533534E+02 -0.10714127317E+02  0.22724826211E+03  0.24372753559E+03  0.00000000000E+00 0. -1.
         22    1    3    3    0    0  0.36299573505E+02 -0.40070549196E+02  0.94045956698E+02  0.10848018216E+03  0.00000000000E+00 0. -1.
</event>
<event>
 7    1  0.5789396E-006  0.1907049E+03  0.7818608E-02  0.1251597E+00
          2   -1    0    0  502    0  0.00000000000E+00  0.00000000000E+00  0.25418048827E+03  0.25418048827E+03  0.00000000000E+00 0. -1.
          1   -1    0    0  501    0 -0.00000000000E+00 -0.00000000000E+00 -0.85889288082E+03  0.85889288082E+03  0.00000000000E+00 0. -1.
         25    2    1    2    0    0 -0.11655723292E+03 -0.21743891947E+03 -0.24743361332E+03  0.37109797931E+03  0.12500018000E+03 0.  0.
          2    1    1    2  501    0  0.87748353169E+02  0.15437046949E+03 -0.52834823860E+03  0.55738844316E+03  0.00000000000E+00 0. -1.
          1    1    1    2  502    0  0.28808879747E+02  0.63068449974E+02  0.17106945937E+03  0.18458694662E+03  0.00000000000E+00 0. -1.
         22    1    3    3    0    0 -0.12373808163E+03 -0.13573106893E+03 -0.11947707944E+03  0.21910912448E+03  0.00000000000E+00 0. -1.
         22    1    3    3    0    0  0.71808487162E+01 -0.81707850541E+02 -0.12795653389E+03  0.15198885483E+03  0.00000000000E+00 0. -1.
</event>
<event>
 7    1  0.5789396E-006  0.3193428E+02  0.7818608E-02  0.1583582E+00
          2   -1    0    0  502    0  0.00000000000E+00  0.00000000000E+00  0.46814994392E+03  0.46814994392E+03  0.00000000000E+00 0. -1.
          1   -1    0    0  501    0 -0.00000000000E+00 -0.00000000000E+00 -0.37672199959E+03  0.37672199959E+03  0.00000000000E+00 0. -1.
         25    2    1    2    0    0 -0.12077400466E+02  0.65733689347E+01 -0.10507374311E+03  0.16387118606E+03  0.12499680536E+03 0.  0.
          2    1    1    2  501    0 -0.11104119787E+02 -0.28712887093E+02 -0.24068230413E+03  0.24264315956E+03  0.00000000000E+00 0. -1.
          1    1    1    2  502    0  0.23181520253E+02  0.22139518158E+02  0.43718399156E+03  0.43835759789E+03  0.00000000000E+00 0. -1.
         22    1    3    3    0    0 -0.61832430105E+02  0.29220500518E+02 -0.74918025730E+02  0.10143863979E+03  0.00000000000E+00 0.  1.
         22    1    3    3    0    0  0.49755029639E+02 -0.22647131584E+02 -0.30155717377E+02  0.62432546271E+02  0.00000000000E+00 0.  1.
</event>
<event>
 7    1  0.5789396E-006  0.9016710E+02  0.7818608E-02  0.1308569E+00
          2   -1    0    0  502    0  0.00000000000E+00  0.00000000000E+00  0.36364285079E+03  0.36364285079E+03  0.00000000000E+00 0. -1.
          1   -1    0    0  501    0 -0.00000000000E+00 -0.00000000000E+00 -0.14269843358E+04  0.14269843358E+04  0.00000000000E+00 0. -1.
         25    2    1    2    0    0  0.82469553982E+01 -0.46262444011E+02  0.30345960014E+02  0.13694731590E+03  0.12500185616E+03 0.  0.
          2    1    1    2  501    0  0.76954213304E+02  0.49468288460E+02 -0.13656268822E+04  0.13686876356E+04  0.00000000000E+00 0. -1.
          1    1    1    2  502    0 -0.85201168703E+02 -0.32058444492E+01  0.27193943715E+03  0.28499223510E+03  0.00000000000E+00 0. -1.
         22    1    3    3    0    0 -0.12367462219E+01 -0.70111484060E+02  0.63785938839E+02  0.94793437177E+02  0.00000000000E+00 0.  1.
         22    1    3    3    0    0  0.94837016201E+01  0.23849040049E+02 -0.33439978824E+02  0.42153878723E+02  0.00000000000E+00 0.  1.
</event>
<event>
 7    1  0.5789396E-006  0.4478914E+02  0.7818608E-02  0.1565275E+00
          2   -1    0    0  502    0  0.00000000000E+00  0.00000000000E+00  0.27796949313E+04  0.27796949313E+04  0.00000000000E+00 0. -1.
          1   -1    0    0  501    0 -0.00000000000E+00 -0.00000000000E+00 -0.14904340348E+03  0.14904340348E+03  0.00000000000E+00 0. -1.
         25    2    1    2    0    0  0.51490355531E+02  0.94178587173E+01  0.14243941228E+04  0.14308260951E+04  0.12499897824E+03 0.  0.
          2    1    1    2  501    0 -0.16542328762E+02  0.18202954887E+02 -0.14442044692E+03  0.14650003992E+03  0.00000000000E+00 0. -1.
          1    1    1    2  502    0 -0.34948026769E+02 -0.27620813605E+02  0.13506778520E+04  0.13514121998E+04  0.00000000000E+00 0. -1.
         22    1    3    3    0    0  0.50382469737E+01  0.55763321166E+02  0.98169346867E+03  0.98328886821E+03  0.00000000000E+00 0.  1.
         22    1    3    3    0    0  0.46452108557E+02 -0.46345462449E+02  0.44270065415E+03  0.44753722690E+03  0.00000000000E+00 0.  1.
</event>
<event>
 7    1  0.5789396E-006  0.1486247E+03  0.7818608E-02  0.1323813E+00
          2   -1    0    0  502    0  0.00000000000E+00  0.00000000000E+00  0.72993361157E+03  0.72993361157E+03  0.00000000000E+00 0. -1.
          1   -1    0    0  501    0 -0.00000000000E+00 -0.00000000000E+00 -0.69377774941E+03  0.69377774941E+03  0.00000000000E+00 0. -1.
         25    2    1    2    0    0  0.93023170141E+02  0.89179426987E+02  0.17018140720E+03  0.24737255960E+03  0.12500076602E+03 0.  0.
          2    1    1    2  501    0  0.43000815564E+02 -0.13611513242E+02 -0.64275920426E+03  0.64433976914E+03  0.00000000000E+00 0. -1.
          1    1    1    2  502    0 -0.13602398570E+03 -0.75567913745E+02  0.50873365923E+03  0.53199903225E+03  0.00000000000E+00 0. -1.
         22    1    3    3    0    0 -0.16534692678E+02  0.53464301744E+01  0.81597552262E+02  0.83427458985E+02  0.00000000000E+00 0.  1.
         22    1    3    3    0    0  0.10955786282E+03  0.83832996813E+02  0.88583854933E+02  0.16394510061E+03  0.00000000000E+00 0.  1.
</event>
<event>
 7    1  0.5789396E-006  0.5336180E+02  0.7818608E-02  0.1478191E+00
          2   -1    0    0  502    0  0.00000000000E+00  0.00000000000E+00  0.19583676618E+04  0.19583676618E+04  0.00000000000E+00 0. -1.
          1   -1    0    0  501    0 -0.00000000000E+00 -0.00000000000E+00 -0.80724619330E+02  0.80724619330E+02  0.00000000000E+00 0. -1.
         25    2    1    2    0    0  0.67024870547E+02  0.18629458521E+02  0.58983047464E+02  0.15473446839E+03  0.12499746326E+03 0.  0.
          2    1    1    2  501    0 -0.49864922049E+02  0.14066379573E+02 -0.12116593724E+02  0.53208883927E+02  0.00000000000E+00 0. -1.
          1    1    1    2  502    0 -0.17159948497E+02 -0.32695838094E+02  0.18307765887E+04  0.18311489288E+04  0.00000000000E+00 0. -1.
         22    1    3    3    0    0 -0.22631462308E+02  0.49701757280E+01  0.59702023798E+02  0.64040747798E+02  0.00000000000E+00 0. -1.
         22    1    3    3    0    0  0.89656332855E+02  0.13659282793E+02 -0.71897633346E+00  0.90693720589E+02  0.00000000000E+00 0. -1.
</event>
<event>
 7    1  0.5789396E-006  0.1464426E+03  0.7818608E-02  0.1325991E+00
          2   -1    0    0  502    0  0.00000000000E+00  0.00000000000E+00  0.43995311542E+03  0.43995311542E+03  0.00000000000E+00 0. -1.
          1   -1    0    0  501    0 -0.00000000000E+00 -0.00000000000E+00 -0.53824992528E+03  0.53824992528E+03  0.00000000000E+00 0. -1.
         25    2    1    2    0    0  0.12030070596E+02 -0.11222424057E+03  0.38241205340E+03  0.41785502225E+03  0.12499935306E+03 0.  0.
          2    1    1    2  501    0  0.17053008570E+02  0.14643283171E+03 -0.49236293104E+03  0.51395976026E+03  0.00000000000E+00 0. -1.
          1    1    1    2  502    0 -0.29083079166E+02 -0.34208591133E+02  0.11654067789E+02  0.46388258181E+02  0.00000000000E+00 0. -1.
         22    1    3    3    0    0  0.52605395792E+02 -0.34044135878E+02  0.25747411521E+03  0.26498915234E+03  0.00000000000E+00 0. -1.
         22    1    3    3    0    0 -0.40575325196E+02 -0.78180104696E+02  0.12493793818E+03  0.15286586991E+03  0.00000000000E+00 0. -1.
</event>
<event>
 7    1  0.5789396E-006  0.5594289E+02  0.7818608E-02  0.1465288E+00
          2   -1    0    0  502    0  0.00000000000E+00  0.00000000000E+00  0.12047764480E+03  0.12047764480E+03  0.00000000000E+00 0. -1.
          1   -1    0    0  501    0 -0.00000000000E+00 -0.00000000000E+00 -0.26063428548E+03  0.26063428548E+03  0.00000000000E+00 0. -1.
         25    2    1    2    0    0  0.65070945240E+02  0.64860619004E+02 -0.11289458825E+03  0.19186486778E+03  0.12500324644E+03 0.  0.
          2    1    1    2  501    0 -0.30504213423E+02 -0.23691065778E+02 -0.95128087013E+02  0.10266998867E+03  0.00000000000E+00 0. -1.
          1    1    1    2  502    0 -0.34566731817E+02 -0.41169553226E+02  0.67866034586E+02  0.86577073824E+02  0.00000000000E+00 0. -1.
         22    1    3    3    0    0  0.23872055249E+02 -0.28251231514E+02 -0.74261869934E+02  0.82962837644E+02  0.00000000000E+00 0. -1.
         22    1    3    3    0    0  0.41198889991E+02  0.93111850518E+02 -0.38632718319E+02  0.10890203014E+03  0.00000000000E+00 0. -1.
</event>
<event>
 7    1  0.5789396E-006  0.9727594E+02  0.7818608E-02  0.1430827E+00
          2   -1    0    0  502    0  0.00000000000E+00  0.00000000000E+00  0.84563465161E+02  0.84563465161E+02  0.00000000000E+00 0. -1.
          1   -1    0    0  501    0 -0.00000000000E+00 -0.00000000000E+00 -0.10785075915E+04  0.10785075915E+04  0.00000000000E+00 0. -1.
         25    2    1    2    0    0 -0.69507266036E+01  0.10219353035E+03 -0.78993787831E+03  0.80629901811E+03  0.12499769908E+03 0.  0.
          2    1    1    2  501    0  0.27730373751E+02 -0.72122686876E+01 -0.24828755828E+03  0.24993539574E+03  0.00000000000E+00 0. -1.
          1    1    1    2  502    0 -0.20779647147E+02 -0.94981261662E+02  0.44281310271E+02  0.10683664279E+03  0.00000000000E+00 0. -1.
         22    1    3    3    0    0 -0.43432535095E+02  0.62966472924E+02 -0.20319916589E+03  0.21711992731E+03  0.00000000000E+00 0. -1.
         22    1    3    3    0    0  0.36481808491E+02  0.39227057426E+02 -0.58673871242E+03  0.58917909080E+03  0.00000000000E+00 0. -1.
</event>
<event>
 7    1  0.5789396E-006  0.1130416E+03  0.7818608E-02  0.1336795E+00
          2   -1    0    0  502    0  0.00000000000E+00  0.00000000000E+00  0.49861692216E+03  0.49861692216E+03  0.00000000000E+00 0. -1.
          1   -1    0    0  501    0 -0.00000000000E+00 -0.00000000000E+00 -0.64314951089E+03  0.64314951089E+03  0.00000000000E+00 0. -1.
         25    2    1    2    0    0  0.69077463545E+02  0.12749442470E+03  0.15771061433E+03  0.24804074806E+03  0.12500020211E+03 0.  0.
          2    1    1    2  501    0 -0.82514400882E+02 -0.76324783363E+02 -0.59027193388E+03  0.60087856913E+03  0.00000000000E+00 0. -1.
          1    1    1    2  502    0  0.13436937337E+02 -0.51169641342E+02  0.28802873084E+03  0.29284711586E+03  0.00000000000E+00 0. -1.
         22    1    3    3    0    0  0.78673527864E+02  0.58710287641E+02  0.29964944451E+02  0.10263683431E+03  0.00000000000E+00 0. -1.
         22    1    3    3    0    0 -0.95960643192E+01  0.68784137063E+02  0.12774566988E+03  0.14540391375E+03  0.00000000000E+00 0. -1.
</event>
<event>
 7    1  0.5789396E-006  0.7055308E+02  0.7818608E-02  0.1365081E+00
          2   -1    0    0  502    0  0.00000000000E+00  0.00000000000E+00  0.15475720103E+04  0.15475720103E+04  0.00000000000E+00 0. -1.
          1   -1    0    0  501    0 -0.00000000000E+00 -0.00000000000E+00 -0.14132320928E+03  0.14132320928E+03  0.00000000000E+00 0. -1.
         25    2    1    2    0    0 -0.26420428593E+01 -0.11705945892E+02  0.93139480292E+03  0.93982371628E+03  0.12501331613E+03 0.  0.
          2    1    1    2  501    0 -0.54733101537E+02  0.45545961238E+02 -0.12589736965E+03  0.14463849652E+03  0.00000000000E+00 0. -1.
          1    1    1    2  502    0  0.57375144396E+02 -0.33840015345E+02  0.60075136772E+03  0.60443300675E+03  0.00000000000E+00 0. -1.
         22    1    3    3    0    0 -0.61090723380E+02  0.35167543652E+01  0.58616128864E+03  0.58934667247E+03  0.00000000000E+00 0. -1.
         22    1    3    3    0    0  0.58448680521E+02 -0.15222700258E+02  0.34523351428E+03  0.35047704381E+03  0.00000000000E+00 0. -1.
</event>
<event>
 7    1  0.5789396E-006  0.4905342E+02  0.7818608E-02  0.1480441E+00
          2   -1    0    0  502    0  0.00000000000E+00  0.00000000000E+00  0.24638187483E+04  0.24638187483E+04  0.00000000000E+00 0. -1.
          1   -1    0    0  501    0 -0.00000000000E+00 -0.00000000000E+00 -0.38293159583E+02  0.38293159583E+02  0.00000000000E+00 0. -1.
         25    2    1    2    0    0 -0.68339845700E+01  0.47725638303E+02  0.11613912697E+03  0.17730747287E+03  0.12500081289E+03 0.  0.
          2    1    1    2  501    0 -0.33965329451E+02 -0.20231903168E+02  0.45064961991E+02  0.59948513824E+02  0.00000000000E+00 0. -1.
          1    1    1    2  502    0  0.40799314021E+02 -0.27493735135E+02  0.22643214997E+04  0.22648559212E+04  0.00000000000E+00 0. -1.
         22    1    3    3    0    0 -0.17345518232E+02  0.34166474564E+02  0.14155145868E+03  0.14664593565E+03  0.00000000000E+00 0.  1.
         22    1    3    3    0    0  0.10511533662E+02  0.13559163738E+02 -0.25412331716E+02  0.30661537216E+02  0.00000000000E+00 0.  1.
</event>
<event>
 7    1  0.5789396E-006  0.8314421E+02  0.7818608E-02  0.1369871E+00
          2   -1    0    0  502    0  0.00000000000E+00  0.00000000000E+00  0.64899310259E+03  0.64899310259E+03  0.00000000000E+00 0. -1.
          1   -1    0    0  501    0 -0.00000000000E+00 -0.00000000000E+00 -0.38912100035E+03  0.38912100035E+03  0.00000000000E+00 0. -1.
         25    2    1    2    0    0 -0.13648147299E+02 -0.60285684814E+02  0.80360559650E+02  0.16094680664E+03  0.12500167720E+03 0.  0.
          2    1    1    2  501    0 -0.38532606651E+02  0.75374367862E+02 -0.34226134333E+03  0.35257465060E+03  0.00000000000E+00 0. -1.
          1    1    1    2  502    0  0.52180753950E+02 -0.15088683048E+02  0.52177288592E+03  0.52459264570E+03  0.00000000000E+00 0. -1.
         22    1    3    3    0    0 -0.21955244918E+02 -0.49353817202E+02  0.11315896707E+03  0.12539052548E+03  0.00000000000E+00 0. -1.
         22    1    3    3    0    0  0.83070976183E+01 -0.10931867612E+02 -0.32798407424E+02  0.35556281160E+02  0.00000000000E+00 0. -1.
</event>
<event>
 7    1  0.5789396E-006  0.1234294E+03  0.7818608E-02  0.1360523E+00
          2   -1    0    0  502    0  0.00000000000E+00  0.00000000000E+00  0.23175967350E+04  0.23175967350E+04  0.00000000000E+00 0. -1.
          1   -1    0    0  501    0 -0.00000000000E+00 -0.00000000000E+00 -0.23225612343E+03  0.23225612343E+03  0.00000000000E+00 0. -1.
         25    2    1    2    0    0  0.99829262241E+02  0.11036302080E+03  0.97302737814E+03  0.99224650197E+03  0.12499985634E+03 0.  0.
          2    1    1    2  501    0 -0.38029129557E+02 -0.10883351736E+02 -0.21829719923E+03  0.22185204356E+03  0.00000000000E+00 0. -1.
          1    1    1    2  502    0 -0.61800132685E+02 -0.99479669062E+02  0.13306104326E+04  0.13357543129E+04  0.00000000000E+00 0. -1.
         22    1    3    3    0    0  0.10152387396E+03  0.54945385992E+02  0.39378775999E+03  0.41035946723E+03  0.00000000000E+00 0. -1.
         22    1    3    3    0    0 -0.16946117188E+01  0.55417634806E+02  0.57923961815E+03  0.58188703473E+03  0.00000000000E+00 0. -1.
</event>
<event>
 7    1  0.5789396E-006  0.6522870E+02  0.7818608E-02  0.1409573E+00
          2   -1    0    0  502    0  0.00000000000E+00  0.00000000000E+00  0.32924348117E+03  0.32924348117E+03  0.00000000000E+00 0. -1.
          1   -1    0    0  501    0 -0.00000000000E+00 -0.00000000000E+00 -0.22976774641E+03  0.22976774641E+03  0.00000000000E+00 0. -1.
         25    2    1    2    0    0 -0.18951943954E+02  0.58913758972E+02  0.82649472301E+02  0.16212927561E+03  0.12499983825E+03 0.  0.
          2    1    1    2  501    0  0.59514009734E+02 -0.29141077684E+02 -0.18100436290E+03  0.19275294849E+03  0.00000000000E+00 0. -1.
          1    1    1    2  502    0 -0.40562065780E+02 -0.29772681288E+02  0.19783062536E+03  0.20412900348E+03  0.00000000000E+00 0. -1.
         22    1    3    3    0    0 -0.21588700767E+02  0.69687842614E+02 -0.56145997868E+01  0.73170971975E+02  0.00000000000E+00 0.  1.
         22    1    3    3    0    0  0.26367568129E+01 -0.10774083642E+02  0.88264072088E+02  0.88958303639E+02  0.00000000000E+00 0.  1.
</event>
<event>
 7    1  0.5789396E-006  0.4238497E+02  0.7818608E-02  0.1535424E+00
          2   -1    0    0  502    0  0.00000000000E+00  0.00000000000E+00  0.32134786663E+04  0.32134786663E+04  0.00000000000E+00 0. -1.
          1   -1    0    0  501    0 -0.00000000000E+00 -0.00000000000E+00 -0.56968011670E+02  0.56968011670E+02  0.00000000000E+00 0. -1.
         25    2    1    2    0    0 -0.44151075019E+02  0.43747963599E+02  0.10249188464E+04  0.10343821148E+04  0.12499806400E+03 0.  0.
          2    1    1    2  501    0  0.42568404957E+01 -0.31193697699E+02 -0.47273740857E+02  0.56797658770E+02  0.00000000000E+00 0. -1.
          1    1    1    2  502    0  0.39894234523E+02 -0.12554265900E+02  0.21788655491E+04  0.21792669044E+04  0.00000000000E+00 0. -1.
         22    1    3    3    0    0 -0.17110607304E+02  0.85236603952E+02  0.54165268271E+03  0.54858516224E+03  0.00000000000E+00 0. -1.
         22    1    3    3    0    0 -0.27040467715E+02 -0.41488640353E+02  0.48326616366E+03  0.48579695255E+03  0.00000000000E+00 0. -1.
</event>
<event>
 7    1  0.5789396E-006  0.5590315E+03  0.7818608E-02  0.1242077E+00
          2   -1    0    0  502    0  0.00000000000E+00  0.00000000000E+00  0.84533488974E+03  0.84533488974E+03  0.00000000000E+00 0. -1.
          1   -1    0    0  501    0 -0.00000000000E+00 -0.00000000000E+00 -0.83112320691E+03  0.83112320691E+03  0.00000000000E+00 0. -1.
         25    2    1    2    0    0 -0.19517757866E+03  0.51586269988E+03 -0.14286436136E+03  0.58330398002E+03  0.12499878009E+03 0.  0.
          2    1    1    2  501    0  0.17870936808E+03 -0.53601572979E+03 -0.29700530043E+03  0.63832754077E+03  0.00000000000E+00 0. -1.
          1    1    1    2  502    0  0.16468210580E+02  0.20153029910E+02  0.45408134462E+03  0.45482657586E+03  0.00000000000E+00 0. -1.
         22    1    3    3    0    0 -0.89475840388E+02  0.35380032729E+03 -0.48876921640E+02  0.36819770650E+03  0.00000000000E+00 0.  1.
         22    1    3    3    0    0 -0.10570173827E+03  0.16206237259E+03 -0.93987439722E+02  0.21510627352E+03  0.00000000000E+00 0.  1.
</event>
<event>
 7    1  0.5789396E-006  0.6648185E+02  0.7818608E-02  0.1469411E+00
          2   -1    0    0  502    0  0.00000000000E+00  0.00000000000E+00  0.32220093876E+03  0.32220093876E+03  0.00000000000E+00 0. -1.
          1   -1    0    0  501    0 -0.00000000000E+00 -0.00000000000E+00 -0.29483335384E+03  0.29483335384E+03  0.00000000000E+00 0. -1.
         25    2    1    2    0    0 -0.48638562461E+01 -0.49253198052E+02  0.15020703975E+03  0.20158481358E+03  0.12499899063E+03 0.  0.
          2    1    1    2  501    0 -0.26456282115E+02 -0.17191732641E+02 -0.25890575041E+03  0.26082116120E+03  0.00000000000E+00 0. -1.
          1    1    1    2  502    0  0.31320138361E+02  0.66444930693E+02  0.13606629558E+03  0.15462831783E+03  0.00000000000E+00 0. -1.
         22    1    3    3    0    0  0.57659237112E+02 -0.50770069204E+01  0.63976465114E+02  0.86274861415E+02  0.00000000000E+00 0.  1.
         22    1    3    3    0    0 -0.62523093358E+02 -0.44176191132E+02  0.86230574638E+02  0.11530995217E+03  0.00000000000E+00 0.  1.
</event>
<event>
 7    1  0.5789396E-006  0.6082024E+02  0.7818608E-02  0.1422161E+00
          2   -1    0    0  502    0  0.00000000000E+00  0.00000000000E+00  0.56233030212E+02  0.56233030212E+02  0.00000000000E+00 0. -1.
          1   -1    0    0  501    0 -0.00000000000E+00 -0.00000000000E+00 -0.15193705715E+04  0.15193705715E+04  0.00000000000E+00 0. -1.
         25    2    1    2    0    0  0.14348074081E+02 -0.38697921410E+02 -0.69538352748E+03  0.70773363499E+03  0.12500100581E+03 0.  0.
          2    1    1    2  501    0  0.44604829196E+02  0.20175090541E+02 -0.79770077479E+03  0.79920157105E+03  0.00000000000E+00 0. -1.
          1    1    1    2  502    0 -0.58952903277E+02  0.18522830869E+02  0.29946760997E+02  0.68668395659E+02  0.00000000000E+00 0. -1.
         22    1    3    3    0    0 -0.36217536624E+02 -0.62975527108E+02 -0.31718323720E+03  0.32539642428E+03  0.00000000000E+00 0.  1.
         22    1    3    3    0    0  0.50565610704E+02  0.24277605699E+02 -0.37820029028E+03  0.38233721071E+03  0.00000000000E+00 0.  1.
</event>
<event>
 7    1  0.5789396E-006  0.1066028E+03  0.7818608E-02  0.1394277E+00
          2   -1    0    0  502    0  0.00000000000E+00  0.00000000000E+00  0.44331429714E+04  0.44331429714E+04  0.00000000000E+00 0. -1.
          1   -1    0    0  501    0 -0.00000000000E+00 -0.00000000000E+00 -0.75925070887E+02  0.75925070887E+02  0.00000000000E+00 0. -1.
         25    2    1    2    0    0 -0.11235983328E+03  0.65878081468E+02  0.51663506310E+03  0.54726712976E+03  0.12499947656E+03 0.  0.
          2    1    1    2  501    0  0.12131495127E+02 -0.32552840655E+02 -0.54855630794E+02  0.64930738781E+02  0.00000000000E+00 0. -1.
          1    1    1    2  502    0  0.10022833815E+03 -0.33325240813E+02  0.38954384682E+04  0.38968701737E+04  0.00000000000E+00 0. -1.
         22    1    3    3    0    0 -0.12771790342E+03  0.48918959923E+02  0.30331374437E+03  0.33272233923E+03  0.00000000000E+00 0.  1.
         22    1    3    3    0    0  0.15358070143E+02  0.16959121545E+02  0.21332131873E+03  0.21454479054E+03  0.00000000000E+00 0.  1.
</event>
<event>
 7    1  0.5789396E-006  0.7832912E+02  0.7818608E-02  0.1500730E+00
          2   -1    0    0  502    0  0.00000000000E+00  0.00000000000E+00  0.15166623150E+04  0.15166623150E+04  0.00000000000E+00 0. -1.
          1   -1    0    0  501    0 -0.00000000000E+00 -0.00000000000E+00 -0.11190398899E+03  0.11190398899E+03  0.00000000000E+00 0. -1.
         25    2    1    2    0    0  0.32913813048E+02  0.86593065813E+02  0.90450218526E+03  0.91778589247E+03  0.12500025255E+03 0.  0.
          2    1    1    2  501    0 -0.13719502675E+02 -0.76912186023E+02 -0.90543219714E+02  0.11959006543E+03  0.00000000000E+00 0. -1.
          1    1    1    2  502    0 -0.19194310373E+02 -0.96808797906E+01  0.59079936043E+03  0.59119034605E+03  0.00000000000E+00 0. -1.
         22    1    3    3    0    0  0.10647705264E+02  0.10158030153E+03  0.40909929064E+03  0.42165644889E+03  0.00000000000E+00 0. -1.
         22    1    3    3    0    0  0.22266107784E+02 -0.14987235718E+02  0.49540289462E+03  0.49612944358E+03  0.00000000000E+00 0. -1.
</event>
<event>
 7    1  0.5789396E-006  0.1979939E+03  0.7818608E-02  0.1308606E+00
          2   -1    0    0  502    0  0.00000000000E+00  0.00000000000E+00  0.20933298220E+04  0.20933298220E+04  0.00000000000E+00 0. -1.
          1   -1    0    0  501    0 -0.00000000000E+00 -0.00000000000E+00 -0.13685975638E+04  0.13685975638E+04  0.00000000000E+00 0. -1.
         25    2    1    2    0    0  0.12165476062E+03  0.19090965592E+03  0.21987273416E+03  0.33943523729E+03  0.12500353428E+03 0.  0.
          2    1    1    2  501    0 -0.85045686623E+02 -0.17801007547E+03 -0.13011723310E+04  0.13160432329E+04  0.00000000000E+00 0. -1.
          1    1    1    2  502    0 -0.36609073999E+02 -0.12899580451E+02  0.18060318551E+04  0.18064489157E+04  0.00000000000E+00 0. -1.
         22    1    3    3    0    0 -0.15746374500E+02  0.15527891953E+02 -0.52239984099E+01  0.22723421789E+02  0.00000000000E+00 0.  1.
         22    1    3    3    0    0  0.13740113512E+03  0.17538176397E+03  0.22509673257E+03  0.31671181550E+03  0.00000000000E+00 0.  1.
</event>
<event>
 7    1  0.5789396E-006  0.5349785E+02  0.7818608E-02  0.1491897E+00
          2   -1    0    0  502    0  0.00000000000E+00  0.00000000000E+00  0.16287177328E+04  0.16287177328E+04  0.00000000000E+00 0. -1.
          1   -1    0    0  501    0 -0.00000000000E+00 -0.00000000000E+00 -0.97156201556E+03  0.97156201556E+03  0.00000000000E+00 0. -1.
         25    2    1    2    0    0 -0.86392133009E+02  0.56638108525E+01  0.40313831894E+02  0.15731095941E+03  0.12500341399E+03 0.  0.
          2    1    1    2  501    0  0.33455346644E+02 -0.23039667019E-01 -0.91229362544E+03  0.91290685164E+03  0.00000000000E+00 0. -1.
          1    1    1    2  502    0  0.52936786366E+02 -0.56407711855E+01  0.15291355108E+04  0.15300619373E+04  0.00000000000E+00 0. -1.
         22    1    3    3    0    0 -0.42289219329E+02 -0.52984903295E+02  0.48672982090E+02  0.83455600376E+02  0.00000000000E+00 0.  1.
         22    1    3    3    0    0 -0.44102913681E+02  0.58648714148E+02 -0.83591501961E+01  0.73855359036E+02  0.00000000000E+00 0.  1.
</event>
<event>
 7    1  0.5789396E-006  0.4698512E+02  0.7818608E-02  0.1558670E+00
          2   -1    0    0  502    0  0.00000000000E+00  0.00000000000E+00  0.76148177966E+03  0.76148177966E+03  0.00000000000E+00 0. -1.
          1   -1    0    0  501    0 -0.00000000000E+00 -0.00000000000E+00 -0.25135075220E+03  0.25135075220E+03  0.00000000000E+00 0. -1.
         25    2    1    2    0    0  0.35321539380E+02  0.57492573497E+02  0.17361676589E+03  0.22432219465E+03  0.12499863384E+03 0.  0.
          2    1    1    2  501    0 -0.32964853106E+02 -0.33159672625E+02 -0.22330998370E+03  0.22815256792E+03  0.00000000000E+00 0. -1.
          1    1    1    2  502    0 -0.23566862738E+01 -0.24332900873E+02  0.55982424526E+03  0.56035776930E+03  0.00000000000E+00 0. -1.
         22    1    3    3    0    0 -0.37402650447E+02  0.57265269746E+02  0.96959474131E+02  0.11865668546E+03  0.00000000000E+00 0. -1.
         22    1    3    3    0    0  0.72724189827E+02  0.22730375176E+00  0.76657291762E+02  0.10566550919E+03  0.00000000000E+00 0. -1.
</event>
<event>
 7    1  0.5789396E-006  0.9012939E+02  0.7818608E-02  0.1308800E+00
          2   -1    0    0  502    0  0.00000000000E+00  0.00000000000E+00  0.13795058850E+04  0.13795058850E+04  0.00000000000E+00 0. -1.
          1   -1    0    0  501    0 -0.00000000000E+00 -0.00000000000E+00 -0.76698958047E+02  0.76698958047E+02  0.00000000000E+00 0. -1.
         25    2    1    2    0    0  0.27064803001E+02  0.50839681795E+02  0.35424827925E+03  0.38004514244E+03  0.12500116053E+03 0.  0.
          2    1    1    2  501    0 -0.89981706163E+02  0.13695352919E+02 -0.28172983017E+02  0.95278471376E+02  0.00000000000E+00 0. -1.
          1    1    1    2  502    0  0.62916903163E+02 -0.64535034714E+02  0.97673163071E+03  0.98088122922E+03  0.00000000000E+00 0. -1.
         22    1    3    3    0    0  0.12248425478E+02  0.77275112683E+02  0.11625953637E+03  0.14013474503E+03  0.00000000000E+00 0. -1.
         22    1    3    3    0    0  0.14816377523E+02 -0.26435430888E+02  0.23798874288E+03  0.23991039741E+03  0.00000000000E+00 0. -1.
</event>
<event>
 7    1  0.5789396E-006  0.4690269E+02  0.7818608E-02  0.1466291E+00
          2   -1    0    0  502    0  0.00000000000E+00  0.00000000000E+00  0.28359385454E+04  0.28359385454E+04  0.00000000000E+00 0. -1.
          1   -1    0    0  501    0 -0.00000000000E+00 -0.00000000000E+00 -0.15619685892E+03  0.15619685892E+03  0.00000000000E+00 0. -1.
         25    2    1    2    0    0 -0.70403289603E+02  0.57680843583E+02  0.64807822780E+03  0.66626730736E+03  0.12499213017E+03 0.  0.
          2    1    1    2  501    0  0.30518751108E+02 -0.35297139610E+02 -0.14315554499E+03  0.15056823136E+03  0.00000000000E+00 0. -1.
          1    1    1    2  502    0  0.39884538495E+02 -0.22383703973E+02  0.21748190036E+04  0.21752998656E+04  0.00000000000E+00 0. -1.
         22    1    3    3    0    0  0.68412000927E+01  0.14136460390E+02  0.41248576204E+01  0.16237486919E+02  0.00000000000E+00 0. -1.
         22    1    3    3    0    0 -0.77244489696E+02  0.43544383194E+02  0.64395337018E+03  0.65002982044E+03  0.00000000000E+00 0. -1.
</event>
<event>
 7    1  0.5789396E-006  0.5889378E+02  0.7818608E-02  0.1417343E+00
          2   -1    0    0  502    0  0.00000000000E+00  0.00000000000E+00  0.42928192107E+03  0.42928192107E+03  0.00000000000E+00 0. -1.
          1   -1    0    0  501    0 -0.00000000000E+00 -0.00000000000E+00 -0.27932572288E+03  0.27932572288E+03  0.00000000000E+00 0. -1.
         25    2    1    2    0    0  0.89809507302E+02  0.58740933583E+01  0.20531141501E+03  0.25666796440E+03  0.12500165696E+03 0.  0.
          2    1    1    2  501    0 -0.40907790872E+02 -0.32851816900E+02 -0.24690301890E+03  0.25241590673E+03  0.00000000000E+00 0. -1.
          1    1    1    2  502    0 -0.48901716430E+02  0.26977723542E+02  0.19154780207E+03  0.19952377281E+03  0.00000000000E+00 0. -1.
         22    1    3    3    0    0  0.53061746707E+02 -0.48721417212E+02  0.16358500353E+03  0.17874389176E+03  0.00000000000E+00 0. -1.
         22    1    3    3    0    0  0.36747760595E+02  0.54595510570E+02  0.41726411481E+02  0.77924072649E+02  0.00000000000E+00 0. -1.
</event>
<event>
 7    1  0.5789396E-006  0.5039863E+02  0.7818608E-02  0.1459007E+00
          2   -1    0    0  502    0  0.00000000000E+00  0.00000000000E+00  0.11357870679E+04  0.11357870679E+04  0.00000000000E+00 0. -1.
          1   -1    0    0  501    0 -0.00000000000E+00 -0.00000000000E+00 -0.49567772833E+02  0.49567772833E+02  0.00000000000E+00 0. -1.
         25    2    1    2    0    0 -0.52218434901E+02  0.81623288751E+01  0.52637517820E+03  0.54358925448E+03  0.12500024322E+03 0.  0.
          2    1    1    2  501    0  0.25387415139E+02 -0.44123246147E+02 -0.23944145638E+02  0.56255700230E+02  0.00000000000E+00 0. -1.
          1    1    1    2  502    0  0.26831019762E+02  0.35960917272E+02  0.58378826254E+03  0.58550988605E+03  0.00000000000E+00 0. -1.
         22    1    3    3    0    0 -0.89659739057E+02  0.24264195229E+02  0.40642509184E+03  0.41690403602E+03  0.00000000000E+00 0. -1.
         22    1    3    3    0    0  0.37441304156E+02 -0.16101866354E+02  0.11995008637E+03  0.12668521846E+03  0.00000000000E+00 0. -1.
</event>
<event>
 7    1  0.5789396E-006  0.8821297E+02  0.7818608E-02  0.1491866E+00
          2   -1    0    0  502    0  0.00000000000E+00  0.00000000000E+00  0.59950491865E+03  0.59950491865E+03  0.00000000000E+00 0. -1.
          1   -1    0    0  501    0 -0.00000000000E+00 -0.00000000000E+00 -0.39788280918E+03  0.39788280918E+03  0.00000000000E+00 0. -1.
         25    2    1    2    0    0  0.65548211162E+02  0.25086005910E+02  0.94536688590E+02  0.17171618979E+03  0.12499355450E+03 0.  0.
          2    1    1    2  501    0  0.17485353595E+02  0.10300566539E+02 -0.35463320569E+03  0.35521338634E+03  0.00000000000E+00 0. -1.
          1    1    1    2  502    0 -0.83033564757E+02 -0.35386572449E+02  0.46171862656E+03  0.47045815170E+03  0.00000000000E+00 0. -1.
         22    1    3    3    0    0  0.10003015667E+03  0.24889415764E+00  0.57711417515E+02  0.11548463925E+03  0.00000000000E+00 0.  1.
         22    1    3    3    0    0 -0.34481945505E+02  0.24837111752E+02  0.36825271075E+02  0.56231550537E+02  0.00000000000E+00 0.  1.
</event>
<event>
 7    1  0.5789396E-006  0.2683054E+03  0.7818608E-02  0.1279854E+00
          2   -1    0    0  502    0  0.00000000000E+00  0.00000000000E+00  0.99729204396E+03  0.99729204396E+03  0.00000000000E+00 0. -1.
          1   -1    0    0  501    0 -0.00000000000E+00 -0.00000000000E+00 -0.70921874774E+03  0.70921874774E+03  0.00000000000E+00 0. -1.
         25    2    1    2    0    0 -0.22239497375E+03 -0.12213305414E+03  0.11209751422E+03  0.30424940497E+03  0.12500336182E+03 0.  0.
          2    1    1    2  501    0  0.17629211547E+01 -0.37386507229E+02 -0.58904769159E+03  0.59023558159E+03  0.00000000000E+00 0. -1.
          1    1    1    2  502    0  0.22063205259E+03  0.15951956137E+03  0.76502347358E+03  0.81202580515E+03  0.00000000000E+00 0. -1.
         22    1    3    3    0    0  0.81018026296E+00 -0.33846541842E+02  0.42489731352E+02  0.54328832650E+02  0.00000000000E+00 0.  1.
         22    1    3    3    0    0 -0.22320515401E+03 -0.88286512303E+02  0.69607782868E+02  0.24992057232E+03  0.00000000000E+00 0.  1.
</event>
<event>
 7    1  0.5789396E-006  0.1341630E+03  0.7818608E-02  0.1322837E+00
          2   -1    0    0  502    0  0.00000000000E+00  0.00000000000E+00  0.29653997541E+04  0.29653997541E+04  0.00000000000E+00 0. -1.
          1   -1    0    0  501    0 -0.00000000000E+00 -0.00000000000E+00 -0.60786777282E+02  0.60786777282E+02  0.00000000000E+00 0. -1.
         25    2    1    2    0    0  0.91932287387E+02  0.23887779624E+02  0.28475211445E+03  0.32517563002E+03  0.12503300442E+03 0.  0.
          2    1    1    2  501    0  0.45893537877E+02 -0.20832741819E+02 -0.22401373138E+02  0.55154704868E+02  0.00000000000E+00 0. -1.
          1    1    1    2  502    0 -0.13782582526E+03 -0.30550378052E+01  0.26422622355E+04  0.26458561965E+04  0.00000000000E+00 0. -1.
         22    1    3    3    0    0  0.87679356284E+02  0.17302517096E+02  0.79021202959E+02  0.11929541958E+03  0.00000000000E+00 0. -1.
         22    1    3    3    0    0  0.42529311028E+01  0.65852625278E+01  0.20573091150E+03  0.20588021044E+03  0.00000000000E+00 0. -1.
</event>
<event>
 7    1  0.5789396E-006  0.5107707E+02  0.7818608E-02  0.1480329E+00
          2   -1    0    0  502    0  0.00000000000E+00  0.00000000000E+00  0.35329473846E+02  0.35329473846E+02  0.00000000000E+00 0. -1.
          1   -1    0    0  501    0 -0.00000000000E+00 -0.00000000000E+00 -0.82838369900E+03  0.82838369900E+03  0.00000000000E+00 0. -1.
         25    2    1    2    0    0 -0.56506504886E+02 -0.23233182010E+02 -0.17006712978E+03  0.21972542944E+03  0.12499467937E+03 0.  0.
          2    1    1    2  501    0  0.75402991568E+01  0.37242622498E+02 -0.56711225828E+03  0.56838383380E+03  0.00000000000E+00 0. -1.
          1    1    1    2  502    0  0.48966205729E+02 -0.14009440488E+02 -0.55874837107E+02  0.75603909608E+02  0.00000000000E+00 0. -1.
         22    1    3    3    0    0  0.45704471772E+01  0.71901853328E+01 -0.14766035112E+03  0.14790593986E+03  0.00000000000E+00 0. -1.
         22    1    3    3    0    0 -0.61076952063E+02 -0.30423367343E+02 -0.22406778655E+02  0.71819489580E+02  0.00000000000E+00 0. -1.
</event>
<event>
 7    1  0.5789396E-006  0.9442186E+02  0.7818608E-02  0.1384663E+00
          2   -1    0    0  502    0  0.00000000000E+00  0.00000000000E+00  0.18049207609E+04  0.18049207609E+04  0.00000000000E+00 0. -1.
          1   -1    0    0  501    0 -0.00000000000E+00 -0.00000000000E+00 -0.22388628890E+04  0.22388628890E+04  0.00000000000E+00 0. -1.
         25    2    1    2    0    0 -0.51772284948E+02 -0.67564077631E+02 -0.50135043112E+02  0.15932834779E+03  0.12500690296E+03 0.  0.
          2    1    1    2  501    0  0.17927066400E+02  0.93060470665E+02 -0.21328223096E+04  0.21349268454E+04  0.00000000000E+00 0. -1.
          1    1    1    2  502    0  0.33845218547E+02 -0.25496393035E+02  0.17490152246E+04  0.17495284567E+04  0.00000000000E+00 0. -1.
         22    1    3    3    0    0  0.41199568034E+02 -0.29710057175E+02 -0.18927921845E+02  0.54206624400E+02  0.00000000000E+00 0. -1.
         22    1    3    3    0    0 -0.92971852981E+02 -0.37854020455E+02 -0.31207121267E+02  0.10512172339E+03  0.00000000000E+00 0. -1.
</event>
<event>
 7    1  0.5789396E-006  0.5634376E+02  0.7818608E-02  0.1529354E+00
          2   -1    0    0  502    0  0.00000000000E+00  0.00000000000E+00  0.56595770244E+03  0.56595770244E+03  0.00000000000E+00 0. -1.
          1   -1    0    0  501    0 -0.00000000000E+00 -0.00000000000E+00 -0.17670375281E+03  0.17670375281E+03  0.00000000000E+00 0. -1.
         25    2    1    2    0    0 -0.12284610356E+02  0.32275789181E+02  0.17187998527E+03  0.21531749824E+03  0.12500502988E+03 0.  0.
          2    1    1    2  501    0 -0.14415359475E+02  0.19992448673E+02 -0.15167112012E+03  0.15366076035E+03  0.00000000000E+00 0. -1.
          1    1    1    2  502    0  0.26699969831E+02 -0.52268237854E+02  0.36904508449E+03  0.37368319665E+03  0.00000000000E+00 0. -1.
         22    1    3    3    0    0  0.34998974474E+02  0.39281071056E+02  0.15649661017E+03  0.16510336081E+03  0.00000000000E+00 0. -1.
         22    1    3    3    0    0 -0.47283584830E+02 -0.70052818750E+01  0.15383375102E+02  0.50214137432E+02  0.00000000000E+00 0. -1.
</event>
<event>
 7    1  0.5789396E-006  0.1504109E+03  0.7818608E-02  0.1303870E+00
          2   -1    0    0  502    0  0.00000000000E+00  0.00000000000E+00  0.99465405931E+03  0.99465405931E+03  0.00000000000E+00 0. -1.
          1   -1    0    0  501    0 -0.00000000000E+00 -0.00000000000E+00 -0.91076773736E+03  0.91076773736E+03  0.00000000000E+00 0. -1.
         25    2    1    2    0    0  0.32721906400E+02  0.95910069848E+02  0.11249929777E+03  0.19634132163E+03  0.12499743166E+03 0.  0.
          2    1    1    2  501    0 -0.31658413520E+02 -0.14925153642E+03 -0.86128836631E+03  0.87469761988E+03  0.00000000000E+00 0. -1.
          1    1    1    2  502    0 -0.10634928805E+01  0.53341466568E+02  0.83267539049E+03  0.83438285517E+03  0.00000000000E+00 0. -1.
         22    1    3    3    0    0  0.24901511704E+02  0.10692131047E+03  0.31484182431E+02  0.11420816810E+03  0.00000000000E+00 0.  1.
         22    1    3    3    0    0  0.78203946964E+01 -0.11011240626E+02  0.81015115343E+02  0.82133153521E+02  0.00000000000E+00 0.  1.
</event>
<event>
 7    1  0.5789396E-006  0.1057605E+03  0.7818608E-02  0.1387991E+00
          2   -1    0    0  502    0  0.00000000000E+00  0.00000000000E+00  0.41777895069E+03  0.41777895069E+03  0.00000000000E+00 0. -1.
          1   -1    0    0  501    0 -0.00000000000E+00 -0.00000000000E+00 -0.22613356424E+04  0.22613356424E+04  0.00000000000E+00 0. -1.
         25    2    1    2    0    0  0.66361182458E+02  0.78077714304E+02 -0.64512327656E+03  0.66506369623E+03  0.12500296823E+03 0.  0.
          2    1    1    2  501    0 -0.37251165481E+02 -0.10063620043E+03 -0.16036138364E+04  0.16072002459E+04  0.00000000000E+00 0. -1.
          1    1    1    2  502    0 -0.29110016978E+02  0.22558486128E+02  0.40518042127E+03  0.40685065093E+03  0.00000000000E+00 0. -1.
         22    1    3    3    0    0 -0.17560462625E+02 -0.23791364519E+02 -0.11024992586E+03  0.11414659446E+03  0.00000000000E+00 0.  1.
         22    1    3    3    0    0  0.83921645083E+02  0.10186907882E+03 -0.53487335070E+03  0.55091710177E+03  0.00000000000E+00 0.  1.
</event>
<event>
 7    1  0.5789396E-006  0.9831794E+02  0.7818608E-02  0.1380057E+00
          2   -1    0    0  502    0  0.00000000000E+00  0.00000000000E+00  0.12488230129E+04  0.12488230129E+04  0.00000000000E+00 0. -1.
          1   -1    0    0  501    0 -0.00000000000E+00 -0.00000000000E+00 -0.50580365274E+03  0.50580365274E+03  0.00000000000E+00 0. -1.
         25    2    1    2    0    0  0.46203885904E+02 -0.91325314618E+02 -0.12569165608E+03  0.20467780146E+03  0.12497798942E+03 0.  0.
          2    1    1    2  501    0 -0.46336369318E+01  0.98856895311E+02 -0.33305140667E+03  0.34744409021E+03  0.00000000000E+00 0. -1.
          1    1    1    2  502    0 -0.41570248972E+02 -0.75315806932E+01  0.12017624229E+04  0.12025047739E+04  0.00000000000E+00 0. -1.
         22    1    3    3    0    0 -0.22279627096E+01 -0.34799362262E+02  0.20626089522E+02  0.40514133345E+02  0.00000000000E+00 0. -1.
         22    1    3    3    0    0  0.48431848613E+02 -0.56525952356E+02 -0.14631774560E+03  0.16416366811E+03  0.00000000000E+00 0. -1.
</event>
<event>
 7    1  0.5789396E-006  0.4719354E+02  0.7818608E-02  0.1543295E+00
          2   -1    0    0  502    0  0.00000000000E+00  0.00000000000E+00  0.12354361482E+04  0.12354361482E+04  0.00000000000E+00 0. -1.
          1   -1    0    0  501    0 -0.00000000000E+00 -0.00000000000E+00 -0.77705104109E+02  0.77705104109E+02  0.00000000000E+00 0. -1.
         25    2    1    2    0    0  0.19271369457E+02 -0.33777759692E+02  0.28378818541E+03  0.31252661478E+03  0.12499931213E+03 0.  0.
          2    1    1    2  501    0 -0.22984312158E+02 -0.13902025035E+02 -0.59848087530E+02  0.65599836025E+02  0.00000000000E+00 0. -1.
          1    1    1    2  502    0  0.37129427011E+01  0.47679784728E+02  0.93379094618E+03  0.93501480147E+03  0.00000000000E+00 0. -1.
         22    1    3    3    0    0  0.25029117299E+02 -0.78448582896E+02  0.21576016305E+03  0.23093956965E+03  0.00000000000E+00 0.  1.
         22    1    3    3    0    0 -0.57577478422E+01  0.44670823204E+02  0.68028022364E+02  0.81587045128E+02  0.00000000000E+00 0.  1.
</event>
<event>
 7    1  0.5789396E-006  0.6716164E+02  0.7818608E-02  0.1530762E+00
          2   -1    0    0  502    0  0.00000000000E+00  0.00000000000E+00  0.52410084620E+03  0.52410084620E+03  0.00000000000E+00 0. -1.
          1   -1    0    0  501    0 -0.00000000000E+00 -0.00000000000E+00 -0.33740274564E+03  0.33740274564E+03  0.00000000000E+00 0. -1.
         25    2    1    2    0    0 -0.41740188192E+02 -0.29024653144E+02 -0.67485579140E+02  0.15087811534E+03  0.12500091398E+03 0.  0.
          2    1    1    2  501    0  0.62165956930E+02  0.30598737028E+02 -0.22273689048E+03  0.23326510946E+03  0.00000000000E+00 0. -1.
          1    1    1    2  502    0 -0.20425768739E+02 -0.15740838840E+01  0.47692057017E+03  0.47736036704E+03  0.00000000000E+00 0. -1.
         22    1    3    3    0    0 -0.65216800624E+02  0.13862402376E+02  0.10599889435E+01  0.66682237964E+02  0.00000000000E+00 0.  1.
         22    1    3    3    0    0  0.23476612433E+02 -0.42887055521E+02 -0.68545568084E+02  0.84195877372E+02  0.00000000000E+00 0.  1.
</event>
<event>
 7    1  0.5789396E-006  0.1848957E+03  0.7818608E-02  0.1203200E+00
          2   -1    0    0  502    0  0.00000000000E+00  0.00000000000E+00  0.44610234119E+04  0.44610234119E+04  0.00000000000E+00 0. -1.
          1   -1    0    0  501    0 -0.00000000000E+00 -0.00000000000E+00 -0.11637573007E+04  0.11637573007E+04  0.00000000000E+00 0. -1.
         25    2    1    2    0    0  0.25193711670E+03  0.14498120024E+02  0.32540281506E+03  0.43034211358E+03  0.12499934566E+03 0.  0.
          2    1    1    2  501    0 -0.91774319742E+02  0.74410888269E+02 -0.11060852579E+04  0.11123776804E+04  0.00000000000E+00 0. -1.
          1    1    1    2  502    0 -0.16016279695E+03 -0.88909008293E+02  0.40779485541E+04  0.40820609186E+04  0.00000000000E+00 0. -1.
         22    1    3    3    0    0  0.52703333667E+02 -0.41964082998E+02  0.42160141782E+02  0.79473915196E+02  0.00000000000E+00 0. -1.
         22    1    3    3    0    0  0.19923378303E+03  0.56462203022E+02  0.28324267328E+03  0.35086819838E+03  0.00000000000E+00 0. -1.
</event>
<event>
 7    1  0.5789396E-006  0.1440391E+03  0.7818608E-02  0.1330497E+00
          2   -1    0    0  502    0  0.00000000000E+00  0.00000000000E+00  0.27037780841E+04  0.27037780841E+04  0.00000000000E+00 0. -1.
          1   -1    0    0  501    0 -0.00000000000E+00 -0.00000000000E+00 -0.41968159039E+03  0.41968159039E+03  0.00000000000E+00 0. -1.
         25    2    1    2    0    0 -0.15139016255E+02  0.11253941276E+03  0.49210070630E+03  0.52027116952E+03  0.12499870179E+03 0.  0.
          2    1    1    2  501    0 -0.32347226424E+02  0.29636377985E+02 -0.40184504656E+03  0.40423272926E+03  0.00000000000E+00 0. -1.
          1    1    1    2  502    0  0.47486242679E+02 -0.14217579075E+03  0.21938408340E+04  0.21989557758E+04  0.00000000000E+00 0. -1.
         22    1    3    3    0    0  0.48933949913E+01  0.56495951395E+02  0.43193687318E+03  0.43564343247E+03  0.00000000000E+00 0.  1.
         22    1    3    3    0    0 -0.20032411246E+02  0.56043461366E+02  0.60163833122E+02  0.84627737050E+02  0.00000000000E+00 0.  1.
</event>
<event>
 7    1  0.5789396E-006  0.1416849E+03  0.7818608E-02  0.1282953E+00
          2   -1    0    0  502    0  0.00000000000E+00  0.00000000000E+00  0.13233087331E+04  0.13233087331E+04  0.00000000000E+00 0. -1.
          1   -1    0    0  501    0 -0.00000000000E+00 -0.00000000000E+00 -0.73194720555E+03  0.73194720555E+03  0.00000000000E+00 0. -1.
         25    2    1    2    0    0  0.43149793809E+02 -0.17604143674E+03 -0.31302116328E+03  0.38269929937E+03  0.12499605162E+03 0.  0.
          2    1    1    2  501    0 -0.67951101019E+02  0.11184393965E+03 -0.37198547413E+03  0.39433439100E+03  0.00000000000E+00 0. -1.
          1    1    1    2  502    0  0.24801307210E+02  0.64197497095E+02  0.12763681650E+04  0.12782222483E+04  0.00000000000E+00 0. -1.
         22    1    3    3    0    0  0.65357931258E+02 -0.16848510333E+03 -0.31029257377E+03  0.35908267928E+03  0.00000000000E+00 0. -1.
         22    1    3    3    0    0 -0.22208137448E+02 -0.75563334148E+01 -0.27285895058E+01  0.23616620086E+02  0.00000000000E+00 0. -1.
</event>
<event>
 7    1  0.5789396E-006  0.5217390E+02  0.7818608E-02  0.1443313E+00
          2   -1    0    0  502    0  0.00000000000E+00  0.00000000000E+00  0.35205539031E+03  0.35205539031E+03  0.00000000000E+00 0. -1.
          1   -1    0    0  501    0 -0.00000000000E+00 -0.00000000000E+00 -0.37398269554E+03  0.37398269554E+03  0.00000000000E+00 0. -1.
         25    2    1    2    0    0  0.90035009811E+01  0.29416789702E+02  0.83145617742E+02  0.15324685479E+03  0.12499997683E+03 0.  0.
          2    1    1    2  501    0 -0.47419883740E+02  0.10843573762E+02 -0.33383378246E+03  0.33735918956E+03  0.00000000000E+00 0. -1.
          1    1    1    2  502    0  0.38416382759E+02 -0.40260363464E+02  0.22876085949E+03  0.23543204150E+03  0.00000000000E+00 0. -1.
         22    1    3    3    0    0  0.25623624247E+02 -0.38432788349E+02  0.20838465598E+01  0.46238422943E+02  0.00000000000E+00 0. -1.
         22    1    3    3    0    0 -0.16620123266E+02  0.67849578051E+02  0.81061771182E+02  0.10700843185E+03  0.00000000000E+00 0. -1.
</event>
<event>
 7    1  0.5789396E-006  0.1908926E+03  0.7818608E-02  0.1260232E+00
          2   -1    0    0  502    0  0.00000000000E+00  0.00000000000E+00  0.59629019858E+03  0.59629019858E+03  0.00000000000E+00 0. -1.
          1   -1    0    0  501    0 -0.00000000000E+00 -0.00000000000E+00 -0.98154747099E+03  0.98154747099E+03  0.00000000000E+00 0. -1.
         25    2    1    2    0    0  0.19573232716E+03 -0.10234780505E+03 -0.43504176873E+03  0.50365858176E+03  0.12499763736E+03 0.  0.
          2    1    1    2  501    0 -0.13422165306E+03  0.11850393694E+03 -0.49464196764E+03  0.52605067376E+03  0.00000000000E+00 0. -1.
          1    1    1    2  502    0 -0.61510674097E+02 -0.16156131885E+02  0.54442646396E+03  0.54812841405E+03  0.00000000000E+00 0. -1.
         22    1    3    3    0    0  0.98951901285E+02 -0.11987094018E+03 -0.26740134480E+03  0.30929597518E+03  0.00000000000E+00 0. -1.
         22    1    3    3    0    0  0.96780425871E+02  0.17523135125E+02 -0.16764042394E+03  0.19436260658E+03  0.00000000000E+00 0. -1.
</event>
<event>
 7    1  0.5789396E-006  0.5870464E+02  0.7818608E-02  0.1473769E+00
          2   -1    0    0  502    0  0.00000000000E+00  0.00000000000E+00  0.82831164439E+03  0.82831164439E+03  0.00000000000E+00 0. -1.
          1   -1    0    0  501    0 -0.00000000000E+00 -0.00000000000E+00 -0.47870211596E+03  0.47870211596E+03  0.00000000000E+00 0. -1.
         25    2    1    2    0    0 -0.32390998683E+02  0.23618145701E+02  0.17913142454E+03  0.22208851944E+03  0.12501299775E+03 0.  0.
          2    1    1    2  501    0  0.10982322780E+02  0.32848371100E+02 -0.45511158052E+03  0.45642762583E+03  0.00000000000E+00 0. -1.
          1    1    1    2  502    0  0.21408675903E+02 -0.56466516801E+02  0.62558968441E+03  0.62849761508E+03  0.00000000000E+00 0. -1.
         22    1    3    3    0    0 -0.32203950699E+02  0.20277784275E+02  0.19866159985E+03  0.20227385948E+03  0.00000000000E+00 0. -1.
         22    1    3    3    0    0 -0.18704798304E+00  0.33403614255E+01 -0.19530175311E+02  0.19814659954E+02  0.00000000000E+00 0. -1.
</event>
<event>
 7    1  0.5789396E-006  0.8305454E+02  0.7818608E-02  0.1372349E+00
          2   -1    0    0  502    0  0.00000000000E+00  0.00000000000E+00  0.17056511392E+03  0.17056511392E+03  0.00000000000E+00 0. -1.
          1   -1    0    0  501    0 -0.00000000000E+00 -0.00000000000E+00 -0.27058628637E+03  0.27058628637E+03  0.00000000000E+00 0. -1.
         25    2    1    2    0    0  0.43172385734E+02  0.47046055889E+02 -0.11111671148E+03  0.17902164866E+03  0.12499856342E+03 0.  0.
          2    1    1    2  501    0 -0.36418597795E+02  0.38883014018E+02 -0.10487787408E+03  0.11763320754E+03  0.00000000000E+00 0. -1.
          1    1    1    2  502    0 -0.67537879389E+01 -0.85929069907E+02  0.11597341310E+03  0.14449654409E+03  0.00000000000E+00 0. -1.
         22    1    3    3    0    0  0.24318825572E+02  0.89940255038E+02 -0.79710489307E+02  0.12261491287E+03  0.00000000000E+00 0.  1.
         22    1    3    3    0    0  0.18853560161E+02 -0.42894199149E+02 -0.31406222172E+02  0.56406735791E+02  0.00000000000E+00 0.  1.
</event>
<event>
 7    1  0.5789396E-006  0.5954410E+02  0.7818608E-02  0.1486623E+00
          2   -1    0    0  502    0  0.00000000000E+00  0.00000000000E+00  0.15250128232E+04  0.15250128232E+04  0.00000000000E+00 0. -1.
          1   -1    0    0  501    0 -0.00000000000E+00 -0.00000000000E+00 -0.18641010351E+03  0.18641010351E+03  0.00000000000E+00 0. -1.
         25    2    1    2    0    0  0.10690872975E+01 -0.86266558698E+02  0.51946468850E+02  0.16052039009E+03  0.12500119164E+03 0.  0.
          2    1    1    2  501    0  0.10073795757E+02  0.57140910214E+02 -0.12557257554E+03  0.13832944990E+03  0.00000000000E+00 0. -1.
          1    1    1    2  502    0 -0.11142883055E+02  0.29125648484E+02  0.14122288264E+04  0.14125730867E+04  0.00000000000E+00 0. -1.
         22    1    3    3    0    0  0.94071115167E-01 -0.31071307493E+02 -0.41586128205E+02  0.51911858547E+02  0.00000000000E+00 0.  1.
         22    1    3    3    0    0  0.97501618234E+00 -0.55195251205E+02  0.93532597055E+02  0.10860853154E+03  0.00000000000E+00 0.  1.
</event>
<event>
 7    1  0.5789396E-006  0.4330117E+02  0.7818608E-02  0.1517404E+00
          2   -1    0    0  502    0  0.00000000000E+00  0.00000000000E+00  0.12035495790E+04  0.12035495790E+04  0.00000000000E+00 0. -1.
          1   -1    0    0  501    0 -0.00000000000E+00 -0.00000000000E+00 -0.29379543843E+03  0.29379543843E+03  0.00000000000E+00 0. -1.
         25    2    1    2    0    0  0.55779290115E+01  0.99083743991E+01 -0.78604766740E+02  0.14809865440E+03  0.12500085162E+03 0.  0.
          2    1    1    2  501    0 -0.18013525687E+02 -0.42332193359E+02 -0.17724856757E+03  0.18312169835E+03  0.00000000000E+00 0. -1.
          1    1    1    2  502    0  0.12435596676E+02  0.32423818960E+02  0.11656074748E+04  0.11661246646E+04  0.00000000000E+00 0. -1.
         22    1    3    3    0    0  0.10472882180E+02  0.56043936683E+02 -0.83861931865E+02  0.10140723700E+03  0.00000000000E+00 0.  1.
         22    1    3    3    0    0 -0.48949531688E+01 -0.46135562284E+02  0.52571651250E+01  0.46691417401E+02  0.00000000000E+00 0.  1.
</event>
<event>
 7    1  0.5789396E-006  0.3741709E+02  0.7818608E-02  0.1557311E+00
          2   -1    0    0  502    0  0.00000000000E+00  0.00000000000E+00  0.13891392594E+04  0.13891392594E+04  0.00000000000E+00 0. -1.
          1   -1    0    0  501    0 -0.00000000000E+00 -0.00000000000E+00 -0.66522662473E+02  0.66522662473E+02  0.00000000000E+00 0. -1.
         25    2    1    2    0    0 -0.30068405469E+02  0.60435934818E+02  0.11139811099E+04  0.11230031020E+04  0.12500177085E+03 0.  0.
          2    1    1    2  501    0  0.20886894497E+02 -0.30864003731E+02 -0.55424983964E+02  0.66789055506E+02  0.00000000000E+00 0. -1.
          1    1    1    2  502    0  0.91815109719E+01 -0.29571931087E+02  0.26406047104E+03  0.26586976439E+03  0.00000000000E+00 0. -1.
         22    1    3    3    0    0 -0.25825521784E+02 -0.23534011762E+02  0.68325809315E+03  0.68415088185E+03  0.00000000000E+00 0.  1.
         22    1    3    3    0    0 -0.42428836852E+01  0.83969946579E+02  0.43072301672E+03  0.43885222014E+03  0.00000000000E+00 0.  1.
</event>
<event>
 7    1  0.5789396E-006  0.7788693E+02  0.7818608E-02  0.1346834E+00
          2   -1    0    0  502    0  0.00000000000E+00  0.00000000000E+00  0.33107069054E+02  0.33107069054E+02  0.00000000000E+00 0. -1.
          1   -1    0    0  501    0 -0.00000000000E+00 -0.00000000000E+00 -0.13858943905E+04  0.13858943905E+04  0.00000000000E+00 0. -1.
         25    2    1    2    0    0  0.33459411244E+02 -0.10976922203E+03 -0.38663026420E+03  0.42222780644E+03  0.12499818009E+03 0.  0.
          2    1    1    2  501    0  0.24889840288E+02  0.65858580831E+02 -0.88421503204E+03  0.88701357357E+03  0.00000000000E+00 0. -1.
          1    1    1    2  502    0 -0.58349251532E+02  0.43910641203E+02 -0.81942025183E+02  0.10976007952E+03  0.00000000000E+00 0. -1.
         22    1    3    3    0    0  0.49040581806E+02 -0.88877725343E+02 -0.13324916773E+03  0.16750990845E+03  0.00000000000E+00 0. -1.
         22    1    3    3    0    0 -0.15581170562E+02 -0.20891496691E+02 -0.25338109647E+03  0.25471789799E+03  0.00000000000E+00 0. -1.
</event>
<event>
 7    1  0.5789396E-006  0.9363178E+02  0.7818608E-02  0.1320973E+00
          2   -1    0    0  502    0  0.00000000000E+00  0.00000000000E+00  0.20083956229E+03  0.20083956229E+03  0.00000000000E+00 0. -1.
          1   -1    0    0  501    0 -0.00000000000E+00 -0.00000000000E+00 -0.17724390300E+04  0.17724390300E+04  0.00000000000E+00 0. -1.
         25    2    1    2    0    0  0.41361576587E+02  0.41347217290E+02 -0.87116286812E+03  0.88202656840E+03  0.12500300872E+03 0.  0.
          2    1    1    2  501    0 -0.48364007635E+02 -0.11443985562E+03 -0.88444798766E+03  0.89313145766E+03  0.00000000000E+00 0. -1.
          1    1    1    2  502    0  0.70024310481E+01  0.73092638333E+02  0.18401138807E+03  0.19812056622E+03  0.00000000000E+00 0. -1.
         22    1    3    3    0    0  0.87531196222E+01  0.83774128586E+02 -0.50561005483E+03  0.51257804212E+03  0.00000000000E+00 0. -1.
         22    1    3    3    0    0  0.32608456965E+02 -0.42426911297E+02 -0.36555281329E+03  0.36944852628E+03  0.00000000000E+00 0. -1.
</event>
<event>
 7    1  0.5789396E-006  0.1759840E+03  0.7818608E-02  0.1349779E+00
          2   -1    0    0  502    0  0.00000000000E+00  0.00000000000E+00  0.33639242165E+03  0.33639242165E+03  0.00000000000E+00 0. -1.
          1   -1    0    0  501    0 -0.00000000000E+00 -0.00000000000E+00 -0.10875578893E+04  0.10875578893E+04  0.00000000000E+00 0. -1.
         25    2    1    2    0    0 -0.15493908899E+03  0.17550971949E+02  0.10916323315E+03  0.22773734684E+03  0.12503411440E+03 0.  0.
          2    1    1    2  501    0  0.17166770358E+03 -0.42915845472E+02 -0.10192078151E+04  0.10344545136E+04  0.00000000000E+00 0. -1.
          1    1    1    2  502    0 -0.16728614584E+02  0.25364873523E+02  0.15887911432E+03  0.16175845054E+03  0.00000000000E+00 0. -1.
         22    1    3    3    0    0 -0.54802182537E+02 -0.23188696573E+02 -0.16714050858E+02  0.61809015165E+02  0.00000000000E+00 0.  1.
         22    1    3    3    0    0 -0.10013690645E+03  0.40739668522E+02  0.12587728400E+03  0.16592833168E+03  0.00000000000E+00 0.  1.
</event>
<event>
 7    1  0.5789396E-006  0.6509297E+02  0.7818608E-02  0.1473208E+00
          2   -1    0    0  502    0  0.00000000000E+00  0.00000000000E+00  0.18226162230E+03  0.18226162230E+03  0.00000000000E+00 0. -1.
          1   -1    0    0  501    0 -0.00000000000E+00 -0.00000000000E+00 -0.11111957550E+04  0.11111957550E+04  0.00000000000E+00 0. -1.
         25    2    1    2    0    0  0.27601907932E+02  0.91223392127E+02 -0.32192678473E+03  0.35825194078E+03  0.12499610298E+03 0.  0.
          2    1    1    2  501    0 -0.13722154522E+02 -0.28200349723E+02 -0.76442783736E+03  0.76507089592E+03  0.00000000000E+00 0. -1.
          1    1    1    2  502    0 -0.13879753410E+02 -0.63023042404E+02  0.15742048938E+03  0.17013454060E+03  0.00000000000E+00 0. -1.
         22    1    3    3    0    0 -0.19640315063E+02  0.19735559936E+01  0.11386641335E+01  0.19772037200E+02  0.00000000000E+00 0. -1.
         22    1    3    3    0    0  0.47242222995E+02  0.89249836133E+02 -0.32306544886E+03  0.33847990358E+03  0.00000000000E+00 0. -1.
</event>
<event>
 7    1  0.5789396E-006  0.7187452E+02  0.7818608E-02  0.1454245E+00
          2   -1    0    0  502    0  0.00000000000E+00  0.00000000000E+00  0.77632556053E+03  0.77632556053E+03  0.00000000000E+00 0. -1.
          1   -1    0    0  501    0 -0.00000000000E+00 -0.00000000000E+00 -0.27414283617E+02  0.27414283617E+02  0.00000000000E+00 0. -1.
         25    2    1    2    0    0  0.16848319129E+02 -0.45890998497E+02  0.39433001522E+03  0.41654621471E+03  0.12499895394E+03 0.  0.
          2    1    1    2  501    0 -0.83199564222E+01  0.77328523550E+02  0.83301319647E+02  0.11396504764E+03  0.00000000000E+00 0. -1.
          1    1    1    2  502    0 -0.85283627068E+01 -0.31437525053E+02  0.27127994204E+03  0.27322858179E+03  0.00000000000E+00 0. -1.
         22    1    3    3    0    0 -0.14524569192E+02 -0.67481399415E+02  0.11131222997E+03  0.13097753593E+03  0.00000000000E+00 0. -1.
         22    1    3    3    0    0  0.31372888321E+02  0.21590400918E+02  0.28301778525E+03  0.28556867878E+03  0.00000000000E+00 0. -1.
</event>
<event>
 7    1  0.5789396E-006  0.1612417E+03  0.7818608E-02  0.1256131E+00
          2   -1    0    0  502    0  0.00000000000E+00  0.00000000000E+00  0.60624064890E+03  0.60624064890E+03  0.00000000000E+00 0. -1.
          1   -1    0    0  501    0 -0.00000000000E+00 -0.00000000000E+00 -0.10048322570E+04  0.10048322570E+04  0.00000000000E+00 0. -1.
         25    2    1    2    0    0 -0.12582979480E+03 -0.14519441414E+03  0.22566456317E+03  0.32165831714E+03  0.12500009102E+03 0.  0.
          2    1    1    2  501    0  0.14520412982E+03  0.69228231919E+02 -0.94532437539E+03  0.95891342785E+03  0.00000000000E+00 0. -1.
          1    1    1    2  502    0 -0.19374335020E+02  0.75966182221E+02  0.32106820409E+03  0.33050116093E+03  0.00000000000E+00 0. -1.
         22    1    3    3    0    0  0.20934428182E+02 -0.48208438919E+02  0.41402544221E+02  0.66906461080E+02  0.00000000000E+00 0. -1.
         22    1    3    3    0    0 -0.14676422298E+03 -0.96985975221E+02  0.18426201895E+03  0.25475185606E+03  0.00000000000E+00 0. -1.
</event>
<event>
 7    1  0.5789396E-006  0.3134587E+02  0.7818608E-02  0.1590538E+00
          2   -1    0    0  502    0  0.00000000000E+00  0.00000000000E+00  0.68736234836E+02  0.68736234836E+02  0.00000000000E+00 0. -1.
          1   -1    0    0  501    0 -0.00000000000E+00 -0.00000000000E+00 -0.20274750770E+03  0.20274750770E+03  0.00000000000E+00 0. -1.
         25    2    1    2    0    0 -0.32945064910E+01 -0.46233033556E+00 -0.14254184324E+03  0.18961628057E+03  0.12500035704E+03 0.  0.
          2    1    1    2  501    0 -0.24612258979E+02  0.17251770372E+02 -0.21983645232E+02  0.37237985051E+02  0.00000000000E+00 0. -1.
          1    1    1    2  502    0  0.27906765469E+02 -0.16789440036E+02  0.30514215606E+02  0.44629476915E+02  0.00000000000E+00 0. -1.
         22    1    3    3    0    0  0.31199367838E+02  0.20147825986E+02 -0.14468632972E+03  0.14937693749E+03  0.00000000000E+00 0. -1.
         22    1    3    3    0    0 -0.34493874329E+02 -0.20610156321E+02  0.21444864766E+01  0.40239343087E+02  0.00000000000E+00 0. -1.
</event>
<event>
 7    1  0.5789396E-006  0.8869481E+02  0.7818608E-02  0.1430293E+00
          2   -1    0    0  502    0  0.00000000000E+00  0.00000000000E+00  0.31491682040E+04  0.31491682040E+04  0.00000000000E+00 0. -1.
          1   -1    0    0  501    0 -0.00000000000E+00 -0.00000000000E+00 -0.30927578185E+03  0.30927578185E+03  0.00000000000E+00 0. -1.
         25    2    1    2    0    0 -0.28273559756E+02 -0.52776350222E+02  0.13925615946E+04  0.13994420324E+04  0.12500188021E+03 0.  0.
          2    1    1    2  501    0  0.27930758202E+02  0.84326853953E+02 -0.29923958624E+03  0.31214656097E+03  0.00000000000E+00 0. -1.
          1    1    1    2  502    0  0.34280155429E+00 -0.31550503732E+02  0.17465704138E+04  0.17468553925E+04  0.00000000000E+00 0. -1.
         22    1    3    3    0    0 -0.67404215225E+02 -0.68674438475E+02  0.93852099096E+03  0.94344112545E+03  0.00000000000E+00 0.  1.
         22    1    3    3    0    0  0.39130655469E+02  0.15898088254E+02  0.45404060361E+03  0.45600090694E+03  0.00000000000E+00 0.  1.
</event>
<event>
 7    1  0.5789396E-006  0.2641543E+03  0.7818608E-02  0.1197052E+00
          2   -1    0    0  502    0  0.00000000000E+00  0.00000000000E+00  0.16650730989E+04  0.16650730989E+04  0.00000000000E+00 0. -1.
          1   -1    0    0  501    0 -0.00000000000E+00 -0.00000000000E+00 -0.18900262572E+04  0.18900262572E+04  0.00000000000E+00 0. -1.
         25    2    1    2    0    0 -0.23621416987E+03  0.24166350145E+03  0.41997906113E+03  0.55336001582E+03  0.12500605325E+03 0.  0.
          2    1    1    2  501    0  0.62270984967E+02 -0.62756065918E+02 -0.18090347601E+04  0.18111937397E+04  0.00000000000E+00 0. -1.
          1    1    1    2  502    0  0.17394318491E+03 -0.17890743553E+03  0.11641025407E+04  0.11905456007E+04  0.00000000000E+00 0. -1.
         22    1    3    3    0    0 -0.23343201844E+03  0.23576275615E+03  0.42893944974E+03  0.54227634650E+03  0.00000000000E+00 0. -1.
         22    1    3    3    0    0 -0.27821514312E+01  0.59007452923E+01 -0.89603886177E+01  0.11083669328E+02  0.00000000000E+00 0. -1.
</event>
<event>
 7    1  0.5789396E-006  0.7826625E+02  0.7818608E-02  0.1393515E+00
          2   -1    0    0  502    0  0.00000000000E+00  0.00000000000E+00  0.43194214573E+03  0.43194214573E+03  0.00000000000E+00 0. -1.
          1   -1    0    0  501    0 -0.00000000000E+00 -0.00000000000E+00 -0.21160664793E+04  0.21160664793E+04  0.00000000000E+00 0. -1.
         25    2    1    2    0    0 -0.34325782456E+02  0.68241380450E+02  0.28206643351E+02  0.14918293242E+03  0.12499914900E+03 0.  0.
          2    1    1    2  501    0 -0.35939713354E+02 -0.31220447560E+02 -0.20507041777E+04  0.20512566889E+04  0.00000000000E+00 0. -1.
          1    1    1    2  502    0  0.70265495810E+02 -0.37020932890E+02  0.33837320074E+03  0.34756900373E+03  0.00000000000E+00 0. -1.
         22    1    3    3    0    0 -0.94923462083E+01 -0.93852519354E+01 -0.40463300074E+02  0.42608288434E+02  0.00000000000E+00 0.  1.
         22    1    3    3    0    0 -0.24833436248E+02  0.77626632385E+02  0.68669943425E+02  0.10657464399E+03  0.00000000000E+00 0.  1.
</event>
<event>
 7    1  0.5789396E-006  0.1151305E+03  0.7818608E-02  0.1368015E+00
          2   -1    0    0  502    0  0.00000000000E+00  0.00000000000E+00  0.18832531236E+03  0.18832531236E+03  0.00000000000E+00 0. -1.
          1   -1    0    0  501    0 -0.00000000000E+00 -0.00000000000E+00 -0.59844854159E+03  0.59844854159E+03  0.00000000000E+00 0. -1.
         25    2    1    2    0    0 -0.13308821802E+03 -0.63515819637E+02 -0.34681371785E+02  0.19640416594E+03  0.12500026291E+03 0.  0.
          2    1    1    2  501    0  0.93254688456E+02  0.63115872781E+02 -0.47235349155E+03  0.48559022982E+03  0.00000000000E+00 0. -1.
          1    1    1    2  502    0  0.39833529568E+02  0.39994685608E+00  0.96911634101E+02  0.10477945819E+03  0.00000000000E+00 0. -1.
         22    1    3    3    0    0 -0.73632581037E+02 -0.35842092781E+02  0.44811301479E+02  0.93351300716E+02  0.00000000000E+00 0. -1.
         22    1    3    3    0    0 -0.59455636987E+02 -0.27673726855E+02 -0.79492673265E+02  0.10305286522E+03  0.00000000000E+00 0. -1.
</event>
<event>
 7    1  0.5789396E-006  0.5547318E+02  0.7818608E-02  0.1448702E+00
          2   -1    0    0  502    0  0.00000000000E+00  0.00000000000E+00  0.86895852359E+03  0.86895852359E+03  0.00000000000E+00 0. -1.
          1   -1    0    0  501    0 -0.00000000000E+00 -0.00000000000E+00 -0.13423456812E+03  0.13423456812E+03  0.00000000000E+00 0. -1.
         25    2    1    2    0    0 -0.94297911073E+02  0.26355235384E+02  0.71456098933E+02  0.17411832109E+03  0.12499808479E+03 0.  0.
          2    1    1    2  501    0  0.43531843606E+02 -0.61212156729E+01 -0.75995532671E+02  0.87794143740E+02  0.00000000000E+00 0. -1.
          1    1    1    2  502    0  0.50766067467E+02 -0.20234019711E+02  0.73926338921E+03  0.74128062688E+03  0.00000000000E+00 0. -1.
         22    1    3    3    0    0  0.13478120846E+02  0.47026082634E+02  0.18919700469E+02  0.52450617301E+02  0.00000000000E+00 0. -1.
         22    1    3    3    0    0 -0.10777603192E+03 -0.20670847250E+02  0.52536398465E+02  0.12166770379E+03  0.00000000000E+00 0. -1.
</event>
<event>
 7    1  0.5789396E-006  0.3793984E+02  0.7818608E-02  0.1590736E+00
          2   -1    0    0  502    0  0.00000000000E+00  0.00000000000E+00  0.99945081114E+03  0.99945081114E+03  0.00000000000E+00 0. -1.
          1   -1    0    0  501    0 -0.00000000000E+00 -0.00000000000E+00 -0.14892239954E+04  0.14892239954E+04  0.00000000000E+00 0. -1.
         25    2    1    2    0    0 -0.20955620196E+02 -0.58810517393E+02 -0.66235977207E+01  0.13988061248E+03  0.12499959491E+03 0.  0.
          2    1    1    2  501    0  0.15077704729E+02  0.34714375983E+02 -0.14155540422E+04  0.14160599110E+04  0.00000000000E+00 0. -1.
          1    1    1    2  502    0  0.58779154664E+01  0.24096141410E+02  0.93240445566E+03  0.93273428309E+03  0.00000000000E+00 0. -1.
         22    1    3    3    0    0 -0.69986420593E+02 -0.49951730797E+02  0.11735138908E+02  0.86781265041E+02  0.00000000000E+00 0. -1.
         22    1    3    3    0    0  0.49030800397E+02 -0.88587865964E+01 -0.18358736629E+02  0.53099347436E+02  0.00000000000E+00 0. -1.
</event>
<event>
 7    1  0.5789396E-006  0.1092220E+03  0.7818608E-02  0.1266864E+00
          2   -1    0    0  502    0  0.00000000000E+00  0.00000000000E+00  0.26255353295E+03  0.26255353295E+03  0.00000000000E+00 0. -1.
          1   -1    0    0  501    0 -0.00000000000E+00 -0.00000000000E+00 -0.61929525003E+03  0.61929525003E+03  0.00000000000E+00 0. -1.
         25    2    1    2    0    0 -0.55413617063E+00 -0.35206405438E+02 -0.22023984246E+03  0.25567538399E+03  0.12499806287E+03 0.  0.
          2    1    1    2  501    0 -0.10759229660E+03  0.18797223240E+02 -0.36061414546E+03  0.37679171938E+03  0.00000000000E+00 0. -1.
          1    1    1    2  502    0  0.10814643277E+03  0.16409182197E+02  0.22411227084E+03  0.24938167961E+03  0.00000000000E+00 0. -1.
         22    1    3    3    0    0 -0.46160424010E+01 -0.15972621591E+02 -0.23211450591E+03  0.23270920984E+03  0.00000000000E+00 0.  1.
         22    1    3    3    0    0  0.40619062304E+01 -0.19233783846E+02  0.11874663452E+02  0.22966174156E+02  0.00000000000E+00 0.  1.
</event>
<event>
 7    1  0.5789396E-006  0.7840603E+02  0.7818608E-02  0.1359934E+00
          2   -1    0    0  502    0  0.00000000000E+00  0.00000000000E+00  0.51910302090E+03  0.51910302090E+03  0.00000000000E+00 0. -1.
          1   -1    0    0  501    0 -0.00000000000E+00 -0.00000000000E+00 -0.86639465879E+03  0.86639465879E+03  0.00000000000E+00 0. -1.
         25    2    1    2    0    0 -0.11515746739E+03  0.55391244255E+02 -0.83104041225E+02  0.19713044412E+03  0.12499879238E+03 0.  0.
          2    1    1    2  501    0  0.76692570883E+02 -0.60298035249E+01 -0.72210619233E+03  0.72619244141E+03  0.00000000000E+00 0. -1.
          1    1    1    2  502    0  0.38464896505E+02 -0.49361440730E+02  0.45791859567E+03  0.46217479416E+03  0.00000000000E+00 0. -1.
         22    1    3    3    0    0 -0.84429743036E+02 -0.10934097778E+02 -0.89782042966E+02  0.12372853851E+03  0.00000000000E+00 0. -1.
         22    1    3    3    0    0 -0.30727724352E+02  0.66325342033E+02  0.66780017415E+01  0.73401905609E+02  0.00000000000E+00 0. -1.
</event>
<event>
 7    1  0.5789396E-006  0.7882852E+03  0.7818608E-02  0.1080338E+00
          2   -1    0    0  502    0  0.00000000000E+00  0.00000000000E+00  0.15575745536E+04  0.15575745536E+04  0.00000000000E+00 0. -1.
          1   -1    0    0  501    0 -0.00000000000E+00 -0.00000000000E+00 -0.13788674635E+04  0.13788674635E+04  0.00000000000E+00 0. -1.
         25    2    1    2    0    0 -0.83315868542E+03  0.15567924443E+03 -0.25186743233E+03  0.89300063903E+03  0.12499406229E+03 0.  0.
          2    1    1    2  501    0  0.57969132163E+02 -0.10725980112E+03 -0.67854236765E+03  0.68940904398E+03  0.00000000000E+00 0. -1.
          1    1    1    2  502    0  0.77518955325E+03 -0.48419443314E+02  0.11091168901E+04  0.13540323341E+04  0.00000000000E+00 0. -1.
         22    1    3    3    0    0 -0.20489441904E+03  0.72535204766E+02 -0.10986854242E+03  0.24354501739E+03  0.00000000000E+00 0.  1.
         22    1    3    3    0    0 -0.62826426638E+03  0.83144039666E+02 -0.14199888991E+03  0.64945562164E+03  0.00000000000E+00 0.  1.
</event>
<event>
 7    1  0.5789396E-006  0.4218677E+02  0.7818608E-02  0.1503545E+00
          2   -1    0    0  502    0  0.00000000000E+00  0.00000000000E+00  0.44130659021E+03  0.44130659021E+03  0.00000000000E+00 0. -1.
          1   -1    0    0  501    0 -0.00000000000E+00 -0.00000000000E+00 -0.33393701925E+02  0.33393701925E+02  0.00000000000E+00 0. -1.
         25    2    1    2    0    0 -0.81588352362E+01 -0.15209671354E+02  0.18123912154E+03  0.22084091530E+03  0.12500076000E+03 0.  0.
          2    1    1    2  501    0  0.29044471286E+02 -0.26255055478E+02  0.23971267865E+02  0.45907852634E+02  0.00000000000E+00 0. -1.
          1    1    1    2  502    0 -0.20885636050E+02  0.41464726832E+02  0.20270249888E+03  0.20795152420E+03  0.00000000000E+00 0. -1.
         22    1    3    3    0    0  0.49548332985E+02 -0.33978556778E+02  0.58179014335E+02  0.83632394030E+02  0.00000000000E+00 0.  1.
         22    1    3    3    0    0 -0.57707168221E+02  0.18768885424E+02  0.12306010720E+03  0.13720852127E+03  0.00000000000E+00 0.  1.
</event>
<event>
 7    1  0.5789396E-006  0.5398443E+02  0.7818608E-02  0.1501981E+00
          2   -1    0    0  502    0  0.00000000000E+00  0.00000000000E+00  0.27250833664E+04  0.27250833664E+04  0.00000000000E+00 0. -1.
          1   -1    0    0  501    0 -0.00000000000E+00 -0.00000000000E+00 -0.53888702593E+03  0.53888702593E+03  0.00000000000E+00 0. -1.
         25    2    1    2    0    0 -0.74415285579E+02 -0.92236926568E+01 -0.45748923187E+03  0.48014320345E+03  0.12497354643E+03 0.  0.
          2    1    1    2  501    0  0.21927539246E+02  0.21807457602E+02 -0.66376749826E+02  0.73227420423E+02  0.00000000000E+00 0. -1.
          1    1    1    2  502    0  0.52487746334E+02 -0.12583764946E+02  0.27100623222E+04  0.27105997685E+04  0.00000000000E+00 0. -1.
         22    1    3    3    0    0 -0.99772481840E+02 -0.15872257728E+02 -0.23079212598E+03  0.25193547212E+03  0.00000000000E+00 0. -1.
         22    1    3    3    0    0  0.25357196260E+02  0.66485650710E+01 -0.22669710590E+03  0.22820773133E+03  0.00000000000E+00 0. -1.
</event>
<event>
 7    1  0.5789396E-006  0.1197127E+03  0.7818608E-02  0.1378758E+00
          2   -1    0    0  502    0  0.00000000000E+00  0.00000000000E+00  0.43419900422E+03  0.43419900422E+03  0.00000000000E+00 0. -1.
          1   -1    0    0  501    0 -0.00000000000E+00 -0.00000000000E+00 -0.85395851402E+02  0.85395851402E+02  0.00000000000E+00 0. -1.
         25    2    1    2    0    0  0.78782937494E+02  0.90118347800E+02  0.77420078817E+02  0.18959369867E+03  0.12499533640E+03 0.  0.
          2    1    1    2  501    0  0.23476578203E+02 -0.26048417428E+02  0.23515731838E+01  0.35145407539E+02  0.00000000000E+00 0. -1.
          1    1    1    2  502    0 -0.10225951570E+03 -0.64069930372E+02  0.26903150082E+03  0.29485574941E+03  0.00000000000E+00 0. -1.
         22    1    3    3    0    0  0.47521468174E+02  0.80427267962E+01  0.88795246169E+02  0.10103252513E+03  0.00000000000E+00 0.  1.
         22    1    3    3    0    0  0.31261469320E+02  0.82075621004E+02 -0.11375167352E+02  0.88561173544E+02  0.00000000000E+00 0.  1.
</event>
<event>
 7    1  0.5789396E-006  0.1591479E+03  0.7818608E-02  0.1211808E+00
          2   -1    0    0  502    0  0.00000000000E+00  0.00000000000E+00  0.10192070828E+04  0.10192070828E+04  0.00000000000E+00 0. -1.
          1   -1    0    0  501    0 -0.00000000000E+00 -0.00000000000E+00 -0.12305430976E+04  0.12305430976E+04  0.00000000000E+00 0. -1.
         25    2    1    2    0    0  0.22069556224E+03 -0.24357428901E+02 -0.56757679557E+02  0.26104715450E+03  0.12499746856E+03 0.  0.
          2    1    1    2  501    0 -0.12131734733E+03  0.10044741368E+03 -0.10615322309E+04  0.10731534182E+04  0.00000000000E+00 0. -1.
          1    1    1    2  502    0 -0.99378214916E+02 -0.76089984778E+02  0.90695389565E+03  0.91554960773E+03  0.00000000000E+00 0. -1.
         22    1    3    3    0    0  0.92001882373E+01 -0.25384278085E+02  0.22540443946E+02  0.35172100460E+02  0.00000000000E+00 0.  1.
         22    1    3    3    0    0  0.21149537401E+03  0.10268491840E+01 -0.79298123502E+02  0.22587505404E+03  0.00000000000E+00 0.  1.
</event>
<event>
 7    1  0.5789396E-006  0.1084484E+03  0.7818608E-02  0.1290622E+00
          2   -1    0    0  502    0  0.00000000000E+00  0.00000000000E+00  0.13346512463E+04  0.13346512463E+04  0.00000000000E+00 0. -1.
          1   -1    0    0  501    0 -0.00000000000E+00 -0.00000000000E+00 -0.28003193032E+03  0.28003193032E+03  0.00000000000E+00 0. -1.
         25    2    1    2    0    0  0.93683887139E+01  0.14612221692E+03  0.27537391885E+03  0.33599821733E+03  0.12499815149E+03 0.  0.
          2    1    1    2  501    0  0.55091446290E+02 -0.92806595584E+02 -0.23625792626E+03  0.25974206313E+03  0.00000000000E+00 0. -1.
          1    1    1    2  502    0 -0.64459835004E+02 -0.53315621340E+02  0.10155033234E+04  0.10189428962E+04  0.00000000000E+00 0. -1.
         22    1    3    3    0    0  0.32941227716E+01  0.49851376266E+02  0.65453916390E+01  0.50387033175E+02  0.00000000000E+00 0. -1.
         22    1    3    3    0    0  0.60742659422E+01  0.96270840658E+02  0.26882852722E+03  0.28561118415E+03  0.00000000000E+00 0. -1.
</event>
<event>
 7    1  0.5789396E-006  0.3067210E+02  0.7818608E-02  0.1590795E+00
          2   -1    0    0  502    0  0.00000000000E+00  0.00000000000E+00  0.57667185443E+03  0.57667185443E+03  0.00000000000E+00 0. -1.
          1   -1    0    0  501    0 -0.00000000000E+00 -0.00000000000E+00 -0.17490918249E+02  0.17490918249E+02  0.00000000000E+00 0. -1.
         25    2    1    2    0    0  0.92601462064E+01 -0.15458440152E+01  0.33580990650E+03  0.35844165058E+03  0.12499593444E+03 0.  0.
          2    1    1    2  501    0  0.35086266854E+01 -0.30470765410E+02  0.47771277157E+02  0.56770352536E+02  0.00000000000E+00 0. -1.
          1    1    1    2  502    0 -0.12768772892E+02  0.32016609425E+02  0.17559975252E+03  0.17895076956E+03  0.00000000000E+00 0. -1.
         22    1    3    3    0    0  0.42187105172E+02 -0.32258538212E+02  0.28764922744E+03  0.29251058644E+03  0.00000000000E+00 0.  1.
         22    1    3    3    0    0 -0.32926958966E+02  0.30712694197E+02  0.48160679055E+02  0.65931064139E+02  0.00000000000E+00 0.  1.
</event>
<event>
 7    1  0.5789396E-006  0.2318521E+03  0.7818608E-02  0.1339666E+00
          2   -1    0    0  502    0  0.00000000000E+00  0.00000000000E+00  0.51854045124E+03  0.51854045124E+03  0.00000000000E+00 0. -1.
          1   -1    0    0  501    0 -0.00000000000E+00 -0.00000000000E+00 -0.28934275811E+04  0.28934275811E+04  0.00000000000E+00 0. -1.
         25    2    1    2    0    0  0.50540626335E+02  0.24467415933E+03 -0.11485443307E+04  0.11820315024E+04  0.12499837489E+03 0.  0.
          2    1    1    2  501    0 -0.20016341564E+02 -0.15241485134E+02 -0.17013520875E+04  0.17015380932E+04  0.00000000000E+00 0. -1.
          1    1    1    2  502    0 -0.30524284771E+02 -0.22943267420E+03  0.47500928840E+03  0.52839843681E+03  0.00000000000E+00 0. -1.
         22    1    3    3    0    0  0.20780648060E+01  0.87596664575E+02 -0.18666688750E+03  0.20620868286E+03  0.00000000000E+00 0.  1.
         22    1    3    3    0    0  0.48462561529E+02  0.15707749476E+03 -0.96187744325E+03  0.97582281950E+03  0.00000000000E+00 0.  1.
</event>
<event>
 7    1  0.5789396E-006  0.5310666E+02  0.7818608E-02  0.1499231E+00
          2   -1    0    0  502    0  0.00000000000E+00  0.00000000000E+00  0.18541870601E+04  0.18541870601E+04  0.00000000000E+00 0. -1.
          1   -1    0    0  501    0 -0.00000000000E+00 -0.00000000000E+00 -0.12719301120E+03  0.12719301120E+03  0.00000000000E+00 0. -1.
         25    2    1    2    0    0 -0.40209013153E+02 -0.19685374869E+02  0.78847275943E+03  0.79957395075E+03  0.12499972652E+03 0.  0.
          2    1    1    2  501    0  0.24182134708E+02  0.47423909549E+02 -0.11556334650E+03  0.12723478255E+03  0.00000000000E+00 0. -1.
          1    1    1    2  502    0  0.16026878444E+02 -0.27738534679E+02  0.10540846360E+04  0.10545713380E+04  0.00000000000E+00 0. -1.
         22    1    3    3    0    0 -0.69377233258E+02  0.28055177400E+02  0.38115606614E+03  0.38843305759E+03  0.00000000000E+00 0.  1.
         22    1    3    3    0    0  0.29168220105E+02 -0.47740552269E+02  0.40731669329E+03  0.41114089316E+03  0.00000000000E+00 0.  1.
</event>
<event>
 7    1  0.5789396E-006  0.1057090E+03  0.7818608E-02  0.1384204E+00
          2   -1    0    0  502    0  0.00000000000E+00  0.00000000000E+00  0.26790075407E+02  0.26790075407E+02  0.00000000000E+00 0. -1.
          1   -1    0    0  501    0 -0.00000000000E+00 -0.00000000000E+00 -0.23115730555E+04  0.23115730555E+04  0.00000000000E+00 0. -1.
         25    2    1    2    0    0  0.90566377153E+02 -0.64107303947E+02 -0.87801961652E+03  0.89378604702E+03  0.12499214280E+03 0.  0.
          2    1    1    2  501    0 -0.10198618429E+03  0.27873594647E+02 -0.14023511798E+04  0.14063310246E+04  0.00000000000E+00 0. -1.
          1    1    1    2  502    0  0.11419807132E+02  0.36233709300E+02 -0.44121836788E+01  0.38246059266E+02  0.00000000000E+00 0. -1.
         22    1    3    3    0    0  0.36360332736E+02 -0.91802477222E+02 -0.66314117316E+03  0.67045207447E+03  0.00000000000E+00 0. -1.
         22    1    3    3    0    0  0.54206044418E+02  0.27695173275E+02 -0.21487844337E+03  0.22333397256E+03  0.00000000000E+00 0. -1.
</event>
<event>
 7    1  0.5789396E-006  0.6679488E+02  0.7818608E-02  0.1479779E+00
          2   -1    0    0  502    0  0.00000000000E+00  0.00000000000E+00  0.40714643976E+03  0.40714643976E+03  0.00000000000E+00 0. -1.
          1   -1    0    0  501    0 -0.00000000000E+00 -0.00000000000E+00 -0.54433096853E+03  0.54433096853E+03  0.00000000000E+00 0. -1.
         25    2    1    2    0    0 -0.86847626288E+01 -0.41170817893E+02  0.16720406589E+03  0.21296201688E+03  0.12500063854E+03 0.  0.
          2    1    1    2  501    0  0.31643639452E+02  0.59164349064E+02 -0.51829976893E+03  0.52262452161E+03  0.00000000000E+00 0. -1.
          1    1    1    2  502    0 -0.22958876823E+02 -0.17993531172E+02  0.21391117426E+03  0.21589086980E+03  0.00000000000E+00 0. -1.
         22    1    3    3    0    0  0.30413428741E+02  0.19457945456E+02  0.63343869122E+01  0.36656687613E+02  0.00000000000E+00 0. -1.
         22    1    3    3    0    0 -0.39098191370E+02 -0.60628763349E+02  0.16086967898E+03  0.17630532927E+03  0.00000000000E+00 0. -1.
</event>
<event>
 7    1  0.5789396E-006  0.7793933E+02  0.7818608E-02  0.1408353E+00
          2   -1    0    0  502    0  0.00000000000E+00  0.00000000000E+00  0.13206917557E+03  0.13206917557E+03  0.00000000000E+00 0. -1.
          1   -1    0    0  501    0 -0.00000000000E+00 -0.00000000000E+00 -0.75666732574E+03  0.75666732574E+03  0.00000000000E+00 0. -1.
         25    2    1    2    0    0 -0.66131724714E+02 -0.46013899539E+02 -0.14787859808E+03  0.20971968267E+03  0.12499432613E+03 0.  0.
          2    1    1    2  501    0 -0.12313870576E+02  0.40691568841E+02 -0.56166291593E+03  0.56326962133E+03  0.00000000000E+00 0. -1.
          1    1    1    2  502    0  0.78445595290E+02  0.53223306984E+01  0.84943363842E+02  0.11574719731E+03  0.00000000000E+00 0. -1.
         22    1    3    3    0    0 -0.44341263241E+02 -0.19350690783E+02 -0.16451186060E+03  0.17147813021E+03  0.00000000000E+00 0.  1.
         22    1    3    3    0    0 -0.21790461473E+02 -0.26663208757E+02  0.16633262528E+02  0.38241552462E+02  0.00000000000E+00 0.  1.
</event>
<event>
 7    1  0.5789396E-006  0.5674505E+02  0.7818608E-02  0.1504776E+00
          2   -1    0    0  502    0  0.00000000000E+00  0.00000000000E+00  0.18262770665E+03  0.18262770665E+03  0.00000000000E+00 0. -1.
          1   -1    0    0  501    0 -0.00000000000E+00 -0.00000000000E+00 -0.14844952388E+03  0.14844952388E+03  0.00000000000E+00 0. -1.
         25    2    1    2    0    0  0.20836997616E+02 -0.68099234313E+02  0.18205283144E+02  0.14502366575E+03  0.12501497954E+03 0.  0.
          2    1    1    2  501    0  0.14273505762E+02  0.25087584246E+02 -0.74503522589E+02  0.79899278646E+02  0.00000000000E+00 0. -1.
          1    1    1    2  502    0 -0.35110503377E+02  0.43011650067E+02  0.90476422218E+02  0.10615428614E+03  0.00000000000E+00 0. -1.
         22    1    3    3    0    0 -0.50620106425E+02 -0.44148122155E+02 -0.12861631369E+01  0.67179655253E+02  0.00000000000E+00 0.  1.
         22    1    3    3    0    0  0.71457104041E+02 -0.23951112157E+02  0.19491446281E+02  0.77844010493E+02  0.00000000000E+00 0.  1.
</event>
<event>
 7    1  0.5789396E-006  0.7368116E+02  0.7818608E-02  0.1511677E+00
          2   -1    0    0  502    0  0.00000000000E+00  0.00000000000E+00  0.45065997960E+03  0.45065997960E+03  0.00000000000E+00 0. -1.
          1   -1    0    0  501    0 -0.00000000000E+00 -0.00000000000E+00 -0.41455247411E+04  0.41455247411E+04  0.00000000000E+00 0. -1.
         25    2    1    2    0    0  0.61400538399E+02  0.33984712977E+02  0.76075588591E+02  0.16229093617E+03  0.12500346375E+03 0.  0.
          2    1    1    2  501    0 -0.51483944506E+02 -0.52734836175E+02 -0.41017463837E+04  0.41024084336E+04  0.00000000000E+00 0. -1.
          1    1    1    2  502    0 -0.99165938922E+01  0.18750123199E+02  0.33080603367E+03  0.33148535091E+03  0.00000000000E+00 0. -1.
         22    1    3    3    0    0 -0.12109054393E+02 -0.11549613117E+02  0.73923990095E+02  0.75794320850E+02  0.00000000000E+00 0.  1.
         22    1    3    3    0    0  0.73509592792E+02  0.45534326094E+02  0.21515984962E+01  0.86496615317E+02  0.00000000000E+00 0.  1.
</event>
<event>
 7    1  0.5789396E-006  0.8320060E+02  0.7818608E-02  0.1417379E+00
          2   -1    0    0  502    0  0.00000000000E+00  0.00000000000E+00  0.92109476079E+03  0.92109476079E+03  0.00000000000E+00 0. -1.
          1   -1    0    0  501    0 -0.00000000000E+00 -0.00000000000E+00 -0.13442139128E+04  0.13442139128E+04  0.00000000000E+00 0. -1.
         25    2    1    2    0    0  0.10400047199E+03 -0.17719682864E+01  0.20795378909E+03  0.26398662367E+03  0.12499968412E+03 0.  0.
          2    1    1    2  501    0 -0.26013114372E+02  0.26491315089E+02 -0.13134919610E+04  0.13140165918E+04  0.00000000000E+00 0. -1.
          1    1    1    2  502    0 -0.77987357619E+02 -0.24719346803E+02  0.68241901990E+03  0.68730545813E+03  0.00000000000E+00 0. -1.
         22    1    3    3    0    0  0.79445267997E+02  0.46889214663E+01  0.22139012716E+03  0.23525969692E+03  0.00000000000E+00 0.  1.
         22    1    3    3    0    0  0.24555203994E+02 -0.64608897527E+01 -0.13436338066E+02  0.28726926746E+02  0.00000000000E+00 0.  1.
</event>
<event>
 7    1  0.5789396E-006  0.5472448E+02  0.7818608E-02  0.1477359E+00
          2   -1    0    0  502    0  0.00000000000E+00  0.00000000000E+00  0.25437890801E+03  0.25437890801E+03  0.00000000000E+00 0. -1.
          1   -1    0    0  501    0 -0.00000000000E+00 -0.00000000000E+00 -0.92706958985E+02  0.92706958985E+02  0.00000000000E+00 0. -1.
         25    2    1    2    0    0 -0.19036918904E+02  0.13243085305E+02  0.12973767801E+03  0.18164547219E+03  0.12500171552E+03 0.  0.
          2    1    1    2  501    0  0.34427340979E+02 -0.46029359773E+02 -0.49792509024E+02  0.76047601690E+02  0.00000000000E+00 0. -1.
          1    1    1    2  502    0 -0.15390422075E+02  0.32786274468E+02  0.81726780042E+02  0.89392793117E+02  0.00000000000E+00 0. -1.
         22    1    3    3    0    0  0.14300266518E+02  0.56769878520E+02  0.10764571156E+03  0.12253536611E+03  0.00000000000E+00 0.  1.
         22    1    3    3    0    0 -0.33337185422E+02 -0.43526793215E+02  0.22091966447E+02  0.59110106081E+02  0.00000000000E+00 0.  1.
</event>
<event>
 7    1  0.5789396E-006  0.1135194E+03  0.7818608E-02  0.1414695E+00
          2   -1    0    0  502    0  0.00000000000E+00  0.00000000000E+00  0.59436456335E+03  0.59436456335E+03  0.00000000000E+00 0. -1.
          1   -1    0    0  501    0 -0.00000000000E+00 -0.00000000000E+00 -0.40789906024E+03  0.40789906024E+03  0.00000000000E+00 0. -1.
         25    2    1    2    0    0  0.77978796762E+02  0.73066114697E+02  0.16459786690E+03  0.23268274368E+03  0.12501780497E+03 0.  0.
          2    1    1    2  501    0 -0.61856535661E+02 -0.95692256674E+02 -0.36466447964E+03  0.38205159561E+03  0.00000000000E+00 0. -1.
          1    1    1    2  502    0 -0.16122261101E+02  0.22626141976E+02  0.38653211586E+03  0.38752928430E+03  0.00000000000E+00 0. -1.
         22    1    3    3    0    0 -0.43796339118E+01 -0.14220876428E+02  0.90341877994E+02  0.91559103529E+02  0.00000000000E+00 0.  1.
         22    1    3    3    0    0  0.82358430674E+02  0.87286991125E+02  0.74255988902E+02  0.14112364015E+03  0.00000000000E+00 0.  1.
</event>
<event>
 7    1  0.5789396E-006  0.6072167E+02  0.7818608E-02  0.1399167E+00
          2   -1    0    0  502    0  0.00000000000E+00  0.00000000000E+00  0.63985909222E+03  0.63985909222E+03  0.00000000000E+00 0. -1.
          1   -1    0    0  501    0 -0.00000000000E+00 -0.00000000000E+00 -0.60303425412E+02  0.60303425412E+02  0.00000000000E+00 0. -1.
         25    2    1    2    0    0  0.22913985291E+02  0.15683830183E+02  0.12901933865E+03  0.18176273385E+03  0.12498267247E+03 0.  0.
          2    1    1    2  501    0  0.33233383204E+02 -0.48340138860E+02 -0.44218092139E+01  0.58828387543E+02  0.00000000000E+00 0. -1.
          1    1    1    2  502    0 -0.56147368495E+02  0.32656308677E+02  0.45495813737E+03  0.45957139624E+03  0.00000000000E+00 0. -1.
         22    1    3    3    0    0 -0.34772154115E+01  0.65726342778E+02  0.95561585785E+02  0.11603473549E+03  0.00000000000E+00 0.  1.
         22    1    3    3    0    0  0.26391200703E+02 -0.50042512595E+02  0.33457752867E+02  0.65727998359E+02  0.00000000000E+00 0.  1.
</event>
<event>
 7    1  0.5789396E-006  0.2065028E+03  0.7818608E-02  0.1261311E+00
          2   -1    0    0  502    0  0.00000000000E+00  0.00000000000E+00  0.11697888291E+04  0.11697888291E+04  0.00000000000E+00 0. -1.
          1   -1    0    0  501    0 -0.00000000000E+00 -0.00000000000E+00 -0.72295452729E+03  0.72295452729E+03  0.00000000000E+00 0. -1.
         25    2    1    2    0    0 -0.13203433452E+03  0.21812222831E+03 -0.39744125858E+03  0.48846110645E+03  0.12499730605E+03 0.  0.
          2    1    1    2  501    0  0.30871038318E+01 -0.58088229535E+02 -0.26745850122E+03  0.27371120272E+03  0.00000000000E+00 0. -1.
          1    1    1    2  502    0  0.12894723069E+03 -0.16003399878E+03  0.11117340616E+04  0.11305710472E+04  0.00000000000E+00 0. -1.
         22    1    3    3    0    0 -0.55990330563E+01  0.70124288678E+02 -0.38640687847E+02  0.80261247131E+02  0.00000000000E+00 0. -1.
         22    1    3    3    0    0 -0.12643530146E+03  0.14799793964E+03 -0.35880057073E+03  0.40819985932E+03  0.00000000000E+00 0. -1.
</event>
<event>
 7    1  0.5789396E-006  0.1046506E+03  0.7818608E-02  0.1380449E+00
          2   -1    0    0  502    0  0.00000000000E+00  0.00000000000E+00  0.21280341121E+04  0.21280341121E+04  0.00000000000E+00 0. -1.
          1   -1    0    0  501    0 -0.00000000000E+00 -0.00000000000E+00 -0.16885302545E+02  0.16885302545E+02  0.00000000000E+00 0. -1.
         25    2    1    2    0    0 -0.10002707997E+03  0.30006776635E+02  0.76997833172E+03  0.78701839726E+03  0.12500201171E+03 0.  0.
          2    1    1    2  501    0  0.84141102655E+02 -0.66241403000E+02  0.35174679089E+03  0.36768662408E+03  0.00000000000E+00 0. -1.
          1    1    1    2  502    0  0.15885977319E+02  0.36234626365E+02  0.98942368692E+03  0.99021439328E+03  0.00000000000E+00 0. -1.
         22    1    3    3    0    0 -0.18069982628E+02 -0.47025372405E+02  0.24527286151E+03  0.25039306403E+03  0.00000000000E+00 0. -1.
         22    1    3    3    0    0 -0.81957097347E+02  0.77032149040E+02  0.52470547021E+03  0.53662533323E+03  0.00000000000E+00 0. -1.
</event>
<event>
 7    1  0.5789396E-006  0.1456182E+03  0.7818608E-02  0.1360639E+00
          2   -1    0    0  502    0  0.00000000000E+00  0.00000000000E+00  0.24156374034E+03  0.24156374034E+03  0.00000000000E+00 0. -1.
          1   -1    0    0  501    0 -0.00000000000E+00 -0.00000000000E+00 -0.10929171692E+04  0.10929171692E+04  0.00000000000E+00 0. -1.
         25    2    1    2    0    0 -0.14307000271E+03 -0.41903149465E+02  0.34815868107E+02  0.19765243752E+03  0.12501776583E+03 0.  0.
          2    1    1    2  501    0  0.12698637346E+03  0.71284725682E+02 -0.10039093221E+04  0.10144165704E+04  0.00000000000E+00 0. -1.
          1    1    1    2  502    0  0.16083629257E+02 -0.29381576217E+02  0.11774002515E+03  0.12241190168E+03  0.00000000000E+00 0. -1.
         22    1    3    3    0    0 -0.41159811102E+02  0.15063834945E+02  0.63755150754E+02  0.77367747937E+02  0.00000000000E+00 0. -1.
         22    1    3    3    0    0 -0.10191019161E+03 -0.56966984410E+02 -0.28939282647E+02  0.12028468958E+03  0.00000000000E+00 0. -1.
</event>
<event>
 7    1  0.5789396E-006  0.1018253E+03  0.7818608E-02  0.1276778E+00
          2   -1    0    0  502    0  0.00000000000E+00  0.00000000000E+00  0.10156564950E+04  0.10156564950E+04  0.00000000000E+00 0. -1.
          1   -1    0    0  501    0 -0.00000000000E+00 -0.00000000000E+00 -0.21894792759E+03  0.21894792759E+03  0.00000000000E+00 0. -1.
         25    2    1    2    0    0  0.21981214675E+02  0.10857164838E+03  0.89529069342E+01  0.16726099855E+03  0.12500044185E+03 0.  0.
          2    1    1    2  501    0 -0.95203613316E+02 -0.36120086189E+02 -0.11793660629E+03  0.15581216807E+03  0.00000000000E+00 0. -1.
          1    1    1    2  502    0  0.73222398642E+02 -0.72451562195E+02  0.90569226674E+03  0.91153125594E+03  0.00000000000E+00 0. -1.
         22    1    3    3    0    0  0.26188985415E+02  0.17765092607E+02  0.56435834003E+02  0.64702896628E+02  0.00000000000E+00 0. -1.
         22    1    3    3    0    0 -0.42077707400E+01  0.90806555777E+02 -0.47482927069E+02  0.10255810192E+03  0.00000000000E+00 0. -1.
</event>
<event>
 7    1  0.5789396E-006  0.7981598E+02  0.7818608E-02  0.1408383E+00
          2   -1    0    0  502    0  0.00000000000E+00  0.00000000000E+00  0.88778280932E+03  0.88778280932E+03  0.00000000000E+00 0. -1.
          1   -1    0    0  501    0 -0.00000000000E+00 -0.00000000000E+00 -0.25788271416E+03  0.25788271416E+03  0.00000000000E+00 0. -1.
         25    2    1    2    0    0  0.38541964072E+01 -0.53190206389E+02 -0.50817780211E+02  0.14508722164E+03  0.12499520876E+03 0.  0.
          2    1    1    2  501    0 -0.36067020807E+02 -0.20537460621E+02 -0.15527313810E+03  0.16072449936E+03  0.00000000000E+00 0. -1.
          1    1    1    2  502    0  0.32212824400E+02  0.73727667010E+02  0.83599101347E+03  0.83985380248E+03  0.00000000000E+00 0. -1.
         22    1    3    3    0    0  0.33005155891E+02 -0.63488153029E+02  0.14330188692E+02  0.72975613724E+02  0.00000000000E+00 0.  1.
         22    1    3    3    0    0 -0.29150959484E+02  0.10297946640E+02 -0.65147968903E+02  0.72111607915E+02  0.00000000000E+00 0.  1.
</event>
<event>
 7    1  0.5789396E-006  0.1271952E+03  0.7818608E-02  0.1366564E+00
          2   -1    0    0  502    0  0.00000000000E+00  0.00000000000E+00  0.28389625468E+04  0.28389625468E+04  0.00000000000E+00 0. -1.
          1   -1    0    0  501    0 -0.00000000000E+00 -0.00000000000E+00 -0.12057736878E+02  0.12057736878E+02  0.00000000000E+00 0. -1.
         25    2    1    2    0    0  0.80129168381E+01 -0.10043134842E+03  0.87184287487E+03  0.88650204483E+03  0.12500085779E+03 0.  0.
          2    1    1    2  501    0  0.10946509004E+02 -0.34814165921E+02  0.15313893267E+03  0.15742739567E+03  0.00000000000E+00 0. -1.
          1    1    1    2  502    0 -0.18959425842E+02  0.13524551434E+03  0.18019230024E+04  0.18070908432E+04  0.00000000000E+00 0. -1.
         22    1    3    3    0    0 -0.14010199673E+02 -0.11569144232E+03  0.81905174168E+03  0.82730076216E+03  0.00000000000E+00 0. -1.
         22    1    3    3    0    0  0.22023116511E+02  0.15260093895E+02  0.52791133187E+02  0.59201282670E+02  0.00000000000E+00 0. -1.
</event>
<event>
 7    1  0.5789396E-006  0.1094794E+03  0.7818608E-02  0.1333636E+00
          2   -1    0    0  502    0  0.00000000000E+00  0.00000000000E+00  0.11763629888E+04  0.11763629888E+04  0.00000000000E+00 0. -1.
          1   -1    0    0  501    0 -0.00000000000E+00 -0.00000000000E+00 -0.14046202732E+03  0.14046202732E+03  0.00000000000E+00 0. -1.
         25    2    1    2    0    0  0.52253510968E+02  0.34092628816E+02  0.41244791527E+03  0.43546652702E+03  0.12500030640E+03 0.  0.
          2    1    1    2  501    0 -0.10826728126E+03 -0.30147874754E+02 -0.10317498443E+03  0.15256400610E+03  0.00000000000E+00 0. -1.
          1    1    1    2  502    0  0.56013770293E+02 -0.39447540622E+01  0.72662803063E+03  0.72879448299E+03  0.00000000000E+00 0. -1.
         22    1    3    3    0    0  0.31883914349E+02 -0.36835523368E+02  0.27670768823E+03  0.28096367114E+03  0.00000000000E+00 0.  1.
         22    1    3    3    0    0  0.20369596619E+02  0.70928152184E+02  0.13574022704E+03  0.15450285588E+03  0.00000000000E+00 0.  1.
</event>
<event>
 7    1  0.5789396E-006  0.6671481E+02  0.7818608E-02  0.1396001E+00
          2   -1    0    0  502    0  0.00000000000E+00  0.00000000000E+00  0.10795298670E+03  0.10795298670E+03  0.00000000000E+00 0. -1.
          1   -1    0    0  501    0 -0.00000000000E+00 -0.00000000000E+00 -0.14628143938E+04  0.14628143938E+04  0.00000000000E+00 0. -1.
         25    2    1    2    0    0 -0.21790628333E+02  0.10275879292E+03 -0.86267236439E+02  0.18466619270E+03  0.12500146254E+03 0.  0.
          2    1    1    2  501    0  0.35806248974E+02 -0.41421834668E+02 -0.13097657697E+04  0.13109096946E+04  0.00000000000E+00 0. -1.
          1    1    1    2  502    0 -0.14015620641E+02 -0.61336958250E+02  0.41171599116E+02  0.75191493156E+02  0.00000000000E+00 0. -1.
         22    1    3    3    0    0 -0.51005890150E+02  0.20926276836E+02  0.88475650592E+01  0.55837167726E+02  0.00000000000E+00 0. -1.
         22    1    3    3    0    0  0.29215261817E+02  0.81832516082E+02 -0.95114801498E+02  0.12882902497E+03  0.00000000000E+00 0. -1.
</event>
<event>
 7    1  0.5789396E-006  0.1196089E+03  0.7818608E-02  0.1286296E+00
          2   -1    0    0  502    0  0.00000000000E+00  0.00000000000E+00  0.34407458137E+04  0.34407458137E+04  0.00000000000E+00 0. -1.
          1   -1    0    0  501    0 -0.00000000000E+00 -0.00000000000E+00 -0.40617358644E+03  0.40617358644E+03  0.00000000000E+00 0. -1.
         25    2    1    2    0    0  0.15473730512E+03 -0.13962602398E+02  0.18622358117E+03  0.27284245324E+03  0.12500077699E+03 0.  0.
          2    1    1    2  501    0 -0.97376410994E+02  0.68268427280E+02 -0.35261999029E+03  0.37213384841E+03  0.00000000000E+00 0. -1.
          1    1    1    2  502    0 -0.57360894122E+02 -0.54305824881E+02  0.32009686364E+04  0.32019430985E+04  0.00000000000E+00 0. -1.
         22    1    3    3    0    0  0.13084133397E+03  0.22188685722E+01  0.61077708897E+02  0.14441213445E+03  0.00000000000E+00 0.  1.
         22    1    3    3    0    0  0.23895971150E+02 -0.16181470971E+02  0.12514587227E+03  0.12843031880E+03  0.00000000000E+00 0.  1.
</event>
<event>
 7    1  0.5789396E-006  0.1809728E+03  0.7818608E-02  0.1210215E+00
          2   -1    0    0  502    0  0.00000000000E+00  0.00000000000E+00  0.22852883010E+04  0.22852883010E+04  0.00000000000E+00 0. -1.
          1   -1    0    0  501    0 -0.00000000000E+00 -0.00000000000E+00 -0.73753783242E+02  0.73753783242E+02  0.00000000000E+00 0. -1.
         25    2    1    2    0    0  0.19389402798E+02 -0.21371640424E+03  0.44743121066E+03  0.51173186739E+03  0.12499666175E+03 0.  0.
          2    1    1    2  501    0  0.87981299385E+02  0.69230729741E+02  0.48030456882E+02  0.12182170484E+03  0.00000000000E+00 0. -1.
          1    1    1    2  502    0 -0.10737070218E+03  0.14448567450E+03  0.17160728503E+04  0.17254885120E+04  0.00000000000E+00 0. -1.
         22    1    3    3    0    0  0.11008181175E+02  0.13645942717E+02  0.59244367747E+02  0.61784196322E+02  0.00000000000E+00 0. -1.
         22    1    3    3    0    0  0.83812216233E+01 -0.22736234696E+03  0.38818684291E+03  0.44994767107E+03  0.00000000000E+00 0. -1.
</event>
<event>
 7    1  0.5789396E-006  0.1278494E+03  0.7818608E-02  0.1333513E+00
          2   -1    0    0  502    0  0.00000000000E+00  0.00000000000E+00  0.95250328680E+03  0.95250328680E+03  0.00000000000E+00 0. -1.
          1   -1    0    0  501    0 -0.00000000000E+00 -0.00000000000E+00 -0.71048944691E+02  0.71048944691E+02  0.00000000000E+00 0. -1.
         25    2    1    2    0    0  0.31106353812E+02 -0.92727078874E+02  0.32523056174E+03  0.36189215087E+03  0.12500037665E+03 0.  0.
          2    1    1    2  501    0 -0.10084015186E+02  0.13603003504E+03  0.38540290816E+02  0.14174347184E+03  0.00000000000E+00 0. -1.
          1    1    1    2  502    0 -0.21022338626E+02 -0.43302956162E+02  0.51768348955E+03  0.51991660878E+03  0.00000000000E+00 0. -1.
         22    1    3    3    0    0 -0.16216900669E+02 -0.70922338583E+02  0.68495345613E+02  0.99922861989E+02  0.00000000000E+00 0. -1.
         22    1    3    3    0    0  0.47323254480E+02 -0.21804740291E+02  0.25673521613E+03  0.26196928888E+03  0.00000000000E+00 0. -1.
</event>
<event>
 7    1  0.5789396E-006  0.6026042E+02  0.7818608E-02  0.1550638E+00
          2   -1    0    0  502    0  0.00000000000E+00  0.00000000000E+00  0.17502425238E+03  0.17502425238E+03  0.00000000000E+00 0. -1.
          1   -1    0    0  501    0 -0.00000000000E+00 -0.00000000000E+00 -0.33845005198E+03  0.33845005198E+03  0.00000000000E+00 0. -1.
         25    2    1    2    0    0  0.17071000238E+02  0.56898315155E+02  0.63403734864E+02  0.15223242980E+03  0.12500336704E+03 0.  0.
          2    1    1    2  501    0  0.18755096133E+02 -0.71280696884E+01 -0.27961201810E+03  0.28033095383E+03  0.00000000000E+00 0. -1.
          1    1    1    2  502    0 -0.35826096371E+02 -0.49770245466E+02  0.52782483633E+02  0.80910920730E+02  0.00000000000E+00 0. -1.
         22    1    3    3    0    0 -0.31418675973E+02  0.78940239456E+02  0.35248635407E+02  0.91984568833E+02  0.00000000000E+00 0.  1.
         22    1    3    3    0    0  0.48489676211E+02 -0.22041924302E+02  0.28155099457E+02  0.60247860970E+02  0.00000000000E+00 0.  1.
</event>
<event>
 7    1  0.5789396E-006  0.4625392E+02  0.7818608E-02  0.1469337E+00
          2   -1    0    0  502    0  0.00000000000E+00  0.00000000000E+00  0.61680392639E+02  0.61680392639E+02  0.00000000000E+00 0. -1.
          1   -1    0    0  501    0 -0.00000000000E+00 -0.00000000000E+00 -0.74181366036E+03  0.74181366036E+03  0.00000000000E+00 0. -1.
         25    2    1    2    0    0 -0.57859660018E+02 -0.14384763453E+02 -0.80751658975E+02  0.16031736937E+03  0.12500466718E+03 0.  0.
          2    1    1    2  501    0  0.38111856681E+02 -0.26466342342E+02 -0.59586268133E+03  0.59766655913E+03  0.00000000000E+00 0. -1.
          1    1    1    2  502    0  0.19747803337E+02  0.40851105795E+02 -0.35189274080E+01  0.45510124494E+02  0.00000000000E+00 0. -1.
         22    1    3    3    0    0 -0.77284462510E+02 -0.26215251130E+02 -0.10101089048E+03  0.12985887545E+03  0.00000000000E+00 0.  1.
         22    1    3    3    0    0  0.19424802492E+02  0.11830487678E+02  0.20259231508E+02  0.30458493920E+02  0.00000000000E+00 0.  1.
</event>
<event>
 7    1  0.5789396E-006  0.7713172E+02  0.7818608E-02  0.1404736E+00
          2   -1    0    0  502    0  0.00000000000E+00  0.00000000000E+00  0.38973457368E+03  0.38973457368E+03  0.00000000000E+00 0. -1.
          1   -1    0    0  501    0 -0.00000000000E+00 -0.00000000000E+00 -0.16381748883E+03  0.16381748883E+03  0.00000000000E+00 0. -1.
         25    2    1    2    0    0 -0.93586162898E+02 -0.19350628044E+01  0.85136552824E+02  0.17786247311E+03  0.12499884944E+03 0.  0.
          2    1    1    2  501    0  0.66864440637E+02  0.37136529899E+02 -0.10280008984E+03  0.12813209491E+03  0.00000000000E+00 0. -1.
          1    1    1    2  502    0  0.26721722260E+02 -0.35201467095E+02  0.24358062187E+03  0.24755749448E+03  0.00000000000E+00 0. -1.
         22    1    3    3    0    0 -0.53913381955E+01 -0.18854859115E+02  0.85845087484E+02  0.88056523239E+02  0.00000000000E+00 0. -1.
         22    1    3    3    0    0 -0.88194824702E+02  0.16919796311E+02 -0.70853466018E+00  0.89805949874E+02  0.00000000000E+00 0. -1.
</event>
<event>
 7    1  0.5789396E-006  0.5565109E+02  0.7818608E-02  0.1421087E+00
          2   -1    0    0  502    0  0.00000000000E+00  0.00000000000E+00  0.66299972194E+03  0.66299972194E+03  0.00000000000E+00 0. -1.
          1   -1    0    0  501    0 -0.00000000000E+00 -0.00000000000E+00 -0.60630642642E+03  0.60630642642E+03  0.00000000000E+00 0. -1.
         25    2    1    2    0    0  0.48999482007E+02 -0.22735385656E+02 -0.13312837512E+03  0.19043650327E+03  0.12500020207E+03 0.  0.
          2    1    1    2  501    0 -0.26276927424E+01  0.53881442231E+02 -0.44164981962E+03  0.44493221704E+03  0.00000000000E+00 0. -1.
          1    1    1    2  502    0 -0.46371789265E+02 -0.31146056576E+02  0.63147149026E+03  0.63393742806E+03  0.00000000000E+00 0. -1.
         22    1    3    3    0    0  0.89636424296E+02 -0.60837632491E+01 -0.10541782851E+03  0.13850855318E+03  0.00000000000E+00 0. -1.
         22    1    3    3    0    0 -0.40636942289E+02 -0.16651622406E+02 -0.27710546609E+02  0.51927950091E+02  0.00000000000E+00 0. -1.
</event>
<event>
 7    1  0.5789396E-006  0.3454912E+03  0.7818608E-02  0.1177945E+00
          2   -1    0    0  502    0  0.00000000000E+00  0.00000000000E+00  0.11087271793E+04  0.11087271793E+04  0.00000000000E+00 0. -1.
          1   -1    0    0  501    0 -0.00000000000E+00 -0.00000000000E+00 -0.12012090456E+04  0.12012090456E+04  0.00000000000E+00 0. -1.
         25    2    1    2    0    0  0.32459516292E+03  0.83432534764E+02  0.51371945856E+02  0.36136829849E+03  0.12499985074E+03 0.  0.
          2    1    1    2  501    0 -0.30656638355E+03 -0.16502162619E+03 -0.10151915642E+04  0.10732329648E+04  0.00000000000E+00 0. -1.
          1    1    1    2  502    0 -0.18028779375E+02  0.81589091428E+02  0.87133775210E+03  0.87533496158E+03  0.00000000000E+00 0. -1.
         22    1    3    3    0    0  0.96744768083E+02  0.19952494649E+02 -0.41654317285E+02  0.10720417129E+03  0.00000000000E+00 0. -1.
         22    1    3    3    0    0  0.22785039484E+03  0.63480040116E+02  0.93026263141E+02  0.25416412720E+03  0.00000000000E+00 0. -1.
</event>
<event>
 7    1  0.5789396E-006  0.9791023E+02  0.7818608E-02  0.1335214E+00
          2   -1    0    0  502    0  0.00000000000E+00  0.00000000000E+00  0.13675382775E+04  0.13675382775E+04  0.00000000000E+00 0. -1.
          1   -1    0    0  501    0 -0.00000000000E+00 -0.00000000000E+00 -0.11308459564E+04  0.11308459564E+04  0.00000000000E+00 0. -1.
         25    2    1    2    0    0 -0.69786035563E+02 -0.90842686083E+01 -0.47255925391E+02  0.15103384158E+03  0.12500193648E+03 0.  0.
          2    1    1    2  501    0 -0.14678812335E+02  0.60163116646E+02 -0.10289173475E+04  0.10307793053E+04  0.00000000000E+00 0. -1.
          1    1    1    2  502    0  0.84464847898E+02 -0.51078848038E+02  0.13128655940E+04  0.13165710871E+04  0.00000000000E+00 0. -1.
         22    1    3    3    0    0 -0.37839344012E+02  0.27811798034E+02  0.32795024793E+02  0.57278492616E+02  0.00000000000E+00 0. -1.
         22    1    3    3    0    0 -0.31946691550E+02 -0.36896066642E+02 -0.80050950184E+02  0.93755348968E+02  0.00000000000E+00 0. -1.
</event>
<event>
 7    1  0.5789396E-006  0.3298906E+02  0.7818608E-02  0.1582474E+00
          2   -1    0    0  502    0  0.00000000000E+00  0.00000000000E+00  0.21554032708E+04  0.21554032708E+04  0.00000000000E+00 0. -1.
          1   -1    0    0  501    0 -0.00000000000E+00 -0.00000000000E+00 -0.93754921735E+02  0.93754921735E+02  0.00000000000E+00 0. -1.
         25    2    1    2    0    0 -0.67502041179E+01  0.22245042133E+02  0.12053640683E+04  0.12120493294E+04  0.12498252922E+03 0.  0.
          2    1    1    2  501    0  0.32371823186E+02 -0.66305664814E+01 -0.87146577911E+02  0.93200994576E+02  0.00000000000E+00 0. -1.
          1    1    1    2  502    0 -0.25621619068E+02 -0.15614475651E+02  0.94343085868E+03  0.94390786856E+03  0.00000000000E+00 0. -1.
         22    1    3    3    0    0  0.11857108210E+02  0.37181070106E+02  0.11532685943E+03  0.12175100614E+03  0.00000000000E+00 0. -1.
         22    1    3    3    0    0 -0.18607312328E+02 -0.14936027973E+02  0.10900372088E+04  0.10902983232E+04  0.00000000000E+00 0. -1.
</event>
<event>
 7    1  0.5789396E-006  0.1009374E+03  0.7818608E-02  0.1317301E+00
          2   -1    0    0  502    0  0.00000000000E+00  0.00000000000E+00  0.66996447098E+03  0.66996447098E+03  0.00000000000E+00 0. -1.
          1   -1    0    0  501    0 -0.00000000000E+00 -0.00000000000E+00 -0.55157541183E+03  0.55157541183E+03  0.00000000000E+00 0. -1.
         25    2    1    2    0    0 -0.23087496270E+02  0.27314035966E+02 -0.55723980895E+02  0.14145596904E+03  0.12500216032E+03 0.  0.
          2    1    1    2  501    0 -0.64034155952E+02  0.29222979640E+02 -0.44590561236E+03  0.45142681666E+03  0.00000000000E+00 0. -1.
          1    1    1    2  502    0  0.87121652222E+02 -0.56537015606E+02  0.62001865241E+03  0.62865709711E+03  0.00000000000E+00 0. -1.
         22    1    3    3    0    0 -0.41725219790E+02  0.29075822246E+02  0.26347500230E+02  0.57276419007E+02  0.00000000000E+00 0. -1.
         22    1    3    3    0    0  0.18637723520E+02 -0.17617862803E+01 -0.82071481126E+02  0.84179550029E+02  0.00000000000E+00 0. -1.
</event>
<event>
 7    1  0.5789396E-006  0.1594509E+03  0.7818608E-02  0.1225179E+00
          2   -1    0    0  502    0  0.00000000000E+00  0.00000000000E+00  0.19782323794E+03  0.19782323794E+03  0.00000000000E+00 0. -1.
          1   -1    0    0  501    0 -0.00000000000E+00 -0.00000000000E+00 -0.80607252688E+03  0.80607252688E+03  0.00000000000E+00 0. -1.
         25    2    1    2    0    0  0.22421658060E+03  0.58421597906E+02 -0.24782036834E+03  0.36156076801E+03  0.12500038351E+03 0.  0.
          2    1    1    2  501    0 -0.14643691921E+03  0.17262744773E+02 -0.46730652190E+03  0.49001750895E+03  0.00000000000E+00 0. -1.
          1    1    1    2  502    0 -0.77779661384E+02 -0.75684342679E+02  0.10687760130E+03  0.15231748787E+03  0.00000000000E+00 0. -1.
         22    1    3    3    0    0  0.15012527465E+02  0.42976900289E+02 -0.83453437997E+02  0.95062433447E+02  0.00000000000E+00 0.  1.
         22    1    3    3    0    0  0.20920405313E+03  0.15444697618E+02 -0.16436693035E+03  0.26649833456E+03  0.00000000000E+00 0.  1.
</event>
<event>
 7    1  0.5789396E-006  0.4192415E+02  0.7818608E-02  0.1600769E+00
          2   -1    0    0  502    0  0.00000000000E+00  0.00000000000E+00  0.60319356417E+03  0.60319356417E+03  0.00000000000E+00 0. -1.
          1   -1    0    0  501    0 -0.00000000000E+00 -0.00000000000E+00 -0.61660933148E+02  0.61660933148E+02  0.00000000000E+00 0. -1.
         25    2    1    2    0    0 -0.51664947384E+02  0.17116284707E+02  0.60905740206E+02  0.14932226047E+03  0.12500157716E+03 0.  0.
          2    1    1    2  501    0  0.39688523759E+02  0.28410370523E+00  0.56544448863E+01  0.40090302818E+02  0.00000000000E+00 0. -1.
          1    1    1    2  502    0  0.11976423625E+02 -0.17400388413E+02  0.47497244593E+03  0.47544193403E+03  0.00000000000E+00 0. -1.
         22    1    3    3    0    0  0.83164811860E+01  0.60454873484E+02  0.37869200484E+02  0.71819439795E+02  0.00000000000E+00 0. -1.
         22    1    3    3    0    0 -0.59981428570E+02 -0.43338588776E+02  0.23036539722E+02  0.77502820676E+02  0.00000000000E+00 0. -1.
</event>
<event>
 7    1  0.5789396E-006  0.6647952E+02  0.7818608E-02  0.1465532E+00
          2   -1    0    0  502    0  0.00000000000E+00  0.00000000000E+00  0.19754125624E+04  0.19754125624E+04  0.00000000000E+00 0. -1.
          1   -1    0    0  501    0 -0.00000000000E+00 -0.00000000000E+00 -0.50050127461E+02  0.50050127461E+02  0.00000000000E+00 0. -1.
         25    2    1    2    0    0 -0.10431440878E+02 -0.51145104330E+02  0.27838891758E+03  0.30959576773E+03  0.12499805324E+03 0.  0.
          2    1    1    2  501    0 -0.32434662557E+02 -0.81119160765E+00 -0.25975852170E+02  0.41562125342E+02  0.00000000000E+00 0. -1.
          1    1    1    2  502    0  0.42866103434E+02  0.51956295938E+02  0.16729493695E+04  0.16743047968E+04  0.00000000000E+00 0. -1.
         22    1    3    3    0    0 -0.31112596007E+02  0.15648678739E+02  0.16507684380E+02  0.38540607418E+02  0.00000000000E+00 0. -1.
         22    1    3    3    0    0  0.20681155129E+02 -0.66793783069E+02  0.26188123320E+03  0.27105516032E+03  0.00000000000E+00 0. -1.
</event>
<event>
 7    1  0.5789396E-006  0.1724138E+03  0.7818608E-02  0.1221398E+00
          2   -1    0    0  502    0  0.00000000000E+00  0.00000000000E+00  0.13666828232E+03  0.13666828232E+03  0.00000000000E+00 0. -1.
          1   -1    0    0  501    0 -0.00000000000E+00 -0.00000000000E+00 -0.11477471792E+04  0.11477471792E+04  0.00000000000E+00 0. -1.
         25    2    1    2    0    0  0.94932618941E+02  0.13771250494E+03 -0.68804077810E+03  0.71902856940E+03  0.12500014052E+03 0.  0.
          2    1    1    2  501    0 -0.90439913880E+01 -0.19707522258E+03 -0.39297863171E+03  0.43971882165E+03  0.00000000000E+00 0. -1.
          1    1    1    2  502    0 -0.85888627553E+02  0.59362717644E+02  0.69940512919E+02  0.12566807047E+03  0.00000000000E+00 0. -1.
         22    1    3    3    0    0  0.89390819473E+02  0.15512264277E+03 -0.51918986052E+03  0.54919201029E+03  0.00000000000E+00 0. -1.
         22    1    3    3    0    0  0.55417994687E+01 -0.17410137833E+02 -0.16885091758E+03  0.16983655910E+03  0.00000000000E+00 0. -1.
</event>
<event>
 7    1  0.5789396E-006  0.3362208E+03  0.7818608E-02  0.1194343E+00
          2   -1    0    0  502    0  0.00000000000E+00  0.00000000000E+00  0.74596972142E+03  0.74596972142E+03  0.00000000000E+00 0. -1.
          1   -1    0    0  501    0 -0.00000000000E+00 -0.00000000000E+00 -0.17404722532E+04  0.17404722532E+04  0.00000000000E+00 0. -1.
         25    2    1    2    0    0 -0.31553547724E+03 -0.94595894261E+02 -0.30628799098E+03  0.46684995951E+03  0.12500212265E+03 0.  0.
          2    1    1    2  501    0  0.19922229458E+02 -0.68718616391E+02 -0.13100292924E+04  0.13119816654E+04  0.00000000000E+00 0. -1.
          1    1    1    2  502    0  0.29561324779E+03  0.16331451065E+03  0.62181475161E+03  0.70761034968E+03  0.00000000000E+00 0. -1.
         22    1    3    3    0    0 -0.11314494203E+03 -0.40502617444E+02 -0.19648709831E+03  0.23032459644E+03  0.00000000000E+00 0. -1.
         22    1    3    3    0    0 -0.20239053522E+03 -0.54093276816E+02 -0.10980089267E+03  0.23652536307E+03  0.00000000000E+00 0. -1.
</event>
<event>
 7    1  0.5789396E-006  0.8553369E+02  0.7818608E-02  0.1360951E+00
          2   -1    0    0  502    0  0.00000000000E+00  0.00000000000E+00  0.34036977658E+03  0.34036977658E+03  0.00000000000E+00 0. -1.
          1   -1    0    0  501    0 -0.00000000000E+00 -0.00000000000E+00 -0.15654795117E+04  0.15654795117E+04  0.00000000000E+00 0. -1.
         25    2    1    2    0    0  0.76489576485E+02  0.53001346198E+02 -0.10535202184E+03  0.18810228195E+03  0.12499448772E+03 0.  0.
          2    1    1    2  501    0  0.94216520235E+01 -0.56090349503E+02 -0.14119887064E+04  0.14131337523E+04  0.00000000000E+00 0. -1.
          1    1    1    2  502    0 -0.85911228508E+02  0.30890033048E+01  0.29223099319E+03  0.30461325399E+03  0.00000000000E+00 0. -1.
         22    1    3    3    0    0  0.60993666082E+02 -0.17882774453E+01 -0.11515758244E+03  0.13032533918E+03  0.00000000000E+00 0. -1.
         22    1    3    3    0    0  0.15495910402E+02  0.54789623643E+02  0.98055605938E+01  0.57776942778E+02  0.00000000000E+00 0. -1.
</event>
<event>
 7    1  0.5789396E-006  0.5727300E+02  0.7818608E-02  0.1516656E+00
          2   -1    0    0  502    0  0.00000000000E+00  0.00000000000E+00  0.99116625693E+02  0.99116625693E+02  0.00000000000E+00 0. -1.
          1   -1    0    0  501    0 -0.00000000000E+00 -0.00000000000E+00 -0.21455205468E+03  0.21455205468E+03  0.00000000000E+00 0. -1.
         25    2    1    2    0    0  0.15825243471E+02  0.36130680116E+02 -0.64300155823E+02  0.14599332105E+03  0.12499470139E+03 0.  0.
          2    1    1    2  501    0  0.25088188077E+02  0.81775696400E+01 -0.91418391164E+02  0.95150470673E+02  0.00000000000E+00 0. -1.
          1    1    1    2  502    0 -0.40913431549E+02 -0.44308249756E+02  0.40283118002E+02  0.72524888649E+02  0.00000000000E+00 0. -1.
         22    1    3    3    0    0  0.23054672154E+02  0.81505450116E+02 -0.47206087647E+02  0.96969433419E+02  0.00000000000E+00 0. -1.
         22    1    3    3    0    0 -0.72294286832E+01 -0.45374769999E+02 -0.17094068176E+02  0.49023887630E+02  0.00000000000E+00 0. -1.
</event>
<event>
 7    1  0.5789396E-006  0.7962766E+02  0.7818608E-02  0.1387434E+00
          2   -1    0    0  502    0  0.00000000000E+00  0.00000000000E+00  0.18301126609E+04  0.18301126609E+04  0.00000000000E+00 0. -1.
          1   -1    0    0  501    0 -0.00000000000E+00 -0.00000000000E+00 -0.20688026155E+03  0.20688026155E+03  0.00000000000E+00 0. -1.
         25    2    1    2    0    0 -0.58825006916E+02 -0.38743129169E+02  0.22429364581E+03  0.26625779844E+03  0.12499665669E+03 0.  0.
          2    1    1    2  501    0 -0.21755096028E+02  0.44055407174E+02 -0.18160262463E+03  0.18813207163E+03  0.00000000000E+00 0. -1.
          1    1    1    2  502    0  0.80580102945E+02 -0.53122780049E+01  0.15805413782E+04  0.15826030524E+04  0.00000000000E+00 0. -1.
         22    1    3    3    0    0 -0.76582732242E+02  0.14997022785E+02  0.82377669053E+02  0.11347204911E+03  0.00000000000E+00 0. -1.
         22    1    3    3    0    0  0.17757725325E+02 -0.53740151954E+02  0.14191597676E+03  0.15278574933E+03  0.00000000000E+00 0. -1.
</event>
<event>
 7    1  0.5789396E-006  0.1876129E+03  0.7818608E-02  0.1242990E+00
          2   -1    0    0  502    0  0.00000000000E+00  0.00000000000E+00  0.14226937691E+04  0.14226937691E+04  0.00000000000E+00 0. -1.
          1   -1    0    0  501    0 -0.00000000000E+00 -0.00000000000E+00 -0.67947981280E+03  0.67947981280E+03  0.00000000000E+00 0. -1.
         25    2    1    2    0    0 -0.22633873960E+03 -0.64309295212E+02  0.46864775541E+03  0.53909211274E+03  0.12499870749E+03 0.  0.
          2    1    1    2  501    0  0.15794308523E+03  0.99323248414E+02 -0.62908471396E+03  0.65616972133E+03  0.00000000000E+00 0. -1.
          1    1    1    2  502    0  0.68395654371E+02 -0.35013953202E+02  0.90365091484E+03  0.90691174783E+03  0.00000000000E+00 0. -1.
         22    1    3    3    0    0 -0.43999510253E+01  0.19731973189E+02  0.97128497231E+01  0.22428771360E+02  0.00000000000E+00 0. -1.
         22    1    3    3    0    0 -0.22193878857E+03 -0.84041268401E+02  0.45893490568E+03  0.51666334138E+03  0.00000000000E+00 0. -1.
</event>
<event>
 7    1  0.5789396E-006  0.1318179E+03  0.7818608E-02  0.1236656E+00
          2   -1    0    0  502    0  0.00000000000E+00  0.00000000000E+00  0.19701935939E+03  0.19701935939E+03  0.00000000000E+00 0. -1.
          1   -1    0    0  501    0 -0.00000000000E+00 -0.00000000000E+00 -0.58774707038E+03  0.58774707038E+03  0.00000000000E+00 0. -1.
         25    2    1    2    0    0  0.11459288555E+03 -0.84097053676E+02 -0.39981759552E+01  0.18932846345E+03  0.12500175121E+03 0.  0.
          2    1    1    2  501    0 -0.98126797254E+01  0.13531229333E+03 -0.44488809698E+03  0.46511409809E+03  0.00000000000E+00 0. -1.
          1    1    1    2  502    0 -0.10478020582E+03 -0.51215239652E+02  0.58158561937E+02  0.13032386823E+03  0.00000000000E+00 0. -1.
         22    1    3    3    0    0 -0.17218096069E+02  0.13137587027E+01 -0.25502746665E+02  0.30799007803E+02  0.00000000000E+00 0. -1.
         22    1    3    3    0    0  0.13181098162E+03 -0.85410812378E+02  0.21504570710E+02  0.15852945564E+03  0.00000000000E+00 0. -1.
</event>
<event>
 7    1  0.5789396E-006  0.5070330E+02  0.7818608E-02  0.1511749E+00
          2   -1    0    0  502    0  0.00000000000E+00  0.00000000000E+00  0.94315932665E+03  0.94315932665E+03  0.00000000000E+00 0. -1.
          1   -1    0    0  501    0 -0.00000000000E+00 -0.00000000000E+00 -0.19304657451E+03  0.19304657451E+03  0.00000000000E+00 0. -1.
         25    2    1    2    0    0  0.34512458127E+02  0.41383447890E+02  0.27856379296E+03  0.31004116038E+03  0.12499613936E+03 0.  0.
          2    1    1    2  501    0 -0.50902943650E+01 -0.50521267548E+02 -0.17329720736E+03  0.18058303257E+03  0.00000000000E+00 0. -1.
          1    1    1    2  502    0 -0.29422163762E+02  0.91378196581E+01  0.64484616655E+03  0.64558170821E+03  0.00000000000E+00 0. -1.
         22    1    3    3    0    0 -0.37732868931E+02  0.40778753178E+02  0.17618249341E+03  0.18473480206E+03  0.00000000000E+00 0. -1.
         22    1    3    3    0    0  0.72245327057E+02  0.60469471185E+00  0.10238129955E+03  0.12530635832E+03  0.00000000000E+00 0. -1.
</event>
<event>
 7    1  0.5789396E-006  0.2116771E+03  0.7818608E-02  0.1256955E+00
          2   -1    0    0  502    0  0.00000000000E+00  0.00000000000E+00  0.25117768774E+04  0.25117768774E+04  0.00000000000E+00 0. -1.
          1   -1    0    0  501    0 -0.00000000000E+00 -0.00000000000E+00 -0.46842205671E+03  0.46842205671E+03  0.00000000000E+00 0. -1.
         25    2    1    2    0    0  0.88968459207E+02  0.20374021836E+03  0.11220320362E+04  0.11506543584E+04  0.12499639621E+03 0.  0.
          2    1    1    2  501    0 -0.13324881214E+03 -0.16439647038E+03 -0.42877282823E+03  0.47815016850E+03  0.00000000000E+00 0. -1.
          1    1    1    2  502    0  0.44280352930E+02 -0.39343747973E+02  0.13500956127E+04  0.13513944072E+04  0.00000000000E+00 0. -1.
         22    1    3    3    0    0  0.10956205540E+03  0.10794517643E+03  0.59277195280E+03  0.61240068021E+03  0.00000000000E+00 0.  1.
         22    1    3    3    0    0 -0.20593596197E+02  0.95795041931E+02  0.52926008339E+03  0.53825367824E+03  0.00000000000E+00 0.  1.
</event>
<event>
 7    1  0.5789396E-006  0.8886439E+02  0.7818608E-02  0.1364924E+00
          2   -1    0    0  502    0  0.00000000000E+00  0.00000000000E+00  0.48409920648E+03  0.48409920648E+03  0.00000000000E+00 0. -1.
          1   -1    0    0  501    0 -0.00000000000E+00 -0.00000000000E+00 -0.87355596202E+03  0.87355596202E+03  0.00000000000E+00 0. -1.
         25    2    1    2    0    0 -0.47263606812E+02  0.15222236122E+02 -0.48942119589E+02  0.14313110942E+03  0.12500247363E+03 0.  0.
          2    1    1    2  501    0 -0.15755635696E+02  0.50556481076E+02 -0.77185503280E+03  0.77366943166E+03  0.00000000000E+00 0. -1.
          1    1    1    2  502    0  0.63019242509E+02 -0.65778717198E+02  0.43134039684E+03  0.44085462741E+03  0.00000000000E+00 0. -1.
         22    1    3    3    0    0  0.36741872792E+02 -0.19551023001E+02 -0.26974702457E+02  0.49596797168E+02  0.00000000000E+00 0.  1.
         22    1    3    3    0    0 -0.84005479604E+02  0.34773259123E+02 -0.21967417132E+02  0.93534312255E+02  0.00000000000E+00 0.  1.
</event>
<event>
 7    1  0.5789396E-006  0.1306808E+03  0.7818608E-02  0.1290718E+00
          2   -1    0    0  502    0  0.00000000000E+00  0.00000000000E+00  0.42005168450E+03  0.42005168450E+03  0.00000000000E+00 0. -1.
          1   -1    0    0  501    0 -0.00000000000E+00 -0.00000000000E+00 -0.67356297207E+03  0.67356297207E+03  0.00000000000E+00 0. -1.
         25    2    1    2    0    0  0.21527121492E+02  0.12230515615E+03  0.15748661108E+02  0.17690674747E+03  0.12500403511E+03 0.  0.
          2    1    1    2  501    0 -0.87130448869E+02 -0.99794572822E+02 -0.58173441069E+03  0.59662852468E+03  0.00000000000E+00 0. -1.
          1    1    1    2  502    0  0.65603327378E+02 -0.22510583329E+02  0.31247446201E+03  0.32007938443E+03  0.00000000000E+00 0. -1.
         22    1    3    3    0    0 -0.32680064295E+01  0.11559953727E+03 -0.34322612226E+02  0.12063156550E+03  0.00000000000E+00 0.  1.
         22    1    3    3    0    0  0.24795127921E+02  0.67056188782E+01  0.50071273333E+02  0.56275181976E+02  0.00000000000E+00 0.  1.
</event>
<event>
 7    1  0.5789396E-006  0.5989292E+02  0.7818608E-02  0.1532968E+00
          2   -1    0    0  502    0  0.00000000000E+00  0.00000000000E+00  0.95293896929E+03  0.95293896929E+03  0.00000000000E+00 0. -1.
          1   -1    0    0  501    0 -0.00000000000E+00 -0.00000000000E+00 -0.18904104261E+03  0.18904104261E+03  0.00000000000E+00 0. -1.
         25    2    1    2    0    0 -0.78553093399E+01 -0.41733594277E+02 -0.13538406192E+02  0.13270628052E+03  0.12499707865E+03 0.  0.
          2    1    1    2  501    0 -0.19203261135E+02 -0.11994822327E+02 -0.11378934227E+03  0.11602006471E+03  0.00000000000E+00 0. -1.
          1    1    1    2  502    0  0.27058570475E+02  0.53728416604E+02  0.89122567514E+03  0.89325366667E+03  0.00000000000E+00 0. -1.
         22    1    3    3    0    0  0.15330801053E+02 -0.14563826308E+02  0.53068772903E+02  0.57126466327E+02  0.00000000000E+00 0. -1.
         22    1    3    3    0    0 -0.23186110393E+02 -0.27169767969E+02 -0.66607179095E+02  0.75579814194E+02  0.00000000000E+00 0. -1.
</event>
<event>
 7    1  0.5789396E-006  0.6305002E+02  0.7818608E-02  0.1515173E+00
          2   -1    0    0  502    0  0.00000000000E+00  0.00000000000E+00  0.64930720939E+03  0.64930720939E+03  0.00000000000E+00 0. -1.
          1   -1    0    0  501    0 -0.00000000000E+00 -0.00000000000E+00 -0.61899152451E+03  0.61899152451E+03  0.00000000000E+00 0. -1.
         25    2    1    2    0    0  0.30144770247E+02 -0.46871896014E+02  0.14085199008E+03  0.19639305538E+03  0.12500106912E+03 0.  0.
          2    1    1    2  501    0 -0.11353518301E+02  0.62136280818E+02 -0.58922710193E+03  0.59260306903E+03  0.00000000000E+00 0. -1.
          1    1    1    2  502    0 -0.18791251946E+02 -0.15264384804E+02  0.47869079673E+03  0.47930260949E+03  0.00000000000E+00 0. -1.
         22    1    3    3    0    0 -0.82119389586E+01  0.38369742570E+02  0.21334139296E+02  0.44663392010E+02  0.00000000000E+00 0.  1.
         22    1    3    3    0    0  0.38356709205E+02 -0.85241638584E+02  0.11951785079E+03  0.15172966337E+03  0.00000000000E+00 0.  1.
</event>
<event>
 7    1  0.9698093E-006  0.1045719E+03  0.7818608E-02  0.1360399E+00
          2   -1    0    0  502    0  0.00000000000E+00  0.00000000000E+00  0.31060857095E+04  0.31060857095E+04  0.00000000000E+00 0. -1.
          1   -1    0    0  501    0 -0.00000000000E+00 -0.00000000000E+00 -0.65662816519E+03  0.65662816519E+03  0.00000000000E+00 0. -1.
         25    2    1    2    0    0  0.40612004579E+02 -0.14097493803E+03 -0.23770199655E+03  0.30602366032E+03  0.12499989376E+03 0.  0.
          2    1    1    2  501    0  0.40425994280E+01  0.46562191784E+02 -0.38245464728E+03  0.38529980215E+03  0.00000000000E+00 0. -1.
          1    1    1    2  502    0 -0.44654604007E+02  0.94412746247E+02  0.30696141881E+04  0.30713904122E+04  0.00000000000E+00 0. -1.
         22    1    3    3    0    0  0.75754274401E+02 -0.93314452303E+02 -0.20689506278E+03  0.23927361765E+03  0.00000000000E+00 0. -1.
         22    1    3    3    0    0 -0.35142269822E+02 -0.47660485728E+02 -0.30806933768E+02  0.66750042668E+02  0.00000000000E+00 0. -1.
</event>
<event>
 7    1  0.5789396E-006  0.1225106E+03  0.7818608E-02  0.1340155E+00
          2   -1    0    0  502    0  0.00000000000E+00  0.00000000000E+00  0.14689529575E+04  0.14689529575E+04  0.00000000000E+00 0. -1.
          1   -1    0    0  501    0 -0.00000000000E+00 -0.00000000000E+00 -0.32011433782E+02  0.32011433782E+02  0.00000000000E+00 0. -1.
         25    2    1    2    0    0 -0.11194693952E+03  0.31606447722E+02  0.39246340357E+03  0.42800026081E+03  0.12500246121E+03 0.  0.
          2    1    1    2  501    0 -0.12724825007E+02 -0.45672361286E+02  0.44105776582E+02  0.64754963398E+02  0.00000000000E+00 0. -1.
          1    1    1    2  502    0  0.12467176453E+03  0.14065913564E+02  0.10003723435E+04  0.10082091670E+04  0.00000000000E+00 0. -1.
         22    1    3    3    0    0 -0.93509671992E+02 -0.27086011728E+02  0.15786772197E+03  0.18547217696E+03  0.00000000000E+00 0.  1.
         22    1    3    3    0    0 -0.18437267527E+02  0.58692459450E+02  0.23459568160E+03  0.24252808385E+03  0.00000000000E+00 0.  1.
</event>
<event>
 7    1  0.5789396E-006  0.5073768E+02  0.7818608E-02  0.1465175E+00
          2   -1    0    0  502    0  0.00000000000E+00  0.00000000000E+00  0.14134635007E+03  0.14134635007E+03  0.00000000000E+00 0. -1.
          1   -1    0    0  501    0 -0.00000000000E+00 -0.00000000000E+00 -0.11331303857E+04  0.11331303857E+04  0.00000000000E+00 0. -1.
         25    2    1    2    0    0 -0.27404737388E+02  0.82508956889E+02 -0.73359807927E+03  0.74923279146E+03  0.12499954512E+03 0.  0.
          2    1    1    2  501    0 -0.34405385410E+01 -0.42481524405E+02 -0.38571772647E+03  0.38806530602E+03  0.00000000000E+00 0. -1.
          1    1    1    2  502    0  0.30845275929E+02 -0.40027432484E+02  0.12753177015E+03  0.13717863826E+03  0.00000000000E+00 0. -1.
         22    1    3    3    0    0  0.27686201565E+02  0.86747749712E+02 -0.55046896425E+03  0.55794961999E+03  0.00000000000E+00 0. -1.
         22    1    3    3    0    0 -0.55090938953E+02 -0.42387928231E+01 -0.18312911502E+03  0.19128317147E+03  0.00000000000E+00 0. -1.
</event>
<event>
 7    1  0.5789396E-006  0.8212603E+02  0.7818608E-02  0.1342858E+00
          2   -1    0    0  502    0  0.00000000000E+00  0.00000000000E+00  0.52651300139E+03  0.52651300139E+03  0.00000000000E+00 0. -1.
          1   -1    0    0  501    0 -0.00000000000E+00 -0.00000000000E+00 -0.63111847423E+03  0.63111847423E+03  0.00000000000E+00 0. -1.
         25    2    1    2    0    0  0.80093378483E+02  0.12475843374E+03 -0.50911287700E+02  0.20049253466E+03  0.12500272467E+03 0.  0.
          2    1    1    2  501    0 -0.29403425951E+02 -0.62523909604E+02 -0.49945392682E+03  0.50421029913E+03  0.00000000000E+00 0. -1.
          1    1    1    2  502    0 -0.50689952533E+02 -0.62234524133E+02  0.44575974168E+03  0.45292864183E+03  0.00000000000E+00 0. -1.
         22    1    3    3    0    0 -0.34154059230E+02  0.26790926332E+02 -0.12378820881E+02  0.45138550065E+02  0.00000000000E+00 0. -1.
         22    1    3    3    0    0  0.11424743771E+03  0.97967507405E+02 -0.38532466819E+02  0.15535398460E+03  0.00000000000E+00 0. -1.
</event>
<event>
 7    1  0.5789396E-006  0.5063211E+02  0.7818608E-02  0.1450766E+00
          2   -1    0    0  502    0  0.00000000000E+00  0.00000000000E+00  0.11560433203E+03  0.11560433203E+03  0.00000000000E+00 0. -1.
          1   -1    0    0  501    0 -0.00000000000E+00 -0.00000000000E+00 -0.69056100659E+03  0.69056100659E+03  0.00000000000E+00 0. -1.
         25    2    1    2    0    0 -0.12258010423E+02 -0.25439571156E+02 -0.40913225169E+02  0.13451793939E+03  0.12499501360E+03 0.  0.
          2    1    1    2  501    0  0.42756775287E+02 -0.20543730854E+02 -0.59067649369E+03  0.59257818633E+03  0.00000000000E+00 0. -1.
          1    1    1    2  502    0 -0.30498764864E+02  0.45983302010E+02  0.56633044305E+02  0.79069212904E+02  0.00000000000E+00 0. -1.
         22    1    3    3    0    0 -0.37989431552E+02  0.30634078214E+02  0.15206754975E+02  0.51116426465E+02  0.00000000000E+00 0. -1.
         22    1    3    3    0    0  0.25731421129E+02 -0.56073649370E+02 -0.56119980144E+02  0.83401512926E+02  0.00000000000E+00 0. -1.
</event>
<event>
 7    1  0.5789396E-006  0.4187428E+02  0.7818608E-02  0.1537887E+00
          2   -1    0    0  502    0  0.00000000000E+00  0.00000000000E+00  0.92383716948E+03  0.92383716948E+03  0.00000000000E+00 0. -1.
          1   -1    0    0  501    0 -0.00000000000E+00 -0.00000000000E+00 -0.97086459635E+02  0.97086459635E+02  0.00000000000E+00 0. -1.
         25    2    1    2    0    0  0.29730731471E+01  0.11950963543E+02  0.10872423021E+03  0.16612479717E+03  0.12499930122E+03 0.  0.
          2    1    1    2  501    0 -0.18156303709E+02 -0.39387720474E+02 -0.61162405215E+02  0.74979221789E+02  0.00000000000E+00 0. -1.
          1    1    1    2  502    0  0.15183230562E+02  0.27436756930E+02  0.77918888484E+03  0.77981961016E+03  0.00000000000E+00 0. -1.
         22    1    3    3    0    0 -0.37282234118E+02  0.32957718742E+02  0.16138820548E+01  0.49787356033E+02  0.00000000000E+00 0. -1.
         22    1    3    3    0    0  0.40255307265E+02 -0.21006755199E+02  0.10711034816E+03  0.11633744113E+03  0.00000000000E+00 0. -1.
</event>
<event>
 7    1  0.5789396E-006  0.9203852E+02  0.7818608E-02  0.1351920E+00
          2   -1    0    0  502    0  0.00000000000E+00  0.00000000000E+00  0.77863423357E+03  0.77863423357E+03  0.00000000000E+00 0. -1.
          1   -1    0    0  501    0 -0.00000000000E+00 -0.00000000000E+00 -0.59047511417E+03  0.59047511417E+03  0.00000000000E+00 0. -1.
         25    2    1    2    0    0  0.12455980009E+03  0.66071091381E+02 -0.36621467426E+02  0.19195417383E+03  0.12499896023E+03 0.  0.
          2    1    1    2  501    0 -0.36430709482E+02 -0.43900058339E+02 -0.47151549705E+03  0.47495397216E+03  0.00000000000E+00 0. -1.
          1    1    1    2  502    0 -0.88129090608E+02 -0.22171033042E+02  0.69629608388E+03  0.70220120175E+03  0.00000000000E+00 0. -1.
         22    1    3    3    0    0  0.13316414362E+03  0.91358261906E+02 -0.34686854093E+02  0.16517323939E+03  0.00000000000E+00 0.  1.
         22    1    3    3    0    0 -0.86043435271E+01 -0.25287170526E+02 -0.19346133333E+01  0.26780934440E+02  0.00000000000E+00 0.  1.
</event>
<event>
 7    1  0.5789396E-006  0.6969861E+02  0.7818608E-02  0.1386012E+00
          2   -1    0    0  502    0  0.00000000000E+00  0.00000000000E+00  0.23608179981E+04  0.23608179981E+04  0.00000000000E+00 0. -1.
          1   -1    0    0  501    0 -0.00000000000E+00 -0.00000000000E+00 -0.11018741761E+03  0.11018741761E+03  0.00000000000E+00 0. -1.
         25    2    1    2    0    0 -0.58846954824E+01 -0.17326872077E+02  0.60806263218E+02  0.14020830257E+03  0.12500446523E+03 0.  0.
          2    1    1    2  501    0 -0.51945984426E+02 -0.22929843831E+02 -0.58408770713E+02  0.81460097792E+02  0.00000000000E+00 0. -1.
          1    1    1    2  502    0  0.57830679908E+02  0.40256715908E+02  0.22482330880E+04  0.22493370154E+04  0.00000000000E+00 0. -1.
         22    1    3    3    0    0 -0.44523256943E+02  0.38051889826E+02  0.32580906882E+02  0.67020759630E+02  0.00000000000E+00 0.  1.
         22    1    3    3    0    0  0.38638561461E+02 -0.55378761903E+02  0.28225356337E+02  0.73187542943E+02  0.00000000000E+00 0.  1.
</event>
<event>
 7    1  0.5789396E-006  0.6164909E+02  0.7818608E-02  0.1413836E+00
          2   -1    0    0  502    0  0.00000000000E+00  0.00000000000E+00  0.21626793145E+03  0.21626793145E+03  0.00000000000E+00 0. -1.
          1   -1    0    0  501    0 -0.00000000000E+00 -0.00000000000E+00 -0.47812817270E+03  0.47812817270E+03  0.00000000000E+00 0. -1.
         25    2    1    2    0    0 -0.10696041367E+03  0.71191902278E+01 -0.24119377232E+03  0.29204512041E+03  0.12499881435E+03 0.  0.
          2    1    1    2  501    0  0.47458369458E+02 -0.19999539128E+02 -0.20336045298E+03  0.20978024748E+03  0.00000000000E+00 0. -1.
          1    1    1    2  502    0  0.59502044210E+02  0.12880348900E+02  0.18269398405E+03  0.19257073625E+03  0.00000000000E+00 0. -1.
         22    1    3    3    0    0 -0.12648883040E+03  0.15111274028E+02 -0.14257677830E+03  0.19119600553E+03  0.00000000000E+00 0. -1.
         22    1    3    3    0    0  0.19528416730E+02 -0.79920838000E+01 -0.98616994025E+02  0.10084911489E+03  0.00000000000E+00 0. -1.
</event>
<event>
 7    1  0.5789396E-006  0.1478171E+03  0.7818608E-02  0.1211690E+00
          2   -1    0    0  502    0  0.00000000000E+00  0.00000000000E+00  0.32788586172E+03  0.32788586172E+03  0.00000000000E+00 0. -1.
          1   -1    0    0  501    0 -0.00000000000E+00 -0.00000000000E+00 -0.15094075742E+04  0.15094075742E+04  0.00000000000E+00 0. -1.
         25    2    1    2    0    0 -0.95279327039E+02 -0.70707696484E+02 -0.97076860410E+02  0.19780474226E+03  0.12500028292E+03 0.  0.
          2    1    1    2  501    0  0.10135300499E+03 -0.89066469099E+02 -0.13352517954E+04  0.13420516476E+04  0.00000000000E+00 0. -1.
          1    1    1    2  502    0 -0.60736779519E+01  0.15977416558E+03  0.25080694336E+03  0.29743704609E+03  0.00000000000E+00 0. -1.
         22    1    3    3    0    0 -0.20689517740E+02 -0.36659742234E+02  0.26323206956E+02  0.49647800248E+02  0.00000000000E+00 0.  1.
         22    1    3    3    0    0 -0.74589809298E+02 -0.34047954250E+02 -0.12340006737E+03  0.14815694201E+03  0.00000000000E+00 0.  1.
</event>
<event>
 7    1  0.5789396E-006  0.1295249E+03  0.7818608E-02  0.1316253E+00
          2   -1    0    0  502    0  0.00000000000E+00  0.00000000000E+00  0.78071006116E+03  0.78071006116E+03  0.00000000000E+00 0. -1.
          1   -1    0    0  501    0 -0.00000000000E+00 -0.00000000000E+00 -0.29241003132E+03  0.29241003132E+03  0.00000000000E+00 0. -1.
         25    2    1    2    0    0 -0.14536769388E+03 -0.10466964112E+03  0.54644613789E+03  0.58848666064E+03  0.12500267173E+03 0.  0.
          2    1    1    2  501    0  0.11373361051E+03  0.59224908275E+02 -0.25214994999E+03  0.28288252191E+03  0.00000000000E+00 0. -1.
          1    1    1    2  502    0  0.31634083368E+02  0.45444732842E+02  0.19400384194E+03  0.20175090994E+03  0.00000000000E+00 0. -1.
         22    1    3    3    0    0  0.78837106790E+01 -0.60730868405E+01 -0.23512242276E+01  0.10225631189E+02  0.00000000000E+00 0. -1.
         22    1    3    3    0    0 -0.15325140456E+03 -0.98596554276E+02  0.54879736212E+03  0.57826102945E+03  0.00000000000E+00 0. -1.
</event>
<event>
 7    1  0.5789396E-006  0.3527099E+02  0.7818608E-02  0.1553233E+00
          2   -1    0    0  502    0  0.00000000000E+00  0.00000000000E+00  0.46770063827E+03  0.46770063827E+03  0.00000000000E+00 0. -1.
          1   -1    0    0  501    0 -0.00000000000E+00 -0.00000000000E+00 -0.30109306231E+02  0.30109306231E+02  0.00000000000E+00 0. -1.
         25    2    1    2    0    0 -0.18982722594E+02 -0.20449885528E+02  0.23076034366E+03  0.26392175721E+03  0.12500326456E+03 0.  0.
          2    1    1    2  501    0 -0.14979537435E+02  0.31932050745E+02  0.14319416346E+02  0.38066889695E+02  0.00000000000E+00 0. -1.
          1    1    1    2  502    0  0.33962260029E+02 -0.11482165218E+02  0.19251157203E+03  0.19582129759E+03  0.00000000000E+00 0. -1.
         22    1    3    3    0    0 -0.32739583514E+02 -0.45947671459E+02  0.22793329250E+03  0.23481195598E+03  0.00000000000E+00 0. -1.
         22    1    3    3    0    0  0.13756860919E+02  0.25497785931E+02  0.28270511619E+01  0.29109801236E+02  0.00000000000E+00 0. -1.
</event>
<event>
 7    1  0.5789396E-006  0.1347699E+03  0.7818608E-02  0.1381664E+00
          2   -1    0    0  502    0  0.00000000000E+00  0.00000000000E+00  0.87528383976E+03  0.87528383976E+03  0.00000000000E+00 0. -1.
          1   -1    0    0  501    0 -0.00000000000E+00 -0.00000000000E+00 -0.35405291041E+02  0.35405291041E+02  0.00000000000E+00 0. -1.
         25    2    1    2    0    0  0.10578069901E+03 -0.47780491169E+02  0.48357263394E+03  0.51277695373E+03  0.12500072143E+03 0.  0.
          2    1    1    2  501    0 -0.13044026919E+03  0.65592205862E+02  0.28032711891E+03  0.31607007909E+03  0.00000000000E+00 0. -1.
          1    1    1    2  502    0  0.24659570174E+02 -0.17811714693E+02  0.75978795862E+02  0.81842097982E+02  0.00000000000E+00 0. -1.
         22    1    3    3    0    0  0.12839995877E+03 -0.56853569390E+02  0.35218126382E+03  0.37914445842E+03  0.00000000000E+00 0.  1.
         22    1    3    3    0    0 -0.22619259756E+02  0.90730782209E+01  0.13139137012E+03  0.13363249531E+03  0.00000000000E+00 0.  1.
</event>
<event>
 7    1  0.5789396E-006  0.5890078E+02  0.7818608E-02  0.1463434E+00
          2   -1    0    0  502    0  0.00000000000E+00  0.00000000000E+00  0.77937645761E+03  0.77937645761E+03  0.00000000000E+00 0. -1.
          1   -1    0    0  501    0 -0.00000000000E+00 -0.00000000000E+00 -0.14308535642E+03  0.14308535642E+03  0.00000000000E+00 0. -1.
         25    2    1    2    0    0 -0.62948437298E+02 -0.63911490030E+02  0.43475672820E+03  0.46117832721E+03  0.12499940983E+03 0.  0.
          2    1    1    2  501    0  0.30985991231E+02  0.20544696330E+02 -0.12496050297E+03  0.13037386050E+03  0.00000000000E+00 0. -1.
          1    1    1    2  502    0  0.31962446067E+02  0.43366793700E+02  0.32649487597E+03  0.33090962632E+03  0.00000000000E+00 0. -1.
         22    1    3    3    0    0 -0.65193827275E+02 -0.50546601885E+02  0.43922795962E+03  0.44690759066E+03  0.00000000000E+00 0. -1.
         22    1    3    3    0    0  0.22453899769E+01 -0.13364888145E+02 -0.44712314219E+01  0.14270736551E+02  0.00000000000E+00 0. -1.
</event>
<event>
 7    1  0.5789396E-006  0.1031584E+03  0.7818608E-02  0.1460983E+00
          2   -1    0    0  502    0  0.00000000000E+00  0.00000000000E+00  0.57947454867E+03  0.57947454867E+03  0.00000000000E+00 0. -1.
          1   -1    0    0  501    0 -0.00000000000E+00 -0.00000000000E+00 -0.38207549439E+03  0.38207549439E+03  0.00000000000E+00 0. -1.
         25    2    1    2    0    0  0.32578615897E+02  0.10214902325E+03 -0.10172478781E+03  0.19356829695E+03  0.12499985586E+03 0.  0.
          2    1    1    2  501    0 -0.50110189129E+02 -0.89517867667E+02 -0.22297123884E+03  0.24543971365E+03  0.00000000000E+00 0. -1.
          1    1    1    2  502    0  0.17531573232E+02 -0.12631155586E+02  0.52209508093E+03  0.52254203245E+03  0.00000000000E+00 0. -1.
         22    1    3    3    0    0  0.26399519398E+02  0.70844907029E+02 -0.13035864006E+03  0.15069608660E+03  0.00000000000E+00 0. -1.
         22    1    3    3    0    0  0.61790964986E+01  0.31304116224E+02  0.28633852251E+02  0.42872210356E+02  0.00000000000E+00 0. -1.
</event>
<event>
 7    1  0.5789396E-006  0.1285891E+03  0.7818608E-02  0.1437358E+00
          2   -1    0    0  502    0  0.00000000000E+00  0.00000000000E+00  0.59509888460E+03  0.59509888460E+03  0.00000000000E+00 0. -1.
          1   -1    0    0  501    0 -0.00000000000E+00 -0.00000000000E+00 -0.18793637065E+03  0.18793637065E+03  0.00000000000E+00 0. -1.
         25    2    1    2    0    0 -0.12718726996E+03 -0.19370272049E+01  0.10750733560E+02  0.17866173122E+03  0.12499632882E+03 0.  0.
          2    1    1    2  501    0  0.12832022941E+03 -0.18666474440E+02 -0.63232257304E+02  0.14426654813E+03  0.00000000000E+00 0. -1.
          1    1    1    2  502    0 -0.11329594557E+01  0.20603501645E+02  0.45964403769E+03  0.46010697589E+03  0.00000000000E+00 0. -1.
         22    1    3    3    0    0 -0.46960273489E+02  0.60207305007E+02 -0.20098477312E+01  0.76382107527E+02  0.00000000000E+00 0. -1.
         22    1    3    3    0    0 -0.80226996470E+02 -0.62144332211E+02  0.12760581291E+02  0.10227962370E+03  0.00000000000E+00 0. -1.
</event>
<event>
 7    1  0.5789396E-006  0.9719436E+02  0.7818608E-02  0.1310845E+00
          2   -1    0    0  502    0  0.00000000000E+00  0.00000000000E+00  0.23430561563E+04  0.23430561563E+04  0.00000000000E+00 0. -1.
          1   -1    0    0  501    0 -0.00000000000E+00 -0.00000000000E+00 -0.38920712702E+03  0.38920712702E+03  0.00000000000E+00 0. -1.
         25    2    1    2    0    0  0.52221906235E+02 -0.77829285338E+02  0.49154564636E+03  0.51577785792E+03  0.12500060447E+03 0.  0.
          2    1    1    2  501    0  0.47124292636E+02  0.61500675965E+02 -0.37171590136E+03  0.37970481090E+03  0.00000000000E+00 0. -1.
          1    1    1    2  502    0 -0.99346198871E+02  0.16328609373E+02  0.18340192842E+04  0.18367806145E+04  0.00000000000E+00 0. -1.
         22    1    3    3    0    0  0.90349235940E+02 -0.75506043644E+02  0.35711577930E+03  0.37602636461E+03  0.00000000000E+00 0. -1.
         22    1    3    3    0    0 -0.38127329706E+02 -0.23232416938E+01  0.13442986706E+03  0.13975149330E+03  0.00000000000E+00 0. -1.
</event>
<event>
 7    1  0.5789396E-006  0.5888921E+02  0.7818608E-02  0.1440289E+00
          2   -1    0    0  502    0  0.00000000000E+00  0.00000000000E+00  0.48479055762E+03  0.48479055762E+03  0.00000000000E+00 0. -1.
          1   -1    0    0  501    0 -0.00000000000E+00 -0.00000000000E+00 -0.15361070218E+03  0.15361070218E+03  0.00000000000E+00 0. -1.
         25    2    1    2    0    0 -0.51912158373E+02 -0.49115300657E+02  0.57576977678E+02  0.15507479158E+03  0.12500359066E+03 0.  0.
          2    1    1    2  501    0  0.88078388156E+01  0.58336272605E+02 -0.95145675874E+02  0.11195266126E+03  0.00000000000E+00 0. -1.
          1    1    1    2  502    0  0.43104319557E+02 -0.92209719489E+01  0.36874855363E+03  0.37137380696E+03  0.00000000000E+00 0. -1.
         22    1    3    3    0    0  0.20375278400E+02  0.23389999886E+02 -0.97748817376E+01  0.32523720229E+02  0.00000000000E+00 0. -1.
         22    1    3    3    0    0 -0.72287436773E+02 -0.72505300543E+02  0.67351859416E+02  0.12255107135E+03  0.00000000000E+00 0. -1.
</event>
<event>
 7    1  0.5789396E-006  0.9565118E+02  0.7818608E-02  0.1338188E+00
          2   -1    0    0  502    0  0.00000000000E+00  0.00000000000E+00  0.15798631006E+04  0.15798631006E+04  0.00000000000E+00 0. -1.
          1   -1    0    0  501    0 -0.00000000000E+00 -0.00000000000E+00 -0.12552965353E+03  0.12552965353E+03  0.00000000000E+00 0. -1.
         25    2    1    2    0    0 -0.43192290210E+02  0.19478791423E+02  0.12735520980E+03  0.18463248526E+03  0.12499923160E+03 0.  0.
          2    1    1    2  501    0  0.10435135107E+03 -0.10812622018E+02 -0.67607372832E+02  0.12480734805E+03  0.00000000000E+00 0. -1.
          1    1    1    2  502    0 -0.61159060861E+02 -0.86661694052E+01  0.13945856101E+04  0.13959529208E+04  0.00000000000E+00 0. -1.
         22    1    3    3    0    0 -0.33463331675E+02  0.20639663545E+01  0.15043552993E+03  0.15412625730E+03  0.00000000000E+00 0.  1.
         22    1    3    3    0    0 -0.97289585354E+01  0.17414825069E+02 -0.23080320137E+02  0.30506227955E+02  0.00000000000E+00 0.  1.
</event>
<event>
 7    1  0.6791624E-006  0.6383869E+02  0.7818608E-02  0.1423907E+00
          2   -1    0    0  502    0  0.00000000000E+00  0.00000000000E+00  0.11242237115E+04  0.11242237115E+04  0.00000000000E+00 0. -1.
          1   -1    0    0  501    0 -0.00000000000E+00 -0.00000000000E+00 -0.30435850122E+04  0.30435850122E+04  0.00000000000E+00 0. -1.
         25    2    1    2    0    0 -0.17631420075E+02  0.87918521340E+01 -0.18556400630E+03  0.22460365656E+03  0.12499855386E+03 0.  0.
          2    1    1    2  501    0  0.47961189731E+02 -0.43404824288E+02 -0.28376531285E+04  0.28383903065E+04  0.00000000000E+00 0. -1.
          1    1    1    2  502    0 -0.30329769655E+02  0.34612972154E+02  0.11038558341E+04  0.11048147606E+04  0.00000000000E+00 0. -1.
         22    1    3    3    0    0  0.16422410563E+02 -0.26889234750E+02  0.11062916402E+01  0.31526978849E+02  0.00000000000E+00 0.  1.
         22    1    3    3    0    0 -0.34053830638E+02  0.35681086884E+02 -0.18667029794E+03  0.19307667771E+03  0.00000000000E+00 0.  1.
</event>
<event>
 7    1  0.5789396E-006  0.1348658E+03  0.7818608E-02  0.1327899E+00
          2   -1    0    0  502    0  0.00000000000E+00  0.00000000000E+00  0.18161821231E+03  0.18161821231E+03  0.00000000000E+00 0. -1.
          1   -1    0    0  501    0 -0.00000000000E+00 -0.00000000000E+00 -0.84984768853E+03  0.84984768853E+03  0.00000000000E+00 0. -1.
         25    2    1    2    0    0  0.83949162746E+02  0.72784575650E+02 -0.10522934922E+03  0.19759326194E+03  0.12499929939E+03 0.  0.
          2    1    1    2  501    0 -0.12817114485E+03 -0.54275192500E+02 -0.68698437263E+03  0.70094305556E+03  0.00000000000E+00 0. -1.
          1    1    1    2  502    0  0.44221982101E+02 -0.18509383150E+02  0.12398424563E+03  0.13292958335E+03  0.00000000000E+00 0. -1.
         22    1    3    3    0    0  0.32417711408E+02  0.45177225387E+02  0.20239170301E+02  0.59173589727E+02  0.00000000000E+00 0. -1.
         22    1    3    3    0    0  0.51531451338E+02  0.27607350263E+02 -0.12546851952E+03  0.13841967221E+03  0.00000000000E+00 0. -1.
</event>
<event>
 7    1  0.5789396E-006  0.7140816E+02  0.7818608E-02  0.1439267E+00
          2   -1    0    0  502    0  0.00000000000E+00  0.00000000000E+00  0.60536996263E+03  0.60536996263E+03  0.00000000000E+00 0. -1.
          1   -1    0    0  501    0 -0.00000000000E+00 -0.00000000000E+00 -0.10558919380E+03  0.10558919380E+03  0.00000000000E+00 0. -1.
         25    2    1    2    0    0 -0.41595908003E+02  0.99426511140E+01  0.59705876789E+02  0.14498119572E+03  0.12500271803E+03 0.  0.
          2    1    1    2  501    0 -0.31217840089E+02 -0.19163070912E+02 -0.54676282520E+02  0.65812405341E+02  0.00000000000E+00 0. -1.
          1    1    1    2  502    0  0.72813748091E+02  0.92204197978E+01  0.49475117456E+03  0.50016555537E+03  0.00000000000E+00 0. -1.
         22    1    3    3    0    0 -0.62546795303E+02  0.85183201436E+01  0.88892424654E+02  0.10902534816E+03  0.00000000000E+00 0. -1.
         22    1    3    3    0    0  0.20950887300E+02  0.14243309704E+01 -0.29186547865E+02  0.35955847559E+02  0.00000000000E+00 0. -1.
</event>
<event>
 7    1  0.5789396E-006  0.1391555E+03  0.7818608E-02  0.1428538E+00
          2   -1    0    0  502    0  0.00000000000E+00  0.00000000000E+00  0.40627194143E+03  0.40627194143E+03  0.00000000000E+00 0. -1.
          1   -1    0    0  501    0 -0.00000000000E+00 -0.00000000000E+00 -0.66378888726E+03  0.66378888726E+03  0.00000000000E+00 0. -1.
         25    2    1    2    0    0  0.43935177864E+02  0.11130287088E+03  0.27638227529E+03  0.32608329849E+03  0.12499810614E+03 0.  0.
          2    1    1    2  501    0 -0.55234485544E+02 -0.12826420860E+03 -0.63022860620E+03  0.64551580281E+03  0.00000000000E+00 0. -1.
          1    1    1    2  502    0  0.11299307680E+02  0.16961337719E+02  0.96329385072E+02  0.98461727384E+02  0.00000000000E+00 0. -1.
         22    1    3    3    0    0  0.56181226131E+02  0.11882391089E+03  0.15230784688E+03  0.20117935329E+03  0.00000000000E+00 0.  1.
         22    1    3    3    0    0 -0.12246048267E+02 -0.75210400059E+01  0.12407442842E+03  0.12490394521E+03  0.00000000000E+00 0.  1.
</event>
<event>
 7    1  0.5789396E-006  0.1712814E+03  0.7818608E-02  0.1283355E+00
          2   -1    0    0  502    0  0.00000000000E+00  0.00000000000E+00  0.10416081212E+04  0.10416081212E+04  0.00000000000E+00 0. -1.
          1   -1    0    0  501    0 -0.00000000000E+00 -0.00000000000E+00 -0.43142977360E+03  0.43142977360E+03  0.00000000000E+00 0. -1.
         25    2    1    2    0    0  0.58916634681E+02 -0.11576711998E+03  0.39653887618E+03  0.43559300032E+03  0.12499994279E+03 0.  0.
          2    1    1    2  501    0 -0.38916051659E+02  0.16883667769E+03 -0.39229931721E+03  0.42885782853E+03  0.00000000000E+00 0. -1.
          1    1    1    2  502    0 -0.20000583022E+02 -0.53069557714E+02  0.60593878868E+03  0.60858706600E+03  0.00000000000E+00 0. -1.
         22    1    3    3    0    0 -0.12296248310E+02 -0.48942582661E+02  0.27543688012E+03  0.28002151533E+03  0.00000000000E+00 0. -1.
         22    1    3    3    0    0  0.71212882991E+02 -0.66824537320E+02  0.12110199606E+03  0.15557148499E+03  0.00000000000E+00 0. -1.
</event>
<event>
 7    1  0.5789396E-006  0.2624400E+03  0.7818608E-02  0.1203026E+00
          2   -1    0    0  502    0  0.00000000000E+00  0.00000000000E+00  0.95945360118E+03  0.95945360118E+03  0.00000000000E+00 0. -1.
          1   -1    0    0  501    0 -0.00000000000E+00 -0.00000000000E+00 -0.47023016519E+03  0.47023016519E+03  0.00000000000E+00 0. -1.
         25    2    1    2    0    0 -0.18096184985E+03  0.81935437134E+02  0.13051703241E+03  0.26855198734E+03  0.12499946879E+03 0.  0.
          2    1    1    2  501    0  0.26419786297E+03 -0.87100593442E+02 -0.35025235701E+03  0.44728485081E+03  0.00000000000E+00 0. -1.
          1    1    1    2  502    0 -0.83236013122E+02  0.51651563087E+01  0.70895876059E+03  0.71384692823E+03  0.00000000000E+00 0. -1.
         22    1    3    3    0    0 -0.30197786183E+02 -0.29489638973E+02  0.40287481837E+01  0.42400187606E+02  0.00000000000E+00 0. -1.
         22    1    3    3    0    0 -0.15076406366E+03  0.11142507611E+03  0.12648828422E+03  0.22615179973E+03  0.00000000000E+00 0. -1.
</event>
<event>
 7    1  0.5789396E-006  0.9673671E+02  0.7818608E-02  0.1420615E+00
          2   -1    0    0  502    0  0.00000000000E+00  0.00000000000E+00  0.10223009343E+03  0.10223009343E+03  0.00000000000E+00 0. -1.
          1   -1    0    0  501    0 -0.00000000000E+00 -0.00000000000E+00 -0.97454666913E+03  0.97454666913E+03  0.00000000000E+00 0. -1.
         25    2    1    2    0    0 -0.27305595974E+02  0.11555857542E+03 -0.29203227290E+03  0.33912638401E+03  0.12499790396E+03 0.  0.
          2    1    1    2  501    0  0.37343532080E+02 -0.86073696162E+02 -0.65239146806E+03  0.65910382199E+03  0.00000000000E+00 0. -1.
          1    1    1    2  502    0 -0.10037936106E+02 -0.29484879257E+02  0.72107165262E+02  0.78546556565E+02  0.00000000000E+00 0. -1.
         22    1    3    3    0    0  0.17929411112E+02  0.32926383073E+02 -0.21266900129E+03  0.21594840725E+03  0.00000000000E+00 0.  1.
         22    1    3    3    0    0 -0.45235007086E+02  0.82632192346E+02 -0.79363271608E+02  0.12317797676E+03  0.00000000000E+00 0.  1.
</event>
<event>
 7    1  0.5789396E-006  0.7263948E+02  0.7818608E-02  0.1422267E+00
          2   -1    0    0  502    0  0.00000000000E+00  0.00000000000E+00  0.57107967177E+03  0.57107967177E+03  0.00000000000E+00 0. -1.
          1   -1    0    0  501    0 -0.00000000000E+00 -0.00000000000E+00 -0.73557625367E+02  0.73557625367E+02  0.00000000000E+00 0. -1.
         25    2    1    2    0    0 -0.38609202874E+02  0.30496263348E+02  0.55019611143E+02  0.14516545609E+03  0.12500063763E+03 0.  0.
          2    1    1    2  501    0  0.73833274438E+02 -0.51393853982E+02  0.46331330336E+02  0.10118929198E+03  0.00000000000E+00 0. -1.
          1    1    1    2  502    0 -0.35224071563E+02  0.20897590634E+02  0.39617110493E+03  0.39828254907E+03  0.00000000000E+00 0. -1.
         22    1    3    3    0    0 -0.32752609983E+02  0.70062816823E+02  0.68135049521E+02  0.10307238590E+03  0.00000000000E+00 0. -1.
         22    1    3    3    0    0 -0.58565928912E+01 -0.39566553475E+02 -0.13115438378E+02  0.42093070190E+02  0.00000000000E+00 0. -1.
</event>
<event>
 7    1  0.5789396E-006  0.9475454E+02  0.7818608E-02  0.1297470E+00
          2   -1    0    0  502    0  0.00000000000E+00  0.00000000000E+00  0.37006932665E+04  0.37006932665E+04  0.00000000000E+00 0. -1.
          1   -1    0    0  501    0 -0.00000000000E+00 -0.00000000000E+00 -0.68159381543E+02  0.68159381543E+02  0.00000000000E+00 0. -1.
         25    2    1    2    0    0 -0.53786766867E+01 -0.78871265491E+02  0.39924230550E+03  0.42575618464E+03  0.12499721427E+03 0.  0.
          2    1    1    2  501    0 -0.83479730526E+02  0.45968268332E+02 -0.12328616681E+02  0.96093401914E+02  0.00000000000E+00 0. -1.
          1    1    1    2  502    0  0.88858407213E+02  0.32902997159E+02  0.32456201962E+04  0.32470030615E+04  0.00000000000E+00 0. -1.
         22    1    3    3    0    0 -0.44256128907E+02  0.33056237591E+01  0.22381713453E+03  0.22817458624E+03  0.00000000000E+00 0. -1.
         22    1    3    3    0    0  0.38877452221E+02 -0.82176889250E+02  0.17542517097E+03  0.19758159841E+03  0.00000000000E+00 0. -1.
</event>
<event>
 7    1  0.5789396E-006  0.1622784E+03  0.7818608E-02  0.1206717E+00
          2   -1    0    0  502    0  0.00000000000E+00  0.00000000000E+00  0.23212939640E+04  0.23212939640E+04  0.00000000000E+00 0. -1.
          1   -1    0    0  501    0 -0.00000000000E+00 -0.00000000000E+00 -0.27393667787E+03  0.27393667787E+03  0.00000000000E+00 0. -1.
         25    2    1    2    0    0 -0.15244913005E+02 -0.14122016472E+03 -0.20536485561E+03  0.27924292687E+03  0.12500538385E+03 0.  0.
          2    1    1    2  501    0 -0.11976101122E+03  0.49568211572E+02  0.11875517516E+03  0.17579106643E+03  0.00000000000E+00 0. -1.
          1    1    1    2  502    0  0.13500592423E+03  0.91651953148E+02  0.21339669665E+04  0.21401966485E+04  0.00000000000E+00 0. -1.
         22    1    3    3    0    0 -0.24911591062E+02 -0.14213621004E+03 -0.10512644318E+03  0.17853531479E+03  0.00000000000E+00 0. -1.
         22    1    3    3    0    0  0.96666780570E+01  0.91604531616E+00 -0.10023841243E+03  0.10070761208E+03  0.00000000000E+00 0. -1.
</event>
<event>
 7    1  0.5789396E-006  0.6005524E+02  0.7818608E-02  0.1477468E+00
          2   -1    0    0  502    0  0.00000000000E+00  0.00000000000E+00  0.20724034780E+03  0.20724034780E+03  0.00000000000E+00 0. -1.
          1   -1    0    0  501    0 -0.00000000000E+00 -0.00000000000E+00 -0.12817142955E+04  0.12817142955E+04  0.00000000000E+00 0. -1.
         25    2    1    2    0    0  0.28304513059E+02  0.18008612933E+02 -0.56628356088E+03  0.58087396709E+03  0.12494814411E+03 0.  0.
          2    1    1    2  501    0 -0.49158967209E+02 -0.43555951134E+02 -0.70523936362E+03  0.70829110184E+03  0.00000000000E+00 0. -1.
          1    1    1    2  502    0  0.20854454150E+02  0.25547338201E+02  0.19704897683E+03  0.19978957435E+03  0.00000000000E+00 0. -1.
         22    1    3    3    0    0  0.40754160242E+02  0.35728234051E+02 -0.97186032014E+02  0.11127683094E+03  0.00000000000E+00 0. -1.
         22    1    3    3    0    0 -0.12449647183E+02 -0.17719621118E+02 -0.46909752887E+03  0.46959713615E+03  0.00000000000E+00 0. -1.
</event>
<event>
 7    1  0.5789396E-006  0.8939898E+02  0.7818608E-02  0.1366795E+00
          2   -1    0    0  502    0  0.00000000000E+00  0.00000000000E+00  0.36750292116E+03  0.36750292116E+03  0.00000000000E+00 0. -1.
          1   -1    0    0  501    0 -0.00000000000E+00 -0.00000000000E+00 -0.21473254010E+04  0.21473254010E+04  0.00000000000E+00 0. -1.
         25    2    1    2    0    0  0.99057507604E+02  0.53674588160E+02  0.93082492100E+02  0.19232282367E+03  0.12502146592E+03 0.  0.
          2    1    1    2  501    0 -0.89279757511E+02 -0.27811656013E+01 -0.20937534819E+04  0.20956579523E+04  0.00000000000E+00 0. -1.
          1    1    1    2  502    0 -0.97777500929E+01 -0.50893422559E+02  0.22084850997E+03  0.22684754619E+03  0.00000000000E+00 0. -1.
         22    1    3    3    0    0  0.78194828234E+02  0.43708664965E+02 -0.67617468462E+01  0.89836516941E+02  0.00000000000E+00 0. -1.
         22    1    3    3    0    0  0.20862679370E+02  0.99659231951E+01  0.99844238946E+02  0.10248630673E+03  0.00000000000E+00 0. -1.
</event>
<event>
 7    1  0.5789396E-006  0.7990754E+02  0.7818608E-02  0.1399812E+00
          2   -1    0    0  502    0  0.00000000000E+00  0.00000000000E+00  0.10886513284E+04  0.10886513284E+04  0.00000000000E+00 0. -1.
          1   -1    0    0  501    0 -0.00000000000E+00 -0.00000000000E+00 -0.75285558663E+02  0.75285558663E+02  0.00000000000E+00 0. -1.
         25    2    1    2    0    0  0.64211835587E+02  0.88634485098E+01  0.34711130645E+03  0.37458311174E+03  0.12499811193E+03 0.  0.
          2    1    1    2  501    0 -0.62162468988E+02 -0.53165982473E+02 -0.33357489493E+02  0.88337513822E+02  0.00000000000E+00 0. -1.
          1    1    1    2  502    0 -0.20493665993E+01  0.44302533963E+02  0.69961195283E+03  0.70101626155E+03  0.00000000000E+00 0. -1.
         22    1    3    3    0    0  0.39903741855E+02  0.28534148082E+02  0.33469028480E+02  0.59385874484E+02  0.00000000000E+00 0.  1.
         22    1    3    3    0    0  0.24308093732E+02 -0.19670699573E+02  0.31364227797E+03  0.31519723726E+03  0.00000000000E+00 0.  1.
</event>
<event>
 7    1  0.5789396E-006  0.2781722E+03  0.7818608E-02  0.1219737E+00
          2   -1    0    0  502    0  0.00000000000E+00  0.00000000000E+00  0.18977725239E+04  0.18977725239E+04  0.00000000000E+00 0. -1.
          1   -1    0    0  501    0 -0.00000000000E+00 -0.00000000000E+00 -0.92147893171E+03  0.92147893171E+03  0.00000000000E+00 0. -1.
         25    2    1    2    0    0 -0.22725915284E+03  0.24723111416E+03  0.17437873108E+03  0.39850057088E+03  0.12499926714E+03 0.  0.
          2    1    1    2  501    0  0.19896751400E+03 -0.18776898419E+03 -0.78559894121E+03  0.83187196099E+03  0.00000000000E+00 0. -1.
          1    1    1    2  502    0  0.28291638834E+02 -0.59462129968E+02  0.15875138023E+04  0.15888789237E+04  0.00000000000E+00 0. -1.
         22    1    3    3    0    0 -0.21548774905E+03  0.18093041729E+03  0.10110959690E+03  0.29898818786E+03  0.00000000000E+00 0. -1.
         22    1    3    3    0    0 -0.11771403790E+02  0.66300696864E+02  0.73269134187E+02  0.99512383030E+02  0.00000000000E+00 0. -1.
</event>
<event>
 7    1  0.5789396E-006  0.6855603E+02  0.7818608E-02  0.1366743E+00
          2   -1    0    0  502    0  0.00000000000E+00  0.00000000000E+00  0.64792777723E+03  0.64792777723E+03  0.00000000000E+00 0. -1.
          1   -1    0    0  501    0 -0.00000000000E+00 -0.00000000000E+00 -0.13859932113E+04  0.13859932113E+04  0.00000000000E+00 0. -1.
         25    2    1    2    0    0  0.79446877862E+02  0.12023188175E+02 -0.31818095568E+02  0.15194982597E+03  0.12497997820E+03 0.  0.
          2    1    1    2  501    0 -0.46825110169E+02  0.48768844002E+02 -0.12911975554E+04  0.12929664026E+04  0.00000000000E+00 0. -1.
          1    1    1    2  502    0 -0.32621767693E+02 -0.60792032177E+02  0.58495021696E+03  0.58900475993E+03  0.00000000000E+00 0. -1.
         22    1    3    3    0    0  0.74404571601E+02  0.62696624485E+02 -0.25880038452E+02  0.10068109747E+03  0.00000000000E+00 0. -1.
         22    1    3    3    0    0  0.50423062604E+01 -0.50673436310E+02 -0.59380571163E+01  0.51268728502E+02  0.00000000000E+00 0. -1.
</event>
<event>
 7    1  0.5789396E-006  0.1239522E+03  0.7818608E-02  0.1356275E+00
          2   -1    0    0  502    0  0.00000000000E+00  0.00000000000E+00  0.14528487792E+04  0.14528487792E+04  0.00000000000E+00 0. -1.
          1   -1    0    0  501    0 -0.00000000000E+00 -0.00000000000E+00 -0.59592208996E+03  0.59592208996E+03  0.00000000000E+00 0. -1.
         25    2    1    2    0    0 -0.87960155271E+01  0.10041419331E+03  0.48157086897E+03  0.50763885334E+03  0.12500529382E+03 0.  0.
          2    1    1    2  501    0 -0.31314519754E+02  0.26191281731E+02 -0.57756255307E+03  0.57900352771E+03  0.00000000000E+00 0. -1.
          1    1    1    2  502    0  0.40110535281E+02 -0.12660547504E+03  0.95291837335E+03  0.96212848810E+03  0.00000000000E+00 0. -1.
         22    1    3    3    0    0  0.49107251331E+02  0.83785669436E+02  0.34420676110E+03  0.35764487264E+03  0.00000000000E+00 0. -1.
         22    1    3    3    0    0 -0.57903266858E+02  0.16628523870E+02  0.13736410787E+03  0.14999398071E+03  0.00000000000E+00 0. -1.
</event>
<event>
 7    1  0.5789396E-006  0.2268533E+03  0.7818608E-02  0.1351347E+00
          2   -1    0    0  502    0  0.00000000000E+00  0.00000000000E+00  0.14936490403E+03  0.14936490403E+03  0.00000000000E+00 0. -1.
          1   -1    0    0  501    0 -0.00000000000E+00 -0.00000000000E+00 -0.16772021605E+04  0.16772021605E+04  0.00000000000E+00 0. -1.
         25    2    1    2    0    0  0.17839298573E+02 -0.24467978474E+03 -0.39984612257E+03  0.48547721655E+03  0.12499907367E+03 0.  0.
          2    1    1    2  501    0 -0.20545177035E+02  0.22157948193E+03 -0.12230998917E+04  0.12431785536E+04  0.00000000000E+00 0. -1.
          1    1    1    2  502    0  0.27058784616E+01  0.23100302814E+02  0.95108757762E+02  0.97911294401E+02  0.00000000000E+00 0. -1.
         22    1    3    3    0    0  0.46896789883E+02 -0.58526257905E+02 -0.56732653456E+02  0.94038426900E+02  0.00000000000E+00 0. -1.
         22    1    3    3    0    0 -0.29057491309E+02 -0.18615352684E+03 -0.34311346911E+03  0.39143878965E+03  0.00000000000E+00 0. -1.
</event>
<event>
 7    1  0.5789396E-006  0.3219788E+03  0.7818608E-02  0.1214029E+00
          2   -1    0    0  502    0  0.00000000000E+00  0.00000000000E+00  0.18887786404E+04  0.18887786404E+04  0.00000000000E+00 0. -1.
          1   -1    0    0  501    0 -0.00000000000E+00 -0.00000000000E+00 -0.10930663142E+04  0.10930663142E+04  0.00000000000E+00 0. -1.
         25    2    1    2    0    0  0.21405000321E+03 -0.28299990812E+03  0.45049208392E+03  0.58693149002E+03  0.12505640501E+03 0.  0.
          2    1    1    2  501    0 -0.22889869457E+03  0.22442995265E+03 -0.99908338256E+03  0.10492526013E+04  0.00000000000E+00 0. -1.
          1    1    1    2  502    0  0.14848691360E+02  0.58569955473E+02  0.13443036248E+04  0.13456608633E+04  0.00000000000E+00 0. -1.
         22    1    3    3    0    0  0.79249545777E+02 -0.20660209643E+03  0.26548800865E+03  0.34561365641E+03  0.00000000000E+00 0. -1.
         22    1    3    3    0    0  0.13480045743E+03 -0.76397811689E+02  0.18500407527E+03  0.24131783362E+03  0.00000000000E+00 0. -1.
</event>
<event>
 7    1  0.8825622E-006  0.9064820E+02  0.7818608E-02  0.1314666E+00
          2   -1    0    0  502    0  0.00000000000E+00  0.00000000000E+00  0.77442307247E+03  0.77442307247E+03  0.00000000000E+00 0. -1.
          1   -1    0    0  501    0 -0.00000000000E+00 -0.00000000000E+00 -0.11445954518E+04  0.11445954518E+04  0.00000000000E+00 0. -1.
         25    2    1    2    0    0 -0.11745881414E+02  0.50586320232E+01 -0.45693733097E+03  0.47389918455E+03  0.12500062875E+03 0.  0.
          2    1    1    2  501    0 -0.78797028019E+02 -0.15232506619E+02 -0.67407875679E+03  0.67883957696E+03  0.00000000000E+00 0. -1.
          1    1    1    2  502    0  0.90542909433E+02  0.10173874596E+02  0.76084370843E+03  0.76627976277E+03  0.00000000000E+00 0. -1.
         22    1    3    3    0    0 -0.56079525780E+02 -0.20508755882E+02 -0.35334281068E+03  0.35835270913E+03  0.00000000000E+00 0. -1.
         22    1    3    3    0    0  0.44333644366E+02  0.25567387905E+02 -0.10359452029E+03  0.11554647542E+03  0.00000000000E+00 0. -1.
</event>
<event>
 7    1  0.5789396E-006  0.6416263E+02  0.7818608E-02  0.1480873E+00
          2   -1    0    0  502    0  0.00000000000E+00  0.00000000000E+00  0.71402326424E+03  0.71402326424E+03  0.00000000000E+00 0. -1.
          1   -1    0    0  501    0 -0.00000000000E+00 -0.00000000000E+00 -0.56200947536E+03  0.56200947536E+03  0.00000000000E+00 0. -1.
         25    2    1    2    0    0 -0.36709637906E+02  0.15036594787E+02 -0.17884871035E+03  0.22177863301E+03  0.12500081666E+03 0.  0.
          2    1    1    2  501    0 -0.27587207504E+02 -0.12121839671E+02 -0.35956884905E+03  0.36082925356E+03  0.00000000000E+00 0. -1.
          1    1    1    2  502    0  0.64296845410E+02 -0.29147551153E+01  0.69043134827E+03  0.69342485304E+03  0.00000000000E+00 0. -1.
         22    1    3    3    0    0 -0.66190731118E+02 -0.84879792556E+01 -0.17057657225E+03  0.18316556903E+03  0.00000000000E+00 0. -1.
         22    1    3    3    0    0  0.29481093212E+02  0.23524574042E+02 -0.82721380990E+01  0.38613063975E+02  0.00000000000E+00 0. -1.
</event>
<event>
 7    1  0.5789396E-006  0.1110216E+03  0.7818608E-02  0.1384335E+00
          2   -1    0    0  502    0  0.00000000000E+00  0.00000000000E+00  0.80508108100E+03  0.80508108100E+03  0.00000000000E+00 0. -1.
          1   -1    0    0  501    0 -0.00000000000E+00 -0.00000000000E+00 -0.61488537624E+03  0.61488537624E+03  0.00000000000E+00 0. -1.
         25    2    1    2    0    0 -0.53948976702E+02  0.90350955138E+02 -0.19265668802E+03  0.25261741171E+03  0.12500068032E+03 0.  0.
          2    1    1    2  501    0  0.31044325478E+02  0.18491324076E+02 -0.38741304331E+03  0.38909451980E+03  0.00000000000E+00 0. -1.
          1    1    1    2  502    0  0.22904651224E+02 -0.10884227921E+03  0.77026543609E+03  0.77825452573E+03  0.00000000000E+00 0. -1.
         22    1    3    3    0    0 -0.70879255618E+01  0.10335704496E+03 -0.16973480643E+03  0.19885377026E+03  0.00000000000E+00 0. -1.
         22    1    3    3    0    0 -0.46861051140E+02 -0.13006089825E+02 -0.22921881584E+02  0.53763641449E+02  0.00000000000E+00 0. -1.
</event>
<event>
 7    1  0.5789396E-006  0.2824695E+02  0.7818608E-02  0.1668118E+00
          2   -1    0    0  502    0  0.00000000000E+00  0.00000000000E+00  0.10116017767E+04  0.10116017767E+04  0.00000000000E+00 0. -1.
          1   -1    0    0  501    0 -0.00000000000E+00 -0.00000000000E+00 -0.63902460825E+03  0.63902460825E+03  0.00000000000E+00 0. -1.
         25    2    1    2    0    0 -0.13363665832E+02 -0.44476898668E+01  0.24586941201E+03  0.27617986607E+03  0.12500072461E+03 0.  0.
          2    1    1    2  501    0  0.11854342343E+02  0.25664269547E+02 -0.62339829693E+03  0.62403895454E+03  0.00000000000E+00 0. -1.
          1    1    1    2  502    0  0.15093234891E+01 -0.21216579680E+02  0.75010605342E+03  0.75040756439E+03  0.00000000000E+00 0. -1.
         22    1    3    3    0    0 -0.73109708958E+01  0.13197279792E+02 -0.10976463382E+02  0.18657471365E+02  0.00000000000E+00 0.  1.
         22    1    3    3    0    0 -0.60526949361E+01 -0.17644969658E+02  0.25684587539E+03  0.25752239471E+03  0.00000000000E+00 0.  1.
</event>
<event>
 7    1  0.5789396E-006  0.2500137E+02  0.7818608E-02  0.1699146E+00
          2   -1    0    0  502    0  0.00000000000E+00  0.00000000000E+00  0.12458665667E+04  0.12458665667E+04  0.00000000000E+00 0. -1.
          1   -1    0    0  501    0 -0.00000000000E+00 -0.00000000000E+00 -0.38864317998E+02  0.38864317998E+02  0.00000000000E+00 0. -1.
         25    2    1    2    0    0 -0.13203559276E+02 -0.43200833369E+02  0.67775323728E+03  0.69066270616E+03  0.12499950821E+03 0.  0.
          2    1    1    2  501    0  0.72605691360E+01  0.23776133909E+02 -0.27429660817E+02  0.37019004584E+02  0.00000000000E+00 0. -1.
          1    1    1    2  502    0  0.59429901405E+01  0.19424699460E+02  0.55667867226E+03  0.55704917398E+03  0.00000000000E+00 0. -1.
         22    1    3    3    0    0 -0.28134544286E+01 -0.54469948727E+02  0.11074909898E+03  0.12345142269E+03  0.00000000000E+00 0. -1.
         22    1    3    3    0    0 -0.10390104848E+02  0.11269115358E+02  0.56700413830E+03  0.56721128346E+03  0.00000000000E+00 0. -1.
</event>
<event>
 7    1  0.5789396E-006  0.1056113E+03  0.7818608E-02  0.1306138E+00
          2   -1    0    0  502    0  0.00000000000E+00  0.00000000000E+00  0.31016262264E+04  0.31016262264E+04  0.00000000000E+00 0. -1.
          1   -1    0    0  501    0 -0.00000000000E+00 -0.00000000000E+00 -0.19287151034E+02  0.19287151034E+02  0.00000000000E+00 0. -1.
         25    2    1    2    0    0  0.73350276311E+02 -0.28945719637E+02  0.12294033440E+04  0.12382598631E+04  0.12504714569E+03 0.  0.
          2    1    1    2  501    0 -0.42512325730E+01 -0.74302338226E+02  0.96674640061E+02  0.12200367402E+03  0.00000000000E+00 0. -1.
          1    1    1    2  502    0 -0.69099043738E+02  0.10324805786E+03  0.17562610913E+04  0.17606498403E+04  0.00000000000E+00 0. -1.
         22    1    3    3    0    0  0.10525348083E+03 -0.87896384650E+00  0.89454473733E+03  0.90071602344E+03  0.00000000000E+00 0. -1.
         22    1    3    3    0    0 -0.31903204521E+02 -0.28066755790E+02  0.33485860668E+03  0.33754383968E+03  0.00000000000E+00 0. -1.
</event>
<event>
 7    1  0.5789396E-006  0.9978134E+02  0.7818608E-02  0.1399119E+00
          2   -1    0    0  502    0  0.00000000000E+00  0.00000000000E+00  0.23614216869E+03  0.23614216869E+03  0.00000000000E+00 0. -1.
          1   -1    0    0  501    0 -0.00000000000E+00 -0.00000000000E+00 -0.10407178939E+04  0.10407178939E+04  0.00000000000E+00 0. -1.
         25    2    1    2    0    0  0.44307646014E+02  0.85690690920E+02 -0.38977343397E+03  0.42054086941E+03  0.12500092404E+03 0.  0.
          2    1    1    2  501    0 -0.75582087747E+02 -0.68449267686E+02 -0.62998955973E+03  0.63818868652E+03  0.00000000000E+00 0. -1.
          1    1    1    2  502    0  0.31274441734E+02 -0.17241423235E+02  0.21518726853E+03  0.21813050662E+03  0.00000000000E+00 0. -1.
         22    1    3    3    0    0 -0.41551832214E+02  0.38205478765E+02 -0.10308251831E+03  0.11752539704E+03  0.00000000000E+00 0. -1.
         22    1    3    3    0    0  0.85859478228E+02  0.47485212155E+02 -0.28669091565E+03  0.30301547236E+03  0.00000000000E+00 0. -1.
</event>
<event>
 7    1  0.5789396E-006  0.8636965E+02  0.7818608E-02  0.1365675E+00
          2   -1    0    0  502    0  0.00000000000E+00  0.00000000000E+00  0.17554658076E+04  0.17554658076E+04  0.00000000000E+00 0. -1.
          1   -1    0    0  501    0 -0.00000000000E+00 -0.00000000000E+00 -0.29650226060E+02  0.29650226060E+02  0.00000000000E+00 0. -1.
         25    2    1    2    0    0 -0.84088336935E+01 -0.77373810392E+02  0.22976341680E+03  0.27289854733E+03  0.12499989767E+03 0.  0.
          2    1    1    2  501    0  0.54096312109E+02  0.22784074337E+01  0.10272862032E+03  0.11612394911E+03  0.00000000000E+00 0. -1.
          1    1    1    2  502    0 -0.45687478415E+02  0.75095402959E+02  0.13933235445E+04  0.13960935373E+04  0.00000000000E+00 0. -1.
         22    1    3    3    0    0 -0.28434118587E+02  0.23570997123E+02  0.27800574086E+02  0.46227296317E+02  0.00000000000E+00 0. -1.
         22    1    3    3    0    0  0.20025284894E+02 -0.10094480752E+03  0.20196284271E+03  0.22667125101E+03  0.00000000000E+00 0. -1.
</event>
<event>
 7    1  0.5789396E-006  0.1235182E+03  0.7818608E-02  0.1330571E+00
          2   -1    0    0  502    0  0.00000000000E+00  0.00000000000E+00  0.19408464140E+04  0.19408464140E+04  0.00000000000E+00 0. -1.
          1   -1    0    0  501    0 -0.00000000000E+00 -0.00000000000E+00 -0.22875137944E+03  0.22875137944E+03  0.00000000000E+00 0. -1.
         25    2    1    2    0    0  0.10382492127E+03  0.13637001639E+03  0.30343124173E+03  0.37023677340E+03  0.12501341637E+03 0.  0.
          2    1    1    2  501    0 -0.67898934631E+02 -0.99994189213E+02 -0.17620067206E+03  0.21367213209E+03  0.00000000000E+00 0. -1.
          1    1    1    2  502    0 -0.35925986638E+02 -0.36375827177E+02  0.15848644649E+04  0.15856888880E+04  0.00000000000E+00 0. -1.
         22    1    3    3    0    0  0.38510314484E+02  0.44669781164E+02  0.22606912702E+03  0.23363579320E+03  0.00000000000E+00 0. -1.
         22    1    3    3    0    0  0.65314606784E+02  0.91700235226E+02  0.77362114712E+02  0.13660098020E+03  0.00000000000E+00 0. -1.
</event>
<event>
 7    1  0.5789396E-006  0.1109100E+03  0.7818608E-02  0.1271821E+00
          2   -1    0    0  502    0  0.00000000000E+00  0.00000000000E+00  0.56863243333E+03  0.56863243333E+03  0.00000000000E+00 0. -1.
          1   -1    0    0  501    0 -0.00000000000E+00 -0.00000000000E+00 -0.69721016885E+03  0.69721016885E+03  0.00000000000E+00 0. -1.
         25    2    1    2    0    0  0.47290949088E+02 -0.28391099381E+02 -0.89237654267E+01  0.13694896455E+03  0.12503158366E+03 0.  0.
          2    1    1    2  501    0 -0.72309047672E+01  0.11759409496E+03 -0.61388169934E+03  0.62508511256E+03  0.00000000000E+00 0. -1.
          1    1    1    2  502    0 -0.40060044320E+02 -0.89202995579E+02  0.49422772926E+03  0.50380852508E+03  0.00000000000E+00 0. -1.
         22    1    3    3    0    0 -0.20911699561E+01 -0.67152571066E+02  0.16560099631E+02  0.69195936964E+02  0.00000000000E+00 0. -1.
         22    1    3    3    0    0  0.49382119044E+02  0.38761471685E+02 -0.25483865058E+02  0.67753027583E+02  0.00000000000E+00 0. -1.
</event>
<event>
 7    1  0.5789396E-006  0.9202563E+02  0.7818608E-02  0.1375546E+00
          2   -1    0    0  502    0  0.00000000000E+00  0.00000000000E+00  0.21536906794E+04  0.21536906794E+04  0.00000000000E+00 0. -1.
          1   -1    0    0  501    0 -0.00000000000E+00 -0.00000000000E+00 -0.15975063874E+04  0.15975063874E+04  0.00000000000E+00 0. -1.
         25    2    1    2    0    0 -0.11556045281E+02 -0.63768431493E+02  0.21489442728E+03  0.25691362339E+03  0.12500015989E+03 0.  0.
          2    1    1    2  501    0 -0.45585745090E+02 -0.10735615764E+02 -0.15749992661E+04  0.15756954026E+04  0.00000000000E+00 0. -1.
          1    1    1    2  502    0  0.57141790372E+02  0.74504047258E+02  0.19162891308E+04  0.19185880408E+04  0.00000000000E+00 0. -1.
         22    1    3    3    0    0 -0.10741266019E+02 -0.46535479481E+02  0.69585898087E+01  0.48263315451E+02  0.00000000000E+00 0.  1.
         22    1    3    3    0    0 -0.81477926249E+00 -0.17232952012E+02  0.20793583747E+03  0.20865030794E+03  0.00000000000E+00 0.  1.
</event>
<event>
 7    1  0.5789396E-006  0.1767871E+03  0.7818608E-02  0.1315149E+00
          2   -1    0    0  502    0  0.00000000000E+00  0.00000000000E+00  0.16890257512E+04  0.16890257512E+04  0.00000000000E+00 0. -1.
          1   -1    0    0  501    0 -0.00000000000E+00 -0.00000000000E+00 -0.28656197834E+03  0.28656197834E+03  0.00000000000E+00 0. -1.
         25    2    1    2    0    0  0.16121384240E+03  0.11484621379E+03  0.27419996307E+03  0.36054078290E+03  0.12499792233E+03 0.  0.
          2    1    1    2  501    0 -0.32610929805E+01 -0.40842921713E+02 -0.23607439962E+03  0.23960363339E+03  0.00000000000E+00 0. -1.
          1    1    1    2  502    0 -0.15795274942E+03 -0.74003292076E+02  0.13643382094E+04  0.13754433132E+04  0.00000000000E+00 0. -1.
         22    1    3    3    0    0  0.84608507363E+02  0.59858166368E+02  0.23790321409E+03  0.25949862981E+03  0.00000000000E+00 0.  1.
         22    1    3    3    0    0  0.76605335036E+02  0.54988047420E+02  0.36296748980E+02  0.10104215309E+03  0.00000000000E+00 0.  1.
</event>
<event>
 7    1  0.5789396E-006  0.2228186E+03  0.7818608E-02  0.1239796E+00
          2   -1    0    0  502    0  0.00000000000E+00  0.00000000000E+00  0.13088396240E+04  0.13088396240E+04  0.00000000000E+00 0. -1.
          1   -1    0    0  501    0 -0.00000000000E+00 -0.00000000000E+00 -0.45906470896E+03  0.45906470896E+03  0.00000000000E+00 0. -1.
         25    2    1    2    0    0  0.10501859586E+02 -0.26435028877E+03  0.79153290721E+03  0.84388429604E+03  0.12499999065E+03 0.  0.
          2    1    1    2  501    0 -0.55112847127E+02  0.21459701739E+03 -0.40196710825E+03  0.45898459877E+03  0.00000000000E+00 0. -1.
          1    1    1    2  502    0  0.44610987541E+02  0.49753271380E+02  0.46020911610E+03  0.46503543818E+03  0.00000000000E+00 0. -1.
         22    1    3    3    0    0 -0.34680718451E+02 -0.23691344506E+03  0.66267064659E+03  0.70460138981E+03  0.00000000000E+00 0.  1.
         22    1    3    3    0    0  0.45182578038E+02 -0.27436843712E+02  0.12886226063E+03  0.13928290622E+03  0.00000000000E+00 0.  1.
</event>
<event>
 7    1  0.5789396E-006  0.1126000E+03  0.7818608E-02  0.1288144E+00
          2   -1    0    0  502    0  0.00000000000E+00  0.00000000000E+00  0.17990911654E+04  0.17990911654E+04  0.00000000000E+00 0. -1.
          1   -1    0    0  501    0 -0.00000000000E+00 -0.00000000000E+00 -0.13215452840E+03  0.13215452840E+03  0.00000000000E+00 0. -1.
         25    2    1    2    0    0 -0.16126766699E+03  0.10185156018E+03  0.26711978612E+03  0.35122518933E+03  0.12500061102E+03 0.  0.
          2    1    1    2  501    0  0.73431387078E+02 -0.37518860886E+02 -0.68788011888E+02  0.10738539989E+03  0.00000000000E+00 0. -1.
          1    1    1    2  502    0  0.87836279910E+02 -0.64332699292E+02  0.14686048628E+04  0.14726351046E+04  0.00000000000E+00 0. -1.
         22    1    3    3    0    0 -0.15390783641E+03  0.12124382405E+03  0.19596963182E+03  0.27711330458E+03  0.00000000000E+00 0.  1.
         22    1    3    3    0    0 -0.73598305765E+01 -0.19392263872E+02  0.71150154306E+02  0.74111884755E+02  0.00000000000E+00 0.  1.
</event>
<event>
 7    1  0.5789396E-006  0.1471285E+03  0.7818608E-02  0.1241862E+00
          2   -1    0    0  502    0  0.00000000000E+00  0.00000000000E+00  0.42574472674E+03  0.42574472674E+03  0.00000000000E+00 0. -1.
          1   -1    0    0  501    0 -0.00000000000E+00 -0.00000000000E+00 -0.56512941598E+03  0.56512941598E+03  0.00000000000E+00 0. -1.
         25    2    1    2    0    0 -0.16019921452E+03  0.17620805940E+03  0.95158619727E+01  0.26912592881E+03  0.12500058160E+03 0.  0.
          2    1    1    2  501    0  0.10018663578E+03 -0.97340803669E+02 -0.41495471745E+03  0.43783559881E+03  0.00000000000E+00 0. -1.
          1    1    1    2  502    0  0.60012578740E+02 -0.78867255732E+02  0.26605416625E+03  0.28391261510E+03  0.00000000000E+00 0. -1.
         22    1    3    3    0    0 -0.16443611476E+03  0.10813721935E+03 -0.13176450209E+02  0.19724733936E+03  0.00000000000E+00 0. -1.
         22    1    3    3    0    0  0.42369002398E+01  0.68070840053E+02  0.22692312182E+02  0.71878589450E+02  0.00000000000E+00 0. -1.
</event>
<event>
 7    1  0.5789396E-006  0.8781081E+02  0.7818608E-02  0.1364491E+00
          2   -1    0    0  502    0  0.00000000000E+00  0.00000000000E+00  0.14032358674E+04  0.14032358674E+04  0.00000000000E+00 0. -1.
          1   -1    0    0  501    0 -0.00000000000E+00 -0.00000000000E+00 -0.34653107038E+02  0.34653107038E+02  0.00000000000E+00 0. -1.
         25    2    1    2    0    0 -0.90891845388E+01 -0.89993022751E+02  0.48573362974E+03  0.50965114490E+03  0.12500309204E+03 0.  0.
          2    1    1    2  501    0  0.52590618925E+02  0.11267715615E+02  0.15133125392E+02  0.55872588075E+02  0.00000000000E+00 0. -1.
          1    1    1    2  502    0 -0.43501434386E+02  0.78725307136E+02  0.86771600523E+03  0.87236524146E+03  0.00000000000E+00 0. -1.
         22    1    3    3    0    0 -0.12047043139E+02 -0.11802496143E+03  0.44180434641E+03  0.45745612169E+03  0.00000000000E+00 0. -1.
         22    1    3    3    0    0  0.29578586000E+01  0.28031938680E+02  0.43929283332E+02  0.52195023208E+02  0.00000000000E+00 0. -1.
</event>
<event>
 7    1  0.5789396E-006  0.2705191E+02  0.7818608E-02  0.1650698E+00
          2   -1    0    0  502    0  0.00000000000E+00  0.00000000000E+00  0.38184432076E+03  0.38184432076E+03  0.00000000000E+00 0. -1.
          1   -1    0    0  501    0 -0.00000000000E+00 -0.00000000000E+00 -0.17557817965E+03  0.17557817965E+03  0.00000000000E+00 0. -1.
         25    2    1    2    0    0 -0.11578088629E+02 -0.49020727323E+01  0.83312528010E+02  0.15073447579E+03  0.12498728902E+03 0.  0.
          2    1    1    2  501    0  0.20669618458E+02 -0.17824355956E+02 -0.13998073734E+03  0.14261678590E+03  0.00000000000E+00 0. -1.
          1    1    1    2  502    0 -0.90915298297E+01  0.22726428689E+02  0.26293435044E+03  0.26407123872E+03  0.00000000000E+00 0. -1.
         22    1    3    3    0    0  0.29485372182E+02 -0.50015805368E+02  0.64751173553E+02  0.86969433917E+02  0.00000000000E+00 0. -1.
         22    1    3    3    0    0 -0.41063460811E+02  0.45113732636E+02  0.18561354457E+02  0.63765041876E+02  0.00000000000E+00 0. -1.
</event>
<event>
 7    1  0.1445602E-005  0.1199361E+03  0.7818608E-02  0.1292767E+00
          2   -1    0    0  502    0  0.00000000000E+00  0.00000000000E+00  0.18316584975E+04  0.18316584975E+04  0.00000000000E+00 0. -1.
          1   -1    0    0  501    0 -0.00000000000E+00 -0.00000000000E+00 -0.12436508053E+04  0.12436508053E+04  0.00000000000E+00 0. -1.
         25    2    1    2    0    0 -0.56793064698E+02 -0.15110290760E+02 -0.42116225880E+03  0.44323513909E+03  0.12500386875E+03 0.  0.
          2    1    1    2  501    0 -0.30531533915E+02 -0.67560841247E+02 -0.80776703773E+03  0.81116227050E+03  0.00000000000E+00 0. -1.
          1    1    1    2  502    0  0.87324598612E+02  0.82671132008E+02  0.18169369887E+04  0.18209118931E+04  0.00000000000E+00 0. -1.
         22    1    3    3    0    0  0.97580866836E+01 -0.57374339247E+02 -0.15184144178E+03  0.16261260253E+03  0.00000000000E+00 0. -1.
         22    1    3    3    0    0 -0.66551151381E+02  0.42264048487E+02 -0.26932081702E+03  0.28062253656E+03  0.00000000000E+00 0. -1.
</event>
<event>
 7    1  0.6023246E-006  0.5930180E+02  0.7818608E-02  0.1448417E+00
          2   -1    0    0  502    0  0.00000000000E+00  0.00000000000E+00  0.32786158826E+04  0.32786158826E+04  0.00000000000E+00 0. -1.
          1   -1    0    0  501    0 -0.00000000000E+00 -0.00000000000E+00 -0.95642736508E+03  0.95642736508E+03  0.00000000000E+00 0. -1.
         25    2    1    2    0    0  0.47107435007E+00  0.95967740150E+02  0.17580997632E+02  0.15857150955E+03  0.12500321237E+03 0.  0.
          2    1    1    2  501    0  0.14263488306E+02 -0.38661368911E+02 -0.88517838454E+03  0.88613707800E+03  0.00000000000E+00 0. -1.
          1    1    1    2  502    0 -0.14734562656E+02 -0.57306371240E+02  0.31897859045E+04  0.31903346602E+04  0.00000000000E+00 0. -1.
         22    1    3    3    0    0  0.55559793350E+02  0.64593439468E+02 -0.16213826880E+02  0.86729990439E+02  0.00000000000E+00 0.  1.
         22    1    3    3    0    0 -0.55088719000E+02  0.31374300682E+02  0.33794824512E+02  0.71841519111E+02  0.00000000000E+00 0.  1.
</event>
<event>
 7    1  0.5789396E-006  0.1773019E+03  0.7818608E-02  0.1186171E+00
          2   -1    0    0  502    0  0.00000000000E+00  0.00000000000E+00  0.25120032103E+04  0.25120032103E+04  0.00000000000E+00 0. -1.
          1   -1    0    0  501    0 -0.00000000000E+00 -0.00000000000E+00 -0.10783076944E+04  0.10783076944E+04  0.00000000000E+00 0. -1.
         25    2    1    2    0    0  0.58476777720E+02 -0.30202129189E+03  0.35741529229E+03  0.48785891761E+03  0.12499695210E+03 0.  0.
          2    1    1    2  501    0  0.17310606338E+02  0.17432723604E+03 -0.10028448050E+04  0.10180311121E+04  0.00000000000E+00 0. -1.
          1    1    1    2  502    0 -0.75787384059E+02  0.12769405586E+03  0.20791250286E+04  0.20844208750E+04  0.00000000000E+00 0. -1.
         22    1    3    3    0    0  0.59645147145E+02 -0.27015422512E+03  0.24020038961E+03  0.36638378252E+03  0.00000000000E+00 0. -1.
         22    1    3    3    0    0 -0.11683694241E+01 -0.31867066773E+02  0.11721490269E+03  0.12147513508E+03  0.00000000000E+00 0. -1.
</event>
<event>
 7    1  0.5789396E-006  0.1511668E+03  0.7818608E-02  0.1228009E+00
          2   -1    0    0  502    0  0.00000000000E+00  0.00000000000E+00  0.64361176890E+03  0.64361176890E+03  0.00000000000E+00 0. -1.
          1   -1    0    0  501    0 -0.00000000000E+00 -0.00000000000E+00 -0.86286697726E+03  0.86286697726E+03  0.00000000000E+00 0. -1.
         25    2    1    2    0    0 -0.17626657891E+02  0.10518857249E+03  0.18493364793E+03  0.24737188280E+03  0.12496823361E+03 0.  0.
          2    1    1    2  501    0 -0.10425309492E+03  0.38565617380E+02 -0.80687677665E+03  0.81449748148E+03  0.00000000000E+00 0. -1.
          1    1    1    2  502    0  0.12187975281E+03 -0.14375418987E+03  0.40268792036E+03  0.44460938188E+03  0.00000000000E+00 0. -1.
         22    1    3    3    0    0  0.17588581903E+02  0.15841545346E+02  0.13884587782E+03  0.14084917664E+03  0.00000000000E+00 0.  1.
         22    1    3    3    0    0 -0.35215239794E+02  0.89347027148E+02  0.46087770107E+02  0.10652270616E+03  0.00000000000E+00 0.  1.
</event>
<event>
 7    1  0.5789396E-006  0.9834170E+02  0.7818608E-02  0.1424236E+00
          2   -1    0    0  502    0  0.00000000000E+00  0.00000000000E+00  0.73395807521E+03  0.73395807521E+03  0.00000000000E+00 0. -1.
          1   -1    0    0  501    0 -0.00000000000E+00 -0.00000000000E+00 -0.32805241578E+03  0.32805241578E+03  0.00000000000E+00 0. -1.
         25    2    1    2    0    0 -0.77047888987E+01  0.76282103026E+02  0.15022738107E+03  0.20993187318E+03  0.12499920936E+03 0.  0.
          2    1    1    2  501    0 -0.20450236457E+02  0.21675139511E+02 -0.29274845953E+03  0.29426125195E+03  0.00000000000E+00 0. -1.
          1    1    1    2  502    0  0.28155025356E+02 -0.97957242537E+02  0.54842673789E+03  0.55781736585E+03  0.00000000000E+00 0. -1.
         22    1    3    3    0    0  0.10379887379E+02 -0.32843854694E+02  0.23385915655E+02  0.41633663113E+02  0.00000000000E+00 0.  1.
         22    1    3    3    0    0 -0.18084676278E+02  0.10912595772E+03  0.12684146541E+03  0.16829821007E+03  0.00000000000E+00 0.  1.
</event>
<event>
 7    1  0.5789396E-006  0.3736229E+03  0.7818608E-02  0.1239958E+00
          2   -1    0    0  502    0  0.00000000000E+00  0.00000000000E+00  0.37212065522E+03  0.37212065522E+03  0.00000000000E+00 0. -1.
          1   -1    0    0  501    0 -0.00000000000E+00 -0.00000000000E+00 -0.15537145111E+04  0.15537145111E+04  0.00000000000E+00 0. -1.
         25    2    1    2    0    0 -0.88332446293E+02 -0.34961691287E+03 -0.41864350064E+03  0.56649994029E+03  0.12500077955E+03 0.  0.
          2    1    1    2  501    0 -0.39446008470E+02 -0.51969652754E+01 -0.94131901789E+03  0.94215948197E+03  0.00000000000E+00 0. -1.
          1    1    1    2  502    0  0.12777845476E+03  0.35481387814E+03  0.17836866264E+03  0.41717574407E+03  0.00000000000E+00 0. -1.
         22    1    3    3    0    0 -0.11058347721E+03 -0.21694321584E+03 -0.30585126540E+03  0.39094508678E+03  0.00000000000E+00 0. -1.
         22    1    3    3    0    0  0.22251030920E+02 -0.13267369703E+03 -0.11279223524E+03  0.17555485351E+03  0.00000000000E+00 0. -1.
</event>
<event>
 7    1  0.5789396E-006  0.7830890E+02  0.7818608E-02  0.1454753E+00
          2   -1    0    0  502    0  0.00000000000E+00  0.00000000000E+00  0.21370036164E+03  0.21370036164E+03  0.00000000000E+00 0. -1.
          1   -1    0    0  501    0 -0.00000000000E+00 -0.00000000000E+00 -0.17127268754E+04  0.17127268754E+04  0.00000000000E+00 0. -1.
         25    2    1    2    0    0 -0.94643320731E+02 -0.17639360584E+01 -0.20954489579E+02  0.15819191038E+03  0.12500048099E+03 0.  0.
          2    1    1    2  501    0  0.75295361117E+02 -0.20883075399E+02 -0.16206735769E+04  0.16225561122E+04  0.00000000000E+00 0. -1.
          1    1    1    2  502    0  0.19347959613E+02  0.22647011457E+02  0.14260155277E+03  0.14567921445E+03  0.00000000000E+00 0. -1.
         22    1    3    3    0    0 -0.27020720202E+02  0.88709037023E+01  0.51302545807E+02  0.58658021267E+02  0.00000000000E+00 0. -1.
         22    1    3    3    0    0 -0.67622600529E+02 -0.10634839761E+02 -0.72257035385E+02  0.99533889112E+02  0.00000000000E+00 0. -1.
</event>
<event>
 7    1  0.5789396E-006  0.6311677E+02  0.7818608E-02  0.1430679E+00
          2   -1    0    0  502    0  0.00000000000E+00  0.00000000000E+00  0.81554845731E+03  0.81554845731E+03  0.00000000000E+00 0. -1.
          1   -1    0    0  501    0 -0.00000000000E+00 -0.00000000000E+00 -0.29766918205E+03  0.29766918205E+03  0.00000000000E+00 0. -1.
         25    2    1    2    0    0 -0.45255197457E+02  0.10928512448E+02  0.15601615971E+03  0.20526336520E+03  0.12499816688E+03 0.  0.
          2    1    1    2  501    0  0.92339119796E+01  0.43234417689E+02 -0.26957425641E+03  0.27317532781E+03  0.00000000000E+00 0. -1.
          1    1    1    2  502    0  0.36021285477E+02 -0.54162930137E+02  0.63143737196E+03  0.63477894634E+03  0.00000000000E+00 0. -1.
         22    1    3    3    0    0  0.40665835095E+02 -0.83310850126E+01  0.28706434289E+02  0.50469560044E+02  0.00000000000E+00 0. -1.
         22    1    3    3    0    0 -0.85921032552E+02  0.19259597461E+02  0.12730972542E+03  0.15479380516E+03  0.00000000000E+00 0. -1.
</event>
<event>
 7    1  0.5789396E-006  0.7814260E+02  0.7818608E-02  0.1359693E+00
          2   -1    0    0  502    0  0.00000000000E+00  0.00000000000E+00  0.10646949509E+04  0.10646949509E+04  0.00000000000E+00 0. -1.
          1   -1    0    0  501    0 -0.00000000000E+00 -0.00000000000E+00 -0.20976884839E+03  0.20976884839E+03  0.00000000000E+00 0. -1.
         25    2    1    2    0    0  0.27458154187E+02 -0.52547114937E+02 -0.28023043611E+02  0.14115937433E+03  0.12500211385E+03 0.  0.
          2    1    1    2  501    0 -0.83934161082E+02  0.24815406698E+02 -0.10875814037E+03  0.13960329832E+03  0.00000000000E+00 0. -1.
          1    1    1    2  502    0  0.56476006895E+02  0.27731708239E+02  0.99170728646E+03  0.99370112660E+03  0.00000000000E+00 0. -1.
         22    1    3    3    0    0 -0.11963334196E+02  0.23518299653E+02  0.28251006961E+02  0.38656838696E+02  0.00000000000E+00 0. -1.
         22    1    3    3    0    0  0.39421488383E+02 -0.76065414590E+02 -0.56274050572E+02  0.10250253563E+03  0.00000000000E+00 0. -1.
</event>
<event>
 7    1  0.5789396E-006  0.1184369E+03  0.7818608E-02  0.1373148E+00
          2   -1    0    0  502    0  0.00000000000E+00  0.00000000000E+00  0.17189330522E+03  0.17189330522E+03  0.00000000000E+00 0. -1.
          1   -1    0    0  501    0 -0.00000000000E+00 -0.00000000000E+00 -0.34893846225E+03  0.34893846225E+03  0.00000000000E+00 0. -1.
         25    2    1    2    0    0  0.11110722778E+03  0.57088128509E+02 -0.79521484183E+02  0.19378738349E+03  0.12500405223E+03 0.  0.
          2    1    1    2  501    0 -0.84078449514E+02 -0.82522044661E+02 -0.19215555253E+03  0.22539483112E+03  0.00000000000E+00 0. -1.
          1    1    1    2  502    0 -0.27028778262E+02  0.25433916151E+02  0.94631879674E+02  0.10164955286E+03  0.00000000000E+00 0. -1.
         22    1    3    3    0    0  0.16665050875E+02 -0.15451824594E+02  0.26102004194E+02  0.34609210145E+02  0.00000000000E+00 0. -1.
         22    1    3    3    0    0  0.94442176900E+02  0.72539953103E+02 -0.10562348838E+03  0.15917817335E+03  0.00000000000E+00 0. -1.
</event>
<event>
 7    1  0.5789396E-006  0.9960565E+02  0.7818608E-02  0.1339316E+00
          2   -1    0    0  502    0  0.00000000000E+00  0.00000000000E+00  0.33207240805E+03  0.33207240805E+03  0.00000000000E+00 0. -1.
          1   -1    0    0  501    0 -0.00000000000E+00 -0.00000000000E+00 -0.53568689187E+03  0.53568689187E+03  0.00000000000E+00 0. -1.
         25    2    1    2    0    0 -0.12278162672E+03  0.70749760941E+02 -0.15157126895E+03  0.24224020180E+03  0.12500243703E+03 0.  0.
          2    1    1    2  501    0  0.26382221944E+02 -0.52482063576E+02 -0.32769937839E+03  0.33292232011E+03  0.00000000000E+00 0. -1.
          1    1    1    2  502    0  0.96399404776E+02 -0.18267697365E+02  0.27565616352E+03  0.29259677800E+03  0.00000000000E+00 0. -1.
         22    1    3    3    0    0  0.19452370786E+01 -0.27224288503E+02 -0.83579599136E+01  0.28544725006E+02  0.00000000000E+00 0.  1.
         22    1    3    3    0    0 -0.12472686380E+03  0.97974049444E+02 -0.14321330904E+03  0.21369547680E+03  0.00000000000E+00 0.  1.
</event>
<event>
 7    1  0.5789396E-006  0.8360702E+02  0.7818608E-02  0.1356787E+00
          2   -1    0    0  502    0  0.00000000000E+00  0.00000000000E+00  0.50568045335E+03  0.50568045335E+03  0.00000000000E+00 0. -1.
          1   -1    0    0  501    0 -0.00000000000E+00 -0.00000000000E+00 -0.19226539790E+03  0.19226539790E+03  0.00000000000E+00 0. -1.
         25    2    1    2    0    0 -0.87439055365E+02  0.66741082358E+02  0.25799060793E+03  0.30705736699E+03  0.12500044946E+03 0.  0.
          2    1    1    2  501    0  0.83279295537E+01 -0.59684485822E+02 -0.15482363785E+03  0.16613834926E+03  0.00000000000E+00 0. -1.
          1    1    1    2  502    0  0.79111125811E+02 -0.70565965361E+01  0.21024808536E+03  0.22475013500E+03  0.00000000000E+00 0. -1.
         22    1    3    3    0    0 -0.70642993339E+02 -0.23043057847E+02  0.10035869877E+03  0.12487306932E+03  0.00000000000E+00 0. -1.
         22    1    3    3    0    0 -0.16796062026E+02  0.89784140205E+02  0.15763190917E+03  0.18218429767E+03  0.00000000000E+00 0. -1.
</event>
<event>
 7    1  0.5789396E-006  0.3331824E+02  0.7818608E-02  0.1599552E+00
          2   -1    0    0  502    0  0.00000000000E+00  0.00000000000E+00  0.14313538393E+04  0.14313538393E+04  0.00000000000E+00 0. -1.
          1   -1    0    0  501    0 -0.00000000000E+00 -0.00000000000E+00 -0.73710652192E+03  0.73710652192E+03  0.00000000000E+00 0. -1.
         25    2    1    2    0    0  0.73296381255E+01  0.18387539786E+01  0.42834765999E+03  0.44627951199E+03  0.12500632141E+03 0.  0.
          2    1    1    2  501    0  0.26774079957E+02  0.22658575634E+00 -0.72760070031E+03  0.72809318208E+03  0.00000000000E+00 0. -1.
          1    1    1    2  502    0 -0.34103718083E+02 -0.20653397350E+01  0.99350035768E+03  0.99408766712E+03  0.00000000000E+00 0. -1.
         22    1    3    3    0    0  0.78385807693E+00  0.53487340071E+02  0.96165049207E+02  0.11004193142E+03  0.00000000000E+00 0. -1.
         22    1    3    3    0    0  0.65457800486E+01 -0.51648586092E+02  0.33218261079E+03  0.33623758058E+03  0.00000000000E+00 0. -1.
</event>
<event>
 7    1  0.5789396E-006  0.9678770E+02  0.7818608E-02  0.1324213E+00
          2   -1    0    0  502    0  0.00000000000E+00  0.00000000000E+00  0.95344537391E+02  0.95344537391E+02  0.00000000000E+00 0. -1.
          1   -1    0    0  501    0 -0.00000000000E+00 -0.00000000000E+00 -0.83926959284E+03  0.83926959284E+03  0.00000000000E+00 0. -1.
         25    2    1    2    0    0  0.92000114537E+02  0.12658526334E+03 -0.51792576620E+03  0.55530428987E+03  0.12501161981E+03 0.  0.
          2    1    1    2  501    0 -0.20756923653E+02 -0.65818825305E+02 -0.26795627507E+03  0.27670116189E+03  0.00000000000E+00 0. -1.
          1    1    1    2  502    0 -0.71243190885E+02 -0.60766438034E+02  0.41956985814E+02  0.10260867847E+03  0.00000000000E+00 0. -1.
         22    1    3    3    0    0  0.95774411008E+02  0.12257081283E+03 -0.30563313208E+03  0.34294016007E+03  0.00000000000E+00 0. -1.
         22    1    3    3    0    0 -0.37742964710E+01  0.40144505071E+01 -0.21229263412E+03  0.21236412980E+03  0.00000000000E+00 0. -1.
</event>
<event>
 7    1  0.5789396E-006  0.8674016E+02  0.7818608E-02  0.1416121E+00
          2   -1    0    0  502    0  0.00000000000E+00  0.00000000000E+00  0.96643562901E+03  0.96643562901E+03  0.00000000000E+00 0. -1.
          1   -1    0    0  501    0 -0.00000000000E+00 -0.00000000000E+00 -0.10444252672E+03  0.10444252672E+03  0.00000000000E+00 0. -1.
         25    2    1    2    0    0  0.70953637941E+02 -0.83333878957E+02  0.59268540775E+03  0.61553240603E+03  0.12500078476E+03 0.  0.
          2    1    1    2  501    0 -0.89748301033E+01  0.34822845345E+02 -0.85056596302E+02  0.92346102829E+02  0.00000000000E+00 0. -1.
          1    1    1    2  502    0 -0.61978807837E+02  0.48511033613E+02  0.35436429084E+03  0.36299964687E+03  0.00000000000E+00 0. -1.
         22    1    3    3    0    0 -0.16843616713E+02 -0.27974330344E+02  0.33447094518E+02  0.46743755881E+02  0.00000000000E+00 0.  1.
         22    1    3    3    0    0  0.87797254654E+02 -0.55359548613E+02  0.55923831323E+03  0.56878865015E+03  0.00000000000E+00 0.  1.
</event>
<event>
 7    1  0.5789396E-006  0.2212124E+03  0.7818608E-02  0.1169208E+00
          2   -1    0    0  502    0  0.00000000000E+00  0.00000000000E+00  0.17053156095E+04  0.17053156095E+04  0.00000000000E+00 0. -1.
          1   -1    0    0  501    0 -0.00000000000E+00 -0.00000000000E+00 -0.92810189006E+03  0.92810189006E+03  0.00000000000E+00 0. -1.
         25    2    1    2    0    0  0.25794603753E+03 -0.20740560211E+03 -0.10220746684E+03  0.36826975425E+03  0.12499201395E+03 0.  0.
          2    1    1    2  501    0 -0.19446100867E+03  0.78016481617E+02 -0.67360936469E+03  0.70544399600E+03  0.00000000000E+00 0. -1.
          1    1    1    2  502    0 -0.63485028857E+02  0.12938912049E+03  0.15530305510E+04  0.15597037493E+04  0.00000000000E+00 0. -1.
         22    1    3    3    0    0  0.26675171860E+03 -0.18763032630E+03 -0.77104033561E+02  0.33512184458E+03  0.00000000000E+00 0.  1.
         22    1    3    3    0    0 -0.88056810772E+01 -0.19775275810E+02 -0.25103433279E+02  0.33147909662E+02  0.00000000000E+00 0.  1.
</event>
<event>
 7    1  0.5789396E-006  0.7728917E+02  0.7818608E-02  0.1450095E+00
          2   -1    0    0  502    0  0.00000000000E+00  0.00000000000E+00  0.10019561396E+04  0.10019561396E+04  0.00000000000E+00 0. -1.
          1   -1    0    0  501    0 -0.00000000000E+00 -0.00000000000E+00 -0.10122985160E+03  0.10122985160E+03  0.00000000000E+00 0. -1.
         25    2    1    2    0    0  0.33060135610E+02 -0.97710309371E+02  0.47373188303E+03  0.50068660206E+03  0.12499959742E+03 0.  0.
          2    1    1    2  501    0 -0.55549370262E+01  0.30731300728E+02 -0.82330015754E+02  0.88053970177E+02  0.00000000000E+00 0. -1.
          1    1    1    2  502    0 -0.27505198584E+02  0.66979008643E+02  0.50932442076E+03  0.51444541900E+03  0.00000000000E+00 0. -1.
         22    1    3    3    0    0  0.43864003292E+02 -0.40069187547E+02  0.40919099662E+03  0.41348139292E+03  0.00000000000E+00 0. -1.
         22    1    3    3    0    0 -0.10803867682E+02 -0.57641121824E+02  0.64540886411E+02  0.87205209137E+02  0.00000000000E+00 0. -1.
</event>
<event>
 7    1  0.5789396E-006  0.5049155E+02  0.7818608E-02  0.1455490E+00
          2   -1    0    0  502    0  0.00000000000E+00  0.00000000000E+00  0.64627013904E+03  0.64627013904E+03  0.00000000000E+00 0. -1.
          1   -1    0    0  501    0 -0.00000000000E+00 -0.00000000000E+00 -0.14502548352E+04  0.14502548352E+04  0.00000000000E+00 0. -1.
         25    2    1    2    0    0 -0.76936031768E+02 -0.50973042451E+02  0.10121626962E+01  0.15538396305E+03  0.12500298980E+03 0.  0.
          2    1    1    2  501    0  0.47846436589E+02  0.15405792456E+02 -0.13716787159E+04  0.13725994024E+04  0.00000000000E+00 0. -1.
          1    1    1    2  502    0  0.29089595179E+02  0.35567249996E+02  0.56668185702E+03  0.56854160876E+03  0.00000000000E+00 0. -1.
         22    1    3    3    0    0  0.65098292712E+01 -0.68109284117E+02 -0.11185268190E+02  0.69327935817E+02  0.00000000000E+00 0. -1.
         22    1    3    3    0    0 -0.83445861039E+02  0.17136241666E+02  0.12197430886E+02  0.86056027233E+02  0.00000000000E+00 0. -1.
</event>
<event>
 7    1  0.5789396E-006  0.9084090E+02  0.7818608E-02  0.1384215E+00
          2   -1    0    0  502    0  0.00000000000E+00  0.00000000000E+00  0.23770702811E+04  0.23770702811E+04  0.00000000000E+00 0. -1.
          1   -1    0    0  501    0 -0.00000000000E+00 -0.00000000000E+00 -0.12882076132E+03  0.12882076132E+03  0.00000000000E+00 0. -1.
         25    2    1    2    0    0 -0.10178075904E+03 -0.57740400228E+02  0.22979144767E+03  0.28657169448E+03  0.12500379965E+03 0.  0.
          2    1    1    2  501    0  0.87884687646E+02  0.15776735020E+02 -0.80305709455E+02  0.12009009394E+03  0.00000000000E+00 0. -1.
          1    1    1    2  502    0  0.13896071397E+02  0.41963665208E+02  0.20987637816E+04  0.20992292540E+04  0.00000000000E+00 0. -1.
         22    1    3    3    0    0 -0.25256955225E+02 -0.25608280507E+02  0.19206429203E+03  0.19540314760E+03  0.00000000000E+00 0. -1.
         22    1    3    3    0    0 -0.76523803819E+02 -0.32132119721E+02  0.37727155636E+02  0.91168546885E+02  0.00000000000E+00 0. -1.
</event>
<event>
 7    1  0.5789396E-006  0.1313205E+03  0.7818608E-02  0.1276391E+00
          2   -1    0    0  502    0  0.00000000000E+00  0.00000000000E+00  0.14105949503E+04  0.14105949503E+04  0.00000000000E+00 0. -1.
          1   -1    0    0  501    0 -0.00000000000E+00 -0.00000000000E+00 -0.15236716704E+04  0.15236716704E+04  0.00000000000E+00 0. -1.
         25    2    1    2    0    0 -0.76185393955E+01 -0.15067276332E+03  0.22638173000E+03  0.29938988124E+03  0.12500115823E+03 0.  0.
          2    1    1    2  501    0 -0.63032386947E+02  0.11523596296E+03 -0.14829004446E+04  0.14887061959E+04  0.00000000000E+00 0. -1.
          1    1    1    2  502    0  0.70650926342E+02  0.35436800357E+02  0.11434419945E+04  0.11461705436E+04  0.00000000000E+00 0. -1.
         22    1    3    3    0    0  0.45197606206E+02 -0.35878278750E+02  0.12395381046E+03  0.13672827659E+03  0.00000000000E+00 0.  1.
         22    1    3    3    0    0 -0.52816145602E+02 -0.11479448457E+03  0.10242791954E+03  0.16266160464E+03  0.00000000000E+00 0.  1.
</event>
<event>
 7    1  0.5789396E-006  0.1422750E+03  0.7818608E-02  0.1221555E+00
          2   -1    0    0  502    0  0.00000000000E+00  0.00000000000E+00  0.20005502172E+03  0.20005502172E+03  0.00000000000E+00 0. -1.
          1   -1    0    0  501    0 -0.00000000000E+00 -0.00000000000E+00 -0.63221369635E+03  0.63221369635E+03  0.00000000000E+00 0. -1.
         25    2    1    2    0    0  0.54226276290E+02 -0.25325432188E+02 -0.11940478986E+03  0.18293311947E+03  0.12500062320E+03 0.  0.
          2    1    1    2  501    0  0.29341444906E+02 -0.12286159852E+03 -0.42641700191E+03  0.44473289995E+03  0.00000000000E+00 0. -1.
          1    1    1    2  502    0 -0.83567721195E+02  0.14818703070E+03  0.11366311714E+03  0.20460269865E+03  0.00000000000E+00 0. -1.
         22    1    3    3    0    0  0.79076747721E+01  0.35711260635E+02 -0.96131649385E+02  0.10285484660E+03  0.00000000000E+00 0. -1.
         22    1    3    3    0    0  0.46318601517E+02 -0.61036692823E+02 -0.23273140478E+02  0.80078272865E+02  0.00000000000E+00 0. -1.
</event>
<event>
 7    1  0.5789396E-006  0.6082774E+02  0.7818608E-02  0.1429549E+00
          2   -1    0    0  502    0  0.00000000000E+00  0.00000000000E+00  0.47842458250E+03  0.47842458250E+03  0.00000000000E+00 0. -1.
          1   -1    0    0  501    0 -0.00000000000E+00 -0.00000000000E+00 -0.95434065167E+03  0.95434065167E+03  0.00000000000E+00 0. -1.
         25    2    1    2    0    0 -0.21661964429E+02  0.80678873313E+02  0.39300444002E+02  0.15539599671E+03  0.12500027837E+03 0.  0.
          2    1    1    2  501    0  0.45028633983E+02 -0.40745051103E+02 -0.89385445662E+03  0.89591491041E+03  0.00000000000E+00 0. -1.
          1    1    1    2  502    0 -0.23366669555E+02 -0.39933822210E+02  0.37863794345E+03  0.38145432705E+03  0.00000000000E+00 0. -1.
         22    1    3    3    0    0  0.14650197906E+01 -0.28988707910E+02 -0.12891913573E+02  0.31759926084E+02  0.00000000000E+00 0. -1.
         22    1    3    3    0    0 -0.23126984219E+02  0.10966758122E+03  0.52192357575E+02  0.12363607063E+03  0.00000000000E+00 0. -1.
</event>
<event>
 7    1  0.5789396E-006  0.2260768E+03  0.7818608E-02  0.1216008E+00
          2   -1    0    0  502    0  0.00000000000E+00  0.00000000000E+00  0.22691235332E+04  0.22691235332E+04  0.00000000000E+00 0. -1.
          1   -1    0    0  501    0 -0.00000000000E+00 -0.00000000000E+00 -0.29425428283E+04  0.29425428283E+04  0.00000000000E+00 0. -1.
         25    2    1    2    0    0  0.16448278177E+03  0.14488868391E+02 -0.11925246150E+04  0.12103736591E+04  0.12499969769E+03 0.  0.
          2    1    1    2  501    0  0.45072438856E+02  0.71204149166E+02 -0.17343986058E+04  0.17364446664E+04  0.00000000000E+00 0. -1.
          1    1    1    2  502    0 -0.20955522063E+03 -0.85693017557E+02  0.22535039256E+04  0.22648480361E+04  0.00000000000E+00 0. -1.
         22    1    3    3    0    0  0.15571485437E+03  0.40869302557E+02 -0.11363460985E+04  0.11476932828E+04  0.00000000000E+00 0. -1.
         22    1    3    3    0    0  0.87679274024E+01 -0.26380434166E+02 -0.56178516490E+02  0.62680376297E+02  0.00000000000E+00 0. -1.
</event>
<event>
 7    1  0.5789396E-006  0.7945670E+02  0.7818608E-02  0.1378708E+00
          2   -1    0    0  502    0  0.00000000000E+00  0.00000000000E+00  0.30951502236E+03  0.30951502236E+03  0.00000000000E+00 0. -1.
          1   -1    0    0  501    0 -0.00000000000E+00 -0.00000000000E+00 -0.18131344669E+04  0.18131344669E+04  0.00000000000E+00 0. -1.
         25    2    1    2    0    0 -0.10197784630E+03  0.53887129289E+02 -0.31244218341E+03  0.35573598962E+03  0.12499868997E+03 0.  0.
          2    1    1    2  501    0  0.52309126644E+02  0.75736799585E+01 -0.14731395190E+04  0.14740873949E+04  0.00000000000E+00 0. -1.
          1    1    1    2  502    0  0.49668719654E+02 -0.61460809247E+02  0.28196225785E+03  0.29282610477E+03  0.00000000000E+00 0. -1.
         22    1    3    3    0    0 -0.38675863258E+02 -0.86135462893E+01 -0.10541093787E+02  0.41001588221E+02  0.00000000000E+00 0. -1.
         22    1    3    3    0    0 -0.63301983040E+02  0.62500675578E+02 -0.30190108963E+03  0.31473440140E+03  0.00000000000E+00 0. -1.
</event>
<event>
 7    1  0.5789396E-006  0.6599670E+02  0.7818608E-02  0.1391647E+00
          2   -1    0    0  502    0  0.00000000000E+00  0.00000000000E+00  0.10422818637E+04  0.10422818637E+04  0.00000000000E+00 0. -1.
          1   -1    0    0  501    0 -0.00000000000E+00 -0.00000000000E+00 -0.14050444517E+03  0.14050444517E+03  0.00000000000E+00 0. -1.
         25    2    1    2    0    0  0.30286143771E+02 -0.67749542518E+02  0.31101115019E+02  0.14865491899E+03  0.12499501817E+03 0.  0.
          2    1    1    2  501    0 -0.64429469386E+02  0.21723212351E+02 -0.66557580277E+02  0.95147075481E+02  0.00000000000E+00 0. -1.
          1    1    1    2  502    0  0.34143325615E+02  0.46026330167E+02  0.93723388376E+03  0.93898431436E+03  0.00000000000E+00 0. -1.
         22    1    3    3    0    0  0.79088027253E+02 -0.42536364575E+02  0.25994655126E+02  0.93487862641E+02  0.00000000000E+00 0.  1.
         22    1    3    3    0    0 -0.48801883482E+02 -0.25213177943E+02  0.51064598930E+01  0.55167056348E+02  0.00000000000E+00 0.  1.
</event>
<event>
 7    1  0.5789396E-006  0.5714809E+02  0.7818608E-02  0.1446168E+00
          2   -1    0    0  502    0  0.00000000000E+00  0.00000000000E+00  0.51825453081E+03  0.51825453081E+03  0.00000000000E+00 0. -1.
          1   -1    0    0  501    0 -0.00000000000E+00 -0.00000000000E+00 -0.95418298200E+03  0.95418298200E+03  0.00000000000E+00 0. -1.
         25    2    1    2    0    0 -0.78727930652E+02 -0.82152194059E+01 -0.23763396834E+03  0.27992908160E+03  0.12499924368E+03 0.  0.
          2    1    1    2  501    0  0.33938077835E+02 -0.27177756568E+02 -0.69307910501E+03  0.69444155217E+03  0.00000000000E+00 0. -1.
          1    1    1    2  502    0  0.44789852817E+02  0.35392975974E+02  0.49478462217E+03  0.49806687904E+03  0.00000000000E+00 0. -1.
         22    1    3    3    0    0 -0.62599909912E+02 -0.34823462626E+02 -0.23827297872E+03  0.24880802772E+03  0.00000000000E+00 0.  1.
         22    1    3    3    0    0 -0.16128020740E+02  0.26608243220E+02  0.63901037788E+00  0.31121053879E+02  0.00000000000E+00 0.  1.
</event>
<event>
 7    1  0.5789396E-006  0.5152319E+02  0.7818608E-02  0.1568043E+00
          2   -1    0    0  502    0  0.00000000000E+00  0.00000000000E+00  0.14468636504E+04  0.14468636504E+04  0.00000000000E+00 0. -1.
          1   -1    0    0  501    0 -0.00000000000E+00 -0.00000000000E+00 -0.57138606714E+03  0.57138606714E+03  0.00000000000E+00 0. -1.
         25    2    1    2    0    0 -0.12791691669E+02 -0.40342764365E+02  0.13113412859E+03  0.18604869845E+03  0.12500716980E+03 0.  0.
          2    1    1    2  501    0  0.33764902061E+02  0.39046436694E+02 -0.54261807643E+03  0.54506794961E+03  0.00000000000E+00 0. -1.
          1    1    1    2  502    0 -0.20973210392E+02  0.12963276701E+01  0.12869615311E+04  0.12871330695E+04  0.00000000000E+00 0. -1.
         22    1    3    3    0    0  0.34803164865E+02 -0.56450335027E+02  0.29316335619E+02  0.72507573007E+02  0.00000000000E+00 0. -1.
         22    1    3    3    0    0 -0.47594856534E+02  0.16107570663E+02  0.10181779298E+03  0.11354112545E+03  0.00000000000E+00 0. -1.
</event>
<event>
 7    1  0.5789396E-006  0.1185934E+03  0.7818608E-02  0.1331312E+00
          2   -1    0    0  502    0  0.00000000000E+00  0.00000000000E+00  0.62211154675E+03  0.62211154675E+03  0.00000000000E+00 0. -1.
          1   -1    0    0  501    0 -0.00000000000E+00 -0.00000000000E+00 -0.47514603931E+03  0.47514603931E+03  0.00000000000E+00 0. -1.
         25    2    1    2    0    0 -0.12095308166E+03  0.15841476681E+02  0.91683727996E+02  0.19725530261E+03  0.12499259212E+03 0.  0.
          2    1    1    2  501    0  0.10008281124E+03 -0.64454421093E+02 -0.41245140870E+03  0.42928674105E+03  0.00000000000E+00 0. -1.
          1    1    1    2  502    0  0.20870270419E+02  0.48612944412E+02  0.46773318815E+03  0.47071554239E+03  0.00000000000E+00 0. -1.
         22    1    3    3    0    0  0.21783993692E+02  0.14068362366E+02 -0.27818605366E+01  0.26080643184E+02  0.00000000000E+00 0.  1.
         22    1    3    3    0    0 -0.14273707535E+03  0.17731143153E+01  0.94465588532E+02  0.17117465943E+03  0.00000000000E+00 0.  1.
</event>
<event>
 7    1  0.5789396E-006  0.2457993E+02  0.7818608E-02  0.1672431E+00
          2   -1    0    0  502    0  0.00000000000E+00  0.00000000000E+00  0.17207398128E+04  0.17207398128E+04  0.00000000000E+00 0. -1.
          1   -1    0    0  501    0 -0.00000000000E+00 -0.00000000000E+00 -0.14125278065E+03  0.14125278065E+03  0.00000000000E+00 0. -1.
         25    2    1    2    0    0 -0.35561448950E+01 -0.43487136906E+01 -0.67612457231E+02  0.14222811938E+03  0.12500334433E+03 0.  0.
          2    1    1    2  501    0 -0.30722954024E+01  0.27279745312E+02 -0.31049870886E+02  0.41445361446E+02  0.00000000000E+00 0. -1.
          1    1    1    2  502    0  0.66284402974E+01 -0.22931031621E+02  0.16781493603E+04  0.16783191126E+04  0.00000000000E+00 0. -1.
         22    1    3    3    0    0  0.80225644329E+01  0.14789844275E+02  0.34131989155E+02  0.38053826581E+02  0.00000000000E+00 0. -1.
         22    1    3    3    0    0 -0.11578709328E+02 -0.19138557966E+02 -0.10174444639E+03  0.10417429280E+03  0.00000000000E+00 0. -1.
</event>
<event>
 7    1  0.5789396E-006  0.5603601E+02  0.7818608E-02  0.1436441E+00
          2   -1    0    0  502    0  0.00000000000E+00  0.00000000000E+00  0.18307737778E+03  0.18307737778E+03  0.00000000000E+00 0. -1.
          1   -1    0    0  501    0 -0.00000000000E+00 -0.00000000000E+00 -0.28860443726E+04  0.28860443726E+04  0.00000000000E+00 0. -1.
         25    2    1    2    0    0 -0.25084990798E+02 -0.18818454782E+02 -0.48211802492E+03  0.49904481722E+03  0.12499819451E+03 0.  0.
          2    1    1    2  501    0  0.54471667262E+02 -0.18726810838E+02 -0.23918550975E+04  0.23925485708E+04  0.00000000000E+00 0. -1.
          1    1    1    2  502    0 -0.29386676464E+02  0.37545265620E+02  0.17100612769E+03  0.17752836233E+03  0.00000000000E+00 0. -1.
         22    1    3    3    0    0 -0.36836524514E+02 -0.21121538228E+02 -0.48489605990E+03  0.48675172093E+03  0.00000000000E+00 0. -1.
         22    1    3    3    0    0  0.11751533716E+02  0.23030834465E+01  0.27780349787E+01  0.12293096290E+02  0.00000000000E+00 0. -1.
</event>
<event>
 7    1  0.5789396E-006  0.1665068E+03  0.7818608E-02  0.1350267E+00
          2   -1    0    0  502    0  0.00000000000E+00  0.00000000000E+00  0.19271766698E+04  0.19271766698E+04  0.00000000000E+00 0. -1.
          1   -1    0    0  501    0 -0.00000000000E+00 -0.00000000000E+00 -0.47931616448E+03  0.47931616448E+03  0.00000000000E+00 0. -1.
         25    2    1    2    0    0  0.88629821874E+02 -0.16809088951E+03  0.38353363452E+02  0.23066294072E+03  0.12499847708E+03 0.  0.
          2    1    1    2  501    0 -0.90612915114E+02  0.13617174255E+03 -0.36555504842E+03  0.40047963404E+03  0.00000000000E+00 0. -1.
          1    1    1    2  502    0  0.19830932396E+01  0.31919146961E+02  0.17750621903E+04  0.17753502595E+04  0.00000000000E+00 0. -1.
         22    1    3    3    0    0  0.10207891783E+03 -0.15825609114E+03 -0.57090264342E+00  0.18832265338E+03  0.00000000000E+00 0.  1.
         22    1    3    3    0    0 -0.13449095953E+02 -0.98347983747E+01  0.38924266096E+02  0.42340287341E+02  0.00000000000E+00 0.  1.
</event>
<event>
 7    1  0.5789396E-006  0.9149307E+02  0.7818608E-02  0.1330700E+00
          2   -1    0    0  502    0  0.00000000000E+00  0.00000000000E+00  0.27152103740E+03  0.27152103740E+03  0.00000000000E+00 0. -1.
          1   -1    0    0  501    0 -0.00000000000E+00 -0.00000000000E+00 -0.37843735026E+03  0.37843735026E+03  0.00000000000E+00 0. -1.
         25    2    1    2    0    0 -0.61546879524E+02  0.13890200618E+03 -0.92082460278E+02  0.21722296011E+03  0.12499939682E+03 0.  0.
          2    1    1    2  501    0  0.40889752084E+02 -0.73125940547E+02 -0.20981507781E+03  0.22592419499E+03  0.00000000000E+00 0. -1.
          1    1    1    2  502    0  0.20657127440E+02 -0.65776065635E+02  0.19498122523E+03  0.20681123257E+03  0.00000000000E+00 0. -1.
         22    1    3    3    0    0  0.10834456203E+02  0.11600058211E+03 -0.33191165045E+02  0.12114113227E+03  0.00000000000E+00 0. -1.
         22    1    3    3    0    0 -0.72381335727E+02  0.22901424076E+02 -0.58891295233E+02  0.96081827838E+02  0.00000000000E+00 0. -1.
</event>
<event>
 7    1  0.5789396E-006  0.3807683E+02  0.7818608E-02  0.1541195E+00
          2   -1    0    0  502    0  0.00000000000E+00  0.00000000000E+00  0.36407945013E+02  0.36407945013E+02  0.00000000000E+00 0. -1.
          1   -1    0    0  501    0 -0.00000000000E+00 -0.00000000000E+00 -0.38158062787E+03  0.38158062787E+03  0.00000000000E+00 0. -1.
         25    2    1    2    0    0 -0.21189793727E+02 -0.85957571868E+01 -0.12837815514E+03  0.18062923630E+03  0.12499230331E+03 0.  0.
          2    1    1    2  501    0  0.32784608829E+02 -0.23099950128E+02 -0.19022261657E+03  0.19440442929E+03  0.00000000000E+00 0. -1.
          1    1    1    2  502    0 -0.11594815101E+02  0.31695707315E+02 -0.26571911145E+02  0.42954907302E+02  0.00000000000E+00 0. -1.
         22    1    3    3    0    0  0.40223793125E+02  0.32881265482E+02 -0.64253252123E+02  0.82629362587E+02  0.00000000000E+00 0. -1.
         22    1    3    3    0    0 -0.61413586852E+02 -0.41477022669E+02 -0.64124903020E+02  0.97999873709E+02  0.00000000000E+00 0. -1.
</event>
<event>
 7    1  0.5789396E-006  0.1486488E+03  0.7818608E-02  0.1208525E+00
          2   -1    0    0  502    0  0.00000000000E+00  0.00000000000E+00  0.15332371164E+04  0.15332371164E+04  0.00000000000E+00 0. -1.
          1   -1    0    0  501    0 -0.00000000000E+00 -0.00000000000E+00 -0.18039602865E+04  0.18039602865E+04  0.00000000000E+00 0. -1.
         25    2    1    2    0    0 -0.13150555935E+03 -0.25020940293E+03  0.55586334295E+03  0.63600917963E+03  0.12500065236E+03 0.  0.
          2    1    1    2  501    0  0.89262605063E+02  0.11801201045E+03 -0.17556207216E+04  0.17618452728E+04  0.00000000000E+00 0. -1.
          1    1    1    2  502    0  0.42242954291E+02  0.13219739249E+03  0.92903420856E+03  0.93934295039E+03  0.00000000000E+00 0. -1.
         22    1    3    3    0    0 -0.35583634202E+02 -0.19061126708E+03  0.31337513776E+03  0.36851435132E+03  0.00000000000E+00 0. -1.
         22    1    3    3    0    0 -0.95921925152E+02 -0.59598135853E+02  0.24248820519E+03  0.26749482832E+03  0.00000000000E+00 0. -1.
</event>
<event>
 7    1  0.5789396E-006  0.5695903E+02  0.7818608E-02  0.1481665E+00
          2   -1    0    0  502    0  0.00000000000E+00  0.00000000000E+00  0.96177393553E+03  0.96177393553E+03  0.00000000000E+00 0. -1.
          1   -1    0    0  501    0 -0.00000000000E+00 -0.00000000000E+00 -0.15883308016E+03  0.15883308016E+03  0.00000000000E+00 0. -1.
         25    2    1    2    0    0 -0.50723281329E+02 -0.93465440795E+01  0.96871183671E+02  0.16634543000E+03  0.12500626665E+03 0.  0.
          2    1    1    2  501    0  0.52303291971E+02 -0.24371145565E+02 -0.11702359959E+03  0.13047647278E+03  0.00000000000E+00 0. -1.
          1    1    1    2  502    0 -0.15800106419E+01  0.33717689644E+02  0.82309327129E+03  0.82378511292E+03  0.00000000000E+00 0. -1.
         22    1    3    3    0    0 -0.18613156103E+02 -0.97296056405E+01 -0.29357118923E+02  0.36096471261E+02  0.00000000000E+00 0. -1.
         22    1    3    3    0    0 -0.32110125226E+02  0.38306156097E+00  0.12622830259E+03  0.13024895874E+03  0.00000000000E+00 0. -1.
</event>
<event>
 7    1  0.5789396E-006  0.1375218E+03  0.7818608E-02  0.1427063E+00
          2   -1    0    0  502    0  0.00000000000E+00  0.00000000000E+00  0.46871662835E+03  0.46871662835E+03  0.00000000000E+00 0. -1.
          1   -1    0    0  501    0 -0.00000000000E+00 -0.00000000000E+00 -0.39186644381E+03  0.39186644381E+03  0.00000000000E+00 0. -1.
         25    2    1    2    0    0  0.83976605304E+02  0.86772907054E+02  0.29271435051E+03  0.34042437858E+03  0.12500183558E+03 0.  0.
          2    1    1    2  501    0 -0.10449897788E+03 -0.90483884247E+02 -0.35422218022E+03  0.38023771860E+03  0.00000000000E+00 0. -1.
          1    1    1    2  502    0  0.20522372576E+02  0.37109771937E+01  0.13835801425E+03  0.13992097497E+03  0.00000000000E+00 0. -1.
         22    1    3    3    0    0  0.70903060923E+02  0.19493307048E+02  0.24780101936E+03  0.25848129190E+03  0.00000000000E+00 0. -1.
         22    1    3    3    0    0  0.13073544381E+02  0.67279600005E+02  0.44913331159E+02  0.81943086684E+02  0.00000000000E+00 0. -1.
</event>
<event>
 7    1  0.5789396E-006  0.9805281E+02  0.7818608E-02  0.1446583E+00
          2   -1    0    0  502    0  0.00000000000E+00  0.00000000000E+00  0.62714802855E+03  0.62714802855E+03  0.00000000000E+00 0. -1.
          1   -1    0    0  501    0 -0.00000000000E+00 -0.00000000000E+00 -0.39699310407E+02  0.39699310407E+02  0.00000000000E+00 0. -1.
         25    2    1    2    0    0  0.36342459241E+02 -0.69840535832E+02  0.20087660398E+03  0.24934914055E+03  0.12500043630E+03 0.  0.
          2    1    1    2  501    0  0.73070857348E+01 -0.24183154483E+02  0.10426627663E+02  0.27330075505E+02  0.00000000000E+00 0. -1.
          1    1    1    2  502    0 -0.43649544976E+02  0.94023690315E+02  0.37614548650E+03  0.39016812291E+03  0.00000000000E+00 0. -1.
         22    1    3    3    0    0  0.28158766199E+00 -0.42244248181E+01  0.16719694635E+03  0.16725054237E+03  0.00000000000E+00 0. -1.
         22    1    3    3    0    0  0.36060871579E+02 -0.65616111014E+02  0.33679657634E+02  0.82098598173E+02  0.00000000000E+00 0. -1.
</event>
<event>
 7    1  0.5789396E-006  0.3115308E+02  0.7818608E-02  0.1621718E+00
          2   -1    0    0  502    0  0.00000000000E+00  0.00000000000E+00  0.22230147636E+04  0.22230147636E+04  0.00000000000E+00 0. -1.
          1   -1    0    0  501    0 -0.00000000000E+00 -0.00000000000E+00 -0.45462503906E+02  0.45462503906E+02  0.00000000000E+00 0. -1.
         25    2    1    2    0    0 -0.19990160009E+02 -0.50060390222E+02  0.15321448392E+04  0.15381804938E+04  0.12500309580E+03 0.  0.
          2    1    1    2  501    0  0.80741457832E+01  0.23772203432E+02 -0.38400889966E+02  0.45879601528E+02  0.00000000000E+00 0. -1.
          1    1    1    2  502    0  0.11916014226E+02  0.26288186790E+02  0.68380831040E+03  0.68441717215E+03  0.00000000000E+00 0. -1.
         22    1    3    3    0    0  0.48999213723E+02 -0.25344616364E+02  0.41744346711E+03  0.42107282120E+03  0.00000000000E+00 0.  1.
         22    1    3    3    0    0 -0.68989373732E+02 -0.24715773859E+02  0.11147013721E+04  0.11171076726E+04  0.00000000000E+00 0.  1.
</event>
<event>
 7    1  0.1229817E-005  0.6298370E+02  0.7818608E-02  0.1480412E+00
          2   -1    0    0  502    0  0.00000000000E+00  0.00000000000E+00  0.19691789827E+04  0.19691789827E+04  0.00000000000E+00 0. -1.
          1   -1    0    0  501    0 -0.00000000000E+00 -0.00000000000E+00 -0.25268185348E+04  0.25268185348E+04  0.00000000000E+00 0. -1.
         25    2    1    2    0    0  0.10033429311E+02  0.89589320043E+02 -0.42628500897E+03  0.45328841693E+03  0.12499825631E+03 0.  0.
          2    1    1    2  501    0 -0.15102810135E+02 -0.26839444276E+02 -0.20864115190E+04  0.20866387990E+04  0.00000000000E+00 0. -1.
          1    1    1    2  502    0  0.50693808240E+01 -0.62749875767E+02  0.19550569759E+04  0.19560703016E+04  0.00000000000E+00 0. -1.
         22    1    3    3    0    0  0.50647341121E+02  0.41671632808E+02 -0.91013566812E+02  0.11218354375E+03  0.00000000000E+00 0. -1.
         22    1    3    3    0    0 -0.40613911810E+02  0.47917687235E+02 -0.33527144216E+03  0.34110487318E+03  0.00000000000E+00 0. -1.
</event>
<event>
 7    1  0.5789396E-006  0.8191911E+02  0.7818608E-02  0.1364951E+00
          2   -1    0    0  502    0  0.00000000000E+00  0.00000000000E+00  0.48323021098E+03  0.48323021098E+03  0.00000000000E+00 0. -1.
          1   -1    0    0  501    0 -0.00000000000E+00 -0.00000000000E+00 -0.54244265463E+02  0.54244265463E+02  0.00000000000E+00 0. -1.
         25    2    1    2    0    0 -0.27425160966E+02  0.26131092742E+02  0.30116970128E+03  0.32827538988E+03  0.12500627653E+03 0.  0.
          2    1    1    2  501    0  0.84106644277E+02 -0.35380107376E+02  0.30514168920E+02  0.96212234743E+02  0.00000000000E+00 0. -1.
          1    1    1    2  502    0 -0.56681483311E+02  0.92490146339E+01  0.97302075321E+02  0.11298685182E+03  0.00000000000E+00 0. -1.
         22    1    3    3    0    0 -0.37825568857E+02  0.41248599030E+01  0.14726984120E+02  0.40800394481E+02  0.00000000000E+00 0. -1.
         22    1    3    3    0    0  0.10400407891E+02  0.22006232839E+02  0.28644271716E+03  0.28747499540E+03  0.00000000000E+00 0. -1.
</event>
<event>
 7    1  0.5789396E-006  0.7595998E+02  0.7818608E-02  0.1403385E+00
          2   -1    0    0  502    0  0.00000000000E+00  0.00000000000E+00  0.71989392170E+03  0.71989392170E+03  0.00000000000E+00 0. -1.
          1   -1    0    0  501    0 -0.00000000000E+00 -0.00000000000E+00 -0.40204976939E+02  0.40204976939E+02  0.00000000000E+00 0. -1.
         25    2    1    2    0    0  0.22498457985E+02  0.36597981365E+02  0.23560908451E+03  0.27013430827E+03  0.12496123778E+03 0.  0.
          2    1    1    2  501    0 -0.54769630098E+02 -0.68469264712E+02  0.67472555770E+02  0.11063588194E+03  0.00000000000E+00 0. -1.
          1    1    1    2  502    0  0.32271172112E+02  0.31871283347E+02  0.37660730448E+03  0.37932870843E+03  0.00000000000E+00 0. -1.
         22    1    3    3    0    0 -0.25467948728E+02  0.13118091072E+02  0.20809648058E+03  0.21005914871E+03  0.00000000000E+00 0. -1.
         22    1    3    3    0    0  0.47966406713E+02  0.23479890293E+02  0.27512603935E+02  0.60075159562E+02  0.00000000000E+00 0. -1.
</event>
<event>
 7    1  0.5789396E-006  0.5900509E+02  0.7818608E-02  0.1438953E+00
          2   -1    0    0  502    0  0.00000000000E+00  0.00000000000E+00  0.61392706859E+03  0.61392706859E+03  0.00000000000E+00 0. -1.
          1   -1    0    0  501    0 -0.00000000000E+00 -0.00000000000E+00 -0.43559347067E+03  0.43559347067E+03  0.00000000000E+00 0. -1.
         25    2    1    2    0    0 -0.33277676183E+02  0.27882882986E+02  0.16379164203E+02  0.13333697812E+03  0.12500245525E+03 0.  0.
          2    1    1    2  501    0 -0.26013610759E+02 -0.36023687773E+02 -0.37413473048E+03  0.37676413122E+03  0.00000000000E+00 0. -1.
          1    1    1    2  502    0  0.59291286941E+02  0.81408047870E+01  0.53608916419E+03  0.53941942992E+03  0.00000000000E+00 0. -1.
         22    1    3    3    0    0 -0.74590185508E+02 -0.11142994231E+02  0.70673545714E+01  0.75748330643E+02  0.00000000000E+00 0.  1.
         22    1    3    3    0    0  0.41312509325E+02  0.39025877217E+02  0.93118096315E+01  0.57588647474E+02  0.00000000000E+00 0.  1.
</event>
<event>
 7    1  0.5789396E-006  0.1778934E+03  0.7818608E-02  0.1277750E+00
          2   -1    0    0  502    0  0.00000000000E+00  0.00000000000E+00  0.15254154534E+04  0.15254154534E+04  0.00000000000E+00 0. -1.
          1   -1    0    0  501    0 -0.00000000000E+00 -0.00000000000E+00 -0.18510084154E+03  0.18510084154E+03  0.00000000000E+00 0. -1.
         25    2    1    2    0    0  0.19548405641E+03 -0.49547296952E+02  0.40094947254E+03  0.46589203971E+03  0.12500384869E+03 0.  0.
          2    1    1    2  501    0 -0.17582232586E+03 -0.45865747282E+01 -0.10089788142E+03  0.20276811735E+03  0.00000000000E+00 0. -1.
          1    1    1    2  502    0 -0.19661730555E+02  0.54133871680E+02  0.10402630207E+04  0.10418561379E+04  0.00000000000E+00 0. -1.
         22    1    3    3    0    0  0.17976453588E+03 -0.46937799231E+02  0.40811886116E+03  0.44841883345E+03  0.00000000000E+00 0.  1.
         22    1    3    3    0    0  0.15719520528E+02 -0.26094977204E+01 -0.71693886152E+01  0.17473206263E+02  0.00000000000E+00 0.  1.
</event>
<event>
 7    1  0.5789396E-006  0.4326582E+02  0.7818608E-02  0.1531556E+00
          2   -1    0    0  502    0  0.00000000000E+00  0.00000000000E+00  0.11395901810E+04  0.11395901810E+04  0.00000000000E+00 0. -1.
          1   -1    0    0  501    0 -0.00000000000E+00 -0.00000000000E+00 -0.92620562535E+03  0.92620562535E+03  0.00000000000E+00 0. -1.
         25    2    1    2    0    0 -0.57254972645E+02  0.15542663424E+02  0.65379144730E+02  0.15303009452E+03  0.12499628388E+03 0.  0.
          2    1    1    2  501    0  0.41553196663E+02  0.11920655134E+02 -0.88160759443E+03  0.88266682317E+03  0.00000000000E+00 0. -1.
          1    1    1    2  502    0  0.15701775982E+02 -0.27463318558E+02  0.10296130053E+04  0.10300988886E+04  0.00000000000E+00 0. -1.
         22    1    3    3    0    0  0.34499331238E+02  0.26957638942E+02  0.88839953231E+01  0.44674864590E+02  0.00000000000E+00 0.  1.
         22    1    3    3    0    0 -0.91754303883E+02 -0.11414975519E+02  0.56495149406E+02  0.10835522993E+03  0.00000000000E+00 0.  1.
</event>
<event>
 7    1  0.5789396E-006  0.1041037E+03  0.7818608E-02  0.1382263E+00
          2   -1    0    0  502    0  0.00000000000E+00  0.00000000000E+00  0.12380778234E+04  0.12380778234E+04  0.00000000000E+00 0. -1.
          1   -1    0    0  501    0 -0.00000000000E+00 -0.00000000000E+00 -0.96994601975E+02  0.96994601975E+02  0.00000000000E+00 0. -1.
         25    2    1    2    0    0 -0.12164612214E+03 -0.62474852586E+02  0.31989553530E+03  0.36967191543E+03  0.12499314109E+03 0.  0.
          2    1    1    2  501    0  0.95064705322E+02  0.33679051842E+02 -0.36172699757E+02  0.10714495293E+03  0.00000000000E+00 0. -1.
          1    1    1    2  502    0  0.26581416818E+02  0.28795800744E+02  0.85736038587E+03  0.85825555699E+03  0.00000000000E+00 0. -1.
         22    1    3    3    0    0 -0.14158546971E+03 -0.26434617111E+02  0.24523305762E+03  0.28440198094E+03  0.00000000000E+00 0.  1.
         22    1    3    3    0    0  0.19939347571E+02 -0.36040235474E+02  0.74662477680E+02  0.85269934490E+02  0.00000000000E+00 0.  1.
</event>
<event>
 7    1  0.5789396E-006  0.1161158E+03  0.7818608E-02  0.1364699E+00
          2   -1    0    0  502    0  0.00000000000E+00  0.00000000000E+00  0.77622070951E+03  0.77622070951E+03  0.00000000000E+00 0. -1.
          1   -1    0    0  501    0 -0.00000000000E+00 -0.00000000000E+00 -0.30666787494E+03  0.30666787494E+03  0.00000000000E+00 0. -1.
         25    2    1    2    0    0 -0.75362594414E+02 -0.74480725985E+02  0.35894155428E+03  0.39459252222E+03  0.12504927036E+03 0.  0.
          2    1    1    2  501    0 -0.35460163981E+02  0.19778177889E+02 -0.27777167034E+03  0.28072353018E+03  0.00000000000E+00 0. -1.
          1    1    1    2  502    0  0.11082275840E+03  0.54702548095E+02  0.38838295063E+03  0.40757253206E+03  0.00000000000E+00 0. -1.
         22    1    3    3    0    0 -0.63577741948E+02 -0.10934285141E+03  0.29164842440E+03  0.31789430929E+03  0.00000000000E+00 0.  1.
         22    1    3    3    0    0 -0.11784852467E+02  0.34862125421E+02  0.67293129885E+02  0.76698212927E+02  0.00000000000E+00 0.  1.
</event>
<event>
 7    1  0.5789396E-006  0.2205223E+03  0.7818608E-02  0.1300702E+00
          2   -1    0    0  502    0  0.00000000000E+00  0.00000000000E+00  0.21758337482E+04  0.21758337482E+04  0.00000000000E+00 0. -1.
          1   -1    0    0  501    0 -0.00000000000E+00 -0.00000000000E+00 -0.93988109465E+03  0.93988109465E+03  0.00000000000E+00 0. -1.
         25    2    1    2    0    0  0.68435862171E+02 -0.23142561052E+03 -0.15787209888E+02  0.27224096457E+03  0.12499850541E+03 0.  0.
          2    1    1    2  501    0  0.21292501841E+02  0.30825194449E+02 -0.78952542997E+03  0.79041379531E+03  0.00000000000E+00 0. -1.
          1    1    1    2  502    0 -0.89728364012E+02  0.20060041607E+03  0.20412652934E+04  0.20530600830E+04  0.00000000000E+00 0. -1.
         22    1    3    3    0    0  0.84536470853E+01 -0.11117458810E+03 -0.65086376070E+02  0.12910263180E+03  0.00000000000E+00 0. -1.
         22    1    3    3    0    0  0.59982215086E+02 -0.12025102242E+03  0.49299166183E+02  0.14313833276E+03  0.00000000000E+00 0. -1.
</event>
<event>
 7    1  0.5789396E-006  0.1094547E+03  0.7818608E-02  0.1367968E+00
          2   -1    0    0  502    0  0.00000000000E+00  0.00000000000E+00  0.26437324625E+04  0.26437324625E+04  0.00000000000E+00 0. -1.
          1   -1    0    0  501    0 -0.00000000000E+00 -0.00000000000E+00 -0.73047712855E+02  0.73047712855E+02  0.00000000000E+00 0. -1.
         25    2    1    2    0    0  0.96367487814E+02  0.95019910764E+02  0.11377180251E+03  0.21653000567E+03  0.12500297660E+03 0.  0.
          2    1    1    2  501    0 -0.64849406298E+02 -0.67384942162E+02  0.80292631211E+02  0.12326022292E+03  0.00000000000E+00 0. -1.
          1    1    1    2  502    0 -0.31518081515E+02 -0.27634968602E+02  0.23766203159E+04  0.23769899467E+04  0.00000000000E+00 0. -1.
         22    1    3    3    0    0  0.65032801197E+02  0.10452430981E+03  0.13080244811E+03  0.17962148258E+03  0.00000000000E+00 0.  1.
         22    1    3    3    0    0  0.31334686617E+02 -0.95043990451E+01 -0.17030645607E+02  0.36908523086E+02  0.00000000000E+00 0.  1.
</event>
<event>
 7    1  0.5789396E-006  0.1763768E+03  0.7818608E-02  0.1281932E+00
          2   -1    0    0  502    0  0.00000000000E+00  0.00000000000E+00  0.26525590121E+04  0.26525590121E+04  0.00000000000E+00 0. -1.
          1   -1    0    0  501    0 -0.00000000000E+00 -0.00000000000E+00 -0.12344372674E+04  0.12344372674E+04  0.00000000000E+00 0. -1.
         25    2    1    2    0    0 -0.79529932973E+02 -0.99017959329E+02  0.62258840477E+02  0.18876204832E+03  0.12500152463E+03 0.  0.
          2    1    1    2  501    0 -0.12494541976E+02 -0.54406112513E+02 -0.11673513709E+04  0.11686853134E+04  0.00000000000E+00 0. -1.
          1    1    1    2  502    0  0.92024474949E+02  0.15342407184E+03  0.25232142750E+04  0.25295489178E+04  0.00000000000E+00 0. -1.
         22    1    3    3    0    0 -0.95491450169E+02 -0.30391183759E+02  0.62871701639E+02  0.11830085364E+03  0.00000000000E+00 0.  1.
         22    1    3    3    0    0  0.15961517197E+02 -0.68626775570E+02 -0.61286116181E+00  0.70461194676E+02  0.00000000000E+00 0.  1.
</event>
<event>
 7    1  0.5789396E-006  0.1017947E+03  0.7818608E-02  0.1441674E+00
          2   -1    0    0  502    0  0.00000000000E+00  0.00000000000E+00  0.10052459171E+04  0.10052459171E+04  0.00000000000E+00 0. -1.
          1   -1    0    0  501    0 -0.00000000000E+00 -0.00000000000E+00 -0.77373855330E+03  0.77373855330E+03  0.00000000000E+00 0. -1.
         25    2    1    2    0    0  0.21501495167E+02 -0.74911165373E+02  0.27432119373E+03  0.31137238219E+03  0.12500658411E+03 0.  0.
          2    1    1    2  501    0 -0.19984114098E+02  0.10010366674E+03 -0.75153792272E+03  0.75843876364E+03  0.00000000000E+00 0. -1.
          1    1    1    2  502    0 -0.15173810687E+01 -0.25192501363E+02  0.70872409277E+03  0.70917332455E+03  0.00000000000E+00 0. -1.
         22    1    3    3    0    0 -0.49155267743E+02 -0.54258361025E+02  0.12417139365E+03  0.14414834404E+03  0.00000000000E+00 0.  1.
         22    1    3    3    0    0  0.70656762909E+02 -0.20652804348E+02  0.15014980007E+03  0.16722403815E+03  0.00000000000E+00 0.  1.
</event>
<event>
 7    1  0.5789396E-006  0.7832813E+02  0.7818608E-02  0.1430730E+00
          2   -1    0    0  502    0  0.00000000000E+00  0.00000000000E+00  0.67864643998E+03  0.67864643998E+03  0.00000000000E+00 0. -1.
          1   -1    0    0  501    0 -0.00000000000E+00 -0.00000000000E+00 -0.17854785889E+04  0.17854785889E+04  0.00000000000E+00 0. -1.
         25    2    1    2    0    0 -0.34357848437E+02 -0.29625394909E+02  0.12901156952E+02  0.13357410665E+03  0.12496990176E+03 0.  0.
          2    1    1    2  501    0 -0.33255045128E+02 -0.12735448044E+02 -0.17223284889E+04  0.17226965819E+04  0.00000000000E+00 0. -1.
          1    1    1    2  502    0  0.67612893565E+02  0.42360842952E+02  0.60259518304E+03  0.60785434030E+03  0.00000000000E+00 0. -1.
         22    1    3    3    0    0 -0.34026660619E+02  0.14419602887E+02 -0.46643332172E+02  0.59509150695E+02  0.00000000000E+00 0.  1.
         22    1    3    3    0    0 -0.33118781850E+00 -0.44044997796E+02  0.59544489124E+02  0.74064955959E+02  0.00000000000E+00 0.  1.
</event>
<event>
 7    1  0.5789396E-006  0.6906138E+02  0.7818608E-02  0.1434414E+00
          2   -1    0    0  502    0  0.00000000000E+00  0.00000000000E+00  0.15870028832E+04  0.15870028832E+04  0.00000000000E+00 0. -1.
          1   -1    0    0  501    0 -0.00000000000E+00 -0.00000000000E+00 -0.57396044349E+02  0.57396044349E+02  0.00000000000E+00 0. -1.
         25    2    1    2    0    0  0.53845116174E+02 -0.42507363097E+02  0.91689262301E+03  0.92791183707E+03  0.12498849064E+03 0.  0.
          2    1    1    2  501    0 -0.22154049099E+02  0.65715483461E+02 -0.27840608472E+02  0.74729018046E+02  0.00000000000E+00 0. -1.
          1    1    1    2  502    0 -0.31691067075E+02 -0.23208120363E+02  0.64055482427E+03  0.64175807239E+03  0.00000000000E+00 0. -1.
         22    1    3    3    0    0  0.92421676064E+02 -0.19976224681E+02  0.52144844769E+03  0.52995216705E+03  0.00000000000E+00 0.  1.
         22    1    3    3    0    0 -0.38576559890E+02 -0.22531138417E+02  0.39544417532E+03  0.39795967003E+03  0.00000000000E+00 0.  1.
</event>
<event>
 7    1  0.5789396E-006  0.1396926E+03  0.7818608E-02  0.1359263E+00
          2   -1    0    0  502    0  0.00000000000E+00  0.00000000000E+00  0.75092005679E+02  0.75092005679E+02  0.00000000000E+00 0. -1.
          1   -1    0    0  501    0 -0.00000000000E+00 -0.00000000000E+00 -0.12118651766E+04  0.12118651766E+04  0.00000000000E+00 0. -1.
         25    2    1    2    0    0  0.10260080717E+03 -0.68227480877E+02 -0.20214311944E+03  0.26770984258E+03  0.12499921718E+03 0.  0.
          2    1    1    2  501    0 -0.13338217571E+03  0.50901543727E+02 -0.96325818163E+03  0.97378031220E+03  0.00000000000E+00 0. -1.
          1    1    1    2  502    0  0.30781368541E+02  0.17325937150E+02  0.28628130197E+02  0.45467027459E+02  0.00000000000E+00 0. -1.
         22    1    3    3    0    0  0.14944921095E+02 -0.30061025143E+02  0.99919902536E+01  0.35026500944E+02  0.00000000000E+00 0. -1.
         22    1    3    3    0    0  0.87655886075E+02 -0.38166455734E+02 -0.21213510970E+03  0.23268334163E+03  0.00000000000E+00 0. -1.
</event>
<event>
 7    1  0.5789396E-006  0.5742973E+02  0.7818608E-02  0.1533598E+00
          2   -1    0    0  502    0  0.00000000000E+00  0.00000000000E+00  0.15510593458E+04  0.15510593458E+04  0.00000000000E+00 0. -1.
          1   -1    0    0  501    0 -0.00000000000E+00 -0.00000000000E+00 -0.19888779115E+02  0.19888779115E+02  0.00000000000E+00 0. -1.
         25    2    1    2    0    0 -0.41766303452E+02  0.66872350305E+02  0.28699823243E+03  0.32281683088E+03  0.12500554204E+03 0.  0.
          2    1    1    2  501    0  0.17463533095E+02 -0.15747602499E+02  0.10711577544E+03  0.10966654605E+03  0.00000000000E+00 0. -1.
          1    1    1    2  502    0  0.24302770357E+02 -0.51124747806E+02  0.11370565588E+04  0.11384647480E+04  0.00000000000E+00 0. -1.
         22    1    3    3    0    0 -0.25180038313E+02 -0.33074877792E+01  0.22864598587E+03  0.23005208249E+03  0.00000000000E+00 0.  1.
         22    1    3    3    0    0 -0.16586265140E+02  0.70179838084E+02  0.58352246566E+02  0.92764748391E+02  0.00000000000E+00 0.  1.
</event>
<event>
 7    1  0.5789396E-006  0.9852790E+02  0.7818608E-02  0.1438550E+00
          2   -1    0    0  502    0  0.00000000000E+00  0.00000000000E+00  0.10313726833E+02  0.10313726833E+02  0.00000000000E+00 0. -1.
          1   -1    0    0  501    0 -0.00000000000E+00 -0.00000000000E+00 -0.20361720371E+04  0.20361720371E+04  0.00000000000E+00 0. -1.
         25    2    1    2    0    0  0.83689669703E+02 -0.40794669226E+02 -0.96110061210E+03  0.97365756231E+03  0.12500598465E+03 0.  0.
          2    1    1    2  501    0 -0.35134957444E+01 -0.26458499293E+02 -0.22045982116E+03  0.22206965030E+03  0.00000000000E+00 0. -1.
          1    1    1    2  502    0 -0.80176173959E+02  0.67253168519E+02 -0.84429787704E+03  0.85075855137E+03  0.00000000000E+00 0. -1.
         22    1    3    3    0    0  0.95397087780E+02 -0.20146178259E+01 -0.40521000329E+03  0.41629293750E+03  0.00000000000E+00 0.  1.
         22    1    3    3    0    0 -0.11707418076E+02 -0.38780051400E+02 -0.55589060881E+03  0.55736462481E+03  0.00000000000E+00 0.  1.
</event>
<event>
 7    1  0.5789396E-006  0.1038476E+03  0.7818608E-02  0.1310155E+00
          2   -1    0    0  502    0  0.00000000000E+00  0.00000000000E+00  0.10624319532E+04  0.10624319532E+04  0.00000000000E+00 0. -1.
          1   -1    0    0  501    0 -0.00000000000E+00 -0.00000000000E+00 -0.10743047871E+04  0.10743047871E+04  0.00000000000E+00 0. -1.
         25    2    1    2    0    0 -0.12718523896E+02 -0.31423301550E+02  0.15742899090E+02  0.13046997657E+03  0.12500156472E+03 0.  0.
          2    1    1    2  501    0  0.28131462108E+02  0.10274779639E+03 -0.10127983243E+04  0.10183854548E+04  0.00000000000E+00 0. -1.
          1    1    1    2  502    0 -0.15412938213E+02 -0.71324494839E+02  0.98518259138E+03  0.98788130896E+03  0.00000000000E+00 0. -1.
         22    1    3    3    0    0 -0.30116843409E+02  0.30277251873E+02  0.43186991855E+02  0.60735924323E+02  0.00000000000E+00 0.  1.
         22    1    3    3    0    0  0.17398319513E+02 -0.61700553423E+02 -0.27444092765E+02  0.69734052244E+02  0.00000000000E+00 0.  1.
</event>
<event>
 7    1  0.5789396E-006  0.9913639E+02  0.7818608E-02  0.1317819E+00
          2   -1    0    0  502    0  0.00000000000E+00  0.00000000000E+00  0.15422357924E+04  0.15422357924E+04  0.00000000000E+00 0. -1.
          1   -1    0    0  501    0 -0.00000000000E+00 -0.00000000000E+00 -0.48105481182E+03  0.48105481182E+03  0.00000000000E+00 0. -1.
         25    2    1    2    0    0  0.10196011964E+03  0.12403455540E+03  0.58985511498E+03  0.62396674996E+03  0.12500004587E+03 0.  0.
          2    1    1    2  501    0 -0.54395899391E+02 -0.46147509356E+02 -0.45901133910E+03  0.46452116842E+03  0.00000000000E+00 0. -1.
          1    1    1    2  502    0 -0.47564220246E+02 -0.77887046041E+02  0.93033720467E+03  0.93480268580E+03  0.00000000000E+00 0. -1.
         22    1    3    3    0    0  0.89167869928E+01  0.32806894788E+02  0.20086355885E+02  0.39487505981E+02  0.00000000000E+00 0.  1.
         22    1    3    3    0    0  0.93043332644E+02  0.91227660608E+02  0.56976875909E+03  0.58447924398E+03  0.00000000000E+00 0.  1.
</event>
<event>
 7    1  0.5789396E-006  0.5905790E+02  0.7818608E-02  0.1535576E+00
          2   -1    0    0  502    0  0.00000000000E+00  0.00000000000E+00  0.46052983692E+02  0.46052983692E+02  0.00000000000E+00 0. -1.
          1   -1    0    0  501    0 -0.00000000000E+00 -0.00000000000E+00 -0.21770238147E+04  0.21770238147E+04  0.00000000000E+00 0. -1.
         25    2    1    2    0    0 -0.36688938269E+02  0.25990931225E+01 -0.83239578337E+02  0.15461811259E+03  0.12500039945E+03 0.  0.
          2    1    1    2  501    0  0.59260166185E+02 -0.28058923789E+01 -0.20448419031E+04  0.20457023364E+04  0.00000000000E+00 0. -1.
          1    1    1    2  502    0 -0.22571227915E+02  0.20679925639E+00 -0.28893494832E+01  0.22756349355E+02  0.00000000000E+00 0. -1.
         22    1    3    3    0    0  0.29986291319E+02 -0.40835116167E+02 -0.30057565724E+02  0.58907908099E+02  0.00000000000E+00 0.  1.
         22    1    3    3    0    0 -0.66675229588E+02  0.43434209289E+02 -0.53182012613E+02  0.95710204486E+02  0.00000000000E+00 0.  1.
</event>
<event>
 7    1  0.5789396E-006  0.9098176E+02  0.7818608E-02  0.1312299E+00
          2   -1    0    0  502    0  0.00000000000E+00  0.00000000000E+00  0.12660776407E+04  0.12660776407E+04  0.00000000000E+00 0. -1.
          1   -1    0    0  501    0 -0.00000000000E+00 -0.00000000000E+00 -0.64621528672E+03  0.64621528672E+03  0.00000000000E+00 0. -1.
         25    2    1    2    0    0  0.54687206589E+01 -0.43736895673E+02  0.30150981931E+01  0.13257702102E+03  0.12499901094E+03 0.  0.
          2    1    1    2  501    0  0.74929365522E+02  0.58197764860E+02 -0.57615794988E+03  0.58391726543E+03  0.00000000000E+00 0. -1.
          1    1    1    2  502    0 -0.80398086181E+02 -0.14460869187E+02  0.11930052057E+04  0.11957986410E+04  0.00000000000E+00 0. -1.
         22    1    3    3    0    0 -0.13330237183E+02 -0.68290469056E+02  0.43178393777E+02  0.81888076522E+02  0.00000000000E+00 0.  1.
         22    1    3    3    0    0  0.18798957842E+02  0.24553573382E+02 -0.40163295584E+02  0.50688944495E+02  0.00000000000E+00 0.  1.
</event>
<event>
 7    1  0.5789396E-006  0.1429737E+03  0.7818608E-02  0.1233444E+00
          2   -1    0    0  502    0  0.00000000000E+00  0.00000000000E+00  0.12150117407E+03  0.12150117407E+03  0.00000000000E+00 0. -1.
          1   -1    0    0  501    0 -0.00000000000E+00 -0.00000000000E+00 -0.22208311410E+04  0.22208311410E+04  0.00000000000E+00 0. -1.
         25    2    1    2    0    0  0.17978594457E+03 -0.15375574333E+03 -0.79080936527E+03  0.83484611684E+03  0.12499908847E+03 0.  0.
          2    1    1    2  501    0 -0.11296025454E+03  0.64972912375E+02 -0.13728942188E+04  0.13790649130E+04  0.00000000000E+00 0. -1.
          1    1    1    2  502    0 -0.66825690034E+02  0.88782830959E+02  0.64373617080E+02  0.12842128522E+03  0.00000000000E+00 0. -1.
         22    1    3    3    0    0 -0.13388686099E+02 -0.26750310997E+02 -0.16522017791E+03  0.16790635259E+03  0.00000000000E+00 0.  1.
         22    1    3    3    0    0  0.19317463067E+03 -0.12700543234E+03 -0.62558918737E+03  0.66693976424E+03  0.00000000000E+00 0.  1.
</event>
<event>
 7    1  0.5789396E-006  0.2751101E+03  0.7818608E-02  0.1157372E+00
          2   -1    0    0  502    0  0.00000000000E+00  0.00000000000E+00  0.16629293541E+04  0.16629293541E+04  0.00000000000E+00 0. -1.
          1   -1    0    0  501    0 -0.00000000000E+00 -0.00000000000E+00 -0.25881174436E+03  0.25881174436E+03  0.00000000000E+00 0. -1.
         25    2    1    2    0    0 -0.16301016543E+03 -0.23649283568E+03  0.59187591775E+03  0.66965842629E+03  0.12499652208E+03 0.  0.
          2    1    1    2  501    0  0.12651884138E+03 -0.40691321314E+02 -0.17856102556E+03  0.22259119637E+03  0.00000000000E+00 0. -1.
          1    1    1    2  502    0  0.36491324055E+02  0.27718415699E+03  0.99080271755E+03  0.10294914758E+04  0.00000000000E+00 0. -1.
         22    1    3    3    0    0 -0.16093828939E+03 -0.19716549010E+03  0.40238749489E+03  0.47612084550E+03  0.00000000000E+00 0. -1.
         22    1    3    3    0    0 -0.20718760453E+01 -0.39327345578E+02  0.18948842286E+03  0.19353758079E+03  0.00000000000E+00 0. -1.
</event>
<event>
 7    1  0.5789396E-006  0.9271192E+02  0.7818608E-02  0.1486706E+00
          2   -1    0    0  502    0  0.00000000000E+00  0.00000000000E+00  0.12364322842E+04  0.12364322842E+04  0.00000000000E+00 0. -1.
          1   -1    0    0  501    0 -0.00000000000E+00 -0.00000000000E+00 -0.11328715703E+04  0.11328715703E+04  0.00000000000E+00 0. -1.
         25    2    1    2    0    0  0.98221592806E+02  0.19104868867E+02  0.50226271125E+03  0.52717251101E+03  0.12502218981E+03 0.  0.
          2    1    1    2  501    0 -0.68866835336E+01 -0.18794526173E+02 -0.11174369782E+04  0.11176162404E+04  0.00000000000E+00 0. -1.
          1    1    1    2  502    0 -0.91334909273E+02 -0.31034269322E+00  0.71873498077E+03  0.72451510305E+03  0.00000000000E+00 0. -1.
         22    1    3    3    0    0  0.66768706595E+02 -0.18048365138E+01  0.47718303453E+03  0.48183499879E+03  0.00000000000E+00 0.  1.
         22    1    3    3    0    0  0.31452886211E+02  0.20909705380E+02  0.25079676724E+02  0.45337512224E+02  0.00000000000E+00 0.  1.
</event>
<event>
 7    1  0.5789396E-006  0.9659032E+02  0.7818608E-02  0.1445232E+00
          2   -1    0    0  502    0  0.00000000000E+00  0.00000000000E+00  0.54113382231E+03  0.54113382231E+03  0.00000000000E+00 0. -1.
          1   -1    0    0  501    0 -0.00000000000E+00 -0.00000000000E+00 -0.37731000606E+03  0.37731000606E+03  0.00000000000E+00 0. -1.
         25    2    1    2    0    0 -0.10863241700E+03  0.50417527907E+02  0.10601995563E+03  0.20299633106E+03  0.12499740113E+03 0.  0.
          2    1    1    2  501    0  0.23288007428E+02 -0.11342739514E+02 -0.32259795243E+03  0.32363625870E+03  0.00000000000E+00 0. -1.
          1    1    1    2  502    0  0.85344409569E+02 -0.39074788393E+02  0.38040181305E+03  0.39181123862E+03  0.00000000000E+00 0. -1.
         22    1    3    3    0    0 -0.69490608100E+02 -0.18727765733E+02  0.10014573209E+03  0.12332413178E+03  0.00000000000E+00 0. -1.
         22    1    3    3    0    0 -0.39141808897E+02  0.69145293640E+02  0.58742235436E+01  0.79672199283E+02  0.00000000000E+00 0. -1.
</event>
<event>
 7    1  0.5789396E-006  0.4684376E+02  0.7818608E-02  0.1500073E+00
          2   -1    0    0  502    0  0.00000000000E+00  0.00000000000E+00  0.47945937739E+02  0.47945937739E+02  0.00000000000E+00 0. -1.
          1   -1    0    0  501    0 -0.00000000000E+00 -0.00000000000E+00 -0.14988713499E+04  0.14988713499E+04  0.00000000000E+00 0. -1.
         25    2    1    2    0    0  0.10352040021E+02  0.10192644090E+02 -0.60898482286E+03  0.62185135280E+03  0.12500214311E+03 0.  0.
          2    1    1    2  501    0 -0.31883589945E+02 -0.39179877100E+02 -0.87473209630E+03  0.87618940097E+03  0.00000000000E+00 0. -1.
          1    1    1    2  502    0  0.21531549925E+02  0.28987233009E+02  0.32791507030E+02  0.48776533835E+02  0.00000000000E+00 0. -1.
         22    1    3    3    0    0  0.25127164680E+02 -0.54086085041E+02 -0.26964885587E+03  0.27616513985E+03  0.00000000000E+00 0.  1.
         22    1    3    3    0    0 -0.14775124660E+02  0.64278729132E+02 -0.33933596699E+03  0.34568621294E+03  0.00000000000E+00 0.  1.
</event>
<event>
 7    1  0.9922797E-006  0.8723403E+02  0.7818608E-02  0.1324812E+00
          2   -1    0    0  502    0  0.00000000000E+00  0.00000000000E+00  0.96567868724E+03  0.96567868724E+03  0.00000000000E+00 0. -1.
          1   -1    0    0  501    0 -0.00000000000E+00 -0.00000000000E+00 -0.29261641930E+04  0.29261641930E+04  0.00000000000E+00 0. -1.
         25    2    1    2    0    0 -0.40120745539E+02 -0.12514099494E+03 -0.79273585727E+03  0.81321905141E+03  0.12500057333E+03 0.  0.
          2    1    1    2  501    0  0.64000430791E+02  0.41296270411E+02 -0.21205129037E+04  0.21218803953E+04  0.00000000000E+00 0. -1.
          1    1    1    2  502    0 -0.23879685252E+02  0.83844724530E+02  0.95276325521E+03  0.95674343356E+03  0.00000000000E+00 0. -1.
         22    1    3    3    0    0 -0.28849446933E+02 -0.10038719803E+03 -0.26586755138E+03  0.28564914667E+03  0.00000000000E+00 0.  1.
         22    1    3    3    0    0 -0.11271298606E+02 -0.24753796913E+02 -0.52686830589E+03  0.52756990474E+03  0.00000000000E+00 0.  1.
</event>
<event>
 7    1  0.5789396E-006  0.6050440E+02  0.7818608E-02  0.1405936E+00
          2   -1    0    0  502    0  0.00000000000E+00  0.00000000000E+00  0.15268943289E+02  0.15268943289E+02  0.00000000000E+00 0. -1.
          1   -1    0    0  501    0 -0.00000000000E+00 -0.00000000000E+00 -0.22121045218E+04  0.22121045218E+04  0.00000000000E+00 0. -1.
         25    2    1    2    0    0 -0.31210435843E+02 -0.61344856395E+02 -0.13301826489E+04  0.13378147922E+04  0.12500102383E+03 0.  0.
          2    1    1    2  501    0  0.62124719926E+02  0.14876990230E+02 -0.80033753155E+03  0.80288291181E+03  0.00000000000E+00 0. -1.
          1    1    1    2  502    0 -0.30914284082E+02  0.46467866166E+02 -0.66315398044E+02  0.86675761110E+02  0.00000000000E+00 0. -1.
         22    1    3    3    0    0  0.28616368162E+01 -0.22163490031E+02 -0.11521013523E+04  0.11523180704E+04  0.00000000000E+00 0. -1.
         22    1    3    3    0    0 -0.34072072660E+02 -0.39181366364E+02 -0.17808129658E+03  0.18549672180E+03  0.00000000000E+00 0. -1.
</event>
<event>
 7    1  0.5789396E-006  0.9598902E+02  0.7818608E-02  0.1374664E+00
          2   -1    0    0  502    0  0.00000000000E+00  0.00000000000E+00  0.49756212030E+03  0.49756212030E+03  0.00000000000E+00 0. -1.
          1   -1    0    0  501    0 -0.00000000000E+00 -0.00000000000E+00 -0.17799779478E+03  0.17799779478E+03  0.00000000000E+00 0. -1.
         25    2    1    2    0    0  0.30361202014E+02  0.10800245944E+03 -0.11637657122E+03  0.20433945836E+03  0.12499909632E+03 0.  0.
          2    1    1    2  501    0 -0.29681959321E+02 -0.62781938699E+02  0.57706741442E+02  0.90292073538E+02  0.00000000000E+00 0. -1.
          1    1    1    2  502    0 -0.67924269248E+00 -0.45220520744E+02  0.37823415531E+03  0.38092838317E+03  0.00000000000E+00 0. -1.
         22    1    3    3    0    0 -0.25921148968E+02  0.10815656393E+03 -0.84306774061E+02  0.13956138591E+03  0.00000000000E+00 0.  1.
         22    1    3    3    0    0  0.56282350982E+02 -0.15410449071E+00 -0.32069797164E+02  0.64778072450E+02  0.00000000000E+00 0.  1.
</event>
<event>
 7    1  0.5789396E-006  0.8733026E+02  0.7818608E-02  0.1457402E+00
          2   -1    0    0  502    0  0.00000000000E+00  0.00000000000E+00  0.59234865948E+03  0.59234865948E+03  0.00000000000E+00 0. -1.
          1   -1    0    0  501    0 -0.00000000000E+00 -0.00000000000E+00 -0.26550102395E+03  0.26550102395E+03  0.00000000000E+00 0. -1.
         25    2    1    2    0    0 -0.46421285185E+02  0.69852702537E+02 -0.20433211093E+02  0.15190636205E+03  0.12499476368E+03 0.  0.
          2    1    1    2  501    0  0.24945431978E+02 -0.84856030973E+02 -0.16807270209E+03  0.18992433693E+03  0.00000000000E+00 0. -1.
          1    1    1    2  502    0  0.21475853207E+02  0.15003328436E+02  0.51535354872E+03  0.51601898445E+03  0.00000000000E+00 0. -1.
         22    1    3    3    0    0  0.35708963315E+02 -0.16465477345E+01  0.12936655842E+02  0.38015763110E+02  0.00000000000E+00 0. -1.
         22    1    3    3    0    0 -0.82130248500E+02  0.71499250272E+02 -0.33369866935E+02  0.11389059894E+03  0.00000000000E+00 0. -1.
</event>
<event>
 7    1  0.5789396E-006  0.1762800E+03  0.7818608E-02  0.1377863E+00
          2   -1    0    0  502    0  0.00000000000E+00  0.00000000000E+00  0.16021730085E+03  0.16021730085E+03  0.00000000000E+00 0. -1.
          1   -1    0    0  501    0 -0.00000000000E+00 -0.00000000000E+00 -0.30612577172E+04  0.30612577172E+04  0.00000000000E+00 0. -1.
         25    2    1    2    0    0  0.13236672224E+03 -0.14273607113E+03 -0.54754555193E+02  0.23773435171E+03  0.12500010205E+03 0.  0.
          2    1    1    2  501    0 -0.10884926525E+03  0.13800380013E+03 -0.29101845044E+04  0.29154874482E+04  0.00000000000E+00 0. -1.
          1    1    1    2  502    0 -0.23517456991E+02  0.47322710078E+01  0.63898643223E+02  0.68253218078E+02  0.00000000000E+00 0. -1.
         22    1    3    3    0    0  0.15125148851E+03 -0.92161239113E+02 -0.46512011021E+02  0.18312311143E+03  0.00000000000E+00 0.  1.
         22    1    3    3    0    0 -0.18884766271E+02 -0.50574832021E+02 -0.82425441725E+01  0.54611240285E+02  0.00000000000E+00 0.  1.
</event>
<event>
 7    1  0.5789396E-006  0.1419556E+03  0.7818608E-02  0.1306007E+00
          2   -1    0    0  502    0  0.00000000000E+00  0.00000000000E+00  0.71160543059E+03  0.71160543059E+03  0.00000000000E+00 0. -1.
          1   -1    0    0  501    0 -0.00000000000E+00 -0.00000000000E+00 -0.92581895378E+03  0.92581895378E+03  0.00000000000E+00 0. -1.
         25    2    1    2    0    0 -0.16832778678E+03 -0.49835625928E+02 -0.33898645830E+03  0.40168935194E+03  0.12499873256E+03 0.  0.
          2    1    1    2  501    0  0.48961290163E+02 -0.25998514115E+02 -0.54671430025E+03  0.54951765828E+03  0.00000000000E+00 0. -1.
          1    1    1    2  502    0  0.11936649661E+03  0.75834140043E+02  0.67148723536E+03  0.68621737413E+03  0.00000000000E+00 0. -1.
         22    1    3    3    0    0 -0.17357160960E+03 -0.55877602824E+02 -0.23524600855E+03  0.29764088210E+03  0.00000000000E+00 0. -1.
         22    1    3    3    0    0  0.52438228288E+01  0.60419768958E+01 -0.10374044975E+03  0.10404846984E+03  0.00000000000E+00 0. -1.
</event>
<event>
 7    1  0.5789396E-006  0.6578697E+02  0.7818608E-02  0.1389250E+00
          2   -1    0    0  502    0  0.00000000000E+00  0.00000000000E+00  0.11346254202E+04  0.11346254202E+04  0.00000000000E+00 0. -1.
          1   -1    0    0  501    0 -0.00000000000E+00 -0.00000000000E+00 -0.47490860823E+03  0.47490860823E+03  0.00000000000E+00 0. -1.
         25    2    1    2    0    0  0.88785172910E+02  0.60596038413E+02  0.92114247025E+02  0.18885072131E+03  0.12499949453E+03 0.  0.
          2    1    1    2  501    0 -0.58535465520E+02 -0.29121530389E+01 -0.42345305306E+03  0.42748961333E+03  0.00000000000E+00 0. -1.
          1    1    1    2  502    0 -0.30249707390E+02 -0.57683885374E+02  0.99105561798E+03  0.99319369378E+03  0.00000000000E+00 0. -1.
         22    1    3    3    0    0  0.89992949009E+02 -0.10382634396E+02  0.32805619867E+02  0.96346970181E+02  0.00000000000E+00 0. -1.
         22    1    3    3    0    0 -0.12077760988E+01  0.70978672808E+02  0.59308627158E+02  0.92503751124E+02  0.00000000000E+00 0. -1.
</event>
<event>
 7    1  0.5789396E-006  0.1523283E+03  0.7818608E-02  0.1296513E+00
          2   -1    0    0  502    0  0.00000000000E+00  0.00000000000E+00  0.49018001582E+03  0.49018001582E+03  0.00000000000E+00 0. -1.
          1   -1    0    0  501    0 -0.00000000000E+00 -0.00000000000E+00 -0.16809710244E+04  0.16809710244E+04  0.00000000000E+00 0. -1.
         25    2    1    2    0    0 -0.14303454078E+03 -0.12648088458E+03 -0.59837663122E+03  0.64041884893E+03  0.12500166103E+03 0.  0.
          2    1    1    2  501    0  0.89140502756E+01  0.55666474710E+02 -0.10485386757E+04  0.10500531278E+04  0.00000000000E+00 0. -1.
          1    1    1    2  502    0  0.13412049051E+03  0.70814409874E+02  0.45612429831E+03  0.48067906354E+03  0.00000000000E+00 0. -1.
         22    1    3    3    0    0  0.41251272028E+01  0.19722593530E+02 -0.67850135087E+02  0.70778797683E+02  0.00000000000E+00 0. -1.
         22    1    3    3    0    0 -0.14715966798E+03 -0.14620347811E+03 -0.53052649613E+03  0.56964005125E+03  0.00000000000E+00 0. -1.
</event>
<event>
 7    1  0.5789396E-006  0.6730798E+02  0.7818608E-02  0.1459792E+00
          2   -1    0    0  502    0  0.00000000000E+00  0.00000000000E+00  0.20649970374E+04  0.20649970374E+04  0.00000000000E+00 0. -1.
          1   -1    0    0  501    0 -0.00000000000E+00 -0.00000000000E+00 -0.60993873484E+03  0.60993873484E+03  0.00000000000E+00 0. -1.
         25    2    1    2    0    0 -0.19415186465E+02 -0.90930887397E+02 -0.13187163585E+03  0.20410991348E+03  0.12500141076E+03 0.  0.
          2    1    1    2  501    0  0.29092236866E+02  0.58958626496E+02 -0.43936440551E+03  0.44425618590E+03  0.00000000000E+00 0. -1.
          1    1    1    2  502    0 -0.96770504004E+01  0.31972260901E+02  0.20262943440E+04  0.20265696729E+04  0.00000000000E+00 0. -1.
         22    1    3    3    0    0 -0.24604406265E+02 -0.90752153152E+02 -0.15451643029E+03  0.18087746498E+03  0.00000000000E+00 0.  1.
         22    1    3    3    0    0  0.51892197995E+01 -0.17873424499E+00  0.22644794442E+02  0.23232448501E+02  0.00000000000E+00 0.  1.
</event>
<event>
 7    1  0.5789396E-006  0.1322956E+03  0.7818608E-02  0.1304839E+00
          2   -1    0    0  502    0  0.00000000000E+00  0.00000000000E+00  0.44158378192E+04  0.44158378192E+04  0.00000000000E+00 0. -1.
          1   -1    0    0  501    0 -0.00000000000E+00 -0.00000000000E+00 -0.90912042034E+02  0.90912042034E+02  0.00000000000E+00 0. -1.
         25    2    1    2    0    0  0.75575541460E+01  0.73095098277E+02  0.25590246405E+04  0.25631288809E+04  0.12499015592E+03 0.  0.
          2    1    1    2  501    0 -0.19452248909E+02 -0.13202877246E+03 -0.37968178324E+02  0.13875002455E+03  0.00000000000E+00 0. -1.
          1    1    1    2  502    0  0.11894694763E+02  0.58933674187E+02  0.18038693149E+04  0.18048709558E+04  0.00000000000E+00 0. -1.
         22    1    3    3    0    0 -0.24318848785E+01  0.86320766089E+02  0.92546400212E+03  0.92948416228E+03  0.00000000000E+00 0.  1.
         22    1    3    3    0    0  0.99894390245E+01 -0.13225667812E+02  0.16335606384E+04  0.16336447186E+04  0.00000000000E+00 0.  1.
</event>
<event>
 7    1  0.5789396E-006  0.8644283E+02  0.7818608E-02  0.1356937E+00
          2   -1    0    0  502    0  0.00000000000E+00  0.00000000000E+00  0.17991350705E+04  0.17991350705E+04  0.00000000000E+00 0. -1.
          1   -1    0    0  501    0 -0.00000000000E+00 -0.00000000000E+00 -0.43881950353E+02  0.43881950353E+02  0.00000000000E+00 0. -1.
         25    2    1    2    0    0  0.96522891707E+02 -0.23722346079E+02  0.89567445348E+03  0.90980066270E+03  0.12500040365E+03 0.  0.
          2    1    1    2  501    0 -0.56379689146E+02  0.65878160543E+02  0.16667170557E+02  0.88297202442E+02  0.00000000000E+00 0. -1.
          1    1    1    2  502    0 -0.40143202561E+02 -0.42155814464E+02  0.84291149607E+03  0.84491915566E+03  0.00000000000E+00 0. -1.
         22    1    3    3    0    0  0.10447615167E+03 -0.39655198559E+02  0.44644367512E+03  0.46021707497E+03  0.00000000000E+00 0.  1.
         22    1    3    3    0    0 -0.79532599635E+01  0.15932852480E+02  0.44923077836E+03  0.44958358773E+03  0.00000000000E+00 0.  1.
</event>
<event>
 7    1  0.5789396E-006  0.1682474E+03  0.7818608E-02  0.1267691E+00
          2   -1    0    0  502    0  0.00000000000E+00  0.00000000000E+00  0.92317746590E+03  0.92317746590E+03  0.00000000000E+00 0. -1.
          1   -1    0    0  501    0 -0.00000000000E+00 -0.00000000000E+00 -0.13029135153E+04  0.13029135153E+04  0.00000000000E+00 0. -1.
         25    2    1    2    0    0 -0.57939778668E+02  0.14685293776E+03  0.51650519134E+03  0.55436867310E+03  0.12499683898E+03 0.  0.
          2    1    1    2  501    0  0.54178687589E+02  0.39566377176E+02 -0.12606221796E+04  0.12624060789E+04  0.00000000000E+00 0. -1.
          1    1    1    2  502    0  0.37610910793E+01 -0.18641931493E+03  0.36438093891E+03  0.40931622913E+03  0.00000000000E+00 0. -1.
         22    1    3    3    0    0  0.27932406340E+02  0.69790341985E+01  0.15075647767E+03  0.15348107962E+03  0.00000000000E+00 0.  1.
         22    1    3    3    0    0 -0.85872185008E+02  0.13987390356E+03  0.36574871367E+03  0.40088759348E+03  0.00000000000E+00 0.  1.
</event>
<event>
 7    1  0.5789396E-006  0.1024215E+03  0.7818608E-02  0.1335307E+00
          2   -1    0    0  502    0  0.00000000000E+00  0.00000000000E+00  0.59438480420E+02  0.59438480420E+02  0.00000000000E+00 0. -1.
          1   -1    0    0  501    0 -0.00000000000E+00 -0.00000000000E+00 -0.28785642886E+04  0.28785642886E+04  0.00000000000E+00 0. -1.
         25    2    1    2    0    0  0.16990105661E+02  0.15622028711E+03 -0.47873391332E+03  0.51913797110E+03  0.12499852591E+03 0.  0.
          2    1    1    2  501    0 -0.21594307477E+02 -0.97247352690E+02 -0.23556667032E+04  0.23577720370E+04  0.00000000000E+00 0. -1.
          1    1    1    2  502    0  0.46042018163E+01 -0.58972934416E+02  0.15274808365E+02  0.61092760934E+02  0.00000000000E+00 0. -1.
         22    1    3    3    0    0  0.39033781261E+02  0.12347685512E+01 -0.15049905410E+03  0.15548352330E+03  0.00000000000E+00 0.  1.
         22    1    3    3    0    0 -0.22043675600E+02  0.15498551856E+03 -0.32823485923E+03  0.36365444780E+03  0.00000000000E+00 0.  1.
</event>
<event>
 7    1  0.5789396E-006  0.1227803E+03  0.7818608E-02  0.1346307E+00
          2   -1    0    0  502    0  0.00000000000E+00  0.00000000000E+00  0.19971391652E+03  0.19971391652E+03  0.00000000000E+00 0. -1.
          1   -1    0    0  501    0 -0.00000000000E+00 -0.00000000000E+00 -0.72932929566E+03  0.72932929566E+03  0.00000000000E+00 0. -1.
         25    2    1    2    0    0  0.80482254583E+02 -0.17007744469E+02 -0.20852396514E+02  0.15108440789E+03  0.12500007677E+03 0.  0.
          2    1    1    2  501    0 -0.12531554043E+03  0.18675170484E+02 -0.63316339422E+03  0.64571559563E+03  0.00000000000E+00 0. -1.
          1    1    1    2  502    0  0.44833285852E+02 -0.16674260147E+01  0.12440041159E+03  0.13224320865E+03  0.00000000000E+00 0. -1.
         22    1    3    3    0    0  0.73693625105E+02 -0.66417714516E+02 -0.77020148232E+01  0.99505699409E+02  0.00000000000E+00 0. -1.
         22    1    3    3    0    0  0.67886294780E+01  0.49409970047E+02 -0.13150381691E+02  0.51578708484E+02  0.00000000000E+00 0. -1.
</event>
<event>
 7    1  0.5789396E-006  0.7325402E+02  0.7818608E-02  0.1471502E+00
          2   -1    0    0  502    0  0.00000000000E+00  0.00000000000E+00  0.28617549469E+03  0.28617549469E+03  0.00000000000E+00 0. -1.
          1   -1    0    0  501    0 -0.00000000000E+00 -0.00000000000E+00 -0.86967990240E+03  0.86967990240E+03  0.00000000000E+00 0. -1.
         25    2    1    2    0    0  0.91068713370E+02 -0.90287883654E+01 -0.12750812529E+03  0.20064361573E+03  0.12499803576E+03 0.  0.
          2    1    1    2  501    0 -0.22917156552E+02 -0.16448905985E+02 -0.70001184331E+03  0.70058000495E+03  0.00000000000E+00 0. -1.
          1    1    1    2  502    0 -0.68151556819E+02  0.25477694351E+02  0.24401556087E+03  0.25463177640E+03  0.00000000000E+00 0. -1.
         22    1    3    3    0    0  0.96569296455E+00 -0.38349845897E+02 -0.91609623773E+02  0.99317503045E+02  0.00000000000E+00 0.  1.
         22    1    3    3    0    0  0.90103020406E+02  0.29321057531E+02 -0.35898501512E+02  0.10132611268E+03  0.00000000000E+00 0.  1.
</event>
<event>
 7    1  0.5789396E-006  0.1127324E+03  0.7818608E-02  0.1415738E+00
          2   -1    0    0  502    0  0.00000000000E+00  0.00000000000E+00  0.34681207742E+04  0.34681207742E+04  0.00000000000E+00 0. -1.
          1   -1    0    0  501    0 -0.00000000000E+00 -0.00000000000E+00 -0.95663382206E+02  0.95663382206E+02  0.00000000000E+00 0. -1.
         25    2    1    2    0    0 -0.44462818529E+02 -0.77044689047E+02  0.57826978203E+03  0.59827741803E+03  0.12500840684E+03 0.  0.
          2    1    1    2  501    0 -0.21018146857E+02 -0.18121441846E+02 -0.82221679997E+02  0.86778763609E+02  0.00000000000E+00 0. -1.
          1    1    1    2  502    0  0.65480965386E+02  0.95166130894E+02  0.28764092900E+04  0.28787279748E+04  0.00000000000E+00 0. -1.
         22    1    3    3    0    0  0.11715756027E+02  0.20990295507E+02  0.29785270108E+02  0.38275498170E+02  0.00000000000E+00 0.  1.
         22    1    3    3    0    0 -0.56178574556E+02 -0.98034984554E+02  0.54848451192E+03  0.56000191986E+03  0.00000000000E+00 0.  1.
</event>
<event>
 7    1  0.5789396E-006  0.1623603E+03  0.7818608E-02  0.1389249E+00
          2   -1    0    0  502    0  0.00000000000E+00  0.00000000000E+00  0.10317360538E+03  0.10317360538E+03  0.00000000000E+00 0. -1.
          1   -1    0    0  501    0 -0.00000000000E+00 -0.00000000000E+00 -0.61224677967E+03  0.61224677967E+03  0.00000000000E+00 0. -1.
         25    2    1    2    0    0  0.14499914042E+02 -0.16937219946E+03 -0.19995604861E+03  0.29069790029E+03  0.12500263357E+03 0.  0.
          2    1    1    2  501    0 -0.34192261474E+02  0.15609979414E+03 -0.34584897634E+03  0.38098263859E+03  0.00000000000E+00 0. -1.
          1    1    1    2  502    0  0.19692347432E+02  0.13272405316E+02  0.36731850655E+02  0.43739846168E+02  0.00000000000E+00 0. -1.
         22    1    3    3    0    0  0.35595181647E+02 -0.52950442525E+02 -0.67723495984E+01  0.64160977542E+02  0.00000000000E+00 0.  1.
         22    1    3    3    0    0 -0.21095267605E+02 -0.11642175693E+03 -0.19318369901E+03  0.22653692275E+03  0.00000000000E+00 0.  1.
</event>
<event>
 7    1  0.5789396E-006  0.5707473E+02  0.7818608E-02  0.1508637E+00
          2   -1    0    0  502    0  0.00000000000E+00  0.00000000000E+00  0.24428127007E+04  0.24428127007E+04  0.00000000000E+00 0. -1.
          1   -1    0    0  501    0 -0.00000000000E+00 -0.00000000000E+00 -0.16474639183E+03  0.16474639183E+03  0.00000000000E+00 0. -1.
         25    2    1    2    0    0 -0.42214949635E+02  0.47876976347E+02  0.19262350680E+03  0.23833320566E+03  0.12499837883E+03 0.  0.
          2    1    1    2  501    0  0.27027077574E+02  0.71329192804E+01 -0.14014556058E+03  0.14290598172E+03  0.00000000000E+00 0. -1.
          1    1    1    2  502    0  0.15187872060E+02 -0.55009895627E+02  0.22255883626E+04  0.22263199051E+04  0.00000000000E+00 0. -1.
         22    1    3    3    0    0 -0.41006532690E+02  0.31939630999E+02  0.74940799339E+01  0.52515111974E+02  0.00000000000E+00 0. -1.
         22    1    3    3    0    0 -0.12084169442E+01  0.15937345348E+02  0.18512942687E+03  0.18581809368E+03  0.00000000000E+00 0. -1.
</event>
<event>
 7    1  0.5789396E-006  0.3415488E+02  0.7818608E-02  0.1557009E+00
          2   -1    0    0  502    0  0.00000000000E+00  0.00000000000E+00  0.58949678496E+03  0.58949678496E+03  0.00000000000E+00 0. -1.
          1   -1    0    0  501    0 -0.00000000000E+00 -0.00000000000E+00 -0.91138364851E+02  0.91138364851E+02  0.00000000000E+00 0. -1.
         25    2    1    2    0    0 -0.38417380263E+01  0.50987006472E+01  0.33339221947E+01  0.12520291955E+03  0.12499560123E+03 0.  0.
          2    1    1    2  501    0  0.86160364917E+01 -0.38918252196E+02 -0.16230008356E+02  0.43038118106E+02  0.00000000000E+00 0. -1.
          1    1    1    2  502    0 -0.47742984654E+01  0.33819551549E+02  0.51125450627E+03  0.51239411215E+03  0.00000000000E+00 0. -1.
         22    1    3    3    0    0  0.23766546271E+01  0.54073700294E+02 -0.33458682057E+02  0.63632514925E+02  0.00000000000E+00 0. -1.
         22    1    3    3    0    0 -0.62183926534E+01 -0.48974999647E+02  0.36792604252E+02  0.61570404621E+02  0.00000000000E+00 0. -1.
</event>
<event>
 7    1  0.5789396E-006  0.1179698E+03  0.7818608E-02  0.1265564E+00
          2   -1    0    0  502    0  0.00000000000E+00  0.00000000000E+00  0.67046148047E+03  0.67046148047E+03  0.00000000000E+00 0. -1.
          1   -1    0    0  501    0 -0.00000000000E+00 -0.00000000000E+00 -0.17349407052E+04  0.17349407052E+04  0.00000000000E+00 0. -1.
         25    2    1    2    0    0 -0.78804447110E+02  0.42013785782E+02 -0.76133636180E+02  0.17145415076E+03  0.12499958470E+03 0.  0.
          2    1    1    2  501    0  0.19246964932E+02 -0.11943688033E+03 -0.16050262904E+04  0.16095791397E+04  0.00000000000E+00 0. -1.
          1    1    1    2  502    0  0.59557482178E+02  0.77423094547E+02  0.61668070186E+03  0.62436889521E+03  0.00000000000E+00 0. -1.
         22    1    3    3    0    0 -0.11101719203E+03  0.45147821836E+02 -0.69078545731E+02  0.13832927464E+03  0.00000000000E+00 0.  1.
         22    1    3    3    0    0  0.32212744916E+02 -0.31340360538E+01 -0.70550904490E+01  0.33124876124E+02  0.00000000000E+00 0.  1.
</event>
<event>
 7    1  0.5789396E-006  0.2645197E+03  0.7818608E-02  0.1210417E+00
          2   -1    0    0  502    0  0.00000000000E+00  0.00000000000E+00  0.13906042900E+04  0.13906042900E+04  0.00000000000E+00 0. -1.
          1   -1    0    0  501    0 -0.00000000000E+00 -0.00000000000E+00 -0.56037187987E+03  0.56037187987E+03  0.00000000000E+00 0. -1.
         25    2    1    2    0    0  0.29370762377E+03  0.65578516621E+02 -0.21051308152E+03  0.38795092909E+03  0.12500182316E+03 0.  0.
          2    1    1    2  501    0 -0.24288586584E+03 -0.84947383512E+01 -0.20316581999E+03  0.31676814047E+03  0.00000000000E+00 0. -1.
          1    1    1    2  502    0 -0.50821757925E+02 -0.57083778270E+02  0.12439113116E+04  0.12462571003E+04  0.00000000000E+00 0. -1.
         22    1    3    3    0    0  0.17292885722E+03  0.66331710256E+02 -0.19018597526E+03  0.26547126140E+03  0.00000000000E+00 0.  1.
         22    1    3    3    0    0  0.12077876655E+03 -0.75319363529E+00 -0.20327106261E+02  0.12247966769E+03  0.00000000000E+00 0.  1.
</event>
<event>
 7    1  0.5789396E-006  0.4275461E+02  0.7818608E-02  0.1499823E+00
          2   -1    0    0  502    0  0.00000000000E+00  0.00000000000E+00  0.17361595361E+04  0.17361595361E+04  0.00000000000E+00 0. -1.
          1   -1    0    0  501    0 -0.00000000000E+00 -0.00000000000E+00 -0.98194388565E+03  0.98194388565E+03  0.00000000000E+00 0. -1.
         25    2    1    2    0    0  0.21265143838E+02  0.67280549870E+02  0.38023773438E+03  0.40642919823E+03  0.12500031919E+03 0.  0.
          2    1    1    2  501    0  0.90562197961E+01 -0.41761767051E+02 -0.96808431065E+03  0.96902698251E+03  0.00000000000E+00 0. -1.
          1    1    1    2  502    0 -0.30321363634E+02 -0.25518782818E+02  0.13420622267E+04  0.13426472410E+04  0.00000000000E+00 0. -1.
         22    1    3    3    0    0  0.19435678489E+02 -0.22704699523E+02  0.22141426872E+02  0.37195319097E+02  0.00000000000E+00 0. -1.
         22    1    3    3    0    0  0.18294653488E+01  0.89985249393E+02  0.35809630750E+03  0.36923387913E+03  0.00000000000E+00 0. -1.
</event>
<event>
 7    1  0.5789396E-006  0.9389996E+02  0.7818608E-02  0.1387980E+00
          2   -1    0    0  502    0  0.00000000000E+00  0.00000000000E+00  0.62688007821E+03  0.62688007821E+03  0.00000000000E+00 0. -1.
          1   -1    0    0  501    0 -0.00000000000E+00 -0.00000000000E+00 -0.91619537155E+03  0.91619537155E+03  0.00000000000E+00 0. -1.
         25    2    1    2    0    0 -0.37463453831E+02  0.39691885252E+02 -0.12790783321E+02  0.13699164908E+03  0.12499660656E+03 0.  0.
          2    1    1    2  501    0 -0.29579716050E+02  0.29083729227E+02 -0.83670319047E+03  0.83773089465E+03  0.00000000000E+00 0. -1.
          1    1    1    2  502    0  0.67043169881E+02 -0.68775614479E+02  0.56017868044E+03  0.56835290604E+03  0.00000000000E+00 0. -1.
         22    1    3    3    0    0 -0.37953790210E+02  0.83641000998E+02 -0.14600327647E+02  0.93002563441E+02  0.00000000000E+00 0. -1.
         22    1    3    3    0    0  0.49033637868E+00 -0.43949115745E+02  0.18095443262E+01  0.43989085638E+02  0.00000000000E+00 0. -1.
</event>
<event>
 7    1  0.5789396E-006  0.9229448E+02  0.7818608E-02  0.1376685E+00
          2   -1    0    0  502    0  0.00000000000E+00  0.00000000000E+00  0.32309239658E+04  0.32309239658E+04  0.00000000000E+00 0. -1.
          1   -1    0    0  501    0 -0.00000000000E+00 -0.00000000000E+00 -0.45367048786E+02  0.45367048786E+02  0.00000000000E+00 0. -1.
         25    2    1    2    0    0  0.82847614618E+02  0.20109859229E+02  0.35955013093E+03  0.39009065006E+03  0.12500513959E+03 0.  0.
          2    1    1    2  501    0  0.67323116338E+01 -0.45769610031E+02 -0.11090772896E+02  0.47572959397E+02  0.00000000000E+00 0. -1.
          1    1    1    2  502    0 -0.89579926252E+02  0.25659750802E+02  0.28370975590E+04  0.28386274051E+04  0.00000000000E+00 0. -1.
         22    1    3    3    0    0 -0.33546522018E+02  0.33270039155E+01  0.80236383340E+02  0.87030542375E+02  0.00000000000E+00 0.  1.
         22    1    3    3    0    0  0.11639413664E+03  0.16782855314E+02  0.27931374759E+03  0.30306010769E+03  0.00000000000E+00 0.  1.
</event>
<event>
 7    1  0.5789396E-006  0.6584566E+02  0.7818608E-02  0.1482427E+00
          2   -1    0    0  502    0  0.00000000000E+00  0.00000000000E+00  0.15850966343E+04  0.15850966343E+04  0.00000000000E+00 0. -1.
          1   -1    0    0  501    0 -0.00000000000E+00 -0.00000000000E+00 -0.20742090721E+02  0.20742090721E+02  0.00000000000E+00 0. -1.
         25    2    1    2    0    0  0.88325293184E+02  0.19981872592E+02  0.94489627312E+03  0.95742109212E+03  0.12500219204E+03 0.  0.
          2    1    1    2  501    0 -0.59512714713E+02 -0.23631318031E+02  0.58574181875E+02  0.86782124812E+02  0.00000000000E+00 0. -1.
          1    1    1    2  502    0 -0.28812578470E+02  0.36494454394E+01  0.56088408853E+03  0.56163550805E+03  0.00000000000E+00 0. -1.
         22    1    3    3    0    0 -0.23890881013E+02  0.28374050285E+02  0.14598479892E+03  0.15062344585E+03  0.00000000000E+00 0. -1.
         22    1    3    3    0    0  0.11221617420E+03 -0.83921776931E+01  0.79891147421E+03  0.80679764627E+03  0.00000000000E+00 0. -1.
</event>
<event>
 7    1  0.5789396E-006  0.6204337E+02  0.7818608E-02  0.1408294E+00
          2   -1    0    0  502    0  0.00000000000E+00  0.00000000000E+00  0.39000612203E+03  0.39000612203E+03  0.00000000000E+00 0. -1.
          1   -1    0    0  501    0 -0.00000000000E+00 -0.00000000000E+00 -0.54794008928E+03  0.54794008928E+03  0.00000000000E+00 0. -1.
         25    2    1    2    0    0 -0.39173859045E+02  0.46883811788E+02 -0.33626320123E+02  0.14313648365E+03  0.12499856201E+03 0.  0.
          2    1    1    2  501    0 -0.12141942300E+02 -0.61767237153E+02 -0.45525020900E+03  0.45958173499E+03  0.00000000000E+00 0. -1.
          1    1    1    2  502    0  0.51315801345E+02  0.14883425365E+02  0.33094256187E+03  0.33522799268E+03  0.00000000000E+00 0. -1.
         22    1    3    3    0    0 -0.73327795338E+01 -0.10666321047E+02 -0.67794742691E+02  0.69019324807E+02  0.00000000000E+00 0.  1.
         22    1    3    3    0    0 -0.31841079511E+02  0.57550132835E+02  0.34168422568E+02  0.74117158840E+02  0.00000000000E+00 0.  1.
</event>
<event>
 7    1  0.5789396E-006  0.1120638E+03  0.7818608E-02  0.1293266E+00
          2   -1    0    0  502    0  0.00000000000E+00  0.00000000000E+00  0.16809837885E+04  0.16809837885E+04  0.00000000000E+00 0. -1.
          1   -1    0    0  501    0 -0.00000000000E+00 -0.00000000000E+00 -0.93358784086E+03  0.93358784086E+03  0.00000000000E+00 0. -1.
         25    2    1    2    0    0  0.77978787666E+02  0.12713149338E+03  0.40404925782E+03  0.44846800873E+03  0.12499857669E+03 0.  0.
          2    1    1    2  501    0  0.19745143648E+02 -0.76471101164E+02 -0.90724538469E+03  0.91067661003E+03  0.00000000000E+00 0. -1.
          1    1    1    2  502    0 -0.97723931314E+02 -0.50660392216E+02  0.12505920745E+04  0.12554270106E+04  0.00000000000E+00 0. -1.
         22    1    3    3    0    0  0.78923741618E+02  0.30896259440E+02  0.10872080308E+03  0.13785408539E+03  0.00000000000E+00 0.  1.
         22    1    3    3    0    0 -0.94495395209E+00  0.96235233939E+02  0.29532845474E+03  0.31061392334E+03  0.00000000000E+00 0.  1.
</event>
<event>
 7    1  0.5789396E-006  0.1117406E+03  0.7818608E-02  0.1392449E+00
          2   -1    0    0  502    0  0.00000000000E+00  0.00000000000E+00  0.55316873735E+03  0.55316873735E+03  0.00000000000E+00 0. -1.
          1   -1    0    0  501    0 -0.00000000000E+00 -0.00000000000E+00 -0.96467089934E+03  0.96467089934E+03  0.00000000000E+00 0. -1.
         25    2    1    2    0    0  0.80184565811E+02  0.11087375055E+03  0.26759197522E+02  0.18725284932E+03  0.12500008708E+03 0.  0.
          2    1    1    2  501    0 -0.79696237466E+02 -0.77246715597E+02 -0.88030074082E+03  0.88726993616E+03  0.00000000000E+00 0. -1.
          1    1    1    2  502    0 -0.48832834462E+00 -0.33627034957E+02  0.44203938130E+03  0.44331685121E+03  0.00000000000E+00 0. -1.
         22    1    3    3    0    0 -0.15622003137E+02 -0.13655184727E+02  0.21742193500E+02  0.30053852168E+02  0.00000000000E+00 0.  1.
         22    1    3    3    0    0  0.95806568948E+02  0.12452893528E+03  0.50170040226E+01  0.15719899715E+03  0.00000000000E+00 0.  1.
</event>
<event>
 7    1  0.5789396E-006  0.4629379E+02  0.7818608E-02  0.1550691E+00
          2   -1    0    0  502    0  0.00000000000E+00  0.00000000000E+00  0.28623372669E+03  0.28623372669E+03  0.00000000000E+00 0. -1.
          1   -1    0    0  501    0 -0.00000000000E+00 -0.00000000000E+00 -0.25647068703E+04  0.25647068703E+04  0.00000000000E+00 0. -1.
         25    2    1    2    0    0 -0.16006231627E+02  0.59444769576E+02  0.12127195279E+02  0.13986686001E+03  0.12500315829E+03 0.  0.
          2    1    1    2  501    0  0.28442514777E+02 -0.36488561627E+02 -0.24998116021E+04  0.25002396760E+04  0.00000000000E+00 0. -1.
          1    1    1    2  502    0 -0.12436283151E+02 -0.22956207949E+02  0.20921126317E+03  0.21083406096E+03  0.00000000000E+00 0. -1.
         22    1    3    3    0    0  0.21735795681E+02  0.28233800463E+02  0.61021402850E+02  0.70662606152E+02  0.00000000000E+00 0. -1.
         22    1    3    3    0    0 -0.37742027308E+02  0.31210969112E+02 -0.48894207570E+02  0.69204253859E+02  0.00000000000E+00 0. -1.
</event>
<event>
 7    1  0.5789396E-006  0.7260404E+02  0.7818608E-02  0.1462384E+00
          2   -1    0    0  502    0  0.00000000000E+00  0.00000000000E+00  0.72245508222E+03  0.72245508222E+03  0.00000000000E+00 0. -1.
          1   -1    0    0  501    0 -0.00000000000E+00 -0.00000000000E+00 -0.84487856808E+03  0.84487856808E+03  0.00000000000E+00 0. -1.
         25    2    1    2    0    0 -0.94023877152E+02  0.41012616749E+02 -0.36727324341E+03  0.40129317352E+03  0.12499620628E+03 0.  0.
          2    1    1    2  501    0  0.29041679512E+02 -0.89553068075E+01 -0.45823002548E+03  0.45923672862E+03  0.00000000000E+00 0. -1.
          1    1    1    2  502    0  0.64982197639E+02 -0.32057309941E+02  0.70307978302E+03  0.70680374816E+03  0.00000000000E+00 0. -1.
         22    1    3    3    0    0 -0.60598850200E+02  0.84722840823E+02 -0.27212115109E+03  0.29137621947E+03  0.00000000000E+00 0. -1.
         22    1    3    3    0    0 -0.33425026952E+02 -0.43710224074E+02 -0.95152092318E+02  0.10991695405E+03  0.00000000000E+00 0. -1.
</event>
<event>
 7    1  0.5789396E-006  0.3917208E+03  0.7818608E-02  0.1132937E+00
          2   -1    0    0  502    0  0.00000000000E+00  0.00000000000E+00  0.22748999646E+04  0.22748999646E+04  0.00000000000E+00 0. -1.
          1   -1    0    0  501    0 -0.00000000000E+00 -0.00000000000E+00 -0.41779452354E+03  0.41779452354E+03  0.00000000000E+00 0. -1.
         25    2    1    2    0    0 -0.22618465174E+03  0.38895595616E+03  0.29742785470E+03  0.55365483140E+03  0.12499644422E+03 0.  0.
          2    1    1    2  501    0  0.26426092330E+03 -0.26990375450E+03 -0.16331016276E+03  0.41152409594E+03  0.00000000000E+00 0. -1.
          1    1    1    2  502    0 -0.38076271560E+02 -0.11905220166E+03  0.17229877491E+04  0.17275155608E+04  0.00000000000E+00 0. -1.
         22    1    3    3    0    0 -0.19284220830E+03  0.24954882087E+03  0.25073335532E+03  0.40290190713E+03  0.00000000000E+00 0.  1.
         22    1    3    3    0    0 -0.33342443442E+02  0.13940713529E+03  0.46694499386E+02  0.15075292427E+03  0.00000000000E+00 0.  1.
</event>
<event>
 7    1  0.5789396E-006  0.3165988E+02  0.7818608E-02  0.1606201E+00
          2   -1    0    0  502    0  0.00000000000E+00  0.00000000000E+00  0.95212676776E+01  0.95212676776E+01  0.00000000000E+00 0. -1.
          1   -1    0    0  501    0 -0.00000000000E+00 -0.00000000000E+00 -0.16564648613E+04  0.16564648613E+04  0.00000000000E+00 0. -1.
         25    2    1    2    0    0  0.23010287363E+02  0.52597363875E+02 -0.14116095118E+04  0.14182956733E+04  0.12500098876E+03 0.  0.
          2    1    1    2  501    0 -0.72233117920E+01 -0.26095363387E+02 -0.19521020737E+03  0.19707909398E+03  0.00000000000E+00 0. -1.
          1    1    1    2  502    0 -0.15786975571E+02 -0.26502000489E+02 -0.40123874443E+02  0.50611361648E+02  0.00000000000E+00 0. -1.
         22    1    3    3    0    0 -0.43113052023E+02 -0.11540079597E+02 -0.53544283528E+03  0.53729967295E+03  0.00000000000E+00 0. -1.
         22    1    3    3    0    0  0.66123339387E+02  0.64137443472E+02 -0.87616667652E+03  0.88099600039E+03  0.00000000000E+00 0. -1.
</event>
<event>
 7    1  0.1088236E-005  0.1187492E+03  0.7818608E-02  0.1337401E+00
          2   -1    0    0  502    0  0.00000000000E+00  0.00000000000E+00  0.19169397950E+04  0.19169397950E+04  0.00000000000E+00 0. -1.
          1   -1    0    0  501    0 -0.00000000000E+00 -0.00000000000E+00 -0.10192363723E+04  0.10192363723E+04  0.00000000000E+00 0. -1.
         25    2    1    2    0    0  0.12695497068E+03  0.10904684563E+03 -0.24468173641E+03  0.32171940354E+03  0.12500177345E+03 0.  0.
          2    1    1    2  501    0 -0.43273168617E+02 -0.25240774759E+02 -0.73331361737E+03  0.73502280594E+03  0.00000000000E+00 0. -1.
          1    1    1    2  502    0 -0.83681802060E+02 -0.83806070866E+02  0.18756987765E+04  0.18794339578E+04  0.00000000000E+00 0. -1.
         22    1    3    3    0    0  0.10624354289E+03  0.63783870867E+02 -0.24198595123E+03  0.27186995638E+03  0.00000000000E+00 0.  1.
         22    1    3    3    0    0  0.20711427790E+02  0.45262974758E+02 -0.26957851756E+01  0.49849447166E+02  0.00000000000E+00 0.  1.
</event>
<event>
 7    1  0.5789396E-006  0.1313677E+03  0.7818608E-02  0.1388028E+00
          2   -1    0    0  502    0  0.00000000000E+00  0.00000000000E+00  0.12708330600E+04  0.12708330600E+04  0.00000000000E+00 0. -1.
          1   -1    0    0  501    0 -0.00000000000E+00 -0.00000000000E+00 -0.43576756679E+04  0.43576756679E+04  0.00000000000E+00 0. -1.
         25    2    1    2    0    0  0.37709625698E+02  0.15458544723E+03 -0.42963329701E+02  0.20685228659E+03  0.12499337744E+03 0.  0.
          2    1    1    2  501    0 -0.22651020261E+02 -0.12905570992E+03 -0.42315689003E+04  0.42335970289E+04  0.00000000000E+00 0. -1.
          1    1    1    2  502    0 -0.15058605437E+02 -0.25529737310E+02  0.11876896221E+04  0.11880594124E+04  0.00000000000E+00 0. -1.
         22    1    3    3    0    0  0.59460454319E+02  0.16425879749E+03 -0.23822611248E+02  0.17630659371E+03  0.00000000000E+00 0.  1.
         22    1    3    3    0    0 -0.21750828621E+02 -0.96733502509E+01 -0.19140718453E+02  0.30545692883E+02  0.00000000000E+00 0.  1.
</event>
<event>
 7    1  0.5789396E-006  0.6276455E+02  0.7818608E-02  0.1462451E+00
          2   -1    0    0  502    0  0.00000000000E+00  0.00000000000E+00  0.53297600200E+03  0.53297600200E+03  0.00000000000E+00 0. -1.
          1   -1    0    0  501    0 -0.00000000000E+00 -0.00000000000E+00 -0.11661133531E+03  0.11661133531E+03  0.00000000000E+00 0. -1.
         25    2    1    2    0    0  0.83269979655E+02 -0.83250873526E+01  0.21664548510E+03  0.26374609668E+03  0.12499416270E+03 0.  0.
          2    1    1    2  501    0 -0.24934118214E+02  0.24758769321E+02 -0.86453336727E+02  0.93321414159E+02  0.00000000000E+00 0. -1.
          1    1    1    2  502    0 -0.58335861442E+02 -0.16433681968E+02  0.28617251831E+03  0.29251982646E+03  0.00000000000E+00 0. -1.
         22    1    3    3    0    0  0.89384719194E+01 -0.31616278293E+02  0.16958568043E+03  0.17273907589E+03  0.00000000000E+00 0.  1.
         22    1    3    3    0    0  0.74331507736E+02  0.23291190940E+02  0.47059804673E+02  0.91007020793E+02  0.00000000000E+00 0.  1.
</event>
<event>
 7    1  0.5789396E-006  0.1057782E+03  0.7818608E-02  0.1337310E+00
          2   -1    0    0  502    0  0.00000000000E+00  0.00000000000E+00  0.62110651124E+03  0.62110651124E+03  0.00000000000E+00 0. -1.
          1   -1    0    0  501    0 -0.00000000000E+00 -0.00000000000E+00 -0.10671875079E+04  0.10671875079E+04  0.00000000000E+00 0. -1.
         25    2    1    2    0    0  0.73946757810E+01 -0.13701926209E+03  0.41131705672E+03  0.45126043246E+03  0.12500118934E+03 0.  0.
          2    1    1    2  501    0 -0.27759949238E+02  0.48962248956E+02 -0.10356494637E+04  0.10371777708E+04  0.00000000000E+00 0. -1.
          1    1    1    2  502    0  0.20365273457E+02  0.88057013137E+02  0.17825141023E+03  0.19985581597E+03  0.00000000000E+00 0. -1.
         22    1    3    3    0    0  0.31879841755E+01  0.14740358489E+02  0.13621581154E+03  0.13704812558E+03  0.00000000000E+00 0. -1.
         22    1    3    3    0    0  0.42066916055E+01 -0.15175962058E+03  0.27510124518E+03  0.31421230688E+03  0.00000000000E+00 0. -1.
</event>
<event>
 7    1  0.5789396E-006  0.1920614E+03  0.7818608E-02  0.1379497E+00
          2   -1    0    0  502    0  0.00000000000E+00  0.00000000000E+00  0.20856054790E+04  0.20856054790E+04  0.00000000000E+00 0. -1.
          1   -1    0    0  501    0 -0.00000000000E+00 -0.00000000000E+00 -0.17916078483E+03  0.17916078483E+03  0.00000000000E+00 0. -1.
         25    2    1    2    0    0 -0.17406435481E+03  0.62288918941E+02  0.81039889260E+03  0.84056462942E+03  0.12499688817E+03 0.  0.
          2    1    1    2  501    0 -0.16054713905E+02 -0.14637350547E+02 -0.15569765666E+03  0.15720612634E+03  0.00000000000E+00 0. -1.
          1    1    1    2  502    0  0.19011906872E+03 -0.47651568394E+02  0.12517434582E+04  0.12669955081E+04  0.00000000000E+00 0. -1.
         22    1    3    3    0    0 -0.11666781342E+03  0.97129550897E+02  0.63123194389E+03  0.64922977083E+03  0.00000000000E+00 0. -1.
         22    1    3    3    0    0 -0.57396541386E+02 -0.34840631956E+02  0.17916694871E+03  0.19133485859E+03  0.00000000000E+00 0. -1.
</event>
<event>
 7    1  0.5789396E-006  0.1451273E+03  0.7818608E-02  0.1210879E+00
          2   -1    0    0  502    0  0.00000000000E+00  0.00000000000E+00  0.10992578701E+04  0.10992578701E+04  0.00000000000E+00 0. -1.
          1   -1    0    0  501    0 -0.00000000000E+00 -0.00000000000E+00 -0.12752372025E+03  0.12752372025E+03  0.00000000000E+00 0. -1.
         25    2    1    2    0    0 -0.23213000300E+02  0.11588978813E+03  0.30368387449E+03  0.34902258661E+03  0.12499433572E+03 0.  0.
          2    1    1    2  501    0  0.14756555701E+03 -0.41067553452E+02 -0.37286567672E+02  0.15764652134E+03  0.00000000000E+00 0. -1.
          1    1    1    2  502    0 -0.12435255671E+03 -0.74822234680E+02  0.70533684299E+03  0.72011248236E+03  0.00000000000E+00 0. -1.
         22    1    3    3    0    0 -0.35642853276E+02  0.13996844328E+03  0.26476776466E+03  0.30160163678E+03  0.00000000000E+00 0.  1.
         22    1    3    3    0    0  0.12429852976E+02 -0.24078655147E+02  0.38916109824E+02  0.47420949827E+02  0.00000000000E+00 0.  1.
</event>
<event>
 7    1  0.5789396E-006  0.1371177E+03  0.7818608E-02  0.1278823E+00
          2   -1    0    0  502    0  0.00000000000E+00  0.00000000000E+00  0.27190224008E+04  0.27190224008E+04  0.00000000000E+00 0. -1.
          1   -1    0    0  501    0 -0.00000000000E+00 -0.00000000000E+00 -0.30696076399E+02  0.30696076399E+02  0.00000000000E+00 0. -1.
         25    2    1    2    0    0  0.14172446260E+03  0.12061549901E+03  0.67460628882E+03  0.71088085200E+03  0.12499607564E+03 0.  0.
          2    1    1    2  501    0 -0.10164633472E+03 -0.58455735880E+02  0.28025930152E+03  0.30379981322E+03  0.00000000000E+00 0. -1.
          1    1    1    2  502    0 -0.40078127884E+02 -0.62159763128E+02  0.17334607341E+04  0.17350378120E+04  0.00000000000E+00 0. -1.
         22    1    3    3    0    0 -0.20476308320E+02  0.18211342680E+02  0.14592358890E+03  0.14847432776E+03  0.00000000000E+00 0. -1.
         22    1    3    3    0    0  0.16220077092E+03  0.10240415633E+03  0.52868269992E+03  0.56240652424E+03  0.00000000000E+00 0. -1.
</event>
<event>
 7    1  0.5789396E-006  0.2779634E+03  0.7818608E-02  0.1252428E+00
          2   -1    0    0  502    0  0.00000000000E+00  0.00000000000E+00  0.69614504178E+03  0.69614504178E+03  0.00000000000E+00 0. -1.
          1   -1    0    0  501    0 -0.00000000000E+00 -0.00000000000E+00 -0.12357699259E+04  0.12357699259E+04  0.00000000000E+00 0. -1.
         25    2    1    2    0    0  0.30466123645E+03 -0.70443133452E+02  0.32855391434E+02  0.33834263887E+03  0.12496223624E+03 0.  0.
          2    1    1    2  501    0 -0.46436322127E+02 -0.83375542351E+01 -0.10467673232E+04  0.10478299842E+04  0.00000000000E+00 0. -1.
          1    1    1    2  502    0 -0.25822491432E+03  0.78780687687E+02  0.47428704766E+03  0.54574234461E+03  0.00000000000E+00 0. -1.
         22    1    3    3    0    0  0.17169983815E+03  0.60530281499E+01 -0.26548817790E+02  0.17384565941E+03  0.00000000000E+00 0. -1.
         22    1    3    3    0    0  0.13296139830E+03 -0.76496161602E+02  0.59404209224E+02  0.16449697946E+03  0.00000000000E+00 0. -1.
</event>
<event>
 7    1  0.5789396E-006  0.7599710E+02  0.7818608E-02  0.1374656E+00
          2   -1    0    0  502    0  0.00000000000E+00  0.00000000000E+00  0.43459743316E+03  0.43459743316E+03  0.00000000000E+00 0. -1.
          1   -1    0    0  501    0 -0.00000000000E+00 -0.00000000000E+00 -0.24007449605E+04  0.24007449605E+04  0.00000000000E+00 0. -1.
         25    2    1    2    0    0 -0.57289209885E+02 -0.11855550743E+02  0.40864718007E+02  0.14393672845E+03  0.12500099587E+03 0.  0.
          2    1    1    2  501    0  0.61460358060E+02 -0.45118493414E+02 -0.23462012007E+04  0.23474396964E+04  0.00000000000E+00 0. -1.
          1    1    1    2  502    0 -0.41711481752E+01  0.56974044157E+02  0.33918895541E+03  0.34396596875E+03  0.00000000000E+00 0. -1.
         22    1    3    3    0    0 -0.91680721480E+02 -0.50555691906E+01  0.53973800108E+02  0.10650861265E+03  0.00000000000E+00 0.  1.
         22    1    3    3    0    0  0.34391511595E+02 -0.67999815527E+01 -0.13109082101E+02  0.37428115801E+02  0.00000000000E+00 0.  1.
</event>
<event>
 7    1  0.5789396E-006  0.2590483E+03  0.7818608E-02  0.1338671E+00
          2   -1    0    0  502    0  0.00000000000E+00  0.00000000000E+00  0.39331308493E+03  0.39331308493E+03  0.00000000000E+00 0. -1.
          1   -1    0    0  501    0 -0.00000000000E+00 -0.00000000000E+00 -0.71595948338E+03  0.71595948338E+03  0.00000000000E+00 0. -1.
         25    2    1    2    0    0 -0.15740657028E+03  0.19409477157E+03 -0.17516604351E+03  0.32978428663E+03  0.12499969677E+03 0.  0.
          2    1    1    2  501    0  0.18007243542E+03 -0.19263928839E+03 -0.42547647409E+03  0.50056588721E+03  0.00000000000E+00 0. -1.
          1    1    1    2  502    0 -0.22665865135E+02 -0.14554831732E+01  0.27799611916E+03  0.27892239447E+03  0.00000000000E+00 0. -1.
         22    1    3    3    0    0 -0.12540403282E+02 -0.15910428796E+02  0.98683873725E-01  0.20258657346E+02  0.00000000000E+00 0. -1.
         22    1    3    3    0    0 -0.14486616700E+03  0.21000520036E+03 -0.17526472738E+03  0.30952562929E+03  0.00000000000E+00 0. -1.
</event>
<event>
 7    1  0.5789396E-006  0.1355924E+03  0.7818608E-02  0.1292238E+00
          2   -1    0    0  502    0  0.00000000000E+00  0.00000000000E+00  0.29291962569E+04  0.29291962569E+04  0.00000000000E+00 0. -1.
          1   -1    0    0  501    0 -0.00000000000E+00 -0.00000000000E+00 -0.22828492770E+03  0.22828492770E+03  0.00000000000E+00 0. -1.
         25    2    1    2    0    0 -0.12776189505E+03 -0.20171428283E+02  0.15820642107E+03  0.23955065881E+03  0.12500103249E+03 0.  0.
          2    1    1    2  501    0  0.19500404864E+02 -0.62952074493E+02 -0.18006258972E+03  0.19174401083E+03  0.00000000000E+00 0. -1.
          1    1    1    2  502    0  0.10826149018E+03  0.83123502776E+02  0.27227674979E+04  0.27261865150E+04  0.00000000000E+00 0. -1.
         22    1    3    3    0    0 -0.12080630748E+03 -0.91989809180E+01  0.50822646367E+02  0.13138389003E+03  0.00000000000E+00 0. -1.
         22    1    3    3    0    0 -0.69555875736E+01 -0.10972447365E+02  0.10738377470E+03  0.10816676878E+03  0.00000000000E+00 0. -1.
</event>
<event>
 7    1  0.5789396E-006  0.5148928E+02  0.7818608E-02  0.1478899E+00
          2   -1    0    0  502    0  0.00000000000E+00  0.00000000000E+00  0.14051531995E+04  0.14051531995E+04  0.00000000000E+00 0. -1.
          1   -1    0    0  501    0 -0.00000000000E+00 -0.00000000000E+00 -0.63206581483E+03  0.63206581483E+03  0.00000000000E+00 0. -1.
         25    2    1    2    0    0 -0.43752547889E+01 -0.74558522281E+02  0.43302852791E+03  0.45685590298E+03  0.12500197601E+03 0.  0.
          2    1    1    2  501    0  0.25305983534E+02  0.28450864655E+02 -0.61889905413E+03  0.62006925718E+03  0.00000000000E+00 0. -1.
          1    1    1    2  502    0 -0.20930728745E+02  0.46107657626E+02  0.95895791088E+03  0.96029385415E+03  0.00000000000E+00 0. -1.
         22    1    3    3    0    0 -0.34123179221E+02 -0.81968587777E+02  0.16762453316E+03  0.18968717632E+03  0.00000000000E+00 0. -1.
         22    1    3    3    0    0  0.29747924432E+02  0.74100654962E+01  0.26540399475E+03  0.26716872666E+03  0.00000000000E+00 0. -1.
</event>
<event>
 7    1  0.5789396E-006  0.7298065E+02  0.7818608E-02  0.1456219E+00
          2   -1    0    0  502    0  0.00000000000E+00  0.00000000000E+00  0.62661933129E+02  0.62661933129E+02  0.00000000000E+00 0. -1.
          1   -1    0    0  501    0 -0.00000000000E+00 -0.00000000000E+00 -0.10418959543E+04  0.10418959543E+04  0.00000000000E+00 0. -1.
         25    2    1    2    0    0  0.18649058093E+02 -0.88494576873E+02 -0.19242646568E+03  0.24664020286E+03  0.12499746984E+03 0.  0.
          2    1    1    2  501    0  0.16388217085E+02  0.27042246126E+02 -0.78654288996E+03  0.78717823552E+03  0.00000000000E+00 0. -1.
          1    1    1    2  502    0 -0.35037275178E+02  0.61452330747E+02 -0.26466554560E+00  0.70739449065E+02  0.00000000000E+00 0. -1.
         22    1    3    3    0    0  0.82642599970E+01 -0.92359461200E+02 -0.53064139831E+02  0.10683805971E+03  0.00000000000E+00 0.  1.
         22    1    3    3    0    0  0.10384798096E+02  0.38648843263E+01 -0.13936232585E+03  0.13980214315E+03  0.00000000000E+00 0.  1.
</event>
<event>
 7    1  0.5789396E-006  0.1286365E+03  0.7818608E-02  0.1333570E+00
          2   -1    0    0  502    0  0.00000000000E+00  0.00000000000E+00  0.10098312526E+04  0.10098312526E+04  0.00000000000E+00 0. -1.
          1   -1    0    0  501    0 -0.00000000000E+00 -0.00000000000E+00 -0.44876433851E+03  0.44876433851E+03  0.00000000000E+00 0. -1.
         25    2    1    2    0    0  0.39901751946E+02  0.93318087529E+02  0.21377169847E+03  0.26762607557E+03  0.12499984795E+03 0.  0.
          2    1    1    2  501    0 -0.24222115036E+02  0.41228666177E+02 -0.41448782664E+03  0.41723694971E+03  0.00000000000E+00 0. -1.
          1    1    1    2  502    0 -0.15679636910E+02 -0.13454675371E+03  0.76178304227E+03  0.77373256583E+03  0.00000000000E+00 0. -1.
         22    1    3    3    0    0  0.62672861896E+02  0.58896061575E+01  0.49232285046E+02  0.79914910810E+02  0.00000000000E+00 0.  1.
         22    1    3    3    0    0 -0.22771109950E+02  0.87428481372E+02  0.16453941343E+03  0.18771116475E+03  0.00000000000E+00 0.  1.
</event>
<event>
 7    1  0.5789396E-006  0.5299381E+02  0.7818608E-02  0.1459154E+00
          2   -1    0    0  502    0  0.00000000000E+00  0.00000000000E+00  0.21011691869E+04  0.21011691869E+04  0.00000000000E+00 0. -1.
          1   -1    0    0  501    0 -0.00000000000E+00 -0.00000000000E+00 -0.25315457895E+03  0.25315457895E+03  0.00000000000E+00 0. -1.
         25    2    1    2    0    0  0.47349850588E+02  0.20444221565E+02 -0.30810685447E+02  0.13868721413E+03  0.12499948192E+03 0.  0.
          2    1    1    2  501    0 -0.17970522164E+02 -0.51326542310E+02 -0.16378725552E+03  0.17257931128E+03  0.00000000000E+00 0. -1.
          1    1    1    2  502    0 -0.29379328423E+02  0.30882320745E+02  0.20426125489E+04  0.20430572404E+04  0.00000000000E+00 0. -1.
         22    1    3    3    0    0 -0.42681383361E+02  0.13585437963E+02 -0.72774079937E+01  0.45378687479E+02  0.00000000000E+00 0. -1.
         22    1    3    3    0    0  0.90031233948E+02  0.68587836016E+01 -0.23533277453E+02  0.93308526655E+02  0.00000000000E+00 0. -1.
</event>
<event>
 7    1  0.5789396E-006  0.1795528E+03  0.7818608E-02  0.1237789E+00
          2   -1    0    0  502    0  0.00000000000E+00  0.00000000000E+00  0.50195533612E+03  0.50195533612E+03  0.00000000000E+00 0. -1.
          1   -1    0    0  501    0 -0.00000000000E+00 -0.00000000000E+00 -0.77367073863E+03  0.77367073863E+03  0.00000000000E+00 0. -1.
         25    2    1    2    0    0  0.35642536239E+02 -0.16901267336E+03 -0.29569204948E+03  0.36454635693E+03  0.12499833632E+03 0.  0.
          2    1    1    2  501    0 -0.84478350148E+02 -0.51901833401E+01 -0.42168519421E+03  0.43009525998E+03  0.00000000000E+00 0. -1.
          1    1    1    2  502    0  0.48835813909E+02  0.17420285670E+03  0.44566184118E+03  0.48098445784E+03  0.00000000000E+00 0. -1.
         22    1    3    3    0    0 -0.44578885432E+02 -0.83106032588E+02 -0.11135094910E+03  0.14592094964E+03  0.00000000000E+00 0. -1.
         22    1    3    3    0    0  0.80221421672E+02 -0.85906640769E+02 -0.18434110038E+03  0.21862540729E+03  0.00000000000E+00 0. -1.
</event>
<event>
 7    1  0.5789396E-006  0.3892761E+02  0.7818608E-02  0.1562252E+00
          2   -1    0    0  502    0  0.00000000000E+00  0.00000000000E+00  0.61172417491E+03  0.61172417491E+03  0.00000000000E+00 0. -1.
          1   -1    0    0  501    0 -0.00000000000E+00 -0.00000000000E+00 -0.81188702535E+03  0.81188702535E+03  0.00000000000E+00 0. -1.
         25    2    1    2    0    0  0.33528632526E+02 -0.48307839274E+02  0.48457595199E+02  0.14639315155E+03  0.12499999902E+03 0.  0.
          2    1    1    2  501    0 -0.64545930980E-01  0.28844966181E+02 -0.76191745965E+03  0.76246327883E+03  0.00000000000E+00 0. -1.
          1    1    1    2  502    0 -0.33464086596E+02  0.19462873093E+02  0.51329701401E+03  0.51475476988E+03  0.00000000000E+00 0. -1.
         22    1    3    3    0    0 -0.42275561329E+02 -0.19504736666E+02  0.45722842077E+02  0.65255161679E+02  0.00000000000E+00 0. -1.
         22    1    3    3    0    0  0.75804193855E+02 -0.28803102609E+02  0.27347531219E+01  0.81137989873E+02  0.00000000000E+00 0. -1.
</event>
<event>
 7    1  0.5789396E-006  0.1234987E+03  0.7818608E-02  0.1404476E+00
          2   -1    0    0  502    0  0.00000000000E+00  0.00000000000E+00  0.21344447031E+03  0.21344447031E+03  0.00000000000E+00 0. -1.
          1   -1    0    0  501    0 -0.00000000000E+00 -0.00000000000E+00 -0.15463543926E+04  0.15463543926E+04  0.00000000000E+00 0. -1.
         25    2    1    2    0    0 -0.55839436158E+02  0.96899108430E+02 -0.22419086002E+02  0.16921769770E+03  0.12499813579E+03 0.  0.
          2    1    1    2  501    0  0.14306329467E+02  0.23671403833E+02 -0.14213431775E+04  0.14216122659E+04  0.00000000000E+00 0. -1.
          1    1    1    2  502    0  0.41533106691E+02 -0.12057051226E+03  0.11085234120E+03  0.16896889929E+03  0.00000000000E+00 0. -1.
         22    1    3    3    0    0  0.39728485747E+02  0.32476731143E+02  0.22114723495E+01  0.51361281676E+02  0.00000000000E+00 0.  1.
         22    1    3    3    0    0 -0.95567921905E+02  0.64422377287E+02 -0.24630558351E+02  0.11785641602E+03  0.00000000000E+00 0.  1.
</event>
<event>
 7    1  0.5789396E-006  0.8878439E+02  0.7818608E-02  0.1459001E+00
          2   -1    0    0  502    0  0.00000000000E+00  0.00000000000E+00  0.52973990425E+03  0.52973990425E+03  0.00000000000E+00 0. -1.
          1   -1    0    0  501    0 -0.00000000000E+00 -0.00000000000E+00 -0.43104972702E+03  0.43104972702E+03  0.00000000000E+00 0. -1.
         25    2    1    2    0    0 -0.27605070780E+02 -0.73996825155E+02 -0.14241622475E+03  0.20529419863E+03  0.12500302738E+03 0.  0.
          2    1    1    2  501    0  0.20718517611E+02 -0.14814782018E+02 -0.25256788580E+03  0.25384891506E+03  0.00000000000E+00 0. -1.
          1    1    1    2  502    0  0.68865531691E+01  0.88811607173E+02  0.49367428779E+03  0.50164651759E+03  0.00000000000E+00 0. -1.
         22    1    3    3    0    0 -0.63278389082E+02 -0.54236983836E+02 -0.14183668967E+03  0.16450973065E+03  0.00000000000E+00 0. -1.
         22    1    3    3    0    0  0.35673318302E+02 -0.19759841318E+02 -0.57953507573E+00  0.40784467981E+02  0.00000000000E+00 0. -1.
</event>
<event>
 7    1  0.5789396E-006  0.6833362E+02  0.7818608E-02  0.1407933E+00
          2   -1    0    0  502    0  0.00000000000E+00  0.00000000000E+00  0.50952408155E+03  0.50952408155E+03  0.00000000000E+00 0. -1.
          1   -1    0    0  501    0 -0.00000000000E+00 -0.00000000000E+00 -0.26719762979E+03  0.26719762979E+03  0.00000000000E+00 0. -1.
         25    2    1    2    0    0  0.19369396617E+02 -0.53760894036E+02 -0.22020749529E+02  0.13919446730E+03  0.12499911626E+03 0.  0.
          2    1    1    2  501    0  0.27807751017E+02  0.65639744478E+02 -0.17839979586E+03  0.19211541905E+03  0.00000000000E+00 0. -1.
          1    1    1    2  502    0 -0.47177147634E+02 -0.11878850442E+02  0.44274699716E+03  0.44541182499E+03  0.00000000000E+00 0. -1.
         22    1    3    3    0    0  0.68535554383E+02 -0.26938426485E+02 -0.35257282526E+02  0.81644822292E+02  0.00000000000E+00 0. -1.
         22    1    3    3    0    0 -0.49166157766E+02 -0.26822467551E+02  0.13236532997E+02  0.57549645010E+02  0.00000000000E+00 0. -1.
</event>
<event>
 7    1  0.5789396E-006  0.4062211E+02  0.7818608E-02  0.1506049E+00
          2   -1    0    0  502    0  0.00000000000E+00  0.00000000000E+00  0.61353693257E+03  0.61353693257E+03  0.00000000000E+00 0. -1.
          1   -1    0    0  501    0 -0.00000000000E+00 -0.00000000000E+00 -0.62010805916E+03  0.62010805916E+03  0.00000000000E+00 0. -1.
         25    2    1    2    0    0 -0.36321719553E+02  0.67137109237E+02  0.22092695152E+03  0.26506667640E+03  0.12499986513E+03 0.  0.
          2    1    1    2  501    0  0.29548608320E+02 -0.27743853960E+02 -0.59627023032E+03  0.59764624090E+03  0.00000000000E+00 0. -1.
          1    1    1    2  502    0  0.67731112326E+01 -0.39393255276E+02  0.36877215222E+03  0.37093207444E+03  0.00000000000E+00 0. -1.
         22    1    3    3    0    0 -0.17601871139E+02  0.97931169338E+02  0.10948898600E+03  0.14794653714E+03  0.00000000000E+00 0.  1.
         22    1    3    3    0    0 -0.18719848414E+02 -0.30794060101E+02  0.11143796552E+03  0.11712013926E+03  0.00000000000E+00 0.  1.
</event>
<event>
 7    1  0.5789396E-006  0.5072732E+02  0.7818608E-02  0.1500395E+00
          2   -1    0    0  502    0  0.00000000000E+00  0.00000000000E+00  0.73901745693E+03  0.73901745693E+03  0.00000000000E+00 0. -1.
          1   -1    0    0  501    0 -0.00000000000E+00 -0.00000000000E+00 -0.42192188781E+03  0.42192188781E+03  0.00000000000E+00 0. -1.
         25    2    1    2    0    0  0.52697350783E+02  0.20796788835E+02  0.37311132795E+03  0.39754787707E+03  0.12499093693E+03 0.  0.
          2    1    1    2  501    0 -0.49234476440E+02  0.12293600998E+02 -0.40734329016E+03  0.41049204905E+03  0.00000000000E+00 0. -1.
          1    1    1    2  502    0 -0.34628743435E+01 -0.33090389833E+02  0.35132753132E+03  0.35289941862E+03  0.00000000000E+00 0. -1.
         22    1    3    3    0    0  0.37740985421E+02 -0.40069596109E+02  0.27965032231E+03  0.28501624039E+03  0.00000000000E+00 0. -1.
         22    1    3    3    0    0  0.14956365362E+02  0.60866384944E+02  0.93461005636E+02  0.11253163669E+03  0.00000000000E+00 0. -1.
</event>
<event>
 7    1  0.5789396E-006  0.5444539E+02  0.7818608E-02  0.1440142E+00
          2   -1    0    0  502    0  0.00000000000E+00  0.00000000000E+00  0.21306256772E+04  0.21306256772E+04  0.00000000000E+00 0. -1.
          1   -1    0    0  501    0 -0.00000000000E+00 -0.00000000000E+00 -0.66429338637E+02  0.66429338637E+02  0.00000000000E+00 0. -1.
         25    2    1    2    0    0 -0.77871249407E+01  0.48296275322E+00  0.16659695986E+03  0.20842589931E+03  0.12500374354E+03 0.  0.
          2    1    1    2  501    0 -0.45515909439E+02  0.14366792531E+02 -0.32495451237E+02  0.57741294502E+02  0.00000000000E+00 0. -1.
          1    1    1    2  502    0  0.53303034380E+02 -0.14849755284E+02  0.19300948300E+04  0.19308878221E+04  0.00000000000E+00 0. -1.
         22    1    3    3    0    0  0.48222513383E+02  0.29144410387E+02  0.11092130965E+03  0.12441199455E+03  0.00000000000E+00 0. -1.
         22    1    3    3    0    0 -0.56009638323E+02 -0.28661447634E+02  0.55675650213E+02  0.84013904755E+02  0.00000000000E+00 0. -1.
</event>
<event>
 7    1  0.5789396E-006  0.8373134E+02  0.7818608E-02  0.1340601E+00
          2   -1    0    0  502    0  0.00000000000E+00  0.00000000000E+00  0.72058308530E+03  0.72058308530E+03  0.00000000000E+00 0. -1.
          1   -1    0    0  501    0 -0.00000000000E+00 -0.00000000000E+00 -0.74867127057E+03  0.74867127057E+03  0.00000000000E+00 0. -1.
         25    2    1    2    0    0 -0.12076502809E+03  0.44245323682E+02 -0.30029765949E+03  0.34977940098E+03  0.12500041751E+03 0.  0.
          2    1    1    2  501    0  0.38315289411E+02 -0.57507501970E+02 -0.41828212351E+03  0.42395177677E+03  0.00000000000E+00 0. -1.
          1    1    1    2  502    0  0.82449738681E+02  0.13262178287E+02  0.69049159772E+03  0.69552317812E+03  0.00000000000E+00 0. -1.
         22    1    3    3    0    0 -0.56593376070E+02  0.78147948276E+02 -0.22687527391E+03  0.24654066996E+03  0.00000000000E+00 0. -1.
         22    1    3    3    0    0 -0.64171652022E+02 -0.33902624593E+02 -0.73422385577E+02  0.10323873101E+03  0.00000000000E+00 0. -1.
</event>
<event>
 7    1  0.5789396E-006  0.3486498E+03  0.7818608E-02  0.1168970E+00
          2   -1    0    0  502    0  0.00000000000E+00  0.00000000000E+00  0.42691176234E+03  0.42691176234E+03  0.00000000000E+00 0. -1.
          1   -1    0    0  501    0 -0.00000000000E+00 -0.00000000000E+00 -0.15300716569E+04  0.15300716569E+04  0.00000000000E+00 0. -1.
         25    2    1    2    0    0  0.28271970495E+03  0.30584978551E+03 -0.12356599042E+03  0.45207036192E+03  0.12499814108E+03 0.  0.
          2    1    1    2  501    0 -0.62520609737E+02 -0.67074488298E+02 -0.11392859354E+04  0.11429699279E+04  0.00000000000E+00 0. -1.
          1    1    1    2  502    0 -0.22019909522E+03 -0.23877529721E+03  0.15969203121E+03  0.36194312941E+03  0.00000000000E+00 0. -1.
         22    1    3    3    0    0  0.14928505432E+03  0.11446316253E+03 -0.12394524926E+00  0.18811660847E+03  0.00000000000E+00 0.  1.
         22    1    3    3    0    0  0.13343465064E+03  0.19138662298E+03 -0.12344204517E+03  0.26395375345E+03  0.00000000000E+00 0.  1.
</event>
<event>
 7    1  0.5789396E-006  0.1302811E+03  0.7818608E-02  0.1263378E+00
          2   -1    0    0  502    0  0.00000000000E+00  0.00000000000E+00  0.20759040579E+04  0.20759040579E+04  0.00000000000E+00 0. -1.
          1   -1    0    0  501    0 -0.00000000000E+00 -0.00000000000E+00 -0.10455821882E+03  0.10455821882E+03  0.00000000000E+00 0. -1.
         25    2    1    2    0    0  0.99060355753E+02 -0.10776755575E+03  0.20364760569E+03  0.28022335639E+03  0.12500392797E+03 0.  0.
          2    1    1    2  501    0 -0.87440324784E+02 -0.22767033871E+02 -0.31940437076E+02  0.95834961002E+02  0.00000000000E+00 0. -1.
          1    1    1    2  502    0 -0.11620030969E+02  0.13053458962E+03  0.17996386705E+04  0.18044039593E+04  0.00000000000E+00 0. -1.
         22    1    3    3    0    0  0.36477487733E+02 -0.12122855481E+03  0.15307499847E+03  0.19864270631E+03  0.00000000000E+00 0. -1.
         22    1    3    3    0    0  0.62582868020E+02  0.13460999069E+02  0.50572607223E+02  0.81580650077E+02  0.00000000000E+00 0. -1.
</event>
<event>
 7    1  0.5789396E-006  0.1015927E+03  0.7818608E-02  0.1439452E+00
          2   -1    0    0  502    0  0.00000000000E+00  0.00000000000E+00  0.12459186215E+04  0.12459186215E+04  0.00000000000E+00 0. -1.
          1   -1    0    0  501    0 -0.00000000000E+00 -0.00000000000E+00 -0.75908081216E+02  0.75908081216E+02  0.00000000000E+00 0. -1.
         25    2    1    2    0    0 -0.51789640857E+02 -0.59867326906E+02  0.40535933127E+03  0.43151716418E+03  0.12499844721E+03 0.  0.
          2    1    1    2  501    0  0.73776142012E+02  0.73196760895E+02 -0.19497446307E+02  0.10573946921E+03  0.00000000000E+00 0. -1.
          1    1    1    2  502    0 -0.21986501155E+02 -0.13329433989E+02  0.78414865532E+03  0.78457006933E+03  0.00000000000E+00 0. -1.
         22    1    3    3    0    0  0.53846381521E+01 -0.85152716943E+02  0.22542589054E+03  0.24103280203E+03  0.00000000000E+00 0.  1.
         22    1    3    3    0    0 -0.57174279009E+02  0.25285390037E+02  0.17993344073E+03  0.19048436215E+03  0.00000000000E+00 0.  1.
</event>
<event>
 7    1  0.5789396E-006  0.4860128E+02  0.7818608E-02  0.1521504E+00
          2   -1    0    0  502    0  0.00000000000E+00  0.00000000000E+00  0.77733026515E+03  0.77733026515E+03  0.00000000000E+00 0. -1.
          1   -1    0    0  501    0 -0.00000000000E+00 -0.00000000000E+00 -0.27794292725E+03  0.27794292725E+03  0.00000000000E+00 0. -1.
         25    2    1    2    0    0 -0.10856237983E+01 -0.19455015126E+02  0.68649992745E+02  0.14393626005E+03  0.12500059705E+03 0.  0.
          2    1    1    2  501    0 -0.38680790318E+01  0.49147032255E+02 -0.23742884845E+03  0.24249299142E+03  0.00000000000E+00 0. -1.
          1    1    1    2  502    0  0.49537028302E+01 -0.29692017129E+02  0.66816619360E+03  0.66884394093E+03  0.00000000000E+00 0. -1.
         22    1    3    3    0    0  0.82413978913E+01 -0.27737755560E+02 -0.31638277307E+02  0.42875217943E+02  0.00000000000E+00 0.  1.
         22    1    3    3    0    0 -0.93270216896E+01  0.82827404334E+01  0.10028827005E+03  0.10106104211E+03  0.00000000000E+00 0.  1.
</event>
<event>
 7    1  0.5789396E-006  0.7690001E+02  0.7818608E-02  0.1343041E+00
          2   -1    0    0  502    0  0.00000000000E+00  0.00000000000E+00  0.19016601204E+04  0.19016601204E+04  0.00000000000E+00 0. -1.
          1   -1    0    0  501    0 -0.00000000000E+00 -0.00000000000E+00 -0.79547545494E+02  0.79547545494E+02  0.00000000000E+00 0. -1.
         25    2    1    2    0    0 -0.38670281482E+02 -0.10727602107E+03  0.80834964441E+03  0.82586765651E+03  0.12499881238E+03 0.  0.
          2    1    1    2  501    0 -0.25417386603E+02  0.69148288038E+02 -0.49954967099E+02  0.89011392632E+02  0.00000000000E+00 0. -1.
          1    1    1    2  502    0  0.64087668085E+02  0.38127733032E+02  0.10637178976E+04  0.10663286168E+04  0.00000000000E+00 0. -1.
         22    1    3    3    0    0 -0.14430174663E+02 -0.12929001973E+03  0.53623259205E+03  0.55178757862E+03  0.00000000000E+00 0.  1.
         22    1    3    3    0    0 -0.24240106819E+02  0.22013998658E+02  0.27211705236E+03  0.27408007790E+03  0.00000000000E+00 0.  1.
</event>
<event>
 7    1  0.5789396E-006  0.3836107E+02  0.7818608E-02  0.1547348E+00
          2   -1    0    0  502    0  0.00000000000E+00  0.00000000000E+00  0.14746155827E+04  0.14746155827E+04  0.00000000000E+00 0. -1.
          1   -1    0    0  501    0 -0.00000000000E+00 -0.00000000000E+00 -0.64637483220E+03  0.64637483220E+03  0.00000000000E+00 0. -1.
         25    2    1    2    0    0  0.15197503623E+01 -0.64159313209E+02  0.20250298929E+03  0.24647702256E+03  0.12499893945E+03 0.  0.
          2    1    1    2  501    0  0.13565920339E+02  0.29194148952E+02 -0.62368258802E+03  0.62451285265E+03  0.00000000000E+00 0. -1.
          1    1    1    2  502    0 -0.15085670701E+02  0.34965164257E+02  0.12494203493E+04  0.12500005397E+04  0.00000000000E+00 0. -1.
         22    1    3    3    0    0 -0.30059060686E+02  0.10424252148E+02  0.14162734031E+03  0.14515686579E+03  0.00000000000E+00 0.  1.
         22    1    3    3    0    0  0.31578811048E+02 -0.74583565357E+02  0.60875648980E+02  0.10132015677E+03  0.00000000000E+00 0.  1.
</event>
<event>
 7    1  0.5789396E-006  0.1320027E+03  0.7818608E-02  0.1388349E+00
          2   -1    0    0  502    0  0.00000000000E+00  0.00000000000E+00  0.21612070378E+04  0.21612070378E+04  0.00000000000E+00 0. -1.
          1   -1    0    0  501    0 -0.00000000000E+00 -0.00000000000E+00 -0.16934850544E+03  0.16934850544E+03  0.00000000000E+00 0. -1.
         25    2    1    2    0    0 -0.90663852148E+02  0.13087376336E+03  0.22969167799E+03  0.30615542669E+03  0.12500000932E+03 0.  0.
          2    1    1    2  501    0  0.11989310712E+02 -0.26867621004E+02 -0.12718969099E+03  0.13054819081E+03  0.00000000000E+00 0. -1.
          1    1    1    2  502    0  0.78674541436E+02 -0.10400614235E+03  0.18893565454E+04  0.18938519257E+04  0.00000000000E+00 0. -1.
         22    1    3    3    0    0 -0.48359580630E+02  0.13406135550E+03  0.22081518103E+03  0.26281255725E+03  0.00000000000E+00 0.  1.
         22    1    3    3    0    0 -0.42304271518E+02 -0.31875921450E+01  0.88764969619E+01  0.43342869433E+02  0.00000000000E+00 0.  1.
</event>
<event>
 7    1  0.5789396E-006  0.6545899E+02  0.7818608E-02  0.1458200E+00
          2   -1    0    0  502    0  0.00000000000E+00  0.00000000000E+00  0.10977149244E+04  0.10977149244E+04  0.00000000000E+00 0. -1.
          1   -1    0    0  501    0 -0.00000000000E+00 -0.00000000000E+00 -0.33818821728E+02  0.33818821728E+02  0.00000000000E+00 0. -1.
         25    2    1    2    0    0 -0.47354087627E+02  0.25381030834E+02  0.18048885924E+03  0.22602653899E+03  0.12500064670E+03 0.  0.
          2    1    1    2  501    0  0.75223906922E+02 -0.46273708280E+01  0.12263845186E+03  0.14394526254E+03  0.00000000000E+00 0. -1.
          1    1    1    2  502    0 -0.27869819295E+02 -0.20753660006E+02  0.76076879161E+03  0.76156194463E+03  0.00000000000E+00 0. -1.
         22    1    3    3    0    0 -0.63860620837E+02 -0.33405922978E+02  0.12062993113E+03  0.14051944658E+03  0.00000000000E+00 0.  1.
         22    1    3    3    0    0  0.16506533210E+02  0.58786953811E+02  0.59858928106E+02  0.85507092402E+02  0.00000000000E+00 0.  1.
</event>
<event>
 7    1  0.5789396E-006  0.1061931E+03  0.7818608E-02  0.1296031E+00
          2   -1    0    0  502    0  0.00000000000E+00  0.00000000000E+00  0.33088586499E+03  0.33088586499E+03  0.00000000000E+00 0. -1.
          1   -1    0    0  501    0 -0.00000000000E+00 -0.00000000000E+00 -0.66391699902E+03  0.66391699902E+03  0.00000000000E+00 0. -1.
         25    2    1    2    0    0  0.17647567571E+02  0.59976801330E+02  0.11326137498E+03  0.17989256569E+03  0.12499817115E+03 0.  0.
          2    1    1    2  501    0  0.56984199213E+02 -0.92045707998E+02 -0.61670148136E+03  0.62613123899E+03  0.00000000000E+00 0. -1.
          1    1    1    2  502    0 -0.74631766784E+02  0.32068906668E+02  0.17040897235E+03  0.18877905934E+03  0.00000000000E+00 0. -1.
         22    1    3    3    0    0 -0.52676166124E+02  0.33050904294E+02  0.35319352025E+02  0.71516413359E+02  0.00000000000E+00 0. -1.
         22    1    3    3    0    0  0.70323733696E+02  0.26925897036E+02  0.77942022958E+02  0.10837615233E+03  0.00000000000E+00 0. -1.
</event>
<event>
 7    1  0.5789396E-006  0.9784172E+02  0.7818608E-02  0.1316960E+00
          2   -1    0    0  502    0  0.00000000000E+00  0.00000000000E+00  0.20567349356E+04  0.20567349356E+04  0.00000000000E+00 0. -1.
          1   -1    0    0  501    0 -0.00000000000E+00 -0.00000000000E+00 -0.78555945162E+03  0.78555945162E+03  0.00000000000E+00 0. -1.
         25    2    1    2    0    0  0.14920037606E+03 -0.80645883204E+02  0.29525271259E+03  0.36271540645E+03  0.12499516425E+03 0.  0.
          2    1    1    2  501    0 -0.88048069316E+02  0.41078324034E+02 -0.74791686783E+03  0.75420125457E+03  0.00000000000E+00 0. -1.
          1    1    1    2  502    0 -0.61152306742E+02  0.39567559170E+02  0.17238396392E+04  0.17253777262E+04  0.00000000000E+00 0. -1.
         22    1    3    3    0    0  0.50777596870E+02  0.18768890883E+02  0.15684044210E+03  0.16592034199E+03  0.00000000000E+00 0. -1.
         22    1    3    3    0    0  0.98422779188E+02 -0.99414774087E+02  0.13841227050E+03  0.19679506445E+03  0.00000000000E+00 0. -1.
</event>
<event>
 7    1  0.5789396E-006  0.1480535E+03  0.7818608E-02  0.1271698E+00
          2   -1    0    0  502    0  0.00000000000E+00  0.00000000000E+00  0.24207603660E+04  0.24207603660E+04  0.00000000000E+00 0. -1.
          1   -1    0    0  501    0 -0.00000000000E+00 -0.00000000000E+00 -0.11431376415E+03  0.11431376415E+03  0.00000000000E+00 0. -1.
         25    2    1    2    0    0  0.58326430515E+02 -0.18067989135E+03  0.65564915534E+03  0.69393712937E+03  0.12500291590E+03 0.  0.
          2    1    1    2  501    0  0.59375047989E+01  0.14533973465E+03 -0.38323456114E+02  0.15042466460E+03  0.00000000000E+00 0. -1.
          1    1    1    2  502    0 -0.64263935314E+02  0.35340156700E+02  0.16891209026E+04  0.16907123362E+04  0.00000000000E+00 0. -1.
         22    1    3    3    0    0 -0.24769104204E+02 -0.98956443116E+02  0.21247275352E+03  0.23569165693E+03  0.00000000000E+00 0. -1.
         22    1    3    3    0    0  0.83095534720E+02 -0.81723448235E+02  0.44317640182E+03  0.45824547244E+03  0.00000000000E+00 0. -1.
</event>
<event>
 7    1  0.5789396E-006  0.6039167E+02  0.7818608E-02  0.1472142E+00
          2   -1    0    0  502    0  0.00000000000E+00  0.00000000000E+00  0.24787220042E+04  0.24787220042E+04  0.00000000000E+00 0. -1.
          1   -1    0    0  501    0 -0.00000000000E+00 -0.00000000000E+00 -0.38377034846E+02  0.38377034846E+02  0.00000000000E+00 0. -1.
         25    2    1    2    0    0 -0.93811511042E+02 -0.26003702049E+01  0.17490877272E+04  0.17560581083E+04  0.12499936268E+03 0.  0.
          2    1    1    2  501    0  0.59772892060E+02  0.38380383696E+01 -0.84640902062E+01  0.60491073612E+02  0.00000000000E+00 0. -1.
          1    1    1    2  502    0  0.34038618982E+02 -0.12376681647E+01  0.69972133241E+03  0.70054985721E+03  0.00000000000E+00 0. -1.
         22    1    3    3    0    0  0.20376783927E+02 -0.13751524526E+02  0.99742554109E+02  0.10272728386E+03  0.00000000000E+00 0. -1.
         22    1    3    3    0    0 -0.11418829497E+03  0.11151154321E+02  0.16493451731E+04  0.16533308244E+04  0.00000000000E+00 0. -1.
</event>
<event>
 7    1  0.5789396E-006  0.8766773E+02  0.7818608E-02  0.1411418E+00
          2   -1    0    0  502    0  0.00000000000E+00  0.00000000000E+00  0.80402829664E+03  0.80402829664E+03  0.00000000000E+00 0. -1.
          1   -1    0    0  501    0 -0.00000000000E+00 -0.00000000000E+00 -0.38763110125E+03  0.38763110125E+03  0.00000000000E+00 0. -1.
         25    2    1    2    0    0 -0.58588257517E+02  0.10717412948E+03  0.29183719372E+02  0.17718730808E+03  0.12499909888E+03 0.  0.
          2    1    1    2  501    0  0.24182585502E+02 -0.27874944791E+02 -0.30986489024E+03  0.31205457887E+03  0.00000000000E+00 0. -1.
          1    1    1    2  502    0  0.34405672015E+02 -0.79299184688E+02  0.69707836626E+03  0.70241751094E+03  0.00000000000E+00 0. -1.
         22    1    3    3    0    0 -0.32007093600E+02  0.98369432367E+02 -0.33335155080E+02  0.10868409189E+03  0.00000000000E+00 0. -1.
         22    1    3    3    0    0 -0.26581163917E+02  0.88046971116E+01  0.62518874452E+02  0.68503216196E+02  0.00000000000E+00 0. -1.
</event>
<event>
 7    1  0.5789396E-006  0.7855674E+02  0.7818608E-02  0.1499830E+00
          2   -1    0    0  502    0  0.00000000000E+00  0.00000000000E+00  0.31279723731E+02  0.31279723731E+02  0.00000000000E+00 0. -1.
          1   -1    0    0  501    0 -0.00000000000E+00 -0.00000000000E+00 -0.85849357372E+03  0.85849357372E+03  0.00000000000E+00 0. -1.
         25    2    1    2    0    0 -0.86994176231E+02  0.73731941431E+01 -0.65938928367E+03  0.67678818123E+03  0.12500265654E+03 0.  0.
          2    1    1    2  501    0  0.71657688481E+02  0.77917248536E+01 -0.17578945285E+03  0.18999333417E+03  0.00000000000E+00 0. -1.
          1    1    1    2  502    0  0.15336487750E+02 -0.15164918997E+02  0.79648865298E+01  0.22991782056E+02  0.00000000000E+00 0. -1.
         22    1    3    3    0    0 -0.92998655602E+02  0.28902254954E+02 -0.63948946085E+03  0.64686231983E+03  0.00000000000E+00 0. -1.
         22    1    3    3    0    0  0.60044793707E+01 -0.21529060810E+02 -0.19899822824E+02  0.29925861396E+02  0.00000000000E+00 0. -1.
</event>
<event>
 7    1  0.5789396E-006  0.9499928E+02  0.7818608E-02  0.1292223E+00
          2   -1    0    0  502    0  0.00000000000E+00  0.00000000000E+00  0.89325646414E+03  0.89325646414E+03  0.00000000000E+00 0. -1.
          1   -1    0    0  501    0 -0.00000000000E+00 -0.00000000000E+00 -0.90123406583E+03  0.90123406583E+03  0.00000000000E+00 0. -1.
         25    2    1    2    0    0 -0.54707679503E+01 -0.22510979572E+02 -0.59064536111E+03  0.60417233143E+03  0.12500235985E+03 0.  0.
          2    1    1    2  501    0 -0.89752739243E+02  0.28192813117E+02 -0.29389251896E+03  0.30858256855E+03  0.00000000000E+00 0. -1.
          1    1    1    2  502    0  0.95223507193E+02 -0.56818335459E+01  0.87656027838E+03  0.88173562998E+03  0.00000000000E+00 0. -1.
         22    1    3    3    0    0  0.46631655377E+02  0.28010901194E+02 -0.26805776347E+03  0.27352163795E+03  0.00000000000E+00 0.  1.
         22    1    3    3    0    0 -0.52102423327E+02 -0.50521880766E+02 -0.32258759763E+03  0.33065069348E+03  0.00000000000E+00 0.  1.
</event>
<event>
 7    1  0.5789396E-006  0.9102199E+02  0.7818608E-02  0.1351518E+00
          2   -1    0    0  502    0  0.00000000000E+00  0.00000000000E+00  0.12229062041E+04  0.12229062041E+04  0.00000000000E+00 0. -1.
          1   -1    0    0  501    0 -0.00000000000E+00 -0.00000000000E+00 -0.74995926776E+03  0.74995926776E+03  0.00000000000E+00 0. -1.
         25    2    1    2    0    0 -0.14459117798E+03 -0.32854670910E+02 -0.48834000144E+03  0.52544059566E+03  0.12500329760E+03 0.  0.
          2    1    1    2  501    0  0.54958059593E+02  0.18164637158E+02 -0.23788111171E+03  0.24482190601E+03  0.00000000000E+00 0. -1.
          1    1    1    2  502    0  0.89633118388E+02  0.14690033752E+02  0.11991680495E+04  0.12026029702E+04  0.00000000000E+00 0. -1.
         22    1    3    3    0    0 -0.16163750590E+03 -0.30208793035E+02 -0.35793270081E+03  0.39389728712E+03  0.00000000000E+00 0. -1.
         22    1    3    3    0    0  0.17046327915E+02 -0.26458778752E+01 -0.13040730063E+03  0.13154330854E+03  0.00000000000E+00 0. -1.
</event>
<event>
 7    1  0.5789396E-006  0.1571797E+03  0.7818608E-02  0.1284707E+00
          2   -1    0    0  502    0  0.00000000000E+00  0.00000000000E+00  0.19421625510E+03  0.19421625510E+03  0.00000000000E+00 0. -1.
          1   -1    0    0  501    0 -0.00000000000E+00 -0.00000000000E+00 -0.13848839532E+04  0.13848839532E+04  0.00000000000E+00 0. -1.
         25    2    1    2    0    0 -0.12850340631E+03  0.14508929194E+03 -0.69372619099E+03  0.73105181630E+03  0.12496680351E+03 0.  0.
          2    1    1    2  501    0  0.71162662753E+02 -0.12423103827E+03 -0.65926716201E+03  0.67463372755E+03  0.00000000000E+00 0. -1.
          1    1    1    2  502    0  0.57340743554E+02 -0.20858253673E+02  0.16232565488E+03  0.17341466446E+03  0.00000000000E+00 0. -1.
         22    1    3    3    0    0  0.73807813877E+01  0.65098057856E+00  0.19505150337E+01  0.76618678207E+01  0.00000000000E+00 0.  1.
         22    1    3    3    0    0 -0.13588418770E+03  0.14443831136E+03 -0.69567670602E+03  0.72338994848E+03  0.00000000000E+00 0.  1.
</event>
<event>
 7    1  0.5789396E-006  0.2371545E+03  0.7818608E-02  0.1169525E+00
          2   -1    0    0  502    0  0.00000000000E+00  0.00000000000E+00  0.82457007370E+03  0.82457007370E+03  0.00000000000E+00 0. -1.
          1   -1    0    0  501    0 -0.00000000000E+00 -0.00000000000E+00 -0.12267685415E+04  0.12267685415E+04  0.00000000000E+00 0. -1.
         25    2    1    2    0    0 -0.10017235193E+03  0.56059651194E+02  0.22200087814E+03  0.27941269485E+03  0.12493950361E+03 0.  0.
          2    1    1    2  501    0  0.18047131768E+03 -0.16327263295E+03 -0.11776307808E+04  0.12025149085E+04  0.00000000000E+00 0. -1.
          1    1    1    2  502    0 -0.80298965746E+02  0.10721298176E+03  0.55343143487E+03  0.56941101188E+03  0.00000000000E+00 0. -1.
         22    1    3    3    0    0 -0.82082264162E+02  0.29270862254E+02  0.42375253623E+02  0.96901721278E+02  0.00000000000E+00 0. -1.
         22    1    3    3    0    0 -0.18090087770E+02  0.26788788939E+02  0.17962562452E+03  0.18251097357E+03  0.00000000000E+00 0. -1.
</event>
<event>
 7    1  0.5789396E-006  0.6049609E+02  0.7818608E-02  0.1421433E+00
          2   -1    0    0  502    0  0.00000000000E+00  0.00000000000E+00  0.25958892992E+04  0.25958892992E+04  0.00000000000E+00 0. -1.
          1   -1    0    0  501    0 -0.00000000000E+00 -0.00000000000E+00 -0.52347167055E+02  0.52347167055E+02  0.00000000000E+00 0. -1.
         25    2    1    2    0    0  0.57145749406E+02  0.82996595222E+02  0.25663521573E+03  0.30272215501E+03  0.12499999075E+03 0.  0.
          2    1    1    2  501    0 -0.42823993562E+02 -0.24813088446E+02 -0.77316422365E+01  0.50093533260E+02  0.00000000000E+00 0. -1.
          1    1    1    2  502    0 -0.14321755844E+02 -0.58183506776E+02  0.22946385586E+04  0.22954207780E+04  0.00000000000E+00 0. -1.
         22    1    3    3    0    0  0.16318792551E+02  0.10417011744E+03  0.12639819144E+03  0.16460321734E+03  0.00000000000E+00 0. -1.
         22    1    3    3    0    0  0.40826956855E+02 -0.21173522217E+02  0.13023702428E+03  0.13811893767E+03  0.00000000000E+00 0. -1.
</event>
<event>
 7    1  0.5789396E-006  0.3781182E+02  0.7818608E-02  0.1541921E+00
          2   -1    0    0  502    0  0.00000000000E+00  0.00000000000E+00  0.27361275032E+04  0.27361275032E+04  0.00000000000E+00 0. -1.
          1   -1    0    0  501    0 -0.00000000000E+00 -0.00000000000E+00 -0.15098235232E+03  0.15098235232E+03  0.00000000000E+00 0. -1.
         25    2    1    2    0    0  0.58360797314E+02 -0.91414534638E+01  0.12182181220E+04  0.12260383995E+04  0.12500086201E+03 0.  0.
          2    1    1    2  501    0 -0.28426982331E+02  0.24896093184E+02 -0.14445261494E+03  0.14931331736E+03  0.00000000000E+00 0. -1.
          1    1    1    2  502    0 -0.29933814983E+02 -0.15754639721E+02  0.15113796438E+04  0.15117581386E+04  0.00000000000E+00 0. -1.
         22    1    3    3    0    0  0.84071596895E+02  0.12552747313E+02  0.10954992837E+04  0.10987921939E+04  0.00000000000E+00 0.  1.
         22    1    3    3    0    0 -0.25710799581E+02 -0.21694200776E+02  0.12271883828E+03  0.12724620557E+03  0.00000000000E+00 0.  1.
</event>
<event>
 7    1  0.5789396E-006  0.5648424E+02  0.7818608E-02  0.1424518E+00
          2   -1    0    0  502    0  0.00000000000E+00  0.00000000000E+00  0.28045829741E+03  0.28045829741E+03  0.00000000000E+00 0. -1.
          1   -1    0    0  501    0 -0.00000000000E+00 -0.00000000000E+00 -0.32977343959E+04  0.32977343959E+04  0.00000000000E+00 0. -1.
         25    2    1    2    0    0 -0.97731383842E+02  0.54872763811E-01 -0.96635193270E+01  0.15896458673E+03  0.12499971932E+03 0.  0.
          2    1    1    2  501    0  0.47089889362E+02 -0.21512880191E+02 -0.32095332978E+04  0.32099508176E+04  0.00000000000E+00 0. -1.
          1    1    1    2  502    0  0.50641494480E+02  0.21458007427E+02  0.20192071867E+03  0.20927728896E+03  0.00000000000E+00 0. -1.
         22    1    3    3    0    0 -0.54123361409E+02  0.26508490973E+01 -0.67451795567E+02  0.86522309126E+02  0.00000000000E+00 0.  1.
         22    1    3    3    0    0 -0.43608022433E+02 -0.25959763335E+01  0.57788276240E+02  0.72442277604E+02  0.00000000000E+00 0.  1.
</event>
<event>
 7    1  0.5789396E-006  0.6117640E+02  0.7818608E-02  0.1477022E+00
          2   -1    0    0  502    0  0.00000000000E+00  0.00000000000E+00  0.61746850534E+03  0.61746850534E+03  0.00000000000E+00 0. -1.
          1   -1    0    0  501    0 -0.00000000000E+00 -0.00000000000E+00 -0.27763531772E+04  0.27763531772E+04  0.00000000000E+00 0. -1.
         25    2    1    2    0    0 -0.41576160819E+02  0.83860815511E+02  0.20700668213E+03  0.25930193163E+03  0.12499804708E+03 0.  0.
          2    1    1    2  501    0  0.27530996271E+02 -0.54578546637E+02 -0.27491790753E+04  0.27498586076E+04  0.00000000000E+00 0. -1.
          1    1    1    2  502    0  0.14045164548E+02 -0.29282268874E+02  0.38328772130E+03  0.38466114336E+03  0.00000000000E+00 0. -1.
         22    1    3    3    0    0  0.66642533363E+01 -0.10009779143E+02  0.12518010538E+03  0.12575637850E+03  0.00000000000E+00 0.  1.
         22    1    3    3    0    0 -0.48240414156E+02  0.93870594653E+02  0.81826576756E+02  0.13354555313E+03  0.00000000000E+00 0.  1.
</event>
<event>
 7    1  0.5789396E-006  0.4171687E+02  0.7818608E-02  0.1517740E+00
          2   -1    0    0  502    0  0.00000000000E+00  0.00000000000E+00  0.13279041495E+04  0.13279041495E+04  0.00000000000E+00 0. -1.
          1   -1    0    0  501    0 -0.00000000000E+00 -0.00000000000E+00 -0.97995364985E+03  0.97995364985E+03  0.00000000000E+00 0. -1.
         25    2    1    2    0    0 -0.28308052288E+02 -0.80147781420E+01  0.21415143227E+03  0.24970627137E+03  0.12500721390E+03 0.  0.
          2    1    1    2  501    0 -0.36032437278E+01  0.35783418058E+02 -0.96143171013E+03  0.96210413658E+03  0.00000000000E+00 0. -1.
          1    1    1    2  502    0  0.31911296016E+02 -0.27768639916E+02  0.10952307776E+04  0.10960473914E+04  0.00000000000E+00 0. -1.
         22    1    3    3    0    0 -0.61061112217E+02 -0.14408391586E+02  0.44783300850E+02  0.77081808543E+02  0.00000000000E+00 0. -1.
         22    1    3    3    0    0  0.32753059928E+02  0.63936134438E+01  0.16936813142E+03  0.17262446283E+03  0.00000000000E+00 0. -1.
</event>
<event>
 7    1  0.5789396E-006  0.3784237E+03  0.7818608E-02  0.1232051E+00
          2   -1    0    0  502    0  0.00000000000E+00  0.00000000000E+00  0.12392658685E+04  0.12392658685E+04  0.00000000000E+00 0. -1.
          1   -1    0    0  501    0 -0.00000000000E+00 -0.00000000000E+00 -0.22838860372E+04  0.22838860372E+04  0.00000000000E+00 0. -1.
         25    2    1    2    0    0  0.33589768395E+03 -0.10469301975E+03  0.21381300639E+03  0.43026562985E+03  0.12499851224E+03 0.  0.
          2    1    1    2  501    0  0.41249869174E+02  0.10594897171E+02 -0.21342552417E+04  0.21346801260E+04  0.00000000000E+00 0. -1.
          1    1    1    2  502    0 -0.37714755312E+03  0.94098122581E+02  0.87582206660E+03  0.95820614997E+03  0.00000000000E+00 0. -1.
         22    1    3    3    0    0  0.29923558072E+03 -0.59568920085E+02  0.13836601977E+03  0.33501573760E+03  0.00000000000E+00 0. -1.
         22    1    3    3    0    0  0.36662103222E+02 -0.45124099667E+02  0.75446986622E+02  0.95249892251E+02  0.00000000000E+00 0. -1.
</event>
<event>
 7    1  0.5789396E-006  0.5889741E+02  0.7818608E-02  0.1417325E+00
          2   -1    0    0  502    0  0.00000000000E+00  0.00000000000E+00  0.33713874364E+03  0.33713874364E+03  0.00000000000E+00 0. -1.
          1   -1    0    0  501    0 -0.00000000000E+00 -0.00000000000E+00 -0.13571153152E+03  0.13571153152E+03  0.00000000000E+00 0. -1.
         25    2    1    2    0    0 -0.16194561205E+01  0.64305397784E+02  0.21185287762E+03  0.25425231426E+03  0.12499916292E+03 0.  0.
          2    1    1    2  501    0  0.48125042859E+02 -0.20906383688E+02 -0.97524862083E+02  0.11074382761E+03  0.00000000000E+00 0. -1.
          1    1    1    2  502    0 -0.46505586738E+02 -0.43399014096E+02  0.87099196584E+02  0.10785413329E+03  0.00000000000E+00 0. -1.
         22    1    3    3    0    0  0.15219157816E+02  0.81929567203E+02  0.65795577125E+02  0.10617501926E+03  0.00000000000E+00 0.  1.
         22    1    3    3    0    0 -0.16838613937E+02 -0.17624169418E+02  0.14605730049E+03  0.14807729500E+03  0.00000000000E+00 0.  1.
</event>
<event>
 7    1  0.5958180E-006  0.1120021E+03  0.7818608E-02  0.1373040E+00
          2   -1    0    0  502    0  0.00000000000E+00  0.00000000000E+00  0.90717253941E+03  0.90717253941E+03  0.00000000000E+00 0. -1.
          1   -1    0    0  501    0 -0.00000000000E+00 -0.00000000000E+00 -0.22153439212E+04  0.22153439212E+04  0.00000000000E+00 0. -1.
         25    2    1    2    0    0 -0.11281816338E+03  0.88680753224E+02 -0.55050686153E+03  0.58247205265E+03  0.12499469409E+03 0.  0.
          2    1    1    2  501    0  0.74812620448E+02 -0.78751939978E+02 -0.16466313352E+04  0.16502101534E+04  0.00000000000E+00 0. -1.
          1    1    1    2  502    0  0.38005542933E+02 -0.99288132461E+01  0.88896681492E+03  0.88983425460E+03  0.00000000000E+00 0. -1.
         22    1    3    3    0    0 -0.98894330066E+02  0.79709537176E+02 -0.55144237976E+03  0.56588196386E+03  0.00000000000E+00 0.  1.
         22    1    3    3    0    0 -0.13923833316E+02  0.89712160473E+01  0.93551823016E+00  0.16590088786E+02  0.00000000000E+00 0.  1.
</event>
<event>
 7    1  0.5789396E-006  0.1282429E+03  0.7818608E-02  0.1298156E+00
          2   -1    0    0  502    0  0.00000000000E+00  0.00000000000E+00  0.64250371167E+03  0.64250371167E+03  0.00000000000E+00 0. -1.
          1   -1    0    0  501    0 -0.00000000000E+00 -0.00000000000E+00 -0.57308447132E+03  0.57308447132E+03  0.00000000000E+00 0. -1.
         25    2    1    2    0    0 -0.50645986666E+02  0.18538462079E+03  0.42732241300E+03  0.48494003032E+03  0.12501965750E+03 0.  0.
          2    1    1    2  501    0  0.42284383111E+02 -0.11996345468E+03 -0.53068011963E+03  0.54571108554E+03  0.00000000000E+00 0. -1.
          1    1    1    2  502    0  0.83616035555E+01 -0.65421166103E+02  0.17277694698E+03  0.18493706712E+03  0.00000000000E+00 0. -1.
         22    1    3    3    0    0 -0.19584571264E+02  0.18448994941E+03  0.40838116191E+03  0.44854795760E+03  0.00000000000E+00 0. -1.
         22    1    3    3    0    0 -0.31061415402E+02  0.89467137792E+00  0.18941251091E+02  0.36392072716E+02  0.00000000000E+00 0. -1.
</event>
<event>
 7    1  0.9964203E-006  0.7937883E+02  0.7818608E-02  0.1468839E+00
          2   -1    0    0  502    0  0.00000000000E+00  0.00000000000E+00  0.23690488543E+04  0.23690488543E+04  0.00000000000E+00 0. -1.
          1   -1    0    0  501    0 -0.00000000000E+00 -0.00000000000E+00 -0.96299243555E+03  0.96299243555E+03  0.00000000000E+00 0. -1.
         25    2    1    2    0    0  0.95388890227E+02  0.43793784758E+01 -0.38866761441E+03  0.41929195723E+03  0.12500004631E+03 0.  0.
          2    1    1    2  501    0 -0.19311207165E+02  0.18196790305E+02 -0.55802843860E+03  0.55865891579E+03  0.00000000000E+00 0. -1.
          1    1    1    2  502    0 -0.76077683062E+02 -0.22576168781E+02  0.23527524717E+04  0.23540904168E+04  0.00000000000E+00 0. -1.
         22    1    3    3    0    0  0.12572080931E+03  0.41942899558E+00 -0.32981736899E+03  0.35296656315E+03  0.00000000000E+00 0.  1.
         22    1    3    3    0    0 -0.30331919080E+02  0.39599494802E+01 -0.58850245417E+02  0.66325394085E+02  0.00000000000E+00 0.  1.
</event>
<event>
 7    1  0.5789396E-006  0.8662331E+02  0.7818608E-02  0.1478998E+00
          2   -1    0    0  502    0  0.00000000000E+00  0.00000000000E+00  0.12171485167E+03  0.12171485167E+03  0.00000000000E+00 0. -1.
          1   -1    0    0  501    0 -0.00000000000E+00 -0.00000000000E+00 -0.23225739460E+04  0.23225739460E+04  0.00000000000E+00 0. -1.
         25    2    1    2    0    0 -0.88669615779E+02 -0.23739101031E+02 -0.18803211353E+04  0.18867054290E+04  0.12499583452E+03 0.  0.
          2    1    1    2  501    0  0.20750388969E+01  0.22521789286E+02 -0.42289807268E+03  0.42350243997E+03  0.00000000000E+00 0. -1.
          1    1    1    2  502    0  0.86594576882E+02  0.12173117445E+01  0.10236011356E+03  0.13408092870E+03  0.00000000000E+00 0. -1.
         22    1    3    3    0    0 -0.72626730655E+02 -0.26178841384E+02 -0.18551581517E+04  0.18567637819E+04  0.00000000000E+00 0. -1.
         22    1    3    3    0    0 -0.16042885124E+02  0.24397403534E+01 -0.25162983538E+02  0.29941647193E+02  0.00000000000E+00 0. -1.
</event>
<event>
 7    1  0.5789396E-006  0.3528215E+02  0.7818608E-02  0.1609946E+00
          2   -1    0    0  502    0  0.00000000000E+00  0.00000000000E+00  0.77593688410E+03  0.77593688410E+03  0.00000000000E+00 0. -1.
          1   -1    0    0  501    0 -0.00000000000E+00 -0.00000000000E+00 -0.82036430483E+02  0.82036430483E+02  0.00000000000E+00 0. -1.
         25    2    1    2    0    0  0.52420403730E+01 -0.36456101703E+02  0.43256089019E+03  0.45176437058E+03  0.12500238585E+03 0.  0.
          2    1    1    2  501    0  0.20683944824E+02  0.11694544054E+02 -0.69491249189E+02  0.73441280272E+02  0.00000000000E+00 0. -1.
          1    1    1    2  502    0 -0.25925985197E+02  0.24761557649E+02  0.33083081262E+03  0.33276766373E+03  0.00000000000E+00 0. -1.
         22    1    3    3    0    0  0.12667897784E+02  0.11291157491E+02  0.37995522751E+03  0.38033398584E+03  0.00000000000E+00 0. -1.
         22    1    3    3    0    0 -0.74258574105E+01 -0.47747259194E+02  0.52605662676E+02  0.71430384742E+02  0.00000000000E+00 0. -1.
</event>
<event>
 7    1  0.5789396E-006  0.8408229E+02  0.7818608E-02  0.1322180E+00
          2   -1    0    0  502    0  0.00000000000E+00  0.00000000000E+00  0.46439623127E+03  0.46439623127E+03  0.00000000000E+00 0. -1.
          1   -1    0    0  501    0 -0.00000000000E+00 -0.00000000000E+00 -0.58570429761E+03  0.58570429761E+03  0.00000000000E+00 0. -1.
         25    2    1    2    0    0  0.12667413214E+03 -0.87117013630E+02  0.13168882804E+01  0.19814885567E+03  0.12500209995E+03 0.  0.
          2    1    1    2  501    0 -0.77751417125E+02  0.22321683385E+02 -0.47933793524E+03  0.48611562058E+03  0.00000000000E+00 0. -1.
          1    1    1    2  502    0 -0.48922715013E+02  0.64795330245E+02  0.35671298061E+03  0.36583605263E+03  0.00000000000E+00 0. -1.
         22    1    3    3    0    0  0.11034681665E+03 -0.10593081085E+03 -0.32272209342E+02  0.15633058603E+03  0.00000000000E+00 0. -1.
         22    1    3    3    0    0  0.16327315489E+02  0.18813797218E+02  0.33589097622E+02  0.41818269643E+02  0.00000000000E+00 0. -1.
</event>
<event>
 7    1  0.5789396E-006  0.9525568E+02  0.7818608E-02  0.1298712E+00
          2   -1    0    0  502    0  0.00000000000E+00  0.00000000000E+00  0.40130526698E+03  0.40130526698E+03  0.00000000000E+00 0. -1.
          1   -1    0    0  501    0 -0.00000000000E+00 -0.00000000000E+00 -0.35318385399E+03  0.35318385399E+03  0.00000000000E+00 0. -1.
         25    2    1    2    0    0  0.48373966797E+02 -0.11273798695E+03 -0.65550757524E+02  0.18700802714E+03  0.12500082415E+03 0.  0.
          2    1    1    2  501    0 -0.89438183125E+02  0.34525260129E+02 -0.21059847039E+03  0.23139338348E+03  0.00000000000E+00 0. -1.
          1    1    1    2  502    0  0.41064216329E+02  0.78212726822E+02  0.32427064090E+03  0.33608771035E+03  0.00000000000E+00 0. -1.
         22    1    3    3    0    0 -0.64529133258E+01  0.58608594164E+00  0.28905069168E+02  0.29622400489E+02  0.00000000000E+00 0. -1.
         22    1    3    3    0    0  0.54826880123E+02 -0.11332407289E+03 -0.94455826692E+02  0.15738562665E+03  0.00000000000E+00 0. -1.
</event>
<event>
 7    1  0.5789396E-006  0.9790230E+02  0.7818608E-02  0.1318923E+00
          2   -1    0    0  502    0  0.00000000000E+00  0.00000000000E+00  0.35351403665E+03  0.35351403665E+03  0.00000000000E+00 0. -1.
          1   -1    0    0  501    0 -0.00000000000E+00 -0.00000000000E+00 -0.84534016083E+03  0.84534016083E+03  0.00000000000E+00 0. -1.
         25    2    1    2    0    0 -0.53633176095E+02  0.10250982461E+03  0.22460907504E+02  0.17179257438E+03  0.12499365794E+03 0.  0.
          2    1    1    2  501    0  0.71292743872E+02 -0.57269979187E+01 -0.75949430364E+03  0.76285454125E+03  0.00000000000E+00 0. -1.
          1    1    1    2  502    0 -0.17659567777E+02 -0.96782826696E+02  0.24520727197E+03  0.26420708186E+03  0.00000000000E+00 0. -1.
         22    1    3    3    0    0  0.34836434591E+02  0.17367166731E+00  0.80198402282E+01  0.35748079307E+02  0.00000000000E+00 0. -1.
         22    1    3    3    0    0 -0.88469610686E+02  0.10233615295E+03  0.14441067276E+02  0.13604449507E+03  0.00000000000E+00 0. -1.
</event>
<event>
 7    1  0.5789396E-006  0.1123754E+03  0.7818608E-02  0.1421603E+00
          2   -1    0    0  502    0  0.00000000000E+00  0.00000000000E+00  0.18728428201E+04  0.18728428201E+04  0.00000000000E+00 0. -1.
          1   -1    0    0  501    0 -0.00000000000E+00 -0.00000000000E+00 -0.66978280594E+02  0.66978280594E+02  0.00000000000E+00 0. -1.
         25    2    1    2    0    0  0.12072035978E+03  0.57760744030E+02  0.31979672117E+03  0.36851765830E+03  0.12500245114E+03 0.  0.
          2    1    1    2  501    0 -0.94704565430E+02 -0.52170715558E+02  0.26278055948E+02  0.11127117551E+03  0.00000000000E+00 0. -1.
          1    1    1    2  502    0 -0.26015794346E+02 -0.55900284722E+01  0.14597897624E+04  0.14600322669E+04  0.00000000000E+00 0. -1.
         22    1    3    3    0    0  0.62646762913E+02  0.25736188589E+02  0.28633492616E+03  0.29423571884E+03  0.00000000000E+00 0. -1.
         22    1    3    3    0    0  0.58073596863E+02  0.32024555440E+02  0.33461795017E+02  0.74281939457E+02  0.00000000000E+00 0. -1.
</event>
<event>
 7    1  0.5789396E-006  0.6708286E+02  0.7818608E-02  0.1477043E+00
          2   -1    0    0  502    0  0.00000000000E+00  0.00000000000E+00  0.70912872204E+03  0.70912872204E+03  0.00000000000E+00 0. -1.
          1   -1    0    0  501    0 -0.00000000000E+00 -0.00000000000E+00 -0.11090347774E+04  0.11090347774E+04  0.00000000000E+00 0. -1.
         25    2    1    2    0    0 -0.89894718503E+02  0.21781655455E+01 -0.19437610673E+03  0.24797892817E+03  0.12500269249E+03 0.  0.
          2    1    1    2  501    0  0.64749989288E+02  0.13463250226E+02 -0.88630337163E+03  0.88876739746E+03  0.00000000000E+00 0. -1.
          1    1    1    2  502    0  0.25144729216E+02 -0.15641415772E+02  0.68077342300E+03  0.68141717380E+03  0.00000000000E+00 0. -1.
         22    1    3    3    0    0 -0.77521537000E+02 -0.21232047237E+02 -0.37164029300E+02  0.88552547126E+02  0.00000000000E+00 0. -1.
         22    1    3    3    0    0 -0.12373181504E+02  0.23410212783E+02 -0.15721207743E+03  0.15942638104E+03  0.00000000000E+00 0. -1.
</event>
<event>
 7    1  0.5789396E-006  0.1054267E+03  0.7818608E-02  0.1304821E+00
          2   -1    0    0  502    0  0.00000000000E+00  0.00000000000E+00  0.17958092994E+03  0.17958092994E+03  0.00000000000E+00 0. -1.
          1   -1    0    0  501    0 -0.00000000000E+00 -0.00000000000E+00 -0.25028023564E+04  0.25028023564E+04  0.00000000000E+00 0. -1.
         25    2    1    2    0    0 -0.51554961590E+02  0.41579471270E+02  0.17921549997E+02  0.14259480400E+03  0.12500131870E+03 0.  0.
          2    1    1    2  501    0 -0.74688690396E+02  0.10739153688E+02 -0.23925826730E+04  0.23937722484E+04  0.00000000000E+00 0. -1.
          1    1    1    2  502    0  0.12624365199E+03 -0.52318624957E+02  0.51439696599E+02  0.14601623393E+03  0.00000000000E+00 0. -1.
         22    1    3    3    0    0 -0.56078477449E+02  0.34048207681E+02 -0.44683142392E+02  0.79376692381E+02  0.00000000000E+00 0. -1.
         22    1    3    3    0    0  0.45235158589E+01  0.75312635886E+01  0.62604692389E+02  0.63218111614E+02  0.00000000000E+00 0. -1.
</event>
<event>
 7    1  0.5789396E-006  0.5332613E+02  0.7818608E-02  0.1464577E+00
          2   -1    0    0  502    0  0.00000000000E+00  0.00000000000E+00  0.67822317778E+02  0.67822317778E+02  0.00000000000E+00 0. -1.
          1   -1    0    0  501    0 -0.00000000000E+00 -0.00000000000E+00 -0.11702364640E+04  0.11702364640E+04  0.00000000000E+00 0. -1.
         25    2    1    2    0    0  0.22016332280E+02  0.84920269772E+02 -0.13778929318E+03  0.20568924223E+03  0.12500401572E+03 0.  0.
          2    1    1    2  501    0 -0.20610335002E+02 -0.35127140959E+02 -0.97952849884E+03  0.98037481708E+03  0.00000000000E+00 0. -1.
          1    1    1    2  502    0 -0.14059972778E+01 -0.49793128813E+02  0.14903645805E+02  0.51994722459E+02  0.00000000000E+00 0. -1.
         22    1    3    3    0    0  0.62762212197E+02  0.52779987642E+02 -0.12928697076E+03  0.15310108812E+03  0.00000000000E+00 0.  1.
         22    1    3    3    0    0 -0.40745879917E+02  0.32140282129E+02 -0.85023224207E+01  0.52588154104E+02  0.00000000000E+00 0.  1.
</event>
<event>
 7    1  0.5789396E-006  0.2769917E+03  0.7818608E-02  0.1249435E+00
          2   -1    0    0  502    0  0.00000000000E+00  0.00000000000E+00  0.18062104132E+04  0.18062104132E+04  0.00000000000E+00 0. -1.
          1   -1    0    0  501    0 -0.00000000000E+00 -0.00000000000E+00 -0.42307761526E+03  0.42307761526E+03  0.00000000000E+00 0. -1.
         25    2    1    2    0    0  0.17687882051E+03 -0.19583185488E+03  0.21171295105E+03  0.36067095470E+03  0.12499972558E+03 0.  0.
          2    1    1    2  501    0 -0.22015691452E+03  0.17332934279E+03 -0.29182094829E+03  0.40456346096E+03  0.00000000000E+00 0. -1.
          1    1    1    2  502    0  0.43278094012E+02  0.22502512084E+02  0.14632407951E+04  0.14640536128E+04  0.00000000000E+00 0. -1.
         22    1    3    3    0    0  0.88611418220E+02 -0.54716526750E+02  0.18713920869E+02  0.10581158997E+03  0.00000000000E+00 0. -1.
         22    1    3    3    0    0  0.88267402289E+02 -0.14111532813E+03  0.19299903018E+03  0.25485936472E+03  0.00000000000E+00 0. -1.
</event>
<event>
 7    1  0.5789396E-006  0.5834292E+02  0.7818608E-02  0.1450232E+00
          2   -1    0    0  502    0  0.00000000000E+00  0.00000000000E+00  0.66501474107E+03  0.66501474107E+03  0.00000000000E+00 0. -1.
          1   -1    0    0  501    0 -0.00000000000E+00 -0.00000000000E+00 -0.43829020548E+02  0.43829020548E+02  0.00000000000E+00 0. -1.
         25    2    1    2    0    0  0.34621194183E+02 -0.76503235665E+02  0.24923708633E+03  0.29119685351E+03  0.12500044056E+03 0.  0.
          2    1    1    2  501    0  0.88062114456E+01  0.40380111648E+02 -0.10525554971E+00  0.41329334079E+02  0.00000000000E+00 0. -1.
          1    1    1    2  502    0 -0.43427405628E+02  0.36123124017E+02  0.37205388974E+03  0.37631757402E+03  0.00000000000E+00 0. -1.
         22    1    3    3    0    0 -0.82629686953E+00 -0.10454240255E+03  0.18761344355E+03  0.21477569904E+03  0.00000000000E+00 0. -1.
         22    1    3    3    0    0  0.35447491052E+02  0.28039166886E+02  0.61623642779E+02  0.76421154472E+02  0.00000000000E+00 0. -1.
</event>
<event>
 7    1  0.5789396E-006  0.1378708E+03  0.7818608E-02  0.1364773E+00
          2   -1    0    0  502    0  0.00000000000E+00  0.00000000000E+00  0.87628774135E+03  0.87628774135E+03  0.00000000000E+00 0. -1.
          1   -1    0    0  501    0 -0.00000000000E+00 -0.00000000000E+00 -0.60867648094E+02  0.60867648094E+02  0.00000000000E+00 0. -1.
         25    2    1    2    0    0  0.10930177360E+03  0.78573189199E+02  0.25007938519E+03  0.31030029350E+03  0.12500379783E+03 0.  0.
          2    1    1    2  501    0 -0.91459694215E+02 -0.10772090803E+03  0.13589367588E+03  0.19605040382E+03  0.00000000000E+00 0. -1.
          1    1    1    2  502    0 -0.17842079386E+02  0.29147718832E+02  0.42944703218E+03  0.43080469213E+03  0.00000000000E+00 0. -1.
         22    1    3    3    0    0  0.93536372599E+02  0.38131353929E+02  0.64810045897E+02  0.12001414584E+03  0.00000000000E+00 0. -1.
         22    1    3    3    0    0  0.15765401002E+02  0.40441835270E+02  0.18526933929E+03  0.19028614766E+03  0.00000000000E+00 0. -1.
</event>
<event>
 7    1  0.5789396E-006  0.1527087E+03  0.7818608E-02  0.1250144E+00
          2   -1    0    0  502    0  0.00000000000E+00  0.00000000000E+00  0.22146794030E+04  0.22146794030E+04  0.00000000000E+00 0. -1.
          1   -1    0    0  501    0 -0.00000000000E+00 -0.00000000000E+00 -0.28211909377E+03  0.28211909377E+03  0.00000000000E+00 0. -1.
         25    2    1    2    0    0  0.99338203200E+02  0.14207763404E+03  0.69243102279E+02  0.22466366894E+03  0.12500009687E+03 0.  0.
          2    1    1    2  501    0 -0.12054125439E+02 -0.15205763344E+03 -0.17487398009E+03  0.23205114682E+03  0.00000000000E+00 0. -1.
          1    1    1    2  502    0 -0.87284077761E+02  0.99799993985E+01  0.20381911871E+04  0.20400836810E+04  0.00000000000E+00 0. -1.
         22    1    3    3    0    0  0.12576286981E+03  0.88820293929E+02  0.44494951188E+02  0.16026585637E+03  0.00000000000E+00 0.  1.
         22    1    3    3    0    0 -0.26424666608E+02  0.53257340113E+02  0.24748151091E+02  0.64397812569E+02  0.00000000000E+00 0.  1.
</event>
<event>
 7    1  0.5789396E-006  0.9210789E+02  0.7818608E-02  0.1406712E+00
          2   -1    0    0  502    0  0.00000000000E+00  0.00000000000E+00  0.19422772357E+04  0.19422772357E+04  0.00000000000E+00 0. -1.
          1   -1    0    0  501    0 -0.00000000000E+00 -0.00000000000E+00 -0.15429892602E+03  0.15429892602E+03  0.00000000000E+00 0. -1.
         25    2    1    2    0    0  0.61149640397E+00  0.81595326967E+02 -0.73082166899E+02  0.16621048742E+03  0.12500700659E+03 0.  0.
          2    1    1    2  501    0  0.17744912685E+02 -0.11307347210E+03  0.60550300049E+02  0.12948679799E+03  0.00000000000E+00 0. -1.
          1    1    1    2  502    0 -0.18356409089E+02  0.31478145133E+02  0.18005101765E+04  0.18008788763E+04  0.00000000000E+00 0. -1.
         22    1    3    3    0    0 -0.31406631445E+02 -0.23267718309E+02 -0.25629649390E+02  0.46740155561E+02  0.00000000000E+00 0. -1.
         22    1    3    3    0    0  0.32018127849E+02  0.10486304528E+03 -0.47452517508E+02  0.11947033185E+03  0.00000000000E+00 0. -1.
</event>
<event>
 7    1  0.5789396E-006  0.1184617E+03  0.7818608E-02  0.1275687E+00
          2   -1    0    0  502    0  0.00000000000E+00  0.00000000000E+00  0.10571721747E+04  0.10571721747E+04  0.00000000000E+00 0. -1.
          1   -1    0    0  501    0 -0.00000000000E+00 -0.00000000000E+00 -0.70828257497E+03  0.70828257497E+03  0.00000000000E+00 0. -1.
         25    2    1    2    0    0  0.14326524690E+03  0.25146314678E+01 -0.32170639927E+03  0.37370053404E+03  0.12500330986E+03 0.  0.
          2    1    1    2  501    0 -0.91138227471E+02 -0.73677693716E+02 -0.34910175176E+03  0.36824803074E+03  0.00000000000E+00 0. -1.
          1    1    1    2  502    0 -0.52127019425E+02  0.71163062249E+02  0.10196977508E+04  0.10235061849E+04  0.00000000000E+00 0. -1.
         22    1    3    3    0    0  0.89082158043E+01  0.10383183189E+02  0.91896722171E+01  0.16480803300E+02  0.00000000000E+00 0.  1.
         22    1    3    3    0    0  0.13435703109E+03 -0.78685517210E+01 -0.33089607148E+03  0.35721973074E+03  0.00000000000E+00 0.  1.
</event>
<event>
 7    1  0.5789396E-006  0.9400161E+02  0.7818608E-02  0.1430308E+00
          2   -1    0    0  502    0  0.00000000000E+00  0.00000000000E+00  0.10870614243E+04  0.10870614243E+04  0.00000000000E+00 0. -1.
          1   -1    0    0  501    0 -0.00000000000E+00 -0.00000000000E+00 -0.13260034448E+03  0.13260034448E+03  0.00000000000E+00 0. -1.
         25    2    1    2    0    0  0.71082500534E+02  0.39969232568E+02  0.41435147487E+03  0.44041229234E+03  0.12500232429E+03 0.  0.
          2    1    1    2  501    0 -0.92682986651E+02 -0.19486558676E+02 -0.10041546389E+03  0.13803306622E+03  0.00000000000E+00 0. -1.
          1    1    1    2  502    0  0.21600486118E+02 -0.20482673892E+02  0.64052506878E+03  0.64121641017E+03  0.00000000000E+00 0. -1.
         22    1    3    3    0    0  0.62713218698E+02  0.25261015876E+02  0.41772131120E+03  0.42315737091E+03  0.00000000000E+00 0. -1.
         22    1    3    3    0    0  0.83692818354E+01  0.14708216691E+02 -0.33698363277E+01  0.17254921430E+02  0.00000000000E+00 0. -1.
</event>
<event>
 7    1  0.5789396E-006  0.1017992E+03  0.7818608E-02  0.1369698E+00
          2   -1    0    0  502    0  0.00000000000E+00  0.00000000000E+00  0.89862776748E+03  0.89862776748E+03  0.00000000000E+00 0. -1.
          1   -1    0    0  501    0 -0.00000000000E+00 -0.00000000000E+00 -0.97147573465E+03  0.97147573465E+03  0.00000000000E+00 0. -1.
         25    2    1    2    0    0  0.50206736971E+02  0.10132979189E+03  0.17300490932E+01  0.16857276409E+03  0.12500136224E+03 0.  0.
          2    1    1    2  501    0 -0.77293607619E+02 -0.66114220411E+02 -0.88453121762E+03  0.89035996477E+03  0.00000000000E+00 0. -1.
          1    1    1    2  502    0  0.27086870648E+02 -0.35215571475E+02  0.80995320135E+03  0.81117077327E+03  0.00000000000E+00 0. -1.
         22    1    3    3    0    0  0.47203351801E+02  0.12855648109E+03  0.15662310214E+02  0.13784133347E+03  0.00000000000E+00 0. -1.
         22    1    3    3    0    0  0.30033851696E+01 -0.27226689208E+02 -0.13932261121E+02  0.30731430615E+02  0.00000000000E+00 0. -1.
</event>
<event>
 7    1  0.5789396E-006  0.8772953E+02  0.7818608E-02  0.1433977E+00
          2   -1    0    0  502    0  0.00000000000E+00  0.00000000000E+00  0.83590797709E+03  0.83590797709E+03  0.00000000000E+00 0. -1.
          1   -1    0    0  501    0 -0.00000000000E+00 -0.00000000000E+00 -0.44819846032E+03  0.44819846032E+03  0.00000000000E+00 0. -1.
         25    2    1    2    0    0  0.49456188328E+02 -0.38550570676E+02  0.14629014616E+03  0.20238528957E+03  0.12500774979E+03 0.  0.
          2    1    1    2  501    0 -0.80429760707E+02  0.36785312657E+02 -0.41512619526E+03  0.42444300398E+03  0.00000000000E+00 0. -1.
          1    1    1    2  502    0  0.30973572379E+02  0.17652580191E+01  0.65654556588E+03  0.65727814386E+03  0.00000000000E+00 0. -1.
         22    1    3    3    0    0 -0.13846418098E+02  0.23197155920E+01  0.12259687705E+03  0.12339813060E+03  0.00000000000E+00 0. -1.
         22    1    3    3    0    0  0.63302606426E+02 -0.40870286268E+02  0.23693269109E+02  0.78987158963E+02  0.00000000000E+00 0. -1.
</event>
<event>
 7    1  0.5789396E-006  0.2030489E+03  0.7818608E-02  0.1231514E+00
          2   -1    0    0  502    0  0.00000000000E+00  0.00000000000E+00  0.17892244999E+04  0.17892244999E+04  0.00000000000E+00 0. -1.
          1   -1    0    0  501    0 -0.00000000000E+00 -0.00000000000E+00 -0.12598172511E+04  0.12598172511E+04  0.00000000000E+00 0. -1.
         25    2    1    2    0    0 -0.10179469788E+03  0.10863162669E+03  0.43286512756E+03  0.47451042395E+03  0.12499973179E+03 0.  0.
          2    1    1    2  501    0 -0.49894165586E+02  0.62294963104E+02 -0.12279134342E+04  0.12305045681E+04  0.00000000000E+00 0. -1.
          1    1    1    2  502    0  0.15168886346E+03 -0.17092658980E+03  0.13244555554E+04  0.13440267589E+04  0.00000000000E+00 0. -1.
         22    1    3    3    0    0 -0.47784348287E+02  0.12151493064E+03  0.23318086094E+03  0.26724995083E+03  0.00000000000E+00 0. -1.
         22    1    3    3    0    0 -0.54010349592E+02 -0.12883303945E+02  0.19968426662E+03  0.20726047312E+03  0.00000000000E+00 0. -1.
</event>
<event>
 7    1  0.5789396E-006  0.7184439E+02  0.7818608E-02  0.1361569E+00
          2   -1    0    0  502    0  0.00000000000E+00  0.00000000000E+00  0.22512779298E+03  0.22512779298E+03  0.00000000000E+00 0. -1.
          1   -1    0    0  501    0 -0.00000000000E+00 -0.00000000000E+00 -0.13758611032E+03  0.13758611032E+03  0.00000000000E+00 0. -1.
         25    2    1    2    0    0  0.17572541413E+02 -0.96668709814E+02  0.56841346280E+02  0.16884699499E+03  0.12499894160E+03 0.  0.
          2    1    1    2  501    0  0.38748704127E+02  0.59713297888E+02 -0.51301556628E+02  0.87743887130E+02  0.00000000000E+00 0. -1.
          1    1    1    2  502    0 -0.56321245540E+02  0.36955411926E+02  0.82001893009E+02  0.10612302119E+03  0.00000000000E+00 0. -1.
         22    1    3    3    0    0 -0.40574179876E+01  0.22269755859E+01 -0.33105051625E+02  0.33427032534E+02  0.00000000000E+00 0.  1.
         22    1    3    3    0    0  0.21629959400E+02 -0.98895685400E+02  0.89946397905E+02  0.13541996245E+03  0.00000000000E+00 0.  1.
</event>
<event>
 7    1  0.5789396E-006  0.7748125E+02  0.7818608E-02  0.1380391E+00
          2   -1    0    0  502    0  0.00000000000E+00  0.00000000000E+00  0.71074766708E+03  0.71074766708E+03  0.00000000000E+00 0. -1.
          1   -1    0    0  501    0 -0.00000000000E+00 -0.00000000000E+00 -0.24269756079E+03  0.24269756079E+03  0.00000000000E+00 0. -1.
         25    2    1    2    0    0 -0.37031680825E+02 -0.33350933016E+02  0.26656890115E+03  0.29862470004E+03  0.12503640388E+03 0.  0.
          2    1    1    2  501    0  0.78459590486E+02 -0.44249584908E+00 -0.21813268428E+03  0.23181451873E+03  0.00000000000E+00 0. -1.
          1    1    1    2  502    0 -0.41427909662E+02  0.33793428865E+02  0.41961388942E+03  0.42300600910E+03  0.00000000000E+00 0. -1.
         22    1    3    3    0    0 -0.68101848107E+02 -0.61768553031E+02  0.19500818308E+03  0.21559547149E+03  0.00000000000E+00 0. -1.
         22    1    3    3    0    0  0.31070167283E+02  0.28417620015E+02  0.71560718068E+02  0.83029228544E+02  0.00000000000E+00 0. -1.
</event>
<event>
 7    1  0.5789396E-006  0.6892614E+02  0.7818608E-02  0.1381500E+00
          2   -1    0    0  502    0  0.00000000000E+00  0.00000000000E+00  0.13156058928E+04  0.13156058928E+04  0.00000000000E+00 0. -1.
          1   -1    0    0  501    0 -0.00000000000E+00 -0.00000000000E+00 -0.11406994563E+03  0.11406994563E+03  0.00000000000E+00 0. -1.
         25    2    1    2    0    0 -0.16399932373E+02  0.30899692307E+02  0.76215104707E+03  0.77312327385E+03  0.12498651631E+03 0.  0.
          2    1    1    2  501    0 -0.64197505454E+02 -0.25089713854E+02 -0.94288983880E+02  0.11679565886E+03  0.00000000000E+00 0. -1.
          1    1    1    2  502    0  0.80597437827E+02 -0.58099784531E+01  0.53367388395E+03  0.53975690569E+03  0.00000000000E+00 0. -1.
         22    1    3    3    0    0 -0.19851601604E+02 -0.39765659454E+02  0.13813159420E+03  0.14510593053E+03  0.00000000000E+00 0. -1.
         22    1    3    3    0    0  0.34516692304E+01  0.70665351761E+02  0.62401945287E+03  0.62801734332E+03  0.00000000000E+00 0. -1.
</event>
<event>
 7    1  0.5789396E-006  0.2405434E+03  0.7818608E-02  0.1267475E+00
          2   -1    0    0  502    0  0.00000000000E+00  0.00000000000E+00  0.17287851066E+04  0.17287851066E+04  0.00000000000E+00 0. -1.
          1   -1    0    0  501    0 -0.00000000000E+00 -0.00000000000E+00 -0.16671437001E+04  0.16671437001E+04  0.00000000000E+00 0. -1.
         25    2    1    2    0    0  0.77039280811E+02 -0.20103426182E+03  0.30255321910E+03  0.39180751499E+03  0.12499941280E+03 0.  0.
          2    1    1    2  501    0 -0.46464396853E+02  0.23676020314E+03 -0.16131418420E+04  0.16310858152E+04  0.00000000000E+00 0. -1.
          1    1    1    2  502    0 -0.30574883958E+02 -0.35725941315E+02  0.13722300294E+04  0.13730354766E+04  0.00000000000E+00 0. -1.
         22    1    3    3    0    0  0.60980225138E+02 -0.20816334731E+03  0.22595177131E+03  0.31321680986E+03  0.00000000000E+00 0.  1.
         22    1    3    3    0    0  0.16059055673E+02  0.71290854876E+01  0.76601447790E+02  0.78590705128E+02  0.00000000000E+00 0.  1.
</event>
<event>
 7    1  0.5789396E-006  0.6036647E+02  0.7818608E-02  0.1520887E+00
          2   -1    0    0  502    0  0.00000000000E+00  0.00000000000E+00  0.43566850097E+02  0.43566850097E+02  0.00000000000E+00 0. -1.
          1   -1    0    0  501    0 -0.00000000000E+00 -0.00000000000E+00 -0.25534750252E+04  0.25534750252E+04  0.00000000000E+00 0. -1.
         25    2    1    2    0    0 -0.77370630015E+02 -0.31859594248E+02 -0.16015834141E+04  0.16086316091E+04  0.12499989355E+03 0.  0.
          2    1    1    2  501    0  0.20164708191E+02  0.13623613654E+02 -0.92560971291E+03  0.92592956479E+03  0.00000000000E+00 0. -1.
          1    1    1    2  502    0  0.57205921825E+02  0.18235980594E+02  0.17284951939E+02  0.62480701369E+02  0.00000000000E+00 0. -1.
         22    1    3    3    0    0 -0.56073497302E+02  0.43340302530E+02 -0.87140688958E+03  0.87428404202E+03  0.00000000000E+00 0. -1.
         22    1    3    3    0    0 -0.21297132714E+02 -0.75199896778E+02 -0.73017652450E+03  0.73434756708E+03  0.00000000000E+00 0. -1.
</event>
<event>
 7    1  0.5789396E-006  0.3712122E+02  0.7818608E-02  0.1537823E+00
          2   -1    0    0  502    0  0.00000000000E+00  0.00000000000E+00  0.64962042664E+02  0.64962042664E+02  0.00000000000E+00 0. -1.
          1   -1    0    0  501    0 -0.00000000000E+00 -0.00000000000E+00 -0.81759476536E+03  0.81759476536E+03  0.00000000000E+00 0. -1.
         25    2    1    2    0    0  0.12476769782E+02  0.56321685485E+02 -0.13147840521E+03  0.19036743071E+03  0.12500154238E+03 0.  0.
          2    1    1    2  501    0 -0.27028268991E+02 -0.22842001140E+02 -0.64667843879E+03  0.64764595848E+03  0.00000000000E+00 0. -1.
          1    1    1    2  502    0  0.14551499209E+02 -0.33479684345E+02  0.25524121303E+02  0.44543418834E+02  0.00000000000E+00 0. -1.
         22    1    3    3    0    0  0.56287100242E+02 -0.88576194270E+01 -0.72180792174E+02  0.91960653730E+02  0.00000000000E+00 0. -1.
         22    1    3    3    0    0 -0.43810330460E+02  0.65179304912E+02 -0.59297613033E+02  0.98406776979E+02  0.00000000000E+00 0. -1.
</event>
<event>
 7    1  0.5789396E-006  0.3290055E+02  0.7818608E-02  0.1588539E+00
          2   -1    0    0  502    0  0.00000000000E+00  0.00000000000E+00  0.62087469915E+03  0.62087469915E+03  0.00000000000E+00 0. -1.
          1   -1    0    0  501    0 -0.00000000000E+00 -0.00000000000E+00 -0.11401609726E+04  0.11401609726E+04  0.00000000000E+00 0. -1.
         25    2    1    2    0    0  0.76809156730E+01  0.14014747010E+02 -0.74303264304E+03  0.75364260153E+03  0.12499701047E+03 0.  0.
          2    1    1    2  501    0 -0.35805702612E+02 -0.69960122251E+01 -0.39063165165E+03  0.39233159418E+03  0.00000000000E+00 0. -1.
          1    1    1    2  502    0  0.28124786939E+02 -0.70187347852E+01  0.61437802125E+03  0.61506147601E+03  0.00000000000E+00 0. -1.
         22    1    3    3    0    0 -0.38038539617E+02 -0.19493232456E+02 -0.10899437552E+03  0.11707557603E+03  0.00000000000E+00 0.  1.
         22    1    3    3    0    0  0.45719455290E+02  0.33507979467E+02 -0.63403826751E+03  0.63656702550E+03  0.00000000000E+00 0.  1.
</event>
<event>
 7    1  0.5789396E-006  0.1341436E+03  0.7818608E-02  0.1390642E+00
          2   -1    0    0  502    0  0.00000000000E+00  0.00000000000E+00  0.90947943498E+03  0.90947943498E+03  0.00000000000E+00 0. -1.
          1   -1    0    0  501    0 -0.00000000000E+00 -0.00000000000E+00 -0.25839405671E+03  0.25839405671E+03  0.00000000000E+00 0. -1.
         25    2    1    2    0    0  0.97411782974E+02 -0.79058746662E+02  0.18852641682E+02  0.17810239306E+03  0.12500279768E+03 0.  0.
          2    1    1    2  501    0 -0.12283075657E+02 -0.25631507053E+02 -0.17198220327E+03  0.17431502041E+03  0.00000000000E+00 0. -1.
          1    1    1    2  502    0 -0.85128707317E+02  0.10469025372E+03  0.80421493985E+03  0.81545607822E+03  0.00000000000E+00 0. -1.
         22    1    3    3    0    0 -0.24078011762E+02 -0.44275793858E+02  0.47126078230E+00  0.50401573972E+02  0.00000000000E+00 0. -1.
         22    1    3    3    0    0  0.12148979474E+03 -0.34782952804E+02  0.18381380900E+02  0.12770081908E+03  0.00000000000E+00 0. -1.
</event>
<event>
 7    1  0.5789396E-006  0.4555855E+02  0.7818608E-02  0.1491050E+00
          2   -1    0    0  502    0  0.00000000000E+00  0.00000000000E+00  0.13949154486E+04  0.13949154486E+04  0.00000000000E+00 0. -1.
          1   -1    0    0  501    0 -0.00000000000E+00 -0.00000000000E+00 -0.33621328203E+02  0.33621328203E+02  0.00000000000E+00 0. -1.
         25    2    1    2    0    0  0.17687640557E+01 -0.71241804762E+01  0.18579579521E+03  0.22405608392E+03  0.12500867468E+03 0.  0.
          2    1    1    2  501    0  0.41555391469E+02  0.21216704679E+02  0.24722532504E+02  0.52803434841E+02  0.00000000000E+00 0. -1.
          1    1    1    2  502    0 -0.43324155525E+02 -0.14092524203E+02  0.11507757927E+04  0.11516772581E+04  0.00000000000E+00 0. -1.
         22    1    3    3    0    0  0.36208885022E+02  0.45763972383E+02  0.62266622427E+02  0.85337897744E+02  0.00000000000E+00 0.  1.
         22    1    3    3    0    0 -0.34440120967E+02 -0.52888152860E+02  0.12352917279E+03  0.13871818617E+03  0.00000000000E+00 0.  1.
</event>
<event>
 7    1  0.5789396E-006  0.4460151E+02  0.7818608E-02  0.1494184E+00
          2   -1    0    0  502    0  0.00000000000E+00  0.00000000000E+00  0.78304875224E+02  0.78304875224E+02  0.00000000000E+00 0. -1.
          1   -1    0    0  501    0 -0.00000000000E+00 -0.00000000000E+00 -0.27542860036E+04  0.27542860036E+04  0.00000000000E+00 0. -1.
         25    2    1    2    0    0  0.59283467712E+02 -0.28906147436E+01 -0.23535200431E+04  0.23575841895E+04  0.12499492855E+03 0.  0.
          2    1    1    2  501    0 -0.29585982695E+02  0.28930318171E+02 -0.39245893242E+03  0.39463439703E+03  0.00000000000E+00 0. -1.
          1    1    1    2  502    0 -0.29697485017E+02 -0.26039703427E+02  0.69997847115E+02  0.80372292313E+02  0.00000000000E+00 0. -1.
         22    1    3    3    0    0  0.40702051785E+02  0.57693820349E+02 -0.94200583259E+03  0.94464820042E+03  0.00000000000E+00 0.  1.
         22    1    3    3    0    0  0.18581415927E+02 -0.60584435092E+02 -0.14115142105E+04  0.14129359890E+04  0.00000000000E+00 0.  1.
</event>
<event>
 7    1  0.5789396E-006  0.6468636E+02  0.7818608E-02  0.1397139E+00
          2   -1    0    0  502    0  0.00000000000E+00  0.00000000000E+00  0.25536920994E+04  0.25536920994E+04  0.00000000000E+00 0. -1.
          1   -1    0    0  501    0 -0.00000000000E+00 -0.00000000000E+00 -0.17673467590E+04  0.17673467590E+04  0.00000000000E+00 0. -1.
         25    2    1    2    0    0 -0.24262116349E+02 -0.42557841033E+02  0.16218044197E+04  0.16273522512E+04  0.12500381376E+03 0.  0.
          2    1    1    2  501    0 -0.52849641134E+02  0.18397992717E+02 -0.17623708584E+04  0.17632590885E+04  0.00000000000E+00 0. -1.
          1    1    1    2  502    0  0.77111757482E+02  0.24159848316E+02  0.92691177909E+03  0.93042751874E+03  0.00000000000E+00 0. -1.
         22    1    3    3    0    0 -0.30717435037E+02 -0.29492758998E+02  0.16029833905E+04  0.16035489184E+04  0.00000000000E+00 0. -1.
         22    1    3    3    0    0  0.64553186887E+01 -0.13065082035E+02  0.18821029239E+02  0.23803332741E+02  0.00000000000E+00 0. -1.
</event>
<event>
 7    1  0.5789396E-006  0.1195164E+03  0.7818608E-02  0.1439617E+00
          2   -1    0    0  502    0  0.00000000000E+00  0.00000000000E+00  0.15032793110E+04  0.15032793110E+04  0.00000000000E+00 0. -1.
          1   -1    0    0  501    0 -0.00000000000E+00 -0.00000000000E+00 -0.28673114437E+03  0.28673114437E+03  0.00000000000E+00 0. -1.
         25    2    1    2    0    0  0.92993037172E+02  0.34309710401E+02  0.20424677305E+03  0.25916488861E+03  0.12499933598E+03 0.  0.
          2    1    1    2  501    0 -0.11435705046E+03 -0.38789124121E+02 -0.24511157413E+03  0.27324314248E+03  0.00000000000E+00 0. -1.
          1    1    1    2  502    0  0.21364013286E+02  0.44794137198E+01  0.12574129677E+04  0.12576024243E+04  0.00000000000E+00 0. -1.
         22    1    3    3    0    0  0.24450515422E+01  0.18177726961E+02 -0.13510876540E+02  0.22780514028E+02  0.00000000000E+00 0. -1.
         22    1    3    3    0    0  0.90547985630E+02  0.16131983440E+02  0.21775764959E+03  0.23638437459E+03  0.00000000000E+00 0. -1.
</event>
<event>
 7    1  0.5789396E-006  0.2471569E+03  0.7818608E-02  0.1233966E+00
          2   -1    0    0  502    0  0.00000000000E+00  0.00000000000E+00  0.39488868189E+03  0.39488868189E+03  0.00000000000E+00 0. -1.
          1   -1    0    0  501    0 -0.00000000000E+00 -0.00000000000E+00 -0.11343067257E+04  0.11343067257E+04  0.00000000000E+00 0. -1.
         25    2    1    2    0    0 -0.90536181595E+02  0.22698569584E+03  0.10340755314E+03  0.29332133782E+03  0.12499991552E+03 0.  0.
          2    1    1    2  501    0  0.14798950857E+03 -0.19893001587E+03 -0.10188567062E+04  0.10485909754E+04  0.00000000000E+00 0. -1.
          1    1    1    2  502    0 -0.57453326979E+02 -0.28055679966E+02  0.17603110935E+03  0.18728309432E+03  0.00000000000E+00 0. -1.
         22    1    3    3    0    0  0.15829677117E+02 -0.69863002557E+01  0.91047660182E+01  0.19552080021E+02  0.00000000000E+00 0.  1.
         22    1    3    3    0    0 -0.10636585871E+03  0.23397199609E+03  0.94302787122E+02  0.27376925779E+03  0.00000000000E+00 0.  1.
</event>
<event>
 7    1  0.5789396E-006  0.1353674E+03  0.7818608E-02  0.1432175E+00
          2   -1    0    0  502    0  0.00000000000E+00  0.00000000000E+00  0.10386500256E+04  0.10386500256E+04  0.00000000000E+00 0. -1.
          1   -1    0    0  501    0 -0.00000000000E+00 -0.00000000000E+00 -0.35927138968E+02  0.35927138968E+02  0.00000000000E+00 0. -1.
         25    2    1    2    0    0 -0.14272023563E+03 -0.13510798824E+02  0.37491147444E+03  0.42039895577E+03  0.12500024399E+03 0.  0.
          2    1    1    2  501    0  0.96494797027E+01  0.17952308916E+02  0.11000355301E+02  0.23160433301E+02  0.00000000000E+00 0. -1.
          1    1    1    2  502    0  0.13307075593E+03 -0.44415100919E+01  0.61681105684E+03  0.63101777545E+03  0.00000000000E+00 0. -1.
         22    1    3    3    0    0 -0.31089422454E+02  0.45067214446E+02  0.60183358288E+02  0.81361186209E+02  0.00000000000E+00 0. -1.
         22    1    3    3    0    0 -0.11163081317E+03 -0.58578013271E+02  0.31472811616E+03  0.33903776956E+03  0.00000000000E+00 0. -1.
</event>
<event>
 7    1  0.5789396E-006  0.1201571E+03  0.7818608E-02  0.1348120E+00
          2   -1    0    0  502    0  0.00000000000E+00  0.00000000000E+00  0.20847706692E+04  0.20847706692E+04  0.00000000000E+00 0. -1.
          1   -1    0    0  501    0 -0.00000000000E+00 -0.00000000000E+00 -0.11218316610E+04  0.11218316610E+04  0.00000000000E+00 0. -1.
         25    2    1    2    0    0  0.44702865813E+02  0.69087574751E+02  0.12379657980E+03  0.19422078369E+03  0.12499872179E+03 0.  0.
          2    1    1    2  501    0 -0.86204005344E+00  0.45129035873E+02 -0.10842064483E+04  0.10851456103E+04  0.00000000000E+00 0. -1.
          1    1    1    2  502    0 -0.43840825759E+02 -0.11421661062E+03  0.19233488768E+04  0.19272359362E+04  0.00000000000E+00 0. -1.
         22    1    3    3    0    0  0.82995371459E+01 -0.18401281291E+02 -0.15706725719E+02  0.25577151969E+02  0.00000000000E+00 0. -1.
         22    1    3    3    0    0  0.36403328667E+02  0.87488856042E+02  0.13950330552E+03  0.16864363172E+03  0.00000000000E+00 0. -1.
</event>
<event>
 7    1  0.5789396E-006  0.3365961E+03  0.7818608E-02  0.1313316E+00
          2   -1    0    0  502    0  0.00000000000E+00  0.00000000000E+00  0.13578130260E+04  0.13578130260E+04  0.00000000000E+00 0. -1.
          1   -1    0    0  501    0 -0.00000000000E+00 -0.00000000000E+00 -0.21369869349E+04  0.21369869349E+04  0.00000000000E+00 0. -1.
         25    2    1    2    0    0 -0.32085861333E+03  0.35781705672E+02  0.10280468958E+04  0.10847751443E+04  0.12500445429E+03 0.  0.
          2    1    1    2  501    0  0.33617273920E+03 -0.20156807643E+02 -0.20947576111E+04  0.21216568660E+04  0.00000000000E+00 0. -1.
          1    1    1    2  502    0 -0.15314125870E+02 -0.15624898029E+02  0.28753680647E+03  0.28836795065E+03  0.00000000000E+00 0. -1.
         22    1    3    3    0    0 -0.13343838506E+02 -0.11231728647E+01  0.20410174590E+03  0.20454056376E+03  0.00000000000E+00 0. -1.
         22    1    3    3    0    0 -0.30751477483E+03  0.36904878536E+02  0.82394514986E+03  0.88023458054E+03  0.00000000000E+00 0. -1.
</event>
<event>
 7    1  0.5789396E-006  0.2043023E+03  0.7818608E-02  0.1352262E+00
          2   -1    0    0  502    0  0.00000000000E+00  0.00000000000E+00  0.13144428302E+04  0.13144428302E+04  0.00000000000E+00 0. -1.
          1   -1    0    0  501    0 -0.00000000000E+00 -0.00000000000E+00 -0.46293335475E+03  0.46293335475E+03  0.00000000000E+00 0. -1.
         25    2    1    2    0    0  0.28066241302E+02  0.18835597173E+03  0.67571318143E+02  0.23760252254E+03  0.12499355861E+03 0.  0.
          2    1    1    2  501    0 -0.10248211810E+02 -0.20677240499E+03 -0.34940942161E+03  0.40613642686E+03  0.00000000000E+00 0. -1.
          1    1    1    2  502    0 -0.17818029492E+02  0.18416433258E+02  0.11333475789E+04  0.11336372355E+04  0.00000000000E+00 0. -1.
         22    1    3    3    0    0  0.27686453897E+02  0.19656555693E+03  0.86828444690E+02  0.21666503342E+03  0.00000000000E+00 0. -1.
         22    1    3    3    0    0  0.37978740503E+00 -0.82095851988E+01 -0.19257126548E+02  0.20937489116E+02  0.00000000000E+00 0. -1.
</event>
<event>
 7    1  0.5789396E-006  0.1352448E+03  0.7818608E-02  0.1356277E+00
          2   -1    0    0  502    0  0.00000000000E+00  0.00000000000E+00  0.25387928158E+03  0.25387928158E+03  0.00000000000E+00 0. -1.
          1   -1    0    0  501    0 -0.00000000000E+00 -0.00000000000E+00 -0.15732793433E+04  0.15732793433E+04  0.00000000000E+00 0. -1.
         25    2    1    2    0    0  0.13517207209E+03 -0.10435710407E+03 -0.10376115970E+04  0.10589733725E+04  0.12499953231E+03 0.  0.
          2    1    1    2  501    0 -0.23601997534E+02  0.29030854190E+02 -0.50561380866E+03  0.50699622118E+03  0.00000000000E+00 0. -1.
          1    1    1    2  502    0 -0.11157007455E+03  0.75326249882E+02  0.22382534394E+03  0.26118903125E+03  0.00000000000E+00 0. -1.
         22    1    3    3    0    0  0.11159155439E+02 -0.11643907173E+02 -0.47978218228E+03  0.48005317389E+03  0.00000000000E+00 0.  1.
         22    1    3    3    0    0  0.12401291665E+03 -0.92713196900E+02 -0.55782941473E+03  0.57892019857E+03  0.00000000000E+00 0.  1.
</event>
<event>
 7    1  0.5789396E-006  0.5467711E+02  0.7818608E-02  0.1494838E+00
          2   -1    0    0  502    0  0.00000000000E+00  0.00000000000E+00  0.34185685090E+03  0.34185685090E+03  0.00000000000E+00 0. -1.
          1   -1    0    0  501    0 -0.00000000000E+00 -0.00000000000E+00 -0.31376400054E+03  0.31376400054E+03  0.00000000000E+00 0. -1.
         25    2    1    2    0    0 -0.32481358794E+02  0.42708806096E+02 -0.13076282730E+03  0.18868697072E+03  0.12499910051E+03 0.  0.
          2    1    1    2  501    0  0.29721597429E+02  0.12053998410E+02 -0.14992768561E+03  0.15331987198E+03  0.00000000000E+00 0. -1.
          1    1    1    2  502    0  0.27597613653E+01 -0.54762804506E+02  0.30878336328E+03  0.31361400874E+03  0.00000000000E+00 0. -1.
         22    1    3    3    0    0 -0.38449659635E+02  0.84258484152E+02 -0.76775285561E+02  0.12030092664E+03  0.00000000000E+00 0. -1.
         22    1    3    3    0    0  0.59683008415E+01 -0.41549678056E+02 -0.53987541737E+02  0.68386044076E+02  0.00000000000E+00 0. -1.
</event>
<event>
 7    1  0.5789396E-006  0.7827755E+02  0.7818608E-02  0.1396069E+00
          2   -1    0    0  502    0  0.00000000000E+00  0.00000000000E+00  0.93216370898E+03  0.93216370898E+03  0.00000000000E+00 0. -1.
          1   -1    0    0  501    0 -0.00000000000E+00 -0.00000000000E+00 -0.51154420869E+02  0.51154420869E+02  0.00000000000E+00 0. -1.
         25    2    1    2    0    0  0.75295258377E+02  0.86600428094E+02  0.54907765045E+03  0.57470045352E+03  0.12500133989E+03 0.  0.
          2    1    1    2  501    0 -0.35136810373E+02 -0.30670051234E+02 -0.19465241147E+02  0.50538530834E+02  0.00000000000E+00 0. -1.
          1    1    1    2  502    0 -0.40158448004E+02 -0.55930376859E+02  0.35139687881E+03  0.35807914549E+03  0.00000000000E+00 0. -1.
         22    1    3    3    0    0  0.67514730244E+01  0.99501958346E+02  0.33708227930E+03  0.35152622252E+03  0.00000000000E+00 0.  1.
         22    1    3    3    0    0  0.68543785353E+02 -0.12901530253E+02  0.21199537115E+03  0.22317423100E+03  0.00000000000E+00 0.  1.
</event>
<event>
 7    1  0.5789396E-006  0.6296078E+02  0.7818608E-02  0.1423243E+00
          2   -1    0    0  502    0  0.00000000000E+00  0.00000000000E+00  0.54936722565E+02  0.54936722565E+02  0.00000000000E+00 0. -1.
          1   -1    0    0  501    0 -0.00000000000E+00 -0.00000000000E+00 -0.12829198785E+04  0.12829198785E+04  0.00000000000E+00 0. -1.
         25    2    1    2    0    0  0.31214244243E+02  0.59232614053E+02 -0.52909070959E+02  0.15135428456E+03  0.12500367216E+03 0.  0.
          2    1    1    2  501    0  0.15643375960E+02 -0.61241892981E+02 -0.10647291709E+04  0.10666037183E+04  0.00000000000E+00 0. -1.
          1    1    1    2  502    0 -0.46857620203E+02  0.20092789287E+01 -0.11034491406E+03  0.11989859812E+03  0.00000000000E+00 0. -1.
         22    1    3    3    0    0 -0.18956546731E+02 -0.30981289718E+02 -0.26032676928E+02  0.44686589091E+02  0.00000000000E+00 0.  1.
         22    1    3    3    0    0  0.50170790974E+02  0.90213903771E+02 -0.26876394031E+02  0.10666769547E+03  0.00000000000E+00 0.  1.
</event>
<event>
 7    1  0.5789396E-006  0.6344304E+02  0.7818608E-02  0.1473181E+00
          2   -1    0    0  502    0  0.00000000000E+00  0.00000000000E+00  0.14032349585E+04  0.14032349585E+04  0.00000000000E+00 0. -1.
          1   -1    0    0  501    0 -0.00000000000E+00 -0.00000000000E+00 -0.40550520483E+03  0.40550520483E+03  0.00000000000E+00 0. -1.
         25    2    1    2    0    0 -0.28062405090E+02  0.23423927284E+02  0.23418019980E+03  0.26795862823E+03  0.12500112606E+03 0.  0.
          2    1    1    2  501    0  0.60160493030E+02 -0.21081437820E+02 -0.38577499713E+03  0.39100647099E+03  0.00000000000E+00 0. -1.
          1    1    1    2  502    0 -0.32098087940E+02 -0.23424894636E+01  0.11493245510E+04  0.11497750641E+04  0.00000000000E+00 0. -1.
         22    1    3    3    0    0 -0.20380894060E+02 -0.43601449054E+02  0.16269817026E+03  0.16966779838E+03  0.00000000000E+00 0.  1.
         22    1    3    3    0    0 -0.76815110296E+01  0.67025376338E+02  0.71482029535E+02  0.98290829843E+02  0.00000000000E+00 0.  1.
</event>
<event>
 7    1  0.5789396E-006  0.6050532E+02  0.7818608E-02  0.1409229E+00
          2   -1    0    0  502    0  0.00000000000E+00  0.00000000000E+00  0.15127143252E+04  0.15127143252E+04  0.00000000000E+00 0. -1.
          1   -1    0    0  501    0 -0.00000000000E+00 -0.00000000000E+00 -0.16700712264E+03  0.16700712264E+03  0.00000000000E+00 0. -1.
         25    2    1    2    0    0 -0.47279644660E+02  0.34280510383E+02  0.95296126688E+02  0.16768074463E+03  0.12499984867E+03 0.  0.
          2    1    1    2  501    0  0.47380134282E+02  0.26709709648E+02 -0.12445580473E+03  0.13582169578E+03  0.00000000000E+00 0. -1.
          1    1    1    2  502    0 -0.10048962189E+00 -0.60990220031E+02  0.13748668806E+04  0.13762190074E+04  0.00000000000E+00 0. -1.
         22    1    3    3    0    0 -0.17663613891E+02 -0.43032852500E+02  0.64114582728E+02  0.79211800689E+02  0.00000000000E+00 0.  1.
         22    1    3    3    0    0 -0.29616030769E+02  0.77313362883E+02  0.31181543960E+02  0.88468943944E+02  0.00000000000E+00 0.  1.
</event>
<event>
 7    1  0.5789396E-006  0.1146443E+03  0.7818608E-02  0.1305849E+00
          2   -1    0    0  502    0  0.00000000000E+00  0.00000000000E+00  0.11953232592E+03  0.11953232592E+03  0.00000000000E+00 0. -1.
          1   -1    0    0  501    0 -0.00000000000E+00 -0.00000000000E+00 -0.18177599906E+04  0.18177599906E+04  0.00000000000E+00 0. -1.
         25    2    1    2    0    0 -0.65064620039E+02  0.23280660915E+02 -0.43844791874E+03  0.46111112778E+03  0.12494599138E+03 0.  0.
          2    1    1    2  501    0 -0.10860142078E+02  0.67877419647E+02 -0.13343084981E+04  0.13360780122E+04  0.00000000000E+00 0. -1.
          1    1    1    2  502    0  0.75924762117E+02 -0.91158080563E+02  0.74528752166E+02  0.14010317646E+03  0.00000000000E+00 0. -1.
         22    1    3    3    0    0 -0.73399663966E+02 -0.36717394916E+02 -0.24220619189E+03  0.25573329300E+03  0.00000000000E+00 0. -1.
         22    1    3    3    0    0  0.83350439265E+01  0.59998055832E+02 -0.19624172685E+03  0.20537783478E+03  0.00000000000E+00 0. -1.
</event>
<event>
 7    1  0.5789396E-006  0.3622784E+02  0.7818608E-02  0.1546500E+00
          2   -1    0    0  502    0  0.00000000000E+00  0.00000000000E+00  0.39961646688E+03  0.39961646688E+03  0.00000000000E+00 0. -1.
          1   -1    0    0  501    0 -0.00000000000E+00 -0.00000000000E+00 -0.26436797713E+04  0.26436797713E+04  0.00000000000E+00 0. -1.
         25    2    1    2    0    0  0.12698480372E+02 -0.69390250807E+01 -0.13675353719E+03  0.18580603122E+03  0.12495179003E+03 0.  0.
          2    1    1    2  501    0  0.55066092052E+01  0.35979078888E+02 -0.24814832670E+04  0.24817501932E+04  0.00000000000E+00 0. -1.
          1    1    1    2  502    0 -0.18205089577E+02 -0.29040053807E+02  0.37417349978E+03  0.37574001377E+03  0.00000000000E+00 0. -1.
         22    1    3    3    0    0  0.73133832305E+01 -0.64334170559E+02 -0.50740354135E+02  0.82261501406E+02  0.00000000000E+00 0. -1.
         22    1    3    3    0    0  0.53850971412E+01  0.57395145479E+02 -0.86013183054E+02  0.10354452982E+03  0.00000000000E+00 0. -1.
</event>
<event>
 7    1  0.5789396E-006  0.1080919E+03  0.7818608E-02  0.1319871E+00
          2   -1    0    0  502    0  0.00000000000E+00  0.00000000000E+00  0.68635119619E+03  0.68635119619E+03  0.00000000000E+00 0. -1.
          1   -1    0    0  501    0 -0.00000000000E+00 -0.00000000000E+00 -0.84450381495E+03  0.84450381495E+03  0.00000000000E+00 0. -1.
         25    2    1    2    0    0 -0.11935758146E+03  0.11852329318E+03  0.18814635426E+02  0.21041298358E+03  0.12500251947E+03 0.  0.
          2    1    1    2  501    0  0.51706737601E+02 -0.38109410367E+02 -0.74247753656E+03  0.74525083439E+03  0.00000000000E+00 0. -1.
          1    1    1    2  502    0  0.67650843861E+02 -0.80413882811E+02  0.56551028237E+03  0.57519119316E+03  0.00000000000E+00 0. -1.
         22    1    3    3    0    0 -0.10653176569E+03  0.14113429638E+03  0.34344892386E+02  0.18013183602E+03  0.00000000000E+00 0.  1.
         22    1    3    3    0    0 -0.12825815768E+02 -0.22611003203E+02 -0.15530256960E+02  0.30281147555E+02  0.00000000000E+00 0.  1.
</event>
<event>
 7    1  0.5789396E-006  0.5979699E+02  0.7818608E-02  0.1449370E+00
          2   -1    0    0  502    0  0.00000000000E+00  0.00000000000E+00  0.11386778824E+04  0.11386778824E+04  0.00000000000E+00 0. -1.
          1   -1    0    0  501    0 -0.00000000000E+00 -0.00000000000E+00 -0.11375617838E+03  0.11375617838E+03  0.00000000000E+00 0. -1.
         25    2    1    2    0    0 -0.86826576967E+02  0.42538184297E+02  0.12297539713E+03  0.20023475730E+03  0.12499063220E+03 0.  0.
          2    1    1    2  501    0  0.29770622496E+02 -0.27577844008E+02 -0.68684930563E+02  0.79777485110E+02  0.00000000000E+00 0. -1.
          1    1    1    2  502    0  0.57055954471E+02 -0.14960340289E+02  0.97063123746E+03  0.97242181838E+03  0.00000000000E+00 0. -1.
         22    1    3    3    0    0 -0.75306684881E+02 -0.18822492297E+02  0.11287609756E+03  0.13699049750E+03  0.00000000000E+00 0.  1.
         22    1    3    3    0    0 -0.11519892085E+02  0.61360676594E+02  0.10099299574E+02  0.63244259800E+02  0.00000000000E+00 0.  1.
</event>
<event>
 7    1  0.5789396E-006  0.2101514E+03  0.7818608E-02  0.1238728E+00
          2   -1    0    0  502    0  0.00000000000E+00  0.00000000000E+00  0.41051103986E+04  0.41051103986E+04  0.00000000000E+00 0. -1.
          1   -1    0    0  501    0 -0.00000000000E+00 -0.00000000000E+00 -0.21028464756E+03  0.21028464756E+03  0.00000000000E+00 0. -1.
         25    2    1    2    0    0 -0.22653771158E+03 -0.10426945621E+03  0.12143440051E+04  0.12459727002E+04  0.12500061062E+03 0.  0.
          2    1    1    2  501    0  0.20563553028E+03  0.35761372569E+02 -0.13787945885E+03  0.25015113882E+03  0.00000000000E+00 0. -1.
          1    1    1    2  502    0  0.20902181297E+02  0.68508083639E+02  0.28183612048E+04  0.28192712071E+04  0.00000000000E+00 0. -1.
         22    1    3    3    0    0 -0.12548729522E+03 -0.55795731657E+02  0.37842329489E+03  0.40257224824E+03  0.00000000000E+00 0. -1.
         22    1    3    3    0    0 -0.10105041636E+03 -0.48473724551E+02  0.83592071019E+03  0.84340045195E+03  0.00000000000E+00 0. -1.
</event>
<event>
 7    1  0.5789396E-006  0.5725219E+02  0.7818608E-02  0.1431880E+00
          2   -1    0    0  502    0  0.00000000000E+00  0.00000000000E+00  0.69102956626E+03  0.69102956626E+03  0.00000000000E+00 0. -1.
          1   -1    0    0  501    0 -0.00000000000E+00 -0.00000000000E+00 -0.28957456793E+03  0.28957456793E+03  0.00000000000E+00 0. -1.
         25    2    1    2    0    0 -0.43021037850E+02  0.39177516621E+02  0.16636059835E+03  0.21607087686E+03  0.12500035055E+03 0.  0.
          2    1    1    2  501    0 -0.15084855439E+02 -0.45881312917E+02 -0.26078320697E+03  0.26521788925E+03  0.00000000000E+00 0. -1.
          1    1    1    2  502    0  0.58105893289E+02  0.67037962964E+01  0.49587760696E+03  0.49931536808E+03  0.00000000000E+00 0. -1.
         22    1    3    3    0    0 -0.80274246870E+02 -0.45865156308E+01  0.96460525764E+02  0.12557716300E+03  0.00000000000E+00 0. -1.
         22    1    3    3    0    0  0.37253209020E+02  0.43764032252E+02  0.69900072585E+02  0.90493713862E+02  0.00000000000E+00 0. -1.
</event>
<event>
 7    1  0.5789396E-006  0.1024474E+03  0.7818608E-02  0.1464145E+00
          2   -1    0    0  502    0  0.00000000000E+00  0.00000000000E+00  0.20094400860E+04  0.20094400860E+04  0.00000000000E+00 0. -1.
          1   -1    0    0  501    0 -0.00000000000E+00 -0.00000000000E+00 -0.17264513665E+04  0.17264513665E+04  0.00000000000E+00 0. -1.
         25    2    1    2    0    0  0.11683993935E+03  0.37866941338E+02  0.93599237043E+03  0.95225668279E+03  0.12500238293E+03 0.  0.
          2    1    1    2  501    0 -0.95605339344E+02 -0.36720560664E+02 -0.17166868163E+04  0.17197390516E+04  0.00000000000E+00 0. -1.
          1    1    1    2  502    0 -0.21234600004E+02 -0.11463806739E+01  0.10636831654E+04  0.10638957180E+04  0.00000000000E+00 0. -1.
         22    1    3    3    0    0  0.25119052664E+02 -0.27898717730E+02  0.74714569076E+02  0.83615621088E+02  0.00000000000E+00 0.  1.
         22    1    3    3    0    0  0.91720886684E+02  0.65765659068E+02  0.86127780136E+03  0.86864106170E+03  0.00000000000E+00 0.  1.
</event>
<event>
 7    1  0.5789396E-006  0.1968157E+03  0.7818608E-02  0.1274718E+00
          2   -1    0    0  502    0  0.00000000000E+00  0.00000000000E+00  0.37398905607E+03  0.37398905607E+03  0.00000000000E+00 0. -1.
          1   -1    0    0  501    0 -0.00000000000E+00 -0.00000000000E+00 -0.16448705350E+04  0.16448705350E+04  0.00000000000E+00 0. -1.
         25    2    1    2    0    0  0.13168866354E+03 -0.17365653421E+03 -0.37506227234E+03  0.45143668860E+03  0.12499951880E+03 0.  0.
          2    1    1    2  501    0 -0.78206704487E+02  0.17705855322E+03 -0.12218147792E+04  0.12370518883E+04  0.00000000000E+00 0. -1.
          1    1    1    2  502    0 -0.53481959049E+02 -0.34020190052E+01  0.32599557254E+03  0.33037101415E+03  0.00000000000E+00 0. -1.
         22    1    3    3    0    0  0.64384631544E+02 -0.31079658846E+02 -0.41939073349E+02  0.82886741077E+02  0.00000000000E+00 0.  1.
         22    1    3    3    0    0  0.67304031992E+02 -0.14257687537E+03 -0.33312319899E+03  0.36854994752E+03  0.00000000000E+00 0.  1.
</event>
<event>
 7    1  0.7256545E-006  0.9209978E+02  0.7818608E-02  0.1342500E+00
          2   -1    0    0  502    0  0.00000000000E+00  0.00000000000E+00  0.15074700300E+04  0.15074700300E+04  0.00000000000E+00 0. -1.
          1   -1    0    0  501    0 -0.00000000000E+00 -0.00000000000E+00 -0.90944402406E+03  0.90944402406E+03  0.00000000000E+00 0. -1.
         25    2    1    2    0    0 -0.46930078031E+02 -0.59180200685E+02 -0.65437069136E+03  0.67046972181E+03  0.12499567105E+03 0.  0.
          2    1    1    2  501    0 -0.43902327368E+02  0.43496761297E+02 -0.24171575234E+03  0.24949125740E+03  0.00000000000E+00 0. -1.
          1    1    1    2  502    0  0.90832405399E+02  0.15683439388E+02  0.14941124497E+04  0.14969530749E+04  0.00000000000E+00 0. -1.
         22    1    3    3    0    0 -0.88356764685E+02 -0.38811906641E+02 -0.37010260903E+03  0.38247774206E+03  0.00000000000E+00 0. -1.
         22    1    3    3    0    0  0.41426686654E+02 -0.20368294045E+02 -0.28426808233E+03  0.28799197975E+03  0.00000000000E+00 0. -1.
</event>
<event>
 7    1  0.5789396E-006  0.1196443E+03  0.7818608E-02  0.1315906E+00
          2   -1    0    0  502    0  0.00000000000E+00  0.00000000000E+00  0.58938806290E+03  0.58938806290E+03  0.00000000000E+00 0. -1.
          1   -1    0    0  501    0 -0.00000000000E+00 -0.00000000000E+00 -0.81474748802E+02  0.81474748802E+02  0.00000000000E+00 0. -1.
         25    2    1    2    0    0 -0.52801914479E+02 -0.87214605593E+02  0.13162813226E+03  0.20819579433E+03  0.12500037589E+03 0.  0.
          2    1    1    2  501    0  0.15962346118E+02  0.13473874673E+03  0.74178528931E+02  0.15463434456E+03  0.00000000000E+00 0. -1.
          1    1    1    2  502    0  0.36839568361E+02 -0.47524141137E+02  0.30210665291E+03  0.30803267281E+03  0.00000000000E+00 0. -1.
         22    1    3    3    0    0  0.78843494174E+01 -0.65370631766E+02  0.12758203109E+03  0.14357108734E+03  0.00000000000E+00 0. -1.
         22    1    3    3    0    0 -0.60686263897E+02 -0.21843973827E+02  0.40461011671E+01  0.64624706985E+02  0.00000000000E+00 0. -1.
</event>
<event>
 7    1  0.5789396E-006  0.4059420E+02  0.7818608E-02  0.1555236E+00
          2   -1    0    0  502    0  0.00000000000E+00  0.00000000000E+00  0.36741844529E+02  0.36741844529E+02  0.00000000000E+00 0. -1.
          1   -1    0    0  501    0 -0.00000000000E+00 -0.00000000000E+00 -0.87466754529E+03  0.87466754529E+03  0.00000000000E+00 0. -1.
         25    2    1    2    0    0  0.19591396484E+02 -0.59539089671E+02 -0.20031103879E+03  0.24429245762E+03  0.12500226628E+03 0.  0.
          2    1    1    2  501    0  0.17622051056E+01  0.40034441460E+02 -0.63692870182E+03  0.63818808597E+03  0.00000000000E+00 0. -1.
          1    1    1    2  502    0 -0.21353601590E+02  0.19504648211E+02 -0.68596014880E+00  0.28928846227E+02  0.00000000000E+00 0. -1.
         22    1    3    3    0    0  0.61483378037E+02  0.11722819423E+01 -0.60770709295E+02  0.86456110993E+02  0.00000000000E+00 0. -1.
         22    1    3    3    0    0 -0.41891981553E+02 -0.60711371613E+02 -0.13954032949E+03  0.15783634663E+03  0.00000000000E+00 0. -1.
</event>
<event>
 7    1  0.5789396E-006  0.7865710E+02  0.7818608E-02  0.1395391E+00
          2   -1    0    0  502    0  0.00000000000E+00  0.00000000000E+00  0.20041501733E+04  0.20041501733E+04  0.00000000000E+00 0. -1.
          1   -1    0    0  501    0 -0.00000000000E+00 -0.00000000000E+00 -0.42595364115E+02  0.42595364115E+02  0.00000000000E+00 0. -1.
         25    2    1    2    0    0  0.63723144512E+02  0.86798876244E+02  0.49892786221E+03  0.52549756080E+03  0.12499596252E+03 0.  0.
          2    1    1    2  501    0 -0.65089698565E+02 -0.40153107214E+02  0.21606189006E+02  0.79471808093E+02  0.00000000000E+00 0. -1.
          1    1    1    2  502    0  0.13665540532E+01 -0.46645769030E+02  0.14410207580E+04  0.14417761685E+04  0.00000000000E+00 0. -1.
         22    1    3    3    0    0  0.38075154757E+02  0.50989554588E+02  0.46645154760E+03  0.47077244858E+03  0.00000000000E+00 0. -1.
         22    1    3    3    0    0  0.25647989755E+02  0.35809321656E+02  0.32476314614E+02  0.54725112214E+02  0.00000000000E+00 0. -1.
</event>
<event>
 7    1  0.5789396E-006  0.1337132E+03  0.7818608E-02  0.1401072E+00
          2   -1    0    0  502    0  0.00000000000E+00  0.00000000000E+00  0.13781631867E+04  0.13781631867E+04  0.00000000000E+00 0. -1.
          1   -1    0    0  501    0 -0.00000000000E+00 -0.00000000000E+00 -0.24259847069E+04  0.24259847069E+04  0.00000000000E+00 0. -1.
         25    2    1    2    0    0 -0.19331468035E+02 -0.12376415029E+03 -0.90061841141E+03  0.91784030343E+03  0.12500411627E+03 0.  0.
          2    1    1    2  501    0 -0.31705398375E+01  0.13726368851E+03 -0.15135219242E+04  0.15197368152E+04  0.00000000000E+00 0. -1.
          1    1    1    2  502    0  0.22502007872E+02 -0.13499538218E+02  0.13663188154E+04  0.13665707750E+04  0.00000000000E+00 0. -1.
         22    1    3    3    0    0  0.52754011405E+02 -0.41032058080E+02 -0.37143288966E+03  0.37739767756E+03  0.00000000000E+00 0. -1.
         22    1    3    3    0    0 -0.72085479439E+02 -0.82732092212E+02 -0.52918552175E+03  0.54044262587E+03  0.00000000000E+00 0. -1.
</event>
<event>
 7    1  0.5789396E-006  0.9792765E+02  0.7818608E-02  0.1397891E+00
          2   -1    0    0  502    0  0.00000000000E+00  0.00000000000E+00  0.30642681139E+03  0.30642681139E+03  0.00000000000E+00 0. -1.
          1   -1    0    0  501    0 -0.00000000000E+00 -0.00000000000E+00 -0.28782007857E+03  0.28782007857E+03  0.00000000000E+00 0. -1.
         25    2    1    2    0    0  0.72593619615E+01 -0.68176558176E+02  0.26818865455E+02  0.14509069759E+03  0.12502526769E+03 0.  0.
          2    1    1    2  501    0  0.78336876135E+01  0.10167814888E+03 -0.21561927043E+03  0.23851935435E+03  0.00000000000E+00 0. -1.
          1    1    1    2  502    0 -0.15093049575E+02 -0.33501590700E+02  0.20740713779E+03  0.21063683802E+03  0.00000000000E+00 0. -1.
         22    1    3    3    0    0 -0.20911829926E+02 -0.75004060235E+02  0.61980464215E+02  0.99521312425E+02  0.00000000000E+00 0. -1.
         22    1    3    3    0    0  0.28171191887E+02  0.68275020596E+01 -0.35161598760E+02  0.45569385162E+02  0.00000000000E+00 0. -1.
</event>
<event>
 7    1  0.5789396E-006  0.1780384E+03  0.7818608E-02  0.1233655E+00
          2   -1    0    0  502    0  0.00000000000E+00  0.00000000000E+00  0.93452614172E+03  0.93452614172E+03  0.00000000000E+00 0. -1.
          1   -1    0    0  501    0 -0.00000000000E+00 -0.00000000000E+00 -0.49600951487E+03  0.49600951487E+03  0.00000000000E+00 0. -1.
         25    2    1    2    0    0 -0.31345475837E+02 -0.13313161192E+03  0.14016886430E+03  0.23233453884E+03  0.12500184986E+03 0.  0.
          2    1    1    2  501    0  0.12020154370E+03  0.13890315741E+03 -0.42834635875E+03  0.46607199154E+03  0.00000000000E+00 0. -1.
          1    1    1    2  502    0 -0.88856067864E+02 -0.57715454862E+01  0.72669412129E+03  0.73212912622E+03  0.00000000000E+00 0. -1.
         22    1    3    3    0    0 -0.62231193398E+02 -0.13614926054E+03  0.13353318779E+03  0.20060023633E+03  0.00000000000E+00 0. -1.
         22    1    3    3    0    0  0.30885717562E+02  0.30176486148E+01  0.66356765165E+01  0.31734302502E+02  0.00000000000E+00 0. -1.
</event>
<event>
 7    1  0.5789396E-006  0.5792776E+02  0.7818608E-02  0.1511605E+00
          2   -1    0    0  502    0  0.00000000000E+00  0.00000000000E+00  0.73985841477E+03  0.73985841477E+03  0.00000000000E+00 0. -1.
          1   -1    0    0  501    0 -0.00000000000E+00 -0.00000000000E+00 -0.29242979694E+03  0.29242979694E+03  0.00000000000E+00 0. -1.
         25    2    1    2    0    0  0.71602951649E+01  0.40094707564E+02  0.37106089563E+03  0.39366184476E+03  0.12499841742E+03 0.  0.
          2    1    1    2  501    0 -0.15899256771E+02  0.21813112791E+02 -0.27773646320E+03  0.27904505236E+03  0.00000000000E+00 0. -1.
          1    1    1    2  502    0  0.87389616060E+01 -0.61907820354E+02  0.35410418542E+03  0.35958131459E+03  0.00000000000E+00 0. -1.
         22    1    3    3    0    0 -0.58741289287E+02  0.21218893510E+02  0.16054649091E+03  0.17226710729E+03  0.00000000000E+00 0.  1.
         22    1    3    3    0    0  0.65901584452E+02  0.18875814054E+02  0.21051440472E+03  0.22139473748E+03  0.00000000000E+00 0.  1.
</event>
<event>
 7    1  0.5789396E-006  0.6750311E+02  0.7818608E-02  0.1402556E+00
          2   -1    0    0  502    0  0.00000000000E+00  0.00000000000E+00  0.10979309303E+04  0.10979309303E+04  0.00000000000E+00 0. -1.
          1   -1    0    0  501    0 -0.00000000000E+00 -0.00000000000E+00 -0.30262609551E+03  0.30262609551E+03  0.00000000000E+00 0. -1.
         25    2    1    2    0    0 -0.16399178239E+02 -0.10382477827E+03  0.62965432954E+03  0.65049028822E+03  0.12499809087E+03 0.  0.
          2    1    1    2  501    0 -0.17317036812E+02  0.65063299525E+02 -0.28685695482E+03  0.29465238033E+03  0.00000000000E+00 0. -1.
          1    1    1    2  502    0  0.33716215050E+02  0.38761478747E+02  0.45250746004E+03  0.45541435724E+03  0.00000000000E+00 0. -1.
         22    1    3    3    0    0  0.14821283412E+01 -0.11558080267E+03  0.61179058175E+03  0.62261451523E+03  0.00000000000E+00 0. -1.
         22    1    3    3    0    0 -0.17881306580E+02  0.11756024399E+02  0.17863747791E+02  0.27875772990E+02  0.00000000000E+00 0. -1.
</event>
<event>
 7    1  0.5789396E-006  0.5887413E+02  0.7818608E-02  0.1469873E+00
          2   -1    0    0  502    0  0.00000000000E+00  0.00000000000E+00  0.10834835064E+03  0.10834835064E+03  0.00000000000E+00 0. -1.
          1   -1    0    0  501    0 -0.00000000000E+00 -0.00000000000E+00 -0.69659923213E+03  0.69659923213E+03  0.00000000000E+00 0. -1.
         25    2    1    2    0    0  0.43432255762E+02  0.35735281091E+02 -0.11477468019E+03  0.17877883173E+03  0.12500108922E+03 0.  0.
          2    1    1    2  501    0  0.16293083462E+02 -0.31552488689E+02 -0.53740769612E+03  0.53857966538E+03  0.00000000000E+00 0. -1.
          1    1    1    2  502    0 -0.59725339224E+02 -0.41827924019E+01  0.63931494816E+02  0.87589085662E+02  0.00000000000E+00 0. -1.
         22    1    3    3    0    0  0.82211247206E+02  0.43311770367E+02 -0.10022350785E+03  0.13667241911E+03  0.00000000000E+00 0.  1.
         22    1    3    3    0    0 -0.38778991444E+02 -0.75764892761E+01 -0.14551172343E+02  0.42106412620E+02  0.00000000000E+00 0.  1.
</event>
<event>
 7    1  0.5789396E-006  0.4560572E+02  0.7818608E-02  0.1576852E+00
          2   -1    0    0  502    0  0.00000000000E+00  0.00000000000E+00  0.52139410086E+02  0.52139410086E+02  0.00000000000E+00 0. -1.
          1   -1    0    0  501    0 -0.00000000000E+00 -0.00000000000E+00 -0.37441712548E+03  0.37441712548E+03  0.00000000000E+00 0. -1.
         25    2    1    2    0    0  0.22771653848E+02 -0.12310081490E+02 -0.14157609065E+03  0.19062673157E+03  0.12499870007E+03 0.  0.
          2    1    1    2  501    0  0.17605106215E+02 -0.13964405003E+02 -0.18610325965E+03  0.18745497493E+03  0.00000000000E+00 0. -1.
          1    1    1    2  502    0 -0.40376760063E+02  0.26274486493E+02  0.54016349093E+01  0.48474829070E+02  0.00000000000E+00 0. -1.
         22    1    3    3    0    0 -0.23836339557E+02  0.11092835492E+02 -0.13560758602E+03  0.13813268791E+03  0.00000000000E+00 0.  1.
         22    1    3    3    0    0  0.46607993405E+02 -0.23402916981E+02 -0.59685046334E+01  0.52494043662E+02  0.00000000000E+00 0.  1.
</event>
<event>
 7    1  0.8714559E-006  0.4573559E+02  0.7818608E-02  0.1478848E+00
          2   -1    0    0  502    0  0.00000000000E+00  0.00000000000E+00  0.17056483915E+04  0.17056483915E+04  0.00000000000E+00 0. -1.
          1   -1    0    0  501    0 -0.00000000000E+00 -0.00000000000E+00 -0.27099525763E+04  0.27099525763E+04  0.00000000000E+00 0. -1.
         25    2    1    2    0    0 -0.45760369657E+02 -0.62858434250E+02 -0.60764196391E+03  0.62521916818E+03  0.12500023111E+03 0.  0.
          2    1    1    2  501    0  0.39094161989E+02  0.17622949280E+02 -0.20929943184E+04  0.20934335764E+04  0.00000000000E+00 0. -1.
          1    1    1    2  502    0  0.66662076683E+01  0.45235484970E+02  0.16963320974E+04  0.16969482232E+04  0.00000000000E+00 0. -1.
         22    1    3    3    0    0  0.19280724792E+02 -0.76722993826E+02 -0.28379960402E+03  0.29461904109E+03  0.00000000000E+00 0.  1.
         22    1    3    3    0    0 -0.65041094448E+02  0.13864559577E+02 -0.32384235989E+03  0.33060012710E+03  0.00000000000E+00 0.  1.
</event>
<event>
 7    1  0.5789396E-006  0.1133653E+03  0.7818608E-02  0.1299123E+00
          2   -1    0    0  502    0  0.00000000000E+00  0.00000000000E+00  0.91252374206E+03  0.91252374206E+03  0.00000000000E+00 0. -1.
          1   -1    0    0  501    0 -0.00000000000E+00 -0.00000000000E+00 -0.19024278578E+03  0.19024278578E+03  0.00000000000E+00 0. -1.
         25    2    1    2    0    0  0.15404085146E+03 -0.59645274960E+02  0.21569676956E+03  0.29906018049E+03  0.12500300961E+03 0.  0.
          2    1    1    2  501    0 -0.81481243541E+02  0.73892566292E+02 -0.12574617712E+03  0.16706706875E+03  0.00000000000E+00 0. -1.
          1    1    1    2  502    0 -0.72559607920E+02 -0.14247291332E+02  0.63233036384E+03  0.63663927859E+03  0.00000000000E+00 0. -1.
         22    1    3    3    0    0  0.27072717867E+02 -0.44493469275E+02  0.46383767029E+01  0.52288769342E+02  0.00000000000E+00 0.  1.
         22    1    3    3    0    0  0.12696813359E+03 -0.15151805684E+02  0.21105839286E+03  0.24677141115E+03  0.00000000000E+00 0.  1.
</event>
<event>
 7    1  0.5789396E-006  0.5767094E+02  0.7818608E-02  0.1517996E+00
          2   -1    0    0  502    0  0.00000000000E+00  0.00000000000E+00  0.62163161011E+02  0.62163161011E+02  0.00000000000E+00 0. -1.
          1   -1    0    0  501    0 -0.00000000000E+00 -0.00000000000E+00 -0.67013349229E+03  0.67013349229E+03  0.00000000000E+00 0. -1.
         25    2    1    2    0    0 -0.22562693860E+02  0.31250454899E+02 -0.27972668102E+03  0.30879721250E+03  0.12499214492E+03 0.  0.
          2    1    1    2  501    0 -0.25852800669E+02  0.24704629925E+01 -0.35694427269E+03  0.35788780965E+03  0.00000000000E+00 0. -1.
          1    1    1    2  502    0  0.48415494529E+02 -0.33720917891E+02  0.28700622428E+02  0.65611631147E+02  0.00000000000E+00 0. -1.
         22    1    3    3    0    0  0.39837194674E+01 -0.15417713041E+02 -0.24351878577E+03  0.24403887993E+03  0.00000000000E+00 0. -1.
         22    1    3    3    0    0 -0.26546413328E+02  0.46668167940E+02 -0.36207895250E+02  0.64758332574E+02  0.00000000000E+00 0. -1.
</event>
<event>
 7    1  0.1180532E-005  0.1446208E+03  0.7818608E-02  0.1227694E+00
          2   -1    0    0  502    0  0.00000000000E+00  0.00000000000E+00  0.14068197959E+04  0.14068197959E+04  0.00000000000E+00 0. -1.
          1   -1    0    0  501    0 -0.00000000000E+00 -0.00000000000E+00 -0.16903899794E+04  0.16903899794E+04  0.00000000000E+00 0. -1.
         25    2    1    2    0    0  0.49677746431E+02  0.42156243591E+02 -0.35199190611E+03  0.37916740218E+03  0.12499835818E+03 0.  0.
          2    1    1    2  501    0 -0.12342602329E+03 -0.13243103858E+03 -0.13161654274E+04  0.13285568845E+04  0.00000000000E+00 0. -1.
          1    1    1    2  502    0  0.73748276864E+02  0.90274794984E+02  0.13845871500E+04  0.13894854885E+04  0.00000000000E+00 0. -1.
         22    1    3    3    0    0 -0.42046903926E+02  0.66602481904E+01 -0.11025526863E+03  0.11818851593E+03  0.00000000000E+00 0. -1.
         22    1    3    3    0    0  0.91724650357E+02  0.35495995401E+02 -0.24173663747E+03  0.26097888625E+03  0.00000000000E+00 0. -1.
</event>
<event>
 7    1  0.5789396E-006  0.1071296E+03  0.7818608E-02  0.1402118E+00
          2   -1    0    0  502    0  0.00000000000E+00  0.00000000000E+00  0.37126983105E+02  0.37126983105E+02  0.00000000000E+00 0. -1.
          1   -1    0    0  501    0 -0.00000000000E+00 -0.00000000000E+00 -0.18802391296E+04  0.18802391296E+04  0.00000000000E+00 0. -1.
         25    2    1    2    0    0 -0.55303880574E+02 -0.61669357833E+02 -0.49156442783E+03  0.51392859239E+03  0.12500152985E+03 0.  0.
          2    1    1    2  501    0  0.62377693985E+02  0.93372671798E+02 -0.13640259765E+04  0.13686403096E+04  0.00000000000E+00 0. -1.
          1    1    1    2  502    0 -0.70738134111E+01 -0.31703313965E+02  0.12478257847E+02  0.34797210685E+02  0.00000000000E+00 0. -1.
         22    1    3    3    0    0 -0.53417763103E+01 -0.83314194819E+02 -0.19065299686E+03  0.20813061967E+03  0.00000000000E+00 0. -1.
         22    1    3    3    0    0 -0.49962104264E+02  0.21644836986E+02 -0.30091143097E+03  0.30579797272E+03  0.00000000000E+00 0. -1.
</event>
<event>
 7    1  0.5789396E-006  0.1669336E+03  0.7818608E-02  0.1226231E+00
          2   -1    0    0  502    0  0.00000000000E+00  0.00000000000E+00  0.50148784397E+03  0.50148784397E+03  0.00000000000E+00 0. -1.
          1   -1    0    0  501    0 -0.00000000000E+00 -0.00000000000E+00 -0.13334683284E+04  0.13334683284E+04  0.00000000000E+00 0. -1.
         25    2    1    2    0    0  0.17744411508E+03  0.12292741083E+03 -0.36301323009E+03  0.44045641279E+03  0.12500273611E+03 0.  0.
          2    1    1    2  501    0 -0.99748000713E+02  0.23734646354E+02 -0.91389244562E+03  0.91962622801E+03  0.00000000000E+00 0. -1.
          1    1    1    2  502    0 -0.77696114369E+02 -0.14666205718E+03  0.44492519126E+03  0.47487353160E+03  0.00000000000E+00 0. -1.
         22    1    3    3    0    0  0.17038611479E+03  0.52665393179E+02 -0.24728649325E+03  0.30488634193E+03  0.00000000000E+00 0.  1.
         22    1    3    3    0    0  0.70580002900E+01  0.70262017647E+02 -0.11572673684E+03  0.13557007086E+03  0.00000000000E+00 0.  1.
</event>
<event>
 7    1  0.5789396E-006  0.3982997E+03  0.7818608E-02  0.1207337E+00
          2   -1    0    0  502    0  0.00000000000E+00  0.00000000000E+00  0.42376545362E+03  0.42376545362E+03  0.00000000000E+00 0. -1.
          1   -1    0    0  501    0 -0.00000000000E+00 -0.00000000000E+00 -0.23363827278E+04  0.23363827278E+04  0.00000000000E+00 0. -1.
         25    2    1    2    0    0  0.35013995034E+03  0.26396003731E+03 -0.75046126411E+03  0.87811701539E+03  0.12499799067E+03 0.  0.
          2    1    1    2  501    0 -0.21897293435E+02 -0.47669403975E+02 -0.14141344978E+04  0.14151071484E+04  0.00000000000E+00 0. -1.
          1    1    1    2  502    0 -0.32824265690E+03 -0.21629063334E+03  0.25197848779E+03  0.46692401758E+03  0.00000000000E+00 0. -1.
         22    1    3    3    0    0  0.36619158022E+02  0.90524364562E+02 -0.16338088263E+03  0.19033900315E+03  0.00000000000E+00 0.  1.
         22    1    3    3    0    0  0.31352079231E+03  0.17343567275E+03 -0.58708038149E+03  0.68777801224E+03  0.00000000000E+00 0.  1.
</event>
<event>
 7    1  0.5789396E-006  0.6906168E+02  0.7818608E-02  0.1383393E+00
          2   -1    0    0  502    0  0.00000000000E+00  0.00000000000E+00  0.10839189611E+04  0.10839189611E+04  0.00000000000E+00 0. -1.
          1   -1    0    0  501    0 -0.00000000000E+00 -0.00000000000E+00 -0.16829264588E+03  0.16829264588E+03  0.00000000000E+00 0. -1.
         25    2    1    2    0    0 -0.18799658336E+02  0.18253863151E+02 -0.46054057898E+02  0.13576598192E+03  0.12499917970E+03 0.  0.
          2    1    1    2  501    0  0.29204179204E+02  0.50727761365E+02 -0.64957935045E+02  0.87439826060E+02  0.00000000000E+00 0. -1.
          1    1    1    2  502    0 -0.10404520869E+02 -0.68981624516E+02  0.10266383081E+04  0.10290057990E+04  0.00000000000E+00 0. -1.
         22    1    3    3    0    0 -0.30020418003E+02 -0.25993626783E+02 -0.72751892999E+02  0.82883846830E+02  0.00000000000E+00 0.  1.
         22    1    3    3    0    0  0.11220759667E+02  0.44247489934E+02  0.26697835101E+02  0.52882135093E+02  0.00000000000E+00 0.  1.
</event>
<event>
 7    1  0.6048284E-006  0.1204212E+03  0.7818608E-02  0.1444794E+00
          2   -1    0    0  502    0  0.00000000000E+00  0.00000000000E+00  0.26088798392E+04  0.26088798392E+04  0.00000000000E+00 0. -1.
          1   -1    0    0  501    0 -0.00000000000E+00 -0.00000000000E+00 -0.11130258269E+04  0.11130258269E+04  0.00000000000E+00 0. -1.
         25    2    1    2    0    0 -0.71580970022E+02 -0.72956338903E+02 -0.84953486387E+03  0.86474351750E+03  0.12500161387E+03 0.  0.
          2    1    1    2  501    0 -0.20234348033E+02 -0.50084329623E+01 -0.25406519414E+03  0.25491888144E+03  0.00000000000E+00 0. -1.
          1    1    1    2  502    0  0.91815318055E+02  0.77964771865E+02  0.25994540703E+04  0.26022432672E+04  0.00000000000E+00 0. -1.
         22    1    3    3    0    0 -0.91842432154E+02 -0.27689374810E+02 -0.35512860339E+03  0.36785602995E+03  0.00000000000E+00 0. -1.
         22    1    3    3    0    0  0.20261462133E+02 -0.45266964093E+02 -0.49440626047E+03  0.49688748755E+03  0.00000000000E+00 0. -1.
</event>
<event>
 7    1  0.5789396E-006  0.5867593E+02  0.7818608E-02  0.1495971E+00
          2   -1    0    0  502    0  0.00000000000E+00  0.00000000000E+00  0.22392726778E+04  0.22392726778E+04  0.00000000000E+00 0. -1.
          1   -1    0    0  501    0 -0.00000000000E+00 -0.00000000000E+00 -0.32802295770E+02  0.32802295770E+02  0.00000000000E+00 0. -1.
         25    2    1    2    0    0  0.70114736184E+02 -0.30974120828E+02  0.57766147374E+03  0.59597801354E+03  0.12498616719E+03 0.  0.
          2    1    1    2  501    0 -0.57699974804E+02  0.40439878823E+01  0.12071661733E+02  0.59087781710E+02  0.00000000000E+00 0. -1.
          1    1    1    2  502    0 -0.12414761380E+02  0.26930132945E+02  0.16167372466E+04  0.16170091783E+04  0.00000000000E+00 0. -1.
         22    1    3    3    0    0 -0.87094617709E+01  0.36512670241E+02  0.92163645843E+02  0.99514659360E+02  0.00000000000E+00 0. -1.
         22    1    3    3    0    0  0.78824197955E+02 -0.67486791069E+02  0.48549782790E+03  0.49646335418E+03  0.00000000000E+00 0. -1.
</event>
<event>
 7    1  0.5789396E-006  0.1731065E+03  0.7818608E-02  0.1220634E+00
          2   -1    0    0  502    0  0.00000000000E+00  0.00000000000E+00  0.73942169214E+03  0.73942169214E+03  0.00000000000E+00 0. -1.
          1   -1    0    0  501    0 -0.00000000000E+00 -0.00000000000E+00 -0.57155021598E+03  0.57155021598E+03  0.00000000000E+00 0. -1.
         25    2    1    2    0    0 -0.10105172241E+03 -0.20401491806E+03  0.14883194798E+03  0.29935396685E+03  0.12501324464E+03 0.  0.
          2    1    1    2  501    0  0.16054520834E+01  0.17086786489E+03 -0.47592720634E+03  0.50567292835E+03  0.00000000000E+00 0. -1.
          1    1    1    2  502    0  0.99446270329E+02  0.33147053165E+02  0.49496673452E+03  0.50594501292E+03  0.00000000000E+00 0. -1.
         22    1    3    3    0    0 -0.97830625747E+02 -0.17806406892E+03  0.17062598937E+03  0.26531278187E+03  0.00000000000E+00 0.  1.
         22    1    3    3    0    0 -0.32210966649E+01 -0.25950849138E+02 -0.21794041389E+02  0.34041184979E+02  0.00000000000E+00 0.  1.
</event>
<event>
 7    1  0.5789396E-006  0.9559909E+02  0.7818608E-02  0.1406297E+00
          2   -1    0    0  502    0  0.00000000000E+00  0.00000000000E+00  0.83274916232E+03  0.83274916232E+03  0.00000000000E+00 0. -1.
          1   -1    0    0  501    0 -0.00000000000E+00 -0.00000000000E+00 -0.20661384749E+03  0.20661384749E+03  0.00000000000E+00 0. -1.
         25    2    1    2    0    0 -0.33774825305E+02 -0.55795373978E+02  0.48908754921E+03  0.50900447614E+03  0.12500025344E+03 0.  0.
          2    1    1    2  501    0  0.65857485093E+02  0.70334114838E+02 -0.18383103998E+03  0.20755227610E+03  0.00000000000E+00 0. -1.
          1    1    1    2  502    0 -0.32082659788E+02 -0.14538740861E+02  0.32087880560E+03  0.32280625757E+03  0.00000000000E+00 0. -1.
         22    1    3    3    0    0  0.18684963472E+02  0.93152378814E+01  0.31691784295E+03  0.31760481844E+03  0.00000000000E+00 0. -1.
         22    1    3    3    0    0 -0.52459788776E+02 -0.65110611859E+02  0.17216970626E+03  0.19139965771E+03  0.00000000000E+00 0. -1.
</event>
<event>
 7    1  0.5789396E-006  0.4384611E+02  0.7818608E-02  0.1489785E+00
          2   -1    0    0  502    0  0.00000000000E+00  0.00000000000E+00  0.11236533123E+03  0.11236533123E+03  0.00000000000E+00 0. -1.
          1   -1    0    0  501    0 -0.00000000000E+00 -0.00000000000E+00 -0.57238228643E+03  0.57238228643E+03  0.00000000000E+00 0. -1.
         25    2    1    2    0    0 -0.53415711759E+01 -0.99851253160E+01 -0.49916802027E+02  0.13507958517E+03  0.12500628822E+03 0.  0.
          2    1    1    2  501    0  0.25800582307E+02 -0.32408110634E+02 -0.47093220708E+03  0.47275056779E+03  0.00000000000E+00 0. -1.
          1    1    1    2  502    0 -0.20459011131E+02  0.42393235950E+02  0.60832053910E+02  0.76917464686E+02  0.00000000000E+00 0. -1.
         22    1    3    3    0    0 -0.10111716603E+01 -0.35299551730E+02  0.32965514566E+02  0.48309481171E+02  0.00000000000E+00 0.  1.
         22    1    3    3    0    0 -0.43303995156E+01  0.25314426414E+02 -0.82882316592E+02  0.86770104001E+02  0.00000000000E+00 0.  1.
</event>
<event>
 7    1  0.5789396E-006  0.1006602E+03  0.7818608E-02  0.1289834E+00
          2   -1    0    0  502    0  0.00000000000E+00  0.00000000000E+00  0.31517109940E+03  0.31517109940E+03  0.00000000000E+00 0. -1.
          1   -1    0    0  501    0 -0.00000000000E+00 -0.00000000000E+00 -0.17825854937E+04  0.17825854937E+04  0.00000000000E+00 0. -1.
         25    2    1    2    0    0 -0.12280243514E+02  0.60007476986E+02 -0.57490446726E+03  0.59151667846E+03  0.12500053097E+03 0.  0.
          2    1    1    2  501    0  0.10296794896E+03 -0.64336515165E+02 -0.11895008680E+04  0.11956813542E+04  0.00000000000E+00 0. -1.
          1    1    1    2  502    0 -0.90687705447E+02  0.43290381790E+01  0.29699094095E+03  0.31055856050E+03  0.00000000000E+00 0. -1.
         22    1    3    3    0    0  0.32225213426E+02 -0.18543363823E+02 -0.77157686524E+02  0.85648288435E+02  0.00000000000E+00 0. -1.
         22    1    3    3    0    0 -0.44505456940E+02  0.78550840809E+02 -0.49774678074E+03  0.50586839002E+03  0.00000000000E+00 0. -1.
</event>
<event>
 7    1  0.5789396E-006  0.6154011E+02  0.7818608E-02  0.1508882E+00
          2   -1    0    0  502    0  0.00000000000E+00  0.00000000000E+00  0.14314394489E+04  0.14314394489E+04  0.00000000000E+00 0. -1.
          1   -1    0    0  501    0 -0.00000000000E+00 -0.00000000000E+00 -0.10905767599E+03  0.10905767599E+03  0.00000000000E+00 0. -1.
         25    2    1    2    0    0 -0.16745538187E+01  0.78748250892E+02  0.15757132715E+03  0.21600194008E+03  0.12499609525E+03 0.  0.
          2    1    1    2  501    0 -0.16141738992E+02 -0.20230630131E+02 -0.76972198609E+02  0.81206856188E+02  0.00000000000E+00 0. -1.
          1    1    1    2  502    0  0.17816292810E+02 -0.58517620762E+02  0.12417826444E+04  0.12432883286E+04  0.00000000000E+00 0. -1.
         22    1    3    3    0    0 -0.52118957708E+02  0.42552847937E+02  0.29084887772E+02  0.73301168591E+02  0.00000000000E+00 0. -1.
         22    1    3    3    0    0  0.50444403889E+02  0.36195402955E+02  0.12848643938E+03  0.14270077149E+03  0.00000000000E+00 0. -1.
</event>
<event>
 7    1  0.5789396E-006  0.6005337E+02  0.7818608E-02  0.1527734E+00
          2   -1    0    0  502    0  0.00000000000E+00  0.00000000000E+00  0.29650267844E+02  0.29650267844E+02  0.00000000000E+00 0. -1.
          1   -1    0    0  501    0 -0.00000000000E+00 -0.00000000000E+00 -0.54224095930E+03  0.54224095930E+03  0.00000000000E+00 0. -1.
         25    2    1    2    0    0  0.47651379284E+01 -0.73037868792E+02 -0.34415316576E+03  0.37339128778E+03  0.12498966146E+03 0.  0.
          2    1    1    2  501    0  0.14696426568E+02  0.18175778547E+02 -0.12148347769E+03  0.12371167783E+03  0.00000000000E+00 0. -1.
          1    1    1    2  502    0 -0.19461564496E+02  0.54862090245E+02 -0.46954048006E+02  0.74788261532E+02  0.00000000000E+00 0. -1.
         22    1    3    3    0    0  0.39269575167E+02 -0.33599222120E+02 -0.30129387537E+03  0.30569430252E+03  0.00000000000E+00 0. -1.
         22    1    3    3    0    0 -0.34504437238E+02 -0.39438646672E+02 -0.42859290392E+02  0.67696985260E+02  0.00000000000E+00 0. -1.
</event>
<event>
 7    1  0.5789396E-006  0.1276918E+03  0.7818608E-02  0.1435616E+00
          2   -1    0    0  502    0  0.00000000000E+00  0.00000000000E+00  0.92978299965E+03  0.92978299965E+03  0.00000000000E+00 0. -1.
          1   -1    0    0  501    0 -0.00000000000E+00 -0.00000000000E+00 -0.30307601216E+03  0.30307601216E+03  0.00000000000E+00 0. -1.
         25    2    1    2    0    0 -0.12445554556E+03 -0.69117779534E+02  0.42696854295E+03  0.46710417328E+03  0.12497088364E+03 0.  0.
          2    1    1    2  501    0  0.20368578980E+02  0.53250767813E+01 -0.27488109979E+03  0.27568615212E+03  0.00000000000E+00 0. -1.
          1    1    1    2  502    0  0.10408696658E+03  0.63792702752E+02  0.47461954433E+03  0.49006868641E+03  0.00000000000E+00 0. -1.
         22    1    3    3    0    0 -0.36866128304E+02 -0.91355615960E+02  0.20488338275E+03  0.22733710764E+03  0.00000000000E+00 0. -1.
         22    1    3    3    0    0 -0.87589417252E+02  0.22237836426E+02  0.22208516020E+03  0.23976706564E+03  0.00000000000E+00 0. -1.
</event>
<event>
 7    1  0.5789396E-006  0.4329538E+02  0.7818608E-02  0.1486343E+00
          2   -1    0    0  502    0  0.00000000000E+00  0.00000000000E+00  0.31319137216E+02  0.31319137216E+02  0.00000000000E+00 0. -1.
          1   -1    0    0  501    0 -0.00000000000E+00 -0.00000000000E+00 -0.17015439464E+04  0.17015439464E+04  0.00000000000E+00 0. -1.
         25    2    1    2    0    0 -0.24356754799E+01  0.14039025832E+02 -0.68867501450E+03  0.70007244241E+03  0.12500048908E+03 0.  0.
          2    1    1    2  501    0 -0.41597533623E+02 -0.12005618362E+02 -0.98737809551E+03  0.98832686555E+03  0.00000000000E+00 0. -1.
          1    1    1    2  502    0  0.44033209103E+02 -0.20334074704E+01  0.58283008733E+01  0.44463775603E+02  0.00000000000E+00 0. -1.
         22    1    3    3    0    0  0.11567808105E+02 -0.53908377029E+02 -0.25591693637E+03  0.26178885694E+03  0.00000000000E+00 0.  1.
         22    1    3    3    0    0 -0.14003483585E+02  0.67947402861E+02 -0.43275807813E+03  0.43828358548E+03  0.00000000000E+00 0.  1.
</event>
<event>
 7    1  0.5789396E-006  0.8961909E+02  0.7818608E-02  0.1408273E+00
          2   -1    0    0  502    0  0.00000000000E+00  0.00000000000E+00  0.21831553922E+04  0.21831553922E+04  0.00000000000E+00 0. -1.
          1   -1    0    0  501    0 -0.00000000000E+00 -0.00000000000E+00 -0.53329340517E+03  0.53329340517E+03  0.00000000000E+00 0. -1.
         25    2    1    2    0    0 -0.50641694714E+02  0.16939129312E+02  0.12525194729E+04  0.12598743215E+04  0.12500704251E+03 0.  0.
          2    1    1    2  501    0  0.81791058446E+02 -0.36900111914E+02 -0.52544207269E+03  0.53304855994E+03  0.00000000000E+00 0. -1.
          1    1    1    2  502    0 -0.31149363732E+02  0.19960982603E+02  0.92278458682E+03  0.92352591592E+03  0.00000000000E+00 0. -1.
         22    1    3    3    0    0 -0.56037473536E+02  0.33721190641E+00  0.12304963472E+04  0.12317717210E+04  0.00000000000E+00 0.  1.
         22    1    3    3    0    0  0.53957788221E+01  0.16601917405E+02  0.22023125682E+02  0.28102600510E+02  0.00000000000E+00 0.  1.
</event>
<event>
 7    1  0.5789396E-006  0.4507794E+02  0.7818608E-02  0.1522078E+00
          2   -1    0    0  502    0  0.00000000000E+00  0.00000000000E+00  0.21569960350E+04  0.21569960350E+04  0.00000000000E+00 0. -1.
          1   -1    0    0  501    0 -0.00000000000E+00 -0.00000000000E+00 -0.11158749767E+02  0.11158749767E+02  0.00000000000E+00 0. -1.
         25    2    1    2    0    0  0.67820929941E+02  0.21002192947E+02  0.75994122283E+03  0.77341860708E+03  0.12499963591E+03 0.  0.
          2    1    1    2  501    0 -0.32036580781E+02  0.43544049034E+01  0.60350048199E+02  0.68464820659E+02  0.00000000000E+00 0. -1.
          1    1    1    2  502    0 -0.35784349159E+02 -0.25356597850E+02  0.13255460143E+04  0.13262713571E+04  0.00000000000E+00 0. -1.
         22    1    3    3    0    0 -0.34820151470E+02  0.60768086894E+01  0.11897222789E+03  0.12411189129E+03  0.00000000000E+00 0. -1.
         22    1    3    3    0    0  0.10264108141E+03  0.14925384258E+02  0.64096899494E+03  0.64930671578E+03  0.00000000000E+00 0. -1.
</event>
<event>
 7    1  0.5789396E-006  0.9812881E+02  0.7818608E-02  0.1303245E+00
          2   -1    0    0  502    0  0.00000000000E+00  0.00000000000E+00  0.61672848012E+03  0.61672848012E+03  0.00000000000E+00 0. -1.
          1   -1    0    0  501    0 -0.00000000000E+00 -0.00000000000E+00 -0.61286969206E+03  0.61286969206E+03  0.00000000000E+00 0. -1.
         25    2    1    2    0    0 -0.49518738310E+02  0.13354833361E+02  0.17269013345E+03  0.21926637208E+03  0.12500161085E+03 0.  0.
          2    1    1    2  501    0  0.75869294578E+02  0.64556861944E+02 -0.58128418790E+03  0.58975846360E+03  0.00000000000E+00 0. -1.
          1    1    1    2  502    0 -0.26350556269E+02 -0.77911695306E+02  0.41245284252E+03  0.42057333651E+03  0.00000000000E+00 0. -1.
         22    1    3    3    0    0 -0.57122737704E+01  0.30608411730E+02 -0.83232885591E+01  0.32230142301E+02  0.00000000000E+00 0. -1.
         22    1    3    3    0    0 -0.43806464539E+02 -0.17253578369E+02  0.18101342201E+03  0.18703622978E+03  0.00000000000E+00 0. -1.
</event>
<event>
 7    1  0.5789396E-006  0.4505895E+02  0.7818608E-02  0.1503349E+00
          2   -1    0    0  502    0  0.00000000000E+00  0.00000000000E+00  0.18300010786E+03  0.18300010786E+03  0.00000000000E+00 0. -1.
          1   -1    0    0  501    0 -0.00000000000E+00 -0.00000000000E+00 -0.12101146315E+04  0.12101146315E+04  0.00000000000E+00 0. -1.
         25    2    1    2    0    0  0.15941435223E+02  0.11661944297E+02 -0.57590013568E+03  0.58964104962E+03  0.12500188325E+03 0.  0.
          2    1    1    2  501    0 -0.14890858585E+02  0.33549775345E+02 -0.62389272079E+03  0.62497156107E+03  0.00000000000E+00 0. -1.
          1    1    1    2  502    0 -0.10505766380E+01 -0.45211719642E+02  0.17267833284E+03  0.17850212866E+03  0.00000000000E+00 0. -1.
         22    1    3    3    0    0  0.24217416835E+02  0.59997370536E+02 -0.19170468379E+03  0.20232857815E+03  0.00000000000E+00 0.  1.
         22    1    3    3    0    0 -0.82759816119E+01 -0.48335426240E+02 -0.38419545189E+03  0.38731247147E+03  0.00000000000E+00 0.  1.
</event>
<event>
 7    1  0.5789396E-006  0.1295761E+03  0.7818608E-02  0.1235513E+00
          2   -1    0    0  502    0  0.00000000000E+00  0.00000000000E+00  0.11428257477E+04  0.11428257477E+04  0.00000000000E+00 0. -1.
          1   -1    0    0  501    0 -0.00000000000E+00 -0.00000000000E+00 -0.14009035657E+04  0.14009035657E+04  0.00000000000E+00 0. -1.
         25    2    1    2    0    0 -0.69109684715E+02 -0.59725845158E+02  0.46104103868E+02  0.16153605141E+03  0.12499992964E+03 0.  0.
          2    1    1    2  501    0 -0.59266671708E+02  0.10438806379E+03 -0.13360397733E+04  0.13414215154E+04  0.00000000000E+00 0. -1.
          1    1    1    2  502    0  0.12837635642E+03 -0.44662218635E+02  0.10318578515E+04  0.10407717465E+04  0.00000000000E+00 0. -1.
         22    1    3    3    0    0  0.27062004713E+02  0.99487402254E+01 -0.95642855623E+01  0.30377707114E+02  0.00000000000E+00 0.  1.
         22    1    3    3    0    0 -0.96171689428E+02 -0.69674585383E+02  0.55668389431E+02  0.13115834429E+03  0.00000000000E+00 0.  1.
</event>
<event>
 7    1  0.5789396E-006  0.9203605E+02  0.7818608E-02  0.1356098E+00
          2   -1    0    0  502    0  0.00000000000E+00  0.00000000000E+00  0.26757044172E+03  0.26757044172E+03  0.00000000000E+00 0. -1.
          1   -1    0    0  501    0 -0.00000000000E+00 -0.00000000000E+00 -0.44875116150E+03  0.44875116150E+03  0.00000000000E+00 0. -1.
         25    2    1    2    0    0 -0.89098636032E+02  0.44846597528E+02 -0.40821501563E+02  0.16504394052E+03  0.12499329206E+03 0.  0.
          2    1    1    2  501    0 -0.30892340396E+01 -0.54976349298E+02 -0.33297509174E+03  0.33749719120E+03  0.00000000000E+00 0. -1.
          1    1    1    2  502    0  0.92187870072E+02  0.10129751770E+02  0.19261587353E+03  0.21378047150E+03  0.00000000000E+00 0. -1.
         22    1    3    3    0    0  0.15723799626E+02  0.18575742210E+01  0.28228016434E+02  0.32365249395E+02  0.00000000000E+00 0. -1.
         22    1    3    3    0    0 -0.10482243566E+03  0.42989023307E+02 -0.69049517997E+02  0.13267869112E+03  0.00000000000E+00 0. -1.
</event>
<event>
 7    1  0.5789396E-006  0.1525816E+03  0.7818608E-02  0.1307559E+00
          2   -1    0    0  502    0  0.00000000000E+00  0.00000000000E+00  0.10713760411E+04  0.10713760411E+04  0.00000000000E+00 0. -1.
          1   -1    0    0  501    0 -0.00000000000E+00 -0.00000000000E+00 -0.12750395265E+04  0.12750395265E+04  0.00000000000E+00 0. -1.
         25    2    1    2    0    0  0.14853535382E+03  0.13743216060E+03  0.16463120385E+03  0.28927323223E+03  0.12500087800E+03 0.  0.
          2    1    1    2  501    0 -0.11018826466E+03 -0.10403717411E+03 -0.12072114200E+04  0.12166859084E+04  0.00000000000E+00 0. -1.
          1    1    1    2  502    0 -0.38347089162E+02 -0.33394986488E+02  0.83891673079E+03  0.84045642693E+03  0.00000000000E+00 0. -1.
         22    1    3    3    0    0  0.14856161459E+03  0.15807774773E+03  0.14620632568E+03  0.26160163862E+03  0.00000000000E+00 0. -1.
         22    1    3    3    0    0 -0.26260766850E-01 -0.20645587129E+02  0.18424878170E+02  0.27671593613E+02  0.00000000000E+00 0. -1.
</event>
<event>
 7    1  0.5789396E-006  0.5350946E+02  0.7818608E-02  0.1549004E+00
          2   -1    0    0  502    0  0.00000000000E+00  0.00000000000E+00  0.12382381383E+03  0.12382381383E+03  0.00000000000E+00 0. -1.
          1   -1    0    0  501    0 -0.00000000000E+00 -0.00000000000E+00 -0.81252850113E+03  0.81252850113E+03  0.00000000000E+00 0. -1.
         25    2    1    2    0    0  0.31528075487E+02  0.48233860513E+02 -0.64342595059E+02  0.15193606549E+03  0.12499629440E+03 0.  0.
          2    1    1    2  501    0 -0.44633396392E+02 -0.29535368130E+02 -0.70172035241E+03  0.70375843230E+03  0.00000000000E+00 0. -1.
          1    1    1    2  502    0  0.13105320905E+02 -0.18698492383E+02  0.77358260177E+02  0.80657817172E+02  0.00000000000E+00 0. -1.
         22    1    3    3    0    0 -0.34791671225E+02  0.54981304200E+02 -0.97886567019E+01  0.65796823617E+02  0.00000000000E+00 0.  1.
         22    1    3    3    0    0  0.66319746712E+02 -0.67474436870E+01 -0.54553938357E+02  0.86139241873E+02  0.00000000000E+00 0.  1.
</event>
<event>
 7    1  0.5789396E-006  0.1950878E+03  0.7818608E-02  0.1242843E+00
          2   -1    0    0  502    0  0.00000000000E+00  0.00000000000E+00  0.23920735080E+04  0.23920735080E+04  0.00000000000E+00 0. -1.
          1   -1    0    0  501    0 -0.00000000000E+00 -0.00000000000E+00 -0.76617230996E+02  0.76617230996E+02  0.00000000000E+00 0. -1.
         25    2    1    2    0    0 -0.17416031170E+03  0.96619544586E+02  0.97438031194E+03  0.10023516726E+04  0.12499893070E+03 0.  0.
          2    1    1    2  501    0  0.12470221939E+03 -0.15166721479E+03  0.95102337838E+02  0.21816975552E+03  0.00000000000E+00 0. -1.
          1    1    1    2  502    0  0.49458092311E+02  0.55047670202E+02  0.12459736272E+04  0.12481693109E+04  0.00000000000E+00 0. -1.
         22    1    3    3    0    0 -0.23953720557E+02 -0.20190780794E+02  0.30030029014E+03  0.30192997966E+03  0.00000000000E+00 0. -1.
         22    1    3    3    0    0 -0.15020659114E+03  0.11681032538E+03  0.67408002179E+03  0.70042169293E+03  0.00000000000E+00 0. -1.
</event>
<event>
 7    1  0.5789396E-006  0.4027573E+02  0.7818608E-02  0.1563594E+00
          2   -1    0    0  502    0  0.00000000000E+00  0.00000000000E+00  0.63012727639E+03  0.63012727639E+03  0.00000000000E+00 0. -1.
          1   -1    0    0  501    0 -0.00000000000E+00 -0.00000000000E+00 -0.66316444560E+02  0.66316444560E+02  0.00000000000E+00 0. -1.
         25    2    1    2    0    0  0.48913167716E+02  0.23843370627E+02  0.46935210972E+03  0.48875114927E+03  0.12500111486E+03 0.  0.
          2    1    1    2  501    0 -0.26756604631E+02  0.69489627873E+01 -0.50652302658E+02  0.57704936874E+02  0.00000000000E+00 0. -1.
          1    1    1    2  502    0 -0.22156563085E+02 -0.30792333414E+02  0.14511102477E+03  0.14998763480E+03  0.00000000000E+00 0. -1.
         22    1    3    3    0    0 -0.46414516227E+01  0.44585430346E+02  0.57472632374E+02  0.72886947695E+02  0.00000000000E+00 0.  1.
         22    1    3    3    0    0  0.53554619339E+02 -0.20742059719E+02  0.41187947735E+03  0.41586420158E+03  0.00000000000E+00 0.  1.
</event>
<event>
 7    1  0.5789396E-006  0.1418541E+03  0.7818608E-02  0.1265687E+00
          2   -1    0    0  502    0  0.00000000000E+00  0.00000000000E+00  0.72961877625E+02  0.72961877625E+02  0.00000000000E+00 0. -1.
          1   -1    0    0  501    0 -0.00000000000E+00 -0.00000000000E+00 -0.12531453063E+04  0.12531453063E+04  0.00000000000E+00 0. -1.
         25    2    1    2    0    0  0.59409878711E+02 -0.47520653215E+02 -0.43875762282E+03  0.46251599347E+03  0.12500018584E+03 0.  0.
          2    1    1    2  501    0  0.63307574157E+02 -0.50746115682E+02 -0.69492476680E+03  0.69964523061E+03  0.00000000000E+00 0. -1.
          1    1    1    2  502    0 -0.12271745287E+03  0.98266768898E+02 -0.46501039015E+02  0.16394595981E+03  0.00000000000E+00 0. -1.
         22    1    3    3    0    0  0.12571541261E+01 -0.26250129725E+02 -0.82017449359E+01  0.27530317235E+02  0.00000000000E+00 0.  1.
         22    1    3    3    0    0  0.58152724585E+02 -0.21270523490E+02 -0.43055587788E+03  0.43498567623E+03  0.00000000000E+00 0.  1.
</event>
<event>
 7    1  0.5789396E-006  0.8029170E+02  0.7818608E-02  0.1498880E+00
          2   -1    0    0  502    0  0.00000000000E+00  0.00000000000E+00  0.46931244048E+03  0.46931244048E+03  0.00000000000E+00 0. -1.
          1   -1    0    0  501    0 -0.00000000000E+00 -0.00000000000E+00 -0.15352148147E+03  0.15352148147E+03  0.00000000000E+00 0. -1.
         25    2    1    2    0    0 -0.76229628895E+02  0.45226548503E+01  0.10327097209E+03  0.17922839188E+03  0.12500604806E+03 0.  0.
          2    1    1    2  501    0  0.76723608488E+02 -0.25757180099E+02 -0.10096706311E+03  0.12939973825E+03  0.00000000000E+00 0. -1.
          1    1    1    2  502    0 -0.49397959346E+00  0.21234525248E+02  0.31348705003E+03  0.31420579182E+03  0.00000000000E+00 0. -1.
         22    1    3    3    0    0 -0.48584225210E+02  0.64091976411E+02  0.50334282478E+02  0.94877544088E+02  0.00000000000E+00 0. -1.
         22    1    3    3    0    0 -0.27645403685E+02 -0.59569321561E+02  0.52936689614E+02  0.84350847793E+02  0.00000000000E+00 0. -1.
</event>
<event>
 7    1  0.5789396E-006  0.3179402E+03  0.7818608E-02  0.1151600E+00
          2   -1    0    0  502    0  0.00000000000E+00  0.00000000000E+00  0.47487344113E+03  0.47487344113E+03  0.00000000000E+00 0. -1.
          1   -1    0    0  501    0 -0.00000000000E+00 -0.00000000000E+00 -0.20445346851E+04  0.20445346851E+04  0.00000000000E+00 0. -1.
         25    2    1    2    0    0 -0.21975667659E+03 -0.32645144712E+03  0.97786363472E+02  0.42432391061E+03  0.12500025599E+03 0.  0.
          2    1    1    2  501    0  0.38952136208E+02  0.11674316693E+03 -0.17886146746E+04  0.17928437439E+04  0.00000000000E+00 0. -1.
          1    1    1    2  502    0  0.18080454038E+03  0.20970828019E+03  0.12116706711E+03  0.30224047174E+03  0.00000000000E+00 0. -1.
         22    1    3    3    0    0 -0.17770144443E+02 -0.12053154719E+03  0.74497680566E+01  0.12206199632E+03  0.00000000000E+00 0. -1.
         22    1    3    3    0    0 -0.20198653215E+03 -0.20591989993E+03  0.90336595416E+02  0.30226191428E+03  0.00000000000E+00 0. -1.
</event>
<event>
 7    1  0.5789396E-006  0.6145216E+02  0.7818608E-02  0.1459684E+00
          2   -1    0    0  502    0  0.00000000000E+00  0.00000000000E+00  0.85199132841E+03  0.85199132841E+03  0.00000000000E+00 0. -1.
          1   -1    0    0  501    0 -0.00000000000E+00 -0.00000000000E+00 -0.32071715660E+03  0.32071715660E+03  0.00000000000E+00 0. -1.
         25    2    1    2    0    0 -0.57433058669E+02  0.74259157281E+02  0.16853969698E+03  0.22987807955E+03  0.12500129332E+03 0.  0.
          2    1    1    2  501    0  0.46626901652E+02 -0.39273666034E+02 -0.28632290169E+03  0.29274099958E+03  0.00000000000E+00 0. -1.
          1    1    1    2  502    0  0.10806157017E+02 -0.34985491247E+02  0.64905737652E+03  0.65008940588E+03  0.00000000000E+00 0. -1.
         22    1    3    3    0    0 -0.32899637642E+02 -0.80064179762E+01 -0.69051688991E+01  0.34556768415E+02  0.00000000000E+00 0.  1.
         22    1    3    3    0    0 -0.24533421027E+02  0.82265575258E+02  0.17544486588E+03  0.19532131113E+03  0.00000000000E+00 0.  1.
</event>
<event>
 7    1  0.5789396E-006  0.4381382E+02  0.7818608E-02  0.1572040E+00
          2   -1    0    0  502    0  0.00000000000E+00  0.00000000000E+00  0.34742179097E+02  0.34742179097E+02  0.00000000000E+00 0. -1.
          1   -1    0    0  501    0 -0.00000000000E+00 -0.00000000000E+00 -0.26528613320E+04  0.26528613320E+04  0.00000000000E+00 0. -1.
         25    2    1    2    0    0 -0.42278223950E+02  0.44473354720E+02 -0.41970491378E+03  0.44220184081E+03  0.12499970346E+03 0.  0.
          2    1    1    2  501    0  0.18740323742E+02 -0.39296276849E+02 -0.22154565646E+04  0.22158842900E+04  0.00000000000E+00 0. -1.
          1    1    1    2  502    0  0.23537900208E+02 -0.51770778708E+01  0.17042325466E+02  0.29517380283E+02  0.00000000000E+00 0. -1.
         22    1    3    3    0    0  0.51798168683E+01 -0.25734912234E+02 -0.18426026828E+02  0.32072335044E+02  0.00000000000E+00 0.  1.
         22    1    3    3    0    0 -0.47458040818E+02  0.70208266954E+02 -0.40127888695E+03  0.41012950576E+03  0.00000000000E+00 0.  1.
</event>
<event>
 7    1  0.5789396E-006  0.6668286E+02  0.7818608E-02  0.1448765E+00
          2   -1    0    0  502    0  0.00000000000E+00  0.00000000000E+00  0.25508904309E+03  0.25508904309E+03  0.00000000000E+00 0. -1.
          1   -1    0    0  501    0 -0.00000000000E+00 -0.00000000000E+00 -0.11938554779E+04  0.11938554779E+04  0.00000000000E+00 0. -1.
         25    2    1    2    0    0 -0.62997109258E+02 -0.80173559204E+02 -0.14914322542E+02  0.16200490606E+03  0.12500686861E+03 0.  0.
          2    1    1    2  501    0  0.35911441114E+02  0.55627581916E+02 -0.11025525990E+04  0.11045389504E+04  0.00000000000E+00 0. -1.
          1    1    1    2  502    0  0.27085668144E+02  0.24545977289E+02  0.17870048678E+03  0.18240066446E+03  0.00000000000E+00 0. -1.
         22    1    3    3    0    0 -0.13204638228E+02 -0.10263072709E+03 -0.25012554213E+02  0.10645682919E+03  0.00000000000E+00 0. -1.
         22    1    3    3    0    0 -0.49792471030E+02  0.22457167883E+02  0.10098231671E+02  0.55548076866E+02  0.00000000000E+00 0. -1.
</event>
<event>
 7    1  0.5789396E-006  0.9135609E+02  0.7818608E-02  0.1302710E+00
          2   -1    0    0  502    0  0.00000000000E+00  0.00000000000E+00  0.10145288283E+04  0.10145288283E+04  0.00000000000E+00 0. -1.
          1   -1    0    0  501    0 -0.00000000000E+00 -0.00000000000E+00 -0.59201539201E+03  0.59201539201E+03  0.00000000000E+00 0. -1.
         25    2    1    2    0    0  0.91735842879E+02  0.73740396854E+02  0.18931866748E+03  0.25557555647E+03  0.12499678480E+03 0.  0.
          2    1    1    2  501    0 -0.82540243444E+00 -0.88775243425E+02 -0.55265232297E+03  0.55973772002E+03  0.00000000000E+00 0. -1.
          1    1    1    2  502    0 -0.90910440445E+02  0.15034846571E+02  0.78584709182E+03  0.79123094385E+03  0.00000000000E+00 0. -1.
         22    1    3    3    0    0  0.25171734446E+02  0.83927157462E+02  0.15938796717E+03  0.18188432602E+03  0.00000000000E+00 0. -1.
         22    1    3    3    0    0  0.66564108433E+02 -0.10186760608E+02  0.29930700315E+02  0.73691230445E+02  0.00000000000E+00 0. -1.
</event>
<event>
 7    1  0.5789396E-006  0.8068055E+02  0.7818608E-02  0.1368172E+00
          2   -1    0    0  502    0  0.00000000000E+00  0.00000000000E+00  0.41040057508E+03  0.41040057508E+03  0.00000000000E+00 0. -1.
          1   -1    0    0  501    0 -0.00000000000E+00 -0.00000000000E+00 -0.29905250674E+03  0.29905250674E+03  0.00000000000E+00 0. -1.
         25    2    1    2    0    0  0.40220232829E+02  0.75588453489E+02 -0.41633115328E+02  0.15712878596E+03  0.12499943062E+03 0.  0.
          2    1    1    2  501    0  0.16304555502E+02 -0.80867004267E+02 -0.18870777315E+03  0.20595129171E+03  0.00000000000E+00 0. -1.
          1    1    1    2  502    0 -0.56524788332E+02  0.52785507782E+01  0.34168895682E+03  0.34637300415E+03  0.00000000000E+00 0. -1.
         22    1    3    3    0    0  0.32374971147E+02  0.11036882512E+03 -0.38695130809E+02  0.12135373691E+03  0.00000000000E+00 0.  1.
         22    1    3    3    0    0  0.78452616823E+01 -0.34780371627E+02 -0.29379845192E+01  0.35775049049E+02  0.00000000000E+00 0.  1.
</event>
<event>
 7    1  0.5789396E-006  0.4472093E+02  0.7818608E-02  0.1572567E+00
          2   -1    0    0  502    0  0.00000000000E+00  0.00000000000E+00  0.16849752400E+04  0.16849752400E+04  0.00000000000E+00 0. -1.
          1   -1    0    0  501    0 -0.00000000000E+00 -0.00000000000E+00 -0.20925512688E+03  0.20925512688E+03  0.00000000000E+00 0. -1.
         25    2    1    2    0    0 -0.58667089905E+02 -0.41055898597E+01  0.11709620010E+03  0.18109402275E+03  0.12499936677E+03 0.  0.
          2    1    1    2  501    0  0.42569627414E+02 -0.13062014636E+02 -0.17436797075E+03  0.17996382589E+03  0.00000000000E+00 0. -1.
          1    1    1    2  502    0  0.16097462491E+02  0.17167604496E+02  0.15329918838E+04  0.15331725182E+04  0.00000000000E+00 0. -1.
         22    1    3    3    0    0  0.83237688598E+01  0.46751428173E+02  0.70324214718E+02  0.84855620556E+02  0.00000000000E+00 0.  1.
         22    1    3    3    0    0 -0.66990858765E+02 -0.50857018033E+02  0.46771985379E+02  0.96238402198E+02  0.00000000000E+00 0.  1.
</event>
<event>
 7    1  0.5789396E-006  0.6183837E+02  0.7818608E-02  0.1469912E+00
          2   -1    0    0  502    0  0.00000000000E+00  0.00000000000E+00  0.16149224558E+04  0.16149224558E+04  0.00000000000E+00 0. -1.
          1   -1    0    0  501    0 -0.00000000000E+00 -0.00000000000E+00 -0.13584995449E+03  0.13584995449E+03  0.00000000000E+00 0. -1.
         25    2    1    2    0    0  0.39502567200E+02 -0.34477831241E+02  0.85931044470E+03  0.86993494134E+03  0.12499275227E+03 0.  0.
          2    1    1    2  501    0 -0.16929465122E+02  0.59634076926E+02 -0.12277192831E+03  0.13753463673E+03  0.00000000000E+00 0. -1.
          1    1    1    2  502    0 -0.22573102078E+02 -0.25156245685E+02  0.74253398488E+03  0.74330283219E+03  0.00000000000E+00 0. -1.
         22    1    3    3    0    0  0.71112692700E+02 -0.36722102964E+02  0.78605434064E+03  0.79011831668E+03  0.00000000000E+00 0. -1.
         22    1    3    3    0    0 -0.31610125499E+02  0.22442717231E+01  0.73256104065E+02  0.79816624662E+02  0.00000000000E+00 0. -1.
</event>
<event>
 7    1  0.5789396E-006  0.6007953E+02  0.7818608E-02  0.1428457E+00
          2   -1    0    0  502    0  0.00000000000E+00  0.00000000000E+00  0.51813275129E+03  0.51813275129E+03  0.00000000000E+00 0. -1.
          1   -1    0    0  501    0 -0.00000000000E+00 -0.00000000000E+00 -0.14102083206E+03  0.14102083206E+03  0.00000000000E+00 0. -1.
         25    2    1    2    0    0  0.37854339003E+02 -0.45019397220E+02  0.17414321581E+03  0.22228824782E+03  0.12500603346E+03 0.  0.
          2    1    1    2  501    0  0.24286855853E+02  0.40511574170E+02 -0.10896935132E+03  0.11876598224E+03  0.00000000000E+00 0. -1.
          1    1    1    2  502    0 -0.62141194856E+02  0.45078230494E+01  0.31193805474E+03  0.31809935329E+03  0.00000000000E+00 0. -1.
         22    1    3    3    0    0  0.35005868689E+02 -0.67689920565E+02  0.39718327898E+02  0.85935334757E+02  0.00000000000E+00 0.  1.
         22    1    3    3    0    0  0.28484703137E+01  0.22670523345E+02  0.13442488791E+03  0.13635291307E+03  0.00000000000E+00 0.  1.
</event>
<event>
 7    1  0.5789396E-006  0.6892635E+02  0.7818608E-02  0.1454004E+00
          2   -1    0    0  502    0  0.00000000000E+00  0.00000000000E+00  0.89447809399E+02  0.89447809399E+02  0.00000000000E+00 0. -1.
          1   -1    0    0  501    0 -0.00000000000E+00 -0.00000000000E+00 -0.78163437976E+03  0.78163437976E+03  0.00000000000E+00 0. -1.
         25    2    1    2    0    0  0.76019678695E+02  0.64035200113E+02 -0.22386666865E+03  0.27499182828E+03  0.12499888754E+03 0.  0.
          2    1    1    2  501    0 -0.30469740361E+02 -0.15147315571E+02 -0.51401535352E+03  0.51514039824E+03  0.00000000000E+00 0. -1.
          1    1    1    2  502    0 -0.45549938334E+02 -0.48887884542E+02  0.45695451799E+02  0.80949962645E+02  0.00000000000E+00 0. -1.
         22    1    3    3    0    0 -0.11793327974E+02 -0.27361176763E+02 -0.66954236202E+02  0.73284284290E+02  0.00000000000E+00 0.  1.
         22    1    3    3    0    0  0.87813006669E+02  0.91396376876E+02 -0.15691243244E+03  0.20170754399E+03  0.00000000000E+00 0.  1.
</event>
<event>
 7    1  0.5789396E-006  0.1596371E+03  0.7818608E-02  0.1279390E+00
          2   -1    0    0  502    0  0.00000000000E+00  0.00000000000E+00  0.11844527446E+04  0.11844527446E+04  0.00000000000E+00 0. -1.
          1   -1    0    0  501    0 -0.00000000000E+00 -0.00000000000E+00 -0.84696270456E+03  0.84696270456E+03  0.00000000000E+00 0. -1.
         25    2    1    2    0    0 -0.17349465999E+02  0.18680729360E+03 -0.90004432752E+02  0.24274331936E+03  0.12500220906E+03 0.  0.
          2    1    1    2  501    0 -0.36109216588E+02 -0.15312525415E+03 -0.67057665401E+03  0.68878463099E+03  0.00000000000E+00 0. -1.
          1    1    1    2  502    0  0.53458682587E+02 -0.33682039451E+02  0.10980711268E+04  0.10998874988E+04  0.00000000000E+00 0. -1.
         22    1    3    3    0    0  0.13011576082E+01 -0.20228865336E+01  0.22181214789E+02  0.22311238661E+02  0.00000000000E+00 0. -1.
         22    1    3    3    0    0 -0.18650623608E+02  0.18883018013E+03 -0.11218564754E+03  0.22043208070E+03  0.00000000000E+00 0. -1.
</event>
<event>
 7    1  0.5789396E-006  0.5766510E+02  0.7818608E-02  0.1515314E+00
          2   -1    0    0  502    0  0.00000000000E+00  0.00000000000E+00  0.20001051610E+04  0.20001051610E+04  0.00000000000E+00 0. -1.
          1   -1    0    0  501    0 -0.00000000000E+00 -0.00000000000E+00 -0.82131195663E+03  0.82131195663E+03  0.00000000000E+00 0. -1.
         25    2    1    2    0    0 -0.49676820073E+02  0.41537766390E+02  0.38529539515E+02  0.14595915275E+03  0.12500550535E+03 0.  0.
          2    1    1    2  501    0  0.24371981717E+02  0.10264896737E+02 -0.76693364558E+03  0.76738945675E+03  0.00000000000E+00 0. -1.
          1    1    1    2  502    0  0.25304838356E+02 -0.51802663127E+02  0.19071973104E+04  0.19080685081E+04  0.00000000000E+00 0. -1.
         22    1    3    3    0    0 -0.39442695796E+02  0.86130886827E+02  0.30394747261E+02  0.99489178197E+02  0.00000000000E+00 0.  1.
         22    1    3    3    0    0 -0.10234124277E+02 -0.44593120437E+02  0.81347922541E+01  0.46469974554E+02  0.00000000000E+00 0.  1.
</event>
<event>
 7    1  0.5789396E-006  0.6539784E+02  0.7818608E-02  0.1401969E+00
          2   -1    0    0  502    0  0.00000000000E+00  0.00000000000E+00  0.34521432683E+03  0.34521432683E+03  0.00000000000E+00 0. -1.
          1   -1    0    0  501    0 -0.00000000000E+00 -0.00000000000E+00 -0.74306334486E+03  0.74306334486E+03  0.00000000000E+00 0. -1.
         25    2    1    2    0    0  0.85430081356E+02  0.47480670073E+01  0.16622753823E+03  0.22489469238E+03  0.12500074102E+03 0.  0.
          2    1    1    2  501    0 -0.53358017437E+02  0.37789482274E+02 -0.70743288493E+03  0.71044803447E+03  0.00000000000E+00 0. -1.
          1    1    1    2  502    0 -0.32072063919E+02 -0.42537549281E+02  0.14335632868E+03  0.15293494485E+03  0.00000000000E+00 0. -1.
         22    1    3    3    0    0  0.89696001636E+02  0.51721552870E+02  0.10335708623E+03  0.14629825363E+03  0.00000000000E+00 0.  1.
         22    1    3    3    0    0 -0.42659202801E+01 -0.46973485863E+02  0.62870452000E+02  0.78596438753E+02  0.00000000000E+00 0.  1.
</event>
<event>
 7    1  0.5789396E-006  0.6536909E+02  0.7818608E-02  0.1382554E+00
          2   -1    0    0  502    0  0.00000000000E+00  0.00000000000E+00  0.91941483860E+03  0.91941483860E+03  0.00000000000E+00 0. -1.
          1   -1    0    0  501    0 -0.00000000000E+00 -0.00000000000E+00 -0.13080751468E+03  0.13080751468E+03  0.00000000000E+00 0. -1.
         25    2    1    2    0    0 -0.35309215135E+02  0.92868677484E+01  0.17600385658E+03  0.21894251084E+03  0.12500191572E+03 0.  0.
          2    1    1    2  501    0  0.32795100624E+02  0.56547315254E+02 -0.97905700293E+02  0.11772274053E+03  0.00000000000E+00 0. -1.
          1    1    1    2  502    0  0.25141145108E+01 -0.65834183002E+02  0.71050916763E+03  0.71355710193E+03  0.00000000000E+00 0. -1.
         22    1    3    3    0    0 -0.65968346281E+02  0.39292481778E+02  0.15070818490E+03  0.16914100281E+03  0.00000000000E+00 0. -1.
         22    1    3    3    0    0  0.30659131146E+02 -0.30005614029E+02  0.25295671681E+02  0.49801508026E+02  0.00000000000E+00 0. -1.
</event>
<event>
 7    1  0.5789396E-006  0.1723221E+03  0.7818608E-02  0.1362673E+00
          2   -1    0    0  502    0  0.00000000000E+00  0.00000000000E+00  0.10342345450E+04  0.10342345450E+04  0.00000000000E+00 0. -1.
          1   -1    0    0  501    0 -0.00000000000E+00 -0.00000000000E+00 -0.14797573116E+03  0.14797573116E+03  0.00000000000E+00 0. -1.
         25    2    1    2    0    0  0.15323397553E+03  0.23900830877E+02  0.56126911407E+03  0.59556659619E+03  0.12499860445E+03 0.  0.
          2    1    1    2  501    0 -0.17407870773E+03 -0.54667543357E+01 -0.72159168400E+02  0.18852115922E+03  0.00000000000E+00 0. -1.
          1    1    1    2  502    0  0.20844732195E+02 -0.18434076541E+02  0.39714886814E+03  0.39812252072E+03  0.00000000000E+00 0. -1.
         22    1    3    3    0    0  0.62850230007E+02  0.28177695239E+01  0.64126098658E+02  0.89834557750E+02  0.00000000000E+00 0.  1.
         22    1    3    3    0    0  0.90383745528E+02  0.21083061353E+02  0.49714301542E+03  0.50573203844E+03  0.00000000000E+00 0.  1.
</event>
<event>
 7    1  0.5789396E-006  0.7638998E+02  0.7818608E-02  0.1432980E+00
          2   -1    0    0  502    0  0.00000000000E+00  0.00000000000E+00  0.10593356462E+04  0.10593356462E+04  0.00000000000E+00 0. -1.
          1   -1    0    0  501    0 -0.00000000000E+00 -0.00000000000E+00 -0.56763491172E+03  0.56763491172E+03  0.00000000000E+00 0. -1.
         25    2    1    2    0    0  0.21934398617E+02  0.38397906439E+02  0.52636188068E+03  0.54280409093E+03  0.12499573849E+03 0.  0.
          2    1    1    2  501    0 -0.18954135943E+02 -0.74172034064E+02 -0.55617474186E+03  0.56141882172E+03  0.00000000000E+00 0. -1.
          1    1    1    2  502    0 -0.29802626746E+01  0.35774127625E+02  0.52151359564E+03  0.52274764525E+03  0.00000000000E+00 0. -1.
         22    1    3    3    0    0  0.62311580803E+02  0.76706171036E+01  0.14400826490E+03  0.15709854178E+03  0.00000000000E+00 0.  1.
         22    1    3    3    0    0 -0.40377182185E+02  0.30727289335E+02  0.38235361577E+03  0.38570554915E+03  0.00000000000E+00 0.  1.
</event>
<event>
 7    1  0.5789396E-006  0.1179785E+03  0.7818608E-02  0.1250221E+00
          2   -1    0    0  502    0  0.00000000000E+00  0.00000000000E+00  0.36340304648E+03  0.36340304648E+03  0.00000000000E+00 0. -1.
          1   -1    0    0  501    0 -0.00000000000E+00 -0.00000000000E+00 -0.41559173183E+03  0.41559173183E+03  0.00000000000E+00 0. -1.
         25    2    1    2    0    0  0.44278550314E+02  0.15427443051E+03 -0.69403748427E+02  0.21494636077E+03  0.12499547106E+03 0.  0.
          2    1    1    2  501    0  0.58952173104E+02 -0.97138274910E+02 -0.24853804989E+03  0.27328074467E+03  0.00000000000E+00 0. -1.
          1    1    1    2  502    0 -0.10323072342E+03 -0.57136155598E+02  0.26575311296E+03  0.29076767286E+03  0.00000000000E+00 0. -1.
         22    1    3    3    0    0  0.61047484099E+01  0.10304273834E+03 -0.10034449821E+03  0.14395864753E+03  0.00000000000E+00 0. -1.
         22    1    3    3    0    0  0.38173801904E+02  0.51231692168E+02  0.30940749781E+02  0.70987713241E+02  0.00000000000E+00 0. -1.
</event>
<event>
 7    1  0.5789396E-006  0.9675781E+02  0.7818608E-02  0.1341990E+00
          2   -1    0    0  502    0  0.00000000000E+00  0.00000000000E+00  0.22970488432E+04  0.22970488432E+04  0.00000000000E+00 0. -1.
          1   -1    0    0  501    0 -0.00000000000E+00 -0.00000000000E+00 -0.34281659730E+03  0.34281659730E+03  0.00000000000E+00 0. -1.
         25    2    1    2    0    0  0.10908350734E+03 -0.19036574131E+02  0.76638928592E+03  0.78437160679E+03  0.12499870896E+03 0.  0.
          2    1    1    2  501    0 -0.71813375558E+02  0.64884430350E+02 -0.32622207715E+03  0.34027634921E+03  0.00000000000E+00 0. -1.
          1    1    1    2  502    0 -0.37270131786E+02 -0.45847856219E+02  0.15140650371E+04  0.15152174844E+04  0.00000000000E+00 0. -1.
         22    1    3    3    0    0  0.46743935612E+02 -0.65269348098E+02  0.51665326017E+03  0.52285339682E+03  0.00000000000E+00 0.  1.
         22    1    3    3    0    0  0.62339571732E+02  0.46232773966E+02  0.24973602575E+03  0.26151820998E+03  0.00000000000E+00 0.  1.
</event>
<event>
 7    1  0.7459267E-006  0.4540245E+02  0.7818608E-02  0.1542240E+00
          2   -1    0    0  502    0  0.00000000000E+00  0.00000000000E+00  0.86803763683E+03  0.86803763683E+03  0.00000000000E+00 0. -1.
          1   -1    0    0  501    0 -0.00000000000E+00 -0.00000000000E+00 -0.16475300885E+04  0.16475300885E+04  0.00000000000E+00 0. -1.
         25    2    1    2    0    0  0.46905515427E+02 -0.36995063764E+02 -0.10583619079E+04  0.10673915453E+04  0.12500408245E+03 0.  0.
          2    1    1    2  501    0 -0.24055612346E+01  0.28009870394E+02 -0.58371815267E+03  0.58439474786E+03  0.00000000000E+00 0. -1.
          1    1    1    2  502    0 -0.44499954193E+02  0.89851933704E+01  0.86258760891E+03  0.86378143223E+03  0.00000000000E+00 0. -1.
         22    1    3    3    0    0 -0.30101713543E+02 -0.12806821396E+02 -0.91603084365E+02  0.97268971916E+02  0.00000000000E+00 0.  1.
         22    1    3    3    0    0  0.77007228970E+02 -0.24188242368E+02 -0.96675882355E+03  0.97012257334E+03  0.00000000000E+00 0.  1.
</event>
<event>
 7    1  0.7092993E-006  0.1497926E+03  0.7818608E-02  0.1365389E+00
          2   -1    0    0  502    0  0.00000000000E+00  0.00000000000E+00  0.20292331758E+04  0.20292331758E+04  0.00000000000E+00 0. -1.
          1   -1    0    0  501    0 -0.00000000000E+00 -0.00000000000E+00 -0.19768970258E+04  0.19768970258E+04  0.00000000000E+00 0. -1.
         25    2    1    2    0    0 -0.70101431205E+02 -0.11879422272E+03 -0.16722249563E+03  0.25023064553E+03  0.12500293961E+03 0.  0.
          2    1    1    2  501    0 -0.30394297168E+02  0.74488449240E+01 -0.17652020653E+04  0.17654794335E+04  0.00000000000E+00 0. -1.
          1    1    1    2  502    0  0.10049572837E+03  0.11134537779E+03  0.19847607110E+04  0.19904201226E+04  0.00000000000E+00 0. -1.
         22    1    3    3    0    0 -0.28269539640E+02 -0.62619747898E+02 -0.16657583629E+03  0.18018853719E+03  0.00000000000E+00 0. -1.
         22    1    3    3    0    0 -0.41831891566E+02 -0.56174474818E+02 -0.64665934074E+00  0.70042108344E+02  0.00000000000E+00 0. -1.
</event>
<event>
 7    1  0.5789396E-006  0.1101923E+03  0.7818608E-02  0.1408795E+00
          2   -1    0    0  502    0  0.00000000000E+00  0.00000000000E+00  0.61017411285E+03  0.61017411285E+03  0.00000000000E+00 0. -1.
          1   -1    0    0  501    0 -0.00000000000E+00 -0.00000000000E+00 -0.18814069053E+03  0.18814069053E+03  0.00000000000E+00 0. -1.
         25    2    1    2    0    0  0.81205323162E+02 -0.23354209524E+02  0.13557049880E+02  0.15148632395E+03  0.12499835650E+03 0.  0.
          2    1    1    2  501    0  0.22817347987E+02 -0.19425546276E+02 -0.11117562523E+03  0.11514340130E+03  0.00000000000E+00 0. -1.
          1    1    1    2  502    0 -0.10402267115E+03  0.42779755800E+02  0.51965199768E+03  0.53168507814E+03  0.00000000000E+00 0. -1.
         22    1    3    3    0    0  0.29530578853E+02  0.51341077097E+02 -0.23575124505E+01  0.59274945380E+02  0.00000000000E+00 0. -1.
         22    1    3    3    0    0  0.51674744308E+02 -0.74695286621E+02  0.15914562330E+02  0.92211378565E+02  0.00000000000E+00 0. -1.
</event>
<event>
 7    1  0.7491710E-006  0.5788723E+02  0.7818608E-02  0.1429294E+00
          2   -1    0    0  502    0  0.00000000000E+00  0.00000000000E+00  0.13101771639E+04  0.13101771639E+04  0.00000000000E+00 0. -1.
          1   -1    0    0  501    0 -0.00000000000E+00 -0.00000000000E+00 -0.20330794917E+04  0.20330794917E+04  0.00000000000E+00 0. -1.
         25    2    1    2    0    0 -0.37889434156E+02  0.18599748835E+02 -0.73876329707E+02  0.15120956567E+03  0.12500024313E+03 0.  0.
          2    1    1    2  501    0 -0.12777426574E+02 -0.47006830598E+02 -0.19195639878E+04  0.19201819727E+04  0.00000000000E+00 0. -1.
          1    1    1    2  502    0  0.50666860730E+02  0.28407081763E+02  0.12705379897E+04  0.12718651172E+04  0.00000000000E+00 0. -1.
         22    1    3    3    0    0 -0.26206355815E+02  0.56794376061E+02  0.50497815082E+01  0.62752486250E+02  0.00000000000E+00 0.  1.
         22    1    3    3    0    0 -0.11683078341E+02 -0.38194627226E+02 -0.78926111215E+02  0.88457079423E+02  0.00000000000E+00 0.  1.
</event>
<event>
 7    1  0.5789396E-006  0.1228050E+03  0.7818608E-02  0.1306951E+00
          2   -1    0    0  502    0  0.00000000000E+00  0.00000000000E+00  0.24807134220E+04  0.24807134220E+04  0.00000000000E+00 0. -1.
          1   -1    0    0  501    0 -0.00000000000E+00 -0.00000000000E+00 -0.24996422742E+03  0.24996422742E+03  0.00000000000E+00 0. -1.
         25    2    1    2    0    0 -0.27093070595E+02 -0.17316271769E+03  0.38955382808E+03  0.44508039544E+03  0.12500004865E+03 0.  0.
          2    1    1    2  501    0  0.34069980897E+02  0.53622560184E+02 -0.21588287432E+03  0.22503679251E+03  0.00000000000E+00 0. -1.
          1    1    1    2  502    0 -0.69769103019E+01  0.11954015750E+03  0.20570782408E+04  0.20605604614E+04  0.00000000000E+00 0. -1.
         22    1    3    3    0    0  0.91377683460E+01 -0.10962794289E+03  0.33838869582E+03  0.35582115470E+03  0.00000000000E+00 0.  1.
         22    1    3    3    0    0 -0.36230838941E+02 -0.63534774795E+02  0.51165132260E+02  0.89259240742E+02  0.00000000000E+00 0.  1.
</event>
<event>
 7    1  0.5789396E-006  0.1752015E+03  0.7818608E-02  0.1389712E+00
          2   -1    0    0  502    0  0.00000000000E+00  0.00000000000E+00  0.10108838221E+04  0.10108838221E+04  0.00000000000E+00 0. -1.
          1   -1    0    0  501    0 -0.00000000000E+00 -0.00000000000E+00 -0.52524808024E+03  0.52524808024E+03  0.00000000000E+00 0. -1.
         25    2    1    2    0    0  0.86591216394E+02  0.14736890395E+03 -0.11649182569E+03  0.24168877400E+03  0.12500994127E+03 0.  0.
          2    1    1    2  501    0 -0.17092510887E+02  0.13731798515E+02 -0.33768364803E+03  0.33839468430E+03  0.00000000000E+00 0. -1.
          1    1    1    2  502    0 -0.69498705507E+02 -0.16110070247E+03  0.93981121559E+03  0.95604844404E+03  0.00000000000E+00 0. -1.
         22    1    3    3    0    0 -0.18256312989E+02  0.22898851552E+02 -0.64506433020E+02  0.70842997307E+02  0.00000000000E+00 0. -1.
         22    1    3    3    0    0  0.10484752938E+03  0.12447005240E+03 -0.51985392673E+02  0.17084577669E+03  0.00000000000E+00 0. -1.
</event>
<event>
 7    1  0.5789396E-006  0.5993925E+02  0.7818608E-02  0.1425825E+00
          2   -1    0    0  502    0  0.00000000000E+00  0.00000000000E+00  0.13655038380E+03  0.13655038380E+03  0.00000000000E+00 0. -1.
          1   -1    0    0  501    0 -0.00000000000E+00 -0.00000000000E+00 -0.16783267963E+04  0.16783267963E+04  0.00000000000E+00 0. -1.
         25    2    1    2    0    0  0.92402394010E+02 -0.16707831835E+00 -0.18953105525E+03  0.24512416990E+03  0.12500242971E+03 0.  0.
          2    1    1    2  501    0 -0.39975648242E+02 -0.27112709972E+02 -0.14525389531E+04  0.14533418599E+04  0.00000000000E+00 0. -1.
          1    1    1    2  502    0 -0.52426745768E+02  0.27279788291E+02  0.10029359590E+03  0.11641115023E+03  0.00000000000E+00 0. -1.
         22    1    3    3    0    0  0.75923947837E+02  0.16340625543E+02 -0.28988840845E+02  0.82896410006E+02  0.00000000000E+00 0. -1.
         22    1    3    3    0    0  0.16478446173E+02 -0.16507703861E+02 -0.16054221440E+03  0.16222775990E+03  0.00000000000E+00 0. -1.
</event>
<event>
 7    1  0.5789396E-006  0.1067294E+03  0.7818608E-02  0.1310347E+00
          2   -1    0    0  502    0  0.00000000000E+00  0.00000000000E+00  0.18068529835E+04  0.18068529835E+04  0.00000000000E+00 0. -1.
          1   -1    0    0  501    0 -0.00000000000E+00 -0.00000000000E+00 -0.49654878763E+02  0.49654878763E+02  0.00000000000E+00 0. -1.
         25    2    1    2    0    0  0.67827379114E+02  0.10935617903E+03  0.12154051692E+04  0.12285742694E+04  0.12500273093E+03 0.  0.
          2    1    1    2  501    0  0.29951765004E+01 -0.10657557784E+03  0.29310534723E+02  0.11057319892E+03  0.00000000000E+00 0. -1.
          1    1    1    2  502    0 -0.70822555614E+02 -0.27806011913E+01  0.51248240083E+03  0.51736039400E+03  0.00000000000E+00 0. -1.
         22    1    3    3    0    0 -0.18076463997E+01  0.69896189588E+02  0.91570780781E+03  0.91837330873E+03  0.00000000000E+00 0.  1.
         22    1    3    3    0    0  0.69635025513E+02  0.39459989443E+02  0.29969736140E+03  0.31020096063E+03  0.00000000000E+00 0.  1.
</event>
<event>
 7    1  0.5789396E-006  0.4686863E+02  0.7818608E-02  0.1493680E+00
          2   -1    0    0  502    0  0.00000000000E+00  0.00000000000E+00  0.26152170517E+04  0.26152170517E+04  0.00000000000E+00 0. -1.
          1   -1    0    0  501    0 -0.00000000000E+00 -0.00000000000E+00 -0.16673069464E+04  0.16673069464E+04  0.00000000000E+00 0. -1.
         25    2    1    2    0    0 -0.73163826559E+02  0.36205186167E+02  0.28379663596E+03  0.32067124214E+03  0.12500301568E+03 0.  0.
          2    1    1    2  501    0  0.37069542626E+02 -0.69625953518E+01 -0.16484206528E+04  0.16488521090E+04  0.00000000000E+00 0. -1.
          1    1    1    2  502    0  0.36094283933E+02 -0.29242590815E+02  0.23125341222E+04  0.23130006469E+04  0.00000000000E+00 0. -1.
         22    1    3    3    0    0  0.11883019035E+01 -0.35803512516E+02  0.13320745043E+03  0.13794030745E+03  0.00000000000E+00 0. -1.
         22    1    3    3    0    0 -0.74352128462E+02  0.72008698683E+02  0.15058918553E+03  0.18273093469E+03  0.00000000000E+00 0. -1.
</event>
<event>
 7    1  0.5789396E-006  0.7914361E+02  0.7818608E-02  0.1355556E+00
          2   -1    0    0  502    0  0.00000000000E+00  0.00000000000E+00  0.30013258824E+03  0.30013258824E+03  0.00000000000E+00 0. -1.
          1   -1    0    0  501    0 -0.00000000000E+00 -0.00000000000E+00 -0.17524331478E+04  0.17524331478E+04  0.00000000000E+00 0. -1.
         25    2    1    2    0    0 -0.51112751657E+01  0.12504886229E+03 -0.13224749376E+03  0.22085751263E+03  0.12500119273E+03 0.  0.
          2    1    1    2  501    0  0.36937714063E+02 -0.69146660990E+02 -0.15708439434E+04  0.15727988905E+04  0.00000000000E+00 0. -1.
          1    1    1    2  502    0 -0.31826438898E+02 -0.55902201301E+02  0.25079087766E+03  0.25890933285E+03  0.00000000000E+00 0. -1.
         22    1    3    3    0    0 -0.32074318226E+02 -0.10945610330E+02 -0.47550291870E+02  0.58391767674E+02  0.00000000000E+00 0. -1.
         22    1    3    3    0    0  0.26963043061E+02  0.13599447262E+03 -0.84697201894E+02  0.16246574495E+03  0.00000000000E+00 0. -1.
</event>
<event>
 7    1  0.5789396E-006  0.8079954E+02  0.7818608E-02  0.1480342E+00
          2   -1    0    0  502    0  0.00000000000E+00  0.00000000000E+00  0.83772280769E+03  0.83772280769E+03  0.00000000000E+00 0. -1.
          1   -1    0    0  501    0 -0.00000000000E+00 -0.00000000000E+00 -0.99760312988E+03  0.99760312988E+03  0.00000000000E+00 0. -1.
         25    2    1    2    0    0  0.30691951821E+02 -0.88642152812E+02 -0.66988760259E+03  0.68787508880E+03  0.12499324192E+03 0.  0.
          2    1    1    2  501    0  0.12594076153E+02  0.20451478459E+02 -0.31629743177E+03  0.31720803752E+03  0.00000000000E+00 0. -1.
          1    1    1    2  502    0 -0.43286027974E+02  0.68190674352E+02  0.82630471217E+03  0.83024281125E+03  0.00000000000E+00 0. -1.
         22    1    3    3    0    0 -0.31899905924E+02 -0.61978716192E+02 -0.17563490892E+03  0.18896186518E+03  0.00000000000E+00 0.  1.
         22    1    3    3    0    0  0.62591857745E+02 -0.26663436620E+02 -0.49425269367E+03  0.49891322362E+03  0.00000000000E+00 0.  1.
</event>
<event>
 7    1  0.5789396E-006  0.9938013E+02  0.7818608E-02  0.1438776E+00
          2   -1    0    0  502    0  0.00000000000E+00  0.00000000000E+00  0.17078368461E+03  0.17078368461E+03  0.00000000000E+00 0. -1.
          1   -1    0    0  501    0 -0.00000000000E+00 -0.00000000000E+00 -0.70393396123E+03  0.70393396123E+03  0.00000000000E+00 0. -1.
         25    2    1    2    0    0 -0.48487586831E+02  0.76138404746E+02 -0.37028690781E+02  0.15856913214E+03  0.12499977189E+03 0.  0.
          2    1    1    2  501    0  0.16290491770E+02  0.20796337825E+02 -0.58206227077E+03  0.58266144101E+03  0.00000000000E+00 0. -1.
          1    1    1    2  502    0  0.32197095061E+02 -0.96934742570E+02  0.85940684934E+02  0.13348707269E+03  0.00000000000E+00 0. -1.
         22    1    3    3    0    0  0.20451694582E+02 -0.14421529134E+02  0.19276763466E+02  0.31588699301E+02  0.00000000000E+00 0. -1.
         22    1    3    3    0    0 -0.68939281413E+02  0.90559933879E+02 -0.56305454247E+02  0.12698043284E+03  0.00000000000E+00 0. -1.
</event>
<event>
 7    1  0.5789396E-006  0.5082783E+02  0.7818608E-02  0.1464545E+00
          2   -1    0    0  502    0  0.00000000000E+00  0.00000000000E+00  0.29492763624E+04  0.29492763624E+04  0.00000000000E+00 0. -1.
          1   -1    0    0  501    0 -0.00000000000E+00 -0.00000000000E+00 -0.50212561289E+02  0.50212561289E+02  0.00000000000E+00 0. -1.
         25    2    1    2    0    0 -0.43045846972E+02  0.31381017733E+02  0.68148847780E+03  0.69490181751E+03  0.12499710951E+03 0.  0.
          2    1    1    2  501    0  0.50298990520E+01 -0.50910003120E+02 -0.28193029736E+02  0.58412115421E+02  0.00000000000E+00 0. -1.
          1    1    1    2  502    0  0.38015947920E+02  0.19528985388E+02  0.22457683530E+04  0.22461749907E+04  0.00000000000E+00 0. -1.
         22    1    3    3    0    0 -0.12640413849E+02 -0.39450711741E+02  0.42676396160E+03  0.42876988892E+03  0.00000000000E+00 0. -1.
         22    1    3    3    0    0 -0.30405433123E+02  0.70831729474E+02  0.25472451620E+03  0.26613192859E+03  0.00000000000E+00 0. -1.
</event>
<event>
 7    1  0.5789396E-006  0.7707524E+02  0.7818608E-02  0.1392614E+00
          2   -1    0    0  502    0  0.00000000000E+00  0.00000000000E+00  0.15674613910E+04  0.15674613910E+04  0.00000000000E+00 0. -1.
          1   -1    0    0  501    0 -0.00000000000E+00 -0.00000000000E+00 -0.13357985751E+03  0.13357985751E+03  0.00000000000E+00 0. -1.
         25    2    1    2    0    0 -0.33241319060E+01 -0.72772294793E+02  0.21870904830E+03  0.26223170659E+03  0.12499985356E+03 0.  0.
          2    1    1    2  501    0  0.47908883517E+02  0.86971646719E+01 -0.10530990879E+03  0.11602188881E+03  0.00000000000E+00 0. -1.
          1    1    1    2  502    0 -0.44584751611E+02  0.64075130121E+02  0.13204823940E+04  0.13227876531E+04  0.00000000000E+00 0. -1.
         22    1    3    3    0    0 -0.55073140300E+02 -0.49152776875E+02  0.17675348841E+03  0.19154853672E+03  0.00000000000E+00 0. -1.
         22    1    3    3    0    0  0.51749008393E+02 -0.23619517918E+02  0.41955559897E+02  0.70683169869E+02  0.00000000000E+00 0. -1.
</event>
<event>
 7    1  0.5789396E-006  0.7948107E+02  0.7818608E-02  0.1341119E+00
          2   -1    0    0  502    0  0.00000000000E+00  0.00000000000E+00  0.43671862619E+02  0.43671862619E+02  0.00000000000E+00 0. -1.
          1   -1    0    0  501    0 -0.00000000000E+00 -0.00000000000E+00 -0.12219347039E+04  0.12219347039E+04  0.00000000000E+00 0. -1.
         25    2    1    2    0    0  0.58176929326E+01  0.21525693377E+02 -0.40374923297E+03  0.42325622364E+03  0.12504074015E+03 0.  0.
          2    1    1    2  501    0  0.65436648065E+02  0.31149269308E+02 -0.74564077683E+03  0.74915445668E+03  0.00000000000E+00 0. -1.
          1    1    1    2  502    0 -0.71254340998E+02 -0.52674962686E+02 -0.28872831459E+02  0.93195886183E+02  0.00000000000E+00 0. -1.
         22    1    3    3    0    0  0.34877365521E+02 -0.32315189411E+02 -0.29207978254E+03  0.29592448608E+03  0.00000000000E+00 0.  1.
         22    1    3    3    0    0 -0.29059672588E+02  0.53840882788E+02 -0.11166945043E+03  0.12733173756E+03  0.00000000000E+00 0.  1.
</event>
<event>
 7    1  0.5789396E-006  0.3677291E+03  0.7818608E-02  0.1296689E+00
          2   -1    0    0  502    0  0.00000000000E+00  0.00000000000E+00  0.19550950896E+04  0.19550950896E+04  0.00000000000E+00 0. -1.
          1   -1    0    0  501    0 -0.00000000000E+00 -0.00000000000E+00 -0.16243488962E+03  0.16243488962E+03  0.00000000000E+00 0. -1.
         25    2    1    2    0    0 -0.36912580094E+03  0.33814107830E+02  0.52336376505E+03  0.65340049208E+03  0.12500128672E+03 0.  0.
          2    1    1    2  501    0  0.36196184377E+03 -0.56001310065E+02  0.24746262107E+03  0.44202971835E+03  0.00000000000E+00 0. -1.
          1    1    1    2  502    0  0.71639571681E+01  0.22187202235E+02  0.10218338138E+04  0.10220997688E+04  0.00000000000E+00 0. -1.
         22    1    3    3    0    0 -0.12398470196E+03  0.68438954587E+02  0.15950451739E+03  0.21330210476E+03  0.00000000000E+00 0.  1.
         22    1    3    3    0    0 -0.24514109898E+03 -0.34624846757E+02  0.36385924765E+03  0.44009838732E+03  0.00000000000E+00 0.  1.
</event>
<event>
 7    1  0.5789396E-006  0.1039717E+03  0.7818608E-02  0.1373703E+00
          2   -1    0    0  502    0  0.00000000000E+00  0.00000000000E+00  0.16641978288E+03  0.16641978288E+03  0.00000000000E+00 0. -1.
          1   -1    0    0  501    0 -0.00000000000E+00 -0.00000000000E+00 -0.66569450383E+03  0.66569450383E+03  0.00000000000E+00 0. -1.
         25    2    1    2    0    0 -0.11934584381E+03 -0.49415304769E+02  0.24966341923E+01  0.17976660886E+03  0.12499799077E+03 0.  0.
          2    1    1    2  501    0  0.24554858794E+02  0.34178430466E+02 -0.54530817253E+03  0.54692971141E+03  0.00000000000E+00 0. -1.
          1    1    1    2  502    0  0.94790985019E+02  0.15236874303E+02  0.43536817384E+02  0.10541796643E+03  0.00000000000E+00 0. -1.
         22    1    3    3    0    0 -0.53011538328E+02  0.34632552080E+02 -0.26799932266E+02  0.68759531914E+02  0.00000000000E+00 0. -1.
         22    1    3    3    0    0 -0.66334305484E+02 -0.84047856849E+02  0.29296566459E+02  0.11100707694E+03  0.00000000000E+00 0. -1.
</event>
<event>
 7    1  0.5789396E-006  0.1445230E+03  0.7818608E-02  0.1236483E+00
          2   -1    0    0  502    0  0.00000000000E+00  0.00000000000E+00  0.36561153911E+03  0.36561153911E+03  0.00000000000E+00 0. -1.
          1   -1    0    0  501    0 -0.00000000000E+00 -0.00000000000E+00 -0.14766785507E+04  0.14766785507E+04  0.00000000000E+00 0. -1.
         25    2    1    2    0    0  0.85147764068E+02 -0.96765917316E+02 -0.55571356899E+03  0.58400058213E+03  0.12500129873E+03 0.  0.
          2    1    1    2  501    0  0.60510497771E+02  0.87716285069E+02 -0.88834918293E+03  0.89471779787E+03  0.00000000000E+00 0. -1.
          1    1    1    2  502    0 -0.14565826184E+03  0.90496322465E+01  0.33299574034E+03  0.36357170981E+03  0.00000000000E+00 0. -1.
         22    1    3    3    0    0 -0.12256277615E+02 -0.24333513842E+02 -0.29677436867E+03  0.29802241885E+03  0.00000000000E+00 0.  1.
         22    1    3    3    0    0  0.97404041683E+02 -0.72432403474E+02 -0.25893920032E+03  0.28597816328E+03  0.00000000000E+00 0.  1.
</event>
<event>
 7    1  0.5789396E-006  0.3986374E+02  0.7818608E-02  0.1538148E+00
          2   -1    0    0  502    0  0.00000000000E+00  0.00000000000E+00  0.25179563521E+04  0.25179563521E+04  0.00000000000E+00 0. -1.
          1   -1    0    0  501    0 -0.00000000000E+00 -0.00000000000E+00 -0.12107966457E+03  0.12107966457E+03  0.00000000000E+00 0. -1.
         25    2    1    2    0    0  0.33335700375E+02 -0.64356700436E+02  0.65243322649E+03  0.66824087534E+03  0.12499479445E+03 0.  0.
          2    1    1    2  501    0 -0.16575309024E+02  0.36065476339E+02 -0.10954544053E+03  0.11651464712E+03  0.00000000000E+00 0. -1.
          1    1    1    2  502    0 -0.16760391351E+02  0.28291224096E+02  0.18539889015E+04  0.18542804942E+04  0.00000000000E+00 0. -1.
         22    1    3    3    0    0  0.76994170533E+01 -0.11267891190E+02  0.50931566391E+00  0.13656712535E+02  0.00000000000E+00 0.  1.
         22    1    3    3    0    0  0.25636283321E+02 -0.53088809245E+02  0.65192391083E+03  0.65458416281E+03  0.00000000000E+00 0.  1.
</event>
<event>
 7    1  0.5789396E-006  0.4972087E+02  0.7818608E-02  0.1495189E+00
          2   -1    0    0  502    0  0.00000000000E+00  0.00000000000E+00  0.47358982925E+03  0.47358982925E+03  0.00000000000E+00 0. -1.
          1   -1    0    0  501    0 -0.00000000000E+00 -0.00000000000E+00 -0.10633332217E+03  0.10633332217E+03  0.00000000000E+00 0. -1.
         25    2    1    2    0    0 -0.69449235464E+01  0.15556385287E+02  0.41101333188E+02  0.13268322934E+03  0.12500114668E+03 0.  0.
          2    1    1    2  501    0  0.17200486188E+01  0.35142434524E+02 -0.53579994936E+02  0.64099649990E+02  0.00000000000E+00 0. -1.
          1    1    1    2  502    0  0.52248749276E+01 -0.50698819811E+02  0.37973516883E+03  0.38314027208E+03  0.00000000000E+00 0. -1.
         22    1    3    3    0    0  0.30569588183E+02 -0.36394858905E+02 -0.12493886568E+02  0.49144508116E+02  0.00000000000E+00 0. -1.
         22    1    3    3    0    0 -0.37514511730E+02  0.51951244192E+02  0.53595219756E+02  0.83538721226E+02  0.00000000000E+00 0. -1.
</event>
<event>
 7    1  0.5789396E-006  0.2669562E+03  0.7818608E-02  0.1192870E+00
          2   -1    0    0  502    0  0.00000000000E+00  0.00000000000E+00  0.22111155909E+04  0.22111155909E+04  0.00000000000E+00 0. -1.
          1   -1    0    0  501    0 -0.00000000000E+00 -0.00000000000E+00 -0.41083299695E+03  0.41083299695E+03  0.00000000000E+00 0. -1.
         25    2    1    2    0    0  0.13655287364E+03 -0.25319132596E+03  0.17054746392E+03  0.35702117558E+03  0.12500059008E+03 0.  0.
          2    1    1    2  501    0  0.57705324528E+02  0.71113285080E+02 -0.30166611431E+03  0.31526092101E+03  0.00000000000E+00 0. -1.
          1    1    1    2  502    0 -0.19425819817E+03  0.18207804088E+03  0.19314012443E+04  0.19496664912E+04  0.00000000000E+00 0. -1.
         22    1    3    3    0    0  0.14000102383E+03 -0.13442828076E+03  0.93728048861E+02  0.21553699563E+03  0.00000000000E+00 0. -1.
         22    1    3    3    0    0 -0.34481501959E+01 -0.11876304520E+03  0.76819415057E+02  0.14148417995E+03  0.00000000000E+00 0. -1.
</event>
<event>
 7    1  0.5789396E-006  0.9157137E+02  0.7818608E-02  0.1472908E+00
          2   -1    0    0  502    0  0.00000000000E+00  0.00000000000E+00  0.56720257850E+03  0.56720257850E+03  0.00000000000E+00 0. -1.
          1   -1    0    0  501    0 -0.00000000000E+00 -0.00000000000E+00 -0.34618465921E+03  0.34618465921E+03  0.00000000000E+00 0. -1.
         25    2    1    2    0    0 -0.36538485551E+02  0.91877733963E+02 -0.98362307448E+02  0.18728689382E+03  0.12499863257E+03 0.  0.
          2    1    1    2  501    0  0.14358388329E+02 -0.89200715858E+02 -0.19306957954E+03  0.21316377171E+03  0.00000000000E+00 0. -1.
          1    1    1    2  502    0  0.22180097222E+02 -0.26770181059E+01  0.51244980627E+03  0.51293657219E+03  0.00000000000E+00 0. -1.
         22    1    3    3    0    0 -0.46855603725E+02  0.10787990101E+03 -0.37397878269E+02  0.12341848298E+03  0.00000000000E+00 0. -1.
         22    1    3    3    0    0  0.10317118174E+02 -0.16002167047E+02 -0.60964429179E+02  0.63868410837E+02  0.00000000000E+00 0. -1.
</event>
<event>
 7    1  0.5789396E-006  0.1120264E+03  0.7818608E-02  0.1317097E+00
          2   -1    0    0  502    0  0.00000000000E+00  0.00000000000E+00  0.12979266432E+03  0.12979266432E+03  0.00000000000E+00 0. -1.
          1   -1    0    0  501    0 -0.00000000000E+00 -0.00000000000E+00 -0.62348976414E+03  0.62348976414E+03  0.00000000000E+00 0. -1.
         25    2    1    2    0    0  0.10809767047E+03  0.11051520015E+03 -0.13926886159E+03  0.24273310052E+03  0.12499930580E+03 0.  0.
          2    1    1    2  501    0 -0.46030887046E+02 -0.96929874886E+02 -0.41142890821E+03  0.42519170937E+03  0.00000000000E+00 0. -1.
          1    1    1    2  502    0 -0.62066783426E+02 -0.13585325269E+02  0.57000669986E+02  0.85357618561E+02  0.00000000000E+00 0. -1.
         22    1    3    3    0    0  0.10179609316E+03  0.13405169512E+03 -0.97900196981E+02  0.19472223837E+03  0.00000000000E+00 0.  1.
         22    1    3    3    0    0  0.63015773107E+01 -0.23536494969E+02 -0.41368664611E+02  0.48010862144E+02  0.00000000000E+00 0.  1.
</event>
<event>
 7    1  0.5789396E-006  0.1054312E+03  0.7818608E-02  0.1392987E+00
          2   -1    0    0  502    0  0.00000000000E+00  0.00000000000E+00  0.73146615582E+03  0.73146615582E+03  0.00000000000E+00 0. -1.
          1   -1    0    0  501    0 -0.00000000000E+00 -0.00000000000E+00 -0.41709854492E+03  0.41709854492E+03  0.00000000000E+00 0. -1.
         25    2    1    2    0    0 -0.90876888175E+02  0.67350460713E+02  0.24238904185E+03  0.29524898138E+03  0.12499928015E+03 0.  0.
          2    1    1    2  501    0 -0.85549905886E+01 -0.34443343251E+02 -0.38391200432E+03  0.38554890588E+03  0.00000000000E+00 0. -1.
          1    1    1    2  502    0  0.99431878763E+02 -0.32907117462E+02  0.45589057338E+03  0.46776681347E+03  0.00000000000E+00 0. -1.
         22    1    3    3    0    0 -0.12900023274E+02  0.17689544015E+01  0.16943580160E+03  0.16993537202E+03  0.00000000000E+00 0. -1.
         22    1    3    3    0    0 -0.77976864900E+02  0.65581506312E+02  0.72953240250E+02  0.12531360937E+03  0.00000000000E+00 0. -1.
</event>
<event>
 7    1  0.5789396E-006  0.7951389E+02  0.7818608E-02  0.1429068E+00
          2   -1    0    0  502    0  0.00000000000E+00  0.00000000000E+00  0.46736451787E+02  0.46736451787E+02  0.00000000000E+00 0. -1.
          1   -1    0    0  501    0 -0.00000000000E+00 -0.00000000000E+00 -0.14235592203E+04  0.14235592203E+04  0.00000000000E+00 0. -1.
         25    2    1    2    0    0  0.69207087236E+02  0.89991845305E+02 -0.15552033509E+03  0.22956477631E+03  0.12500103499E+03 0.  0.
          2    1    1    2  501    0 -0.50900936823E+02 -0.59547815621E+02 -0.11923016900E+04  0.11948724483E+04  0.00000000000E+00 0. -1.
          1    1    1    2  502    0 -0.18306150412E+02 -0.30444029685E+02 -0.29000743411E+02  0.45858447474E+02  0.00000000000E+00 0. -1.
         22    1    3    3    0    0 -0.16900152564E+02 -0.91964528867E+01  0.71135378814E+01  0.20513223139E+02  0.00000000000E+00 0.  1.
         22    1    3    3    0    0  0.86107239799E+02  0.99188298192E+02 -0.16263387297E+03  0.20905155317E+03  0.00000000000E+00 0.  1.
</event>
<event>
 7    1  0.5789396E-006  0.9954887E+03  0.7818608E-02  0.1134280E+00
          2   -1    0    0  502    0  0.00000000000E+00  0.00000000000E+00  0.72957028715E+03  0.72957028715E+03  0.00000000000E+00 0. -1.
          1   -1    0    0  501    0 -0.00000000000E+00 -0.00000000000E+00 -0.16455118444E+04  0.16455118444E+04  0.00000000000E+00 0. -1.
         25    2    1    2    0    0  0.62415590626E+03 -0.75564404510E+03 -0.60448771449E+03  0.11582746322E+04  0.12500483323E+03 0.  0.
          2    1    1    2  501    0 -0.61926660497E+03  0.80378100563E+03 -0.41985026860E+03  0.10981025822E+04  0.00000000000E+00 0. -1.
          1    1    1    2  502    0 -0.48893012945E+01 -0.48136960533E+02  0.10839642581E+03  0.11870491719E+03  0.00000000000E+00 0. -1.
         22    1    3    3    0    0  0.56377937354E+03 -0.61443451664E+03 -0.52434587210E+03  0.98504596383E+03  0.00000000000E+00 0.  1.
         22    1    3    3    0    0  0.60376532724E+02 -0.14120952846E+03 -0.80141842387E+02  0.17322866834E+03  0.00000000000E+00 0.  1.
</event>
<event>
 7    1  0.5789396E-006  0.5070186E+02  0.7818608E-02  0.1503192E+00
          2   -1    0    0  502    0  0.00000000000E+00  0.00000000000E+00  0.18768767274E+04  0.18768767274E+04  0.00000000000E+00 0. -1.
          1   -1    0    0  501    0 -0.00000000000E+00 -0.00000000000E+00 -0.13368758295E+03  0.13368758295E+03  0.00000000000E+00 0. -1.
         25    2    1    2    0    0 -0.34966571786E+01 -0.18399010117E+02  0.31165900611E+03  0.33631385984E+03  0.12499970417E+03 0.  0.
          2    1    1    2  501    0  0.45124406239E+01  0.51038789642E+02 -0.11577207141E+03  0.12660368354E+03  0.00000000000E+00 0. -1.
          1    1    1    2  502    0 -0.10157834452E+01 -0.32639779526E+02  0.15473022098E+04  0.15476467670E+04  0.00000000000E+00 0. -1.
         22    1    3    3    0    0  0.30891670313E+02 -0.62341022949E+02  0.15146956431E+03  0.16668451442E+03  0.00000000000E+00 0. -1.
         22    1    3    3    0    0 -0.34388327492E+02  0.43942012833E+02  0.16018944180E+03  0.16962934541E+03  0.00000000000E+00 0. -1.
</event>
<event>
 7    1  0.5789396E-006  0.4746050E+02  0.7818608E-02  0.1532079E+00
          2   -1    0    0  502    0  0.00000000000E+00  0.00000000000E+00  0.22852516448E+02  0.22852516448E+02  0.00000000000E+00 0. -1.
          1   -1    0    0  501    0 -0.00000000000E+00 -0.00000000000E+00 -0.12998463279E+04  0.12998463279E+04  0.00000000000E+00 0. -1.
         25    2    1    2    0    0  0.64730936538E+02  0.12100696871E+02 -0.27553125451E+03  0.30964527166E+03  0.12500480408E+03 0.  0.
          2    1    1    2  501    0 -0.27302803815E+02  0.89747355605E+01 -0.92425508345E+03  0.92470181586E+03  0.00000000000E+00 0. -1.
          1    1    1    2  502    0 -0.37428132722E+02 -0.21075432431E+02 -0.77207473529E+02  0.88351756858E+02  0.00000000000E+00 0. -1.
         22    1    3    3    0    0  0.36070787964E+02  0.57868889989E+02 -0.22706858335E+03  0.23708659118E+03  0.00000000000E+00 0.  1.
         22    1    3    3    0    0  0.28660148574E+02 -0.45768193118E+02 -0.48462671157E+02  0.72558680482E+02  0.00000000000E+00 0.  1.
</event>
<event>
 7    1  0.5789396E-006  0.4651743E+02  0.7818608E-02  0.1537850E+00
          2   -1    0    0  502    0  0.00000000000E+00  0.00000000000E+00  0.14650369940E+04  0.14650369940E+04  0.00000000000E+00 0. -1.
          1   -1    0    0  501    0 -0.00000000000E+00 -0.00000000000E+00 -0.27132696050E+04  0.27132696050E+04  0.00000000000E+00 0. -1.
         25    2    1    2    0    0 -0.12585976649E+02 -0.48645394315E+02  0.25554404673E+02  0.13712346865E+03  0.12500014744E+03 0.  0.
          2    1    1    2  501    0  0.34660806256E+02  0.31041707932E+02 -0.26571373425E+04  0.26575446969E+04  0.00000000000E+00 0. -1.
          1    1    1    2  502    0 -0.22074829608E+02  0.17603686382E+02  0.13833503268E+04  0.13836384334E+04  0.00000000000E+00 0. -1.
         22    1    3    3    0    0  0.12294823737E+02  0.21377193907E+02  0.52559344775E+02  0.58057142827E+02  0.00000000000E+00 0.  1.
         22    1    3    3    0    0 -0.24880800386E+02 -0.70022588222E+02 -0.27004940102E+02  0.79066325822E+02  0.00000000000E+00 0.  1.
</event>
<event>
 7    1  0.5789396E-006  0.8632282E+02  0.7818608E-02  0.1404883E+00
          2   -1    0    0  502    0  0.00000000000E+00  0.00000000000E+00  0.18660371776E+03  0.18660371776E+03  0.00000000000E+00 0. -1.
          1   -1    0    0  501    0 -0.00000000000E+00 -0.00000000000E+00 -0.29201521826E+04  0.29201521826E+04  0.00000000000E+00 0. -1.
         25    2    1    2    0    0  0.95809248747E+02 -0.72687299831E+02 -0.12548062614E+03  0.21408629289E+03  0.12499879025E+03 0.  0.
          2    1    1    2  501    0 -0.21978218733E+02  0.32752945896E+02 -0.27378359939E+04  0.27381201082E+04  0.00000000000E+00 0. -1.
          1    1    1    2  502    0 -0.73831030014E+02  0.39934353935E+02  0.12976815520E+03  0.15454949926E+03  0.00000000000E+00 0. -1.
         22    1    3    3    0    0 -0.29930537968E+01 -0.52870211044E+02  0.25136354836E+00  0.52955460252E+02  0.00000000000E+00 0. -1.
         22    1    3    3    0    0  0.98802302543E+02 -0.19817088786E+02 -0.12573198969E+03  0.16113083264E+03  0.00000000000E+00 0. -1.
</event>
<event>
 7    1  0.5789396E-006  0.7366332E+02  0.7818608E-02  0.1503700E+00
          2   -1    0    0  502    0  0.00000000000E+00  0.00000000000E+00  0.28894222548E+03  0.28894222548E+03  0.00000000000E+00 0. -1.
          1   -1    0    0  501    0 -0.00000000000E+00 -0.00000000000E+00 -0.15797438657E+04  0.15797438657E+04  0.00000000000E+00 0. -1.
         25    2    1    2    0    0  0.69530627557E+02  0.50439204749E+01 -0.35131997746E+03  0.37935569915E+03  0.12500028245E+03 0.  0.
          2    1    1    2  501    0  0.21852835047E+01 -0.22291850194E+02 -0.12093530385E+04  0.12095604466E+04  0.00000000000E+00 0. -1.
          1    1    1    2  502    0 -0.71715911061E+02  0.17247929719E+02  0.26987137574E+03  0.27976994553E+03  0.00000000000E+00 0. -1.
         22    1    3    3    0    0  0.90080829523E+02  0.11029312627E+02 -0.13927992177E+03  0.16623807685E+03  0.00000000000E+00 0. -1.
         22    1    3    3    0    0 -0.20550201966E+02 -0.59853921519E+01 -0.21204005568E+03  0.21311762230E+03  0.00000000000E+00 0. -1.
</event>
<event>
 7    1  0.5789396E-006  0.9781983E+02  0.7818608E-02  0.1456959E+00
          2   -1    0    0  502    0  0.00000000000E+00  0.00000000000E+00  0.50183227192E+02  0.50183227192E+02  0.00000000000E+00 0. -1.
          1   -1    0    0  501    0 -0.00000000000E+00 -0.00000000000E+00 -0.26079220019E+04  0.26079220019E+04  0.00000000000E+00 0. -1.
         25    2    1    2    0    0 -0.16859062107E+02 -0.79960866557E+02 -0.16823407973E+04  0.16889564039E+04  0.12500083213E+03 0.  0.
          2    1    1    2  501    0  0.14599111950E+02 -0.18369160368E+02 -0.87034699172E+03  0.87066322198E+03  0.00000000000E+00 0. -1.
          1    1    1    2  502    0  0.22599501569E+01  0.98330026924E+02 -0.50509856744E+01  0.98485603141E+02  0.00000000000E+00 0. -1.
         22    1    3    3    0    0  0.11724773811E+02 -0.20755617453E+02 -0.13481200290E+04  0.13483307749E+04  0.00000000000E+00 0.  1.
         22    1    3    3    0    0 -0.28583835918E+02 -0.59205249104E+02 -0.33422076829E+03  0.34062562903E+03  0.00000000000E+00 0.  1.
</event>
<event>
 7    1  0.5789396E-006  0.5703317E+02  0.7818608E-02  0.1435871E+00
          2   -1    0    0  502    0  0.00000000000E+00  0.00000000000E+00  0.91142424107E+03  0.91142424107E+03  0.00000000000E+00 0. -1.
          1   -1    0    0  501    0 -0.00000000000E+00 -0.00000000000E+00 -0.19479669080E+03  0.19479669080E+03  0.00000000000E+00 0. -1.
         25    2    1    2    0    0 -0.44701523292E+02  0.83568189792E+02 -0.21461686144E+02  0.15832824967E+03  0.12500144856E+03 0.  0.
          2    1    1    2  501    0  0.13457326218E+01 -0.47026684262E+02 -0.98618772617E+02  0.10926565033E+03  0.00000000000E+00 0. -1.
          1    1    1    2  502    0  0.43355790670E+02 -0.36541505530E+02  0.83670800904E+03  0.83862703188E+03  0.00000000000E+00 0. -1.
         22    1    3    3    0    0 -0.77049687829E+02  0.59784986547E+02  0.21139295635E+02  0.99788620749E+02  0.00000000000E+00 0.  1.
         22    1    3    3    0    0  0.32348164537E+02  0.23783203245E+02 -0.42600981779E+02  0.58539628920E+02  0.00000000000E+00 0.  1.
</event>
<event>
 7    1  0.5789396E-006  0.9531798E+02  0.7818608E-02  0.1407014E+00
          2   -1    0    0  502    0  0.00000000000E+00  0.00000000000E+00  0.13625761098E+04  0.13625761098E+04  0.00000000000E+00 0. -1.
          1   -1    0    0  501    0 -0.00000000000E+00 -0.00000000000E+00 -0.15424795596E+04  0.15424795596E+04  0.00000000000E+00 0. -1.
         25    2    1    2    0    0  0.21337054025E+02  0.94934873388E+02  0.71921974906E+03  0.73645821940E+03  0.12500304569E+03 0.  0.
          2    1    1    2  501    0  0.31946147411E+02 -0.14611252778E+02 -0.15299981642E+04  0.15304013942E+04  0.00000000000E+00 0. -1.
          1    1    1    2  502    0 -0.53283201436E+02 -0.80323620610E+02  0.63087496534E+03  0.63819605567E+03  0.00000000000E+00 0. -1.
         22    1    3    3    0    0  0.97437822306E+01  0.19815592583E+02  0.11934257420E+02  0.25100308798E+02  0.00000000000E+00 0. -1.
         22    1    3    3    0    0  0.11593271794E+02  0.75119280805E+02  0.70728549164E+03  0.71135791061E+03  0.00000000000E+00 0. -1.
</event>
<event>
 7    1  0.5789396E-006  0.1253162E+03  0.7818608E-02  0.1411430E+00
          2   -1    0    0  502    0  0.00000000000E+00  0.00000000000E+00  0.17440524342E+04  0.17440524342E+04  0.00000000000E+00 0. -1.
          1   -1    0    0  501    0 -0.00000000000E+00 -0.00000000000E+00 -0.99632626578E+03  0.99632626578E+03  0.00000000000E+00 0. -1.
         25    2    1    2    0    0 -0.76295620735E+02  0.11198063140E+03  0.82444138716E+02  0.20194740089E+03  0.12500013266E+03 0.  0.
          2    1    1    2  501    0  0.25709990779E+02  0.23126800083E+01 -0.93395794196E+03  0.93431460946E+03  0.00000000000E+00 0. -1.
          1    1    1    2  502    0  0.50585629957E+02 -0.11429331141E+03  0.15992399716E+04  0.16041166896E+04  0.00000000000E+00 0. -1.
         22    1    3    3    0    0 -0.91537796813E+02  0.64531520556E+02  0.78971182049E+01  0.11227577596E+03  0.00000000000E+00 0.  1.
         22    1    3    3    0    0  0.15242176077E+02  0.47449110844E+02  0.74547020512E+02  0.89671624936E+02  0.00000000000E+00 0.  1.
</event>
<event>
 7    1  0.5789396E-006  0.1190527E+03  0.7818608E-02  0.1327847E+00
          2   -1    0    0  502    0  0.00000000000E+00  0.00000000000E+00  0.16743976163E+04  0.16743976163E+04  0.00000000000E+00 0. -1.
          1   -1    0    0  501    0 -0.00000000000E+00 -0.00000000000E+00 -0.80854858752E+03  0.80854858752E+03  0.00000000000E+00 0. -1.
         25    2    1    2    0    0  0.52810645065E+02 -0.49413574143E+02  0.20870295965E+03  0.25380957282E+03  0.12502683050E+03 0.  0.
          2    1    1    2  501    0 -0.10689341996E+03  0.54608301493E+02 -0.78089647461E+03  0.79006808180E+03  0.00000000000E+00 0. -1.
          1    1    1    2  502    0  0.54082774898E+02 -0.51947273501E+01  0.14380425437E+04  0.14390685492E+04  0.00000000000E+00 0. -1.
         22    1    3    3    0    0 -0.17927881534E+02  0.90619336039E+01  0.13392824500E+03  0.13542637256E+03  0.00000000000E+00 0. -1.
         22    1    3    3    0    0  0.70738526599E+02 -0.58475507747E+02  0.74774714658E+02  0.11838320026E+03  0.00000000000E+00 0. -1.
</event>
<event>
 7    1  0.5789396E-006  0.2834769E+02  0.7818608E-02  0.1636977E+00
          2   -1    0    0  502    0  0.00000000000E+00  0.00000000000E+00  0.46598117821E+03  0.46598117821E+03  0.00000000000E+00 0. -1.
          1   -1    0    0  501    0 -0.00000000000E+00 -0.00000000000E+00 -0.42990125921E+02  0.42990125921E+02  0.00000000000E+00 0. -1.
         25    2    1    2    0    0  0.45522994887E+02 -0.15707410305E+02  0.94268987156E+02  0.16379960721E+03  0.12499841431E+03 0.  0.
          2    1    1    2  501    0 -0.20269861834E+02  0.15356845984E+02  0.13221612318E+02  0.28662014054E+02  0.00000000000E+00 0. -1.
          1    1    1    2  502    0 -0.25253133053E+02  0.35056432083E+00  0.31550045281E+03  0.31650968287E+03  0.00000000000E+00 0. -1.
         22    1    3    3    0    0  0.18967550157E+02  0.54925837335E+02  0.34893120853E+02  0.67780125765E+02  0.00000000000E+00 0. -1.
         22    1    3    3    0    0  0.26555444730E+02 -0.70633247640E+02  0.59375866303E+02  0.96019481441E+02  0.00000000000E+00 0. -1.
</event>
<event>
 7    1  0.5789396E-006  0.1014249E+03  0.7818608E-02  0.1309689E+00
          2   -1    0    0  502    0  0.00000000000E+00  0.00000000000E+00  0.50457629375E+03  0.50457629375E+03  0.00000000000E+00 0. -1.
          1   -1    0    0  501    0 -0.00000000000E+00 -0.00000000000E+00 -0.26809276980E+03  0.26809276980E+03  0.00000000000E+00 0. -1.
         25    2    1    2    0    0 -0.13163865220E+03  0.98891088732E+02 -0.14407069787E+03  0.25197175468E+03  0.12500086794E+03 0.  0.
          2    1    1    2  501    0  0.37886385842E+02 -0.64762431710E+02 -0.42367926096E+02  0.86166071948E+02  0.00000000000E+00 0. -1.
          1    1    1    2  502    0  0.93752266358E+02 -0.34128657022E+02  0.42292214791E+03  0.43453123693E+03  0.00000000000E+00 0. -1.
         22    1    3    3    0    0 -0.99893292543E+02  0.12851338604E+03 -0.10615564552E+03  0.19432802516E+03  0.00000000000E+00 0.  1.
         22    1    3    3    0    0 -0.31745359658E+02 -0.29622297312E+02 -0.37915052342E+02  0.57643729511E+02  0.00000000000E+00 0.  1.
</event>
<event>
 7    1  0.5789396E-006  0.1192311E+03  0.7818608E-02  0.1254814E+00
          2   -1    0    0  502    0  0.00000000000E+00  0.00000000000E+00  0.15604317677E+04  0.15604317677E+04  0.00000000000E+00 0. -1.
          1   -1    0    0  501    0 -0.00000000000E+00 -0.00000000000E+00 -0.59278976035E+03  0.59278976035E+03  0.00000000000E+00 0. -1.
         25    2    1    2    0    0 -0.72025241631E+02 -0.76747272868E+02  0.21909327884E+03  0.27332298289E+03  0.12500323525E+03 0.  0.
          2    1    1    2  501    0 -0.52146179230E+02  0.93905776789E+02 -0.55754798636E+03  0.56780038395E+03  0.00000000000E+00 0. -1.
          1    1    1    2  502    0  0.12417142086E+03 -0.17158503920E+02  0.13060967149E+04  0.13120981612E+04  0.00000000000E+00 0. -1.
         22    1    3    3    0    0 -0.15924760549E+02  0.75439859099E+01  0.14932239789E+03  0.15035853229E+03  0.00000000000E+00 0.  1.
         22    1    3    3    0    0 -0.56100481082E+02 -0.84291258778E+02  0.69770880949E+02  0.12296445060E+03  0.00000000000E+00 0.  1.
</event>
<event>
 7    1  0.5789396E-006  0.1477783E+03  0.7818608E-02  0.1350029E+00
          2   -1    0    0  502    0  0.00000000000E+00  0.00000000000E+00  0.17053423831E+04  0.17053423831E+04  0.00000000000E+00 0. -1.
          1   -1    0    0  501    0 -0.00000000000E+00 -0.00000000000E+00 -0.51565898948E+02  0.51565898948E+02  0.00000000000E+00 0. -1.
         25    2    1    2    0    0 -0.14313761978E+03  0.90964361655E+02  0.35758621763E+03  0.41503679083E+03  0.12499896565E+03 0.  0.
          2    1    1    2  501    0  0.35560018866E+02  0.62607978949E+01 -0.14681712881E+01  0.36136796468E+02  0.00000000000E+00 0. -1.
          1    1    1    2  502    0  0.10757760091E+03 -0.97225159549E+02  0.12976584378E+04  0.13057346947E+04  0.00000000000E+00 0. -1.
         22    1    3    3    0    0 -0.29802016578E+02 -0.21659183327E+02  0.20887517209E+02  0.42350546510E+02  0.00000000000E+00 0.  1.
         22    1    3    3    0    0 -0.11333560320E+03  0.11262354498E+03  0.33669870042E+03  0.37268624432E+03  0.00000000000E+00 0.  1.
</event>
<event>
 7    1  0.5789396E-006  0.8486947E+02  0.7818608E-02  0.1399445E+00
          2   -1    0    0  502    0  0.00000000000E+00  0.00000000000E+00  0.16843064225E+04  0.16843064225E+04  0.00000000000E+00 0. -1.
          1   -1    0    0  501    0 -0.00000000000E+00 -0.00000000000E+00 -0.12781431114E+03  0.12781431114E+03  0.00000000000E+00 0. -1.
         25    2    1    2    0    0  0.65210511458E+02 -0.80190133249E+02  0.52276839991E+03  0.54735086919E+03  0.12499322295E+03 0.  0.
          2    1    1    2  501    0 -0.41878575826E+02  0.58667740994E-01 -0.11015677240E+03  0.11784877200E+03  0.00000000000E+00 0. -1.
          1    1    1    2  502    0 -0.23331935632E+02  0.80131465508E+02  0.11438804838E+04  0.11469210925E+04  0.00000000000E+00 0. -1.
         22    1    3    3    0    0  0.36745503697E+02  0.11094214794E+02  0.32943769465E+03  0.33166626042E+03  0.00000000000E+00 0. -1.
         22    1    3    3    0    0  0.28465007761E+02 -0.91284348044E+02  0.19333070526E+03  0.21568460877E+03  0.00000000000E+00 0. -1.
</event>
<event>
 7    1  0.5789396E-006  0.1014337E+03  0.7818608E-02  0.1327953E+00
          2   -1    0    0  502    0  0.00000000000E+00  0.00000000000E+00  0.10817378925E+04  0.10817378925E+04  0.00000000000E+00 0. -1.
          1   -1    0    0  501    0 -0.00000000000E+00 -0.00000000000E+00 -0.10968747877E+04  0.10968747877E+04  0.00000000000E+00 0. -1.
         25    2    1    2    0    0 -0.84185934949E+02 -0.11944355486E+02  0.13096852824E+02  0.15174474778E+03  0.12500000661E+03 0.  0.
          2    1    1    2  501    0  0.13204252607E+02 -0.62326043718E+02 -0.10239177339E+04  0.10258978574E+04  0.00000000000E+00 0. -1.
          1    1    1    2  502    0  0.70981682342E+02  0.74270399204E+02  0.99568398586E+03  0.10009700750E+04  0.00000000000E+00 0. -1.
         22    1    3    3    0    0 -0.21091321491E+01 -0.48993169414E+02  0.33528385425E+02  0.59404812236E+02  0.00000000000E+00 0.  1.
         22    1    3    3    0    0 -0.82076802800E+02  0.37048813927E+02 -0.20431532601E+02  0.92339935541E+02  0.00000000000E+00 0.  1.
</event>
<event>
 7    1  0.5789396E-006  0.7435917E+02  0.7818608E-02  0.1385605E+00
          2   -1    0    0  502    0  0.00000000000E+00  0.00000000000E+00  0.15183061184E+03  0.15183061184E+03  0.00000000000E+00 0. -1.
          1   -1    0    0  501    0 -0.00000000000E+00 -0.00000000000E+00 -0.80580193439E+03  0.80580193439E+03  0.00000000000E+00 0. -1.
         25    2    1    2    0    0  0.33365203390E+02  0.22184556323E+02  0.16439714787E+02  0.13229761091E+03  0.12500800892E+03 0.  0.
          2    1    1    2  501    0  0.26138362815E+02  0.46563824922E+02 -0.71985816852E+03  0.72183598316E+03  0.00000000000E+00 0. -1.
          1    1    1    2  502    0 -0.59503566205E+02 -0.68748381245E+02  0.49447131179E+02  0.10349895215E+03  0.00000000000E+00 0. -1.
         22    1    3    3    0    0  0.53395054376E+02  0.62690134576E+02 -0.45506743051E+01  0.82472986132E+02  0.00000000000E+00 0. -1.
         22    1    3    3    0    0 -0.20029850986E+02 -0.40505578253E+02  0.20990389092E+02  0.49824624779E+02  0.00000000000E+00 0. -1.
</event>
<event>
 7    1  0.5789396E-006  0.6677301E+02  0.7818608E-02  0.1403318E+00
          2   -1    0    0  502    0  0.00000000000E+00  0.00000000000E+00  0.69761205311E+03  0.69761205311E+03  0.00000000000E+00 0. -1.
          1   -1    0    0  501    0 -0.00000000000E+00 -0.00000000000E+00 -0.25825094727E+04  0.25825094727E+04  0.00000000000E+00 0. -1.
         25    2    1    2    0    0 -0.21935999863E+02 -0.10878463866E+03 -0.83002835759E+02  0.18663089692E+03  0.12500534086E+03 0.  0.
          2    1    1    2  501    0 -0.70382196999E+01  0.66058420076E+02 -0.24462092560E+04  0.24471111490E+04  0.00000000000E+00 0. -1.
          1    1    1    2  502    0  0.28974219563E+02  0.42726218580E+02  0.64431467221E+03  0.64637947985E+03  0.00000000000E+00 0. -1.
         22    1    3    3    0    0 -0.12192550437E+02 -0.31330476449E+02 -0.10105982337E+03  0.10650514044E+03  0.00000000000E+00 0.  1.
         22    1    3    3    0    0 -0.97434494257E+01 -0.77454162207E+02  0.18056987612E+02  0.80125756480E+02  0.00000000000E+00 0.  1.
</event>
<event>
 7    1  0.5789396E-006  0.1739840E+03  0.7818608E-02  0.1212932E+00
          2   -1    0    0  502    0  0.00000000000E+00  0.00000000000E+00  0.63636595227E+03  0.63636595227E+03  0.00000000000E+00 0. -1.
          1   -1    0    0  501    0 -0.00000000000E+00 -0.00000000000E+00 -0.78756913998E+03  0.78756913998E+03  0.00000000000E+00 0. -1.
         25    2    1    2    0    0  0.12783249726E+03 -0.15441929356E+03  0.33323401544E+03  0.40848031710E+03  0.12499917934E+03 0.  0.
          2    1    1    2  501    0 -0.16309489079E+02  0.17342085472E+03 -0.72712316001E+03  0.74769571492E+03  0.00000000000E+00 0. -1.
          1    1    1    2  502    0 -0.11152300818E+03 -0.19001561163E+02  0.24268595686E+03  0.26775906023E+03  0.00000000000E+00 0. -1.
         22    1    3    3    0    0  0.14237012766E+03 -0.15646954099E+03  0.33210114869E+03  0.39375518215E+03  0.00000000000E+00 0. -1.
         22    1    3    3    0    0 -0.14537630405E+02  0.20502474281E+01  0.11328667473E+01  0.14725134953E+02  0.00000000000E+00 0. -1.
</event>
<event>
 7    1  0.5789396E-006  0.1614769E+03  0.7818608E-02  0.1216152E+00
          2   -1    0    0  502    0  0.00000000000E+00  0.00000000000E+00  0.11038981570E+04  0.11038981570E+04  0.00000000000E+00 0. -1.
          1   -1    0    0  501    0 -0.00000000000E+00 -0.00000000000E+00 -0.41497322928E+03  0.41497322928E+03  0.00000000000E+00 0. -1.
         25    2    1    2    0    0  0.29900108727E+01  0.16263648053E+03  0.78300112918E+02  0.21956888249E+03  0.12498008447E+03 0.  0.
          2    1    1    2  501    0 -0.11152185865E+03 -0.37956769826E+02 -0.32681586586E+03  0.34739955600E+03  0.00000000000E+00 0. -1.
          1    1    1    2  502    0  0.10853184778E+03 -0.12467971070E+03  0.93744068063E+03  0.95190294775E+03  0.00000000000E+00 0. -1.
         22    1    3    3    0    0 -0.39866493489E+02  0.12415044685E+02  0.41933126744E+02  0.59176496653E+02  0.00000000000E+00 0.  1.
         22    1    3    3    0    0  0.42856504362E+02  0.15022143584E+03  0.36366986174E+02  0.16039238584E+03  0.00000000000E+00 0.  1.
</event>
<event>
 7    1  0.5789396E-006  0.5949844E+02  0.7818608E-02  0.1457572E+00
          2   -1    0    0  502    0  0.00000000000E+00  0.00000000000E+00  0.43678890065E+02  0.43678890065E+02  0.00000000000E+00 0. -1.
          1   -1    0    0  501    0 -0.00000000000E+00 -0.00000000000E+00 -0.11253439520E+04  0.11253439520E+04  0.00000000000E+00 0. -1.
         25    2    1    2    0    0 -0.18091579690E+01  0.24591347921E+02 -0.31145839465E+03  0.33651187556E+03  0.12500361335E+03 0.  0.
          2    1    1    2  501    0  0.12084808435E+01  0.38385641102E+02 -0.76855039079E+03  0.76950933786E+03  0.00000000000E+00 0. -1.
          1    1    1    2  502    0  0.60067712543E+00 -0.62976989023E+02 -0.16562764889E+01  0.63001628640E+02  0.00000000000E+00 0. -1.
         22    1    3    3    0    0  0.42832125962E+02 -0.10724970948E+02 -0.24527378049E+03  0.24921645895E+03  0.00000000000E+00 0. -1.
         22    1    3    3    0    0 -0.44641283931E+02  0.35316318870E+02 -0.66184614161E+02  0.87295416610E+02  0.00000000000E+00 0. -1.
</event>
<event>
 7    1  0.5789396E-006  0.1250194E+03  0.7818608E-02  0.1318907E+00
          2   -1    0    0  502    0  0.00000000000E+00  0.00000000000E+00  0.18321587445E+04  0.18321587445E+04  0.00000000000E+00 0. -1.
          1   -1    0    0  501    0 -0.00000000000E+00 -0.00000000000E+00 -0.20583086339E+03  0.20583086339E+03  0.00000000000E+00 0. -1.
         25    2    1    2    0    0  0.95534899439E+02  0.14472392769E+03  0.39506387499E+03  0.44919021656E+03  0.12499781227E+03 0.  0.
          2    1    1    2  501    0 -0.42484996043E+02 -0.36509410583E+02 -0.17173169702E+03  0.18063689466E+03  0.00000000000E+00 0. -1.
          1    1    1    2  502    0 -0.53049903396E+02 -0.10821451711E+03  0.14029957032E+04  0.14081624967E+04  0.00000000000E+00 0. -1.
         22    1    3    3    0    0  0.18435356735E+02  0.11322777197E+03  0.30816420211E+03  0.32882452187E+03  0.00000000000E+00 0.  1.
         22    1    3    3    0    0  0.77099542704E+02  0.31496155724E+02  0.86899672886E+02  0.12036569469E+03  0.00000000000E+00 0.  1.
</event>
<event>
 7    1  0.1333189E-005  0.5048291E+02  0.7818608E-02  0.1506317E+00
          2   -1    0    0  502    0  0.00000000000E+00  0.00000000000E+00  0.25084134179E+04  0.25084134179E+04  0.00000000000E+00 0. -1.
          1   -1    0    0  501    0 -0.00000000000E+00 -0.00000000000E+00 -0.17150974976E+04  0.17150974976E+04  0.00000000000E+00 0. -1.
         25    2    1    2    0    0  0.62841889603E+02  0.51879539073E+02 -0.23722270668E+03  0.28025009925E+03  0.12499966360E+03 0.  0.
          2    1    1    2  501    0 -0.28359196430E+02 -0.15049665876E+02 -0.14559282179E+04  0.14562821540E+04  0.00000000000E+00 0. -1.
          1    1    1    2  502    0 -0.34482693173E+02 -0.36829873198E+02  0.24864668448E+04  0.24869786622E+04  0.00000000000E+00 0. -1.
         22    1    3    3    0    0  0.53832088971E+02  0.22379756516E+02 -0.24210131582E+03  0.24902167461E+03  0.00000000000E+00 0. -1.
         22    1    3    3    0    0  0.90098006321E+01  0.29499782557E+02  0.48786091361E+01  0.31228424639E+02  0.00000000000E+00 0. -1.
</event>
<event>
 7    1  0.5789396E-006  0.7243443E+02  0.7818608E-02  0.1437783E+00
          2   -1    0    0  502    0  0.00000000000E+00  0.00000000000E+00  0.20799705357E+04  0.20799705357E+04  0.00000000000E+00 0. -1.
          1   -1    0    0  501    0 -0.00000000000E+00 -0.00000000000E+00 -0.29560196527E+03  0.29560196527E+03  0.00000000000E+00 0. -1.
         25    2    1    2    0    0  0.87537004488E+02  0.44987066640E+02  0.33230982646E+02  0.16252835992E+03  0.12499842500E+03 0.  0.
          2    1    1    2  501    0 -0.16387024155E+02 -0.32631504138E+02 -0.22884759715E+03  0.23174246987E+03  0.00000000000E+00 0. -1.
          1    1    1    2  502    0 -0.71149980332E+02 -0.12355562502E+02  0.19799851849E+04  0.19813016712E+04  0.00000000000E+00 0. -1.
         22    1    3    3    0    0  0.26897074448E+02  0.57371315624E+02 -0.33366652295E+02  0.71611828323E+02  0.00000000000E+00 0. -1.
         22    1    3    3    0    0  0.60639930040E+02 -0.12384248985E+02  0.66597634941E+02  0.90916531598E+02  0.00000000000E+00 0. -1.
</event>
<event>
 7    1  0.5789396E-006  0.7965681E+02  0.7818608E-02  0.1467704E+00
          2   -1    0    0  502    0  0.00000000000E+00  0.00000000000E+00  0.46924194889E+03  0.46924194889E+03  0.00000000000E+00 0. -1.
          1   -1    0    0  501    0 -0.00000000000E+00 -0.00000000000E+00 -0.96350725136E+03  0.96350725136E+03  0.00000000000E+00 0. -1.
         25    2    1    2    0    0  0.16243537563E+02 -0.56768976091E+02 -0.77289748436E+02  0.15838177485E+03  0.12499804891E+03 0.  0.
          2    1    1    2  501    0 -0.42800413804E+01  0.80591185511E+02 -0.84332879189E+03  0.84718162703E+03  0.00000000000E+00 0. -1.
          1    1    1    2  502    0 -0.11963496183E+02 -0.23822209419E+02  0.42635323786E+03  0.42718579838E+03  0.00000000000E+00 0. -1.
         22    1    3    3    0    0  0.30813123486E+02 -0.53761411877E+02 -0.10785505189E+03  0.12438830413E+03  0.00000000000E+00 0. -1.
         22    1    3    3    0    0 -0.14569585923E+02 -0.30075642143E+01  0.30565303452E+02  0.33993470720E+02  0.00000000000E+00 0. -1.
</event>
<event>
 7    1  0.5789396E-006  0.5152062E+02  0.7818608E-02  0.1472324E+00
          2   -1    0    0  502    0  0.00000000000E+00  0.00000000000E+00  0.32605933004E+03  0.32605933004E+03  0.00000000000E+00 0. -1.
          1   -1    0    0  501    0 -0.00000000000E+00 -0.00000000000E+00 -0.28772698437E+03  0.28772698437E+03  0.00000000000E+00 0. -1.
         25    2    1    2    0    0 -0.39071588211E+02  0.51278138088E+02 -0.27403845900E+01  0.14068522870E+03  0.12501514875E+03 0.  0.
          2    1    1    2  501    0  0.39873301664E+02  0.24772658712E+00 -0.21155046156E+03  0.21527549637E+03  0.00000000000E+00 0. -1.
          1    1    1    2  502    0 -0.80171345277E+00 -0.51525864675E+02  0.25262319182E+03  0.25782558934E+03  0.00000000000E+00 0. -1.
         22    1    3    3    0    0 -0.70548244292E+01 -0.59181213680E+01  0.53518535493E+02  0.54304956952E+02  0.00000000000E+00 0. -1.
         22    1    3    3    0    0 -0.32016763782E+02  0.57196259456E+02 -0.56258920083E+02  0.86380271751E+02  0.00000000000E+00 0. -1.
</event>
<event>
 7    1  0.5789396E-006  0.5133478E+02  0.7818608E-02  0.1440728E+00
          2   -1    0    0  502    0  0.00000000000E+00  0.00000000000E+00  0.26759613052E+03  0.26759613052E+03  0.00000000000E+00 0. -1.
          1   -1    0    0  501    0 -0.00000000000E+00 -0.00000000000E+00 -0.16486625367E+03  0.16486625367E+03  0.00000000000E+00 0. -1.
         25    2    1    2    0    0  0.89045481070E+01 -0.12284358145E+02 -0.10797745662E+03  0.16587710967E+03  0.12500355173E+03 0.  0.
          2    1    1    2  501    0 -0.41189538024E+02 -0.29045808481E+02  0.99078882324E+00  0.50410501837E+02  0.00000000000E+00 0. -1.
          1    1    1    2  502    0  0.32284989917E+02  0.41330166626E+02  0.20971654464E+03  0.21617477268E+03  0.00000000000E+00 0. -1.
         22    1    3    3    0    0 -0.52674035930E+02 -0.31327748932E+02 -0.57049701947E+02  0.83729626815E+02  0.00000000000E+00 0. -1.
         22    1    3    3    0    0  0.61578584037E+02  0.19043390787E+02 -0.50927754669E+02  0.82147482860E+02  0.00000000000E+00 0. -1.
</event>
<event>
 7    1  0.5789396E-006  0.8444910E+02  0.7818608E-02  0.1363874E+00
          2   -1    0    0  502    0  0.00000000000E+00  0.00000000000E+00  0.86939579039E+03  0.86939579039E+03  0.00000000000E+00 0. -1.
          1   -1    0    0  501    0 -0.00000000000E+00 -0.00000000000E+00 -0.19019291933E+03  0.19019291933E+03  0.00000000000E+00 0. -1.
         25    2    1    2    0    0  0.26956179886E+01  0.42393468161E+02  0.16678596378E+03  0.21271332418E+03  0.12499971229E+03 0.  0.
          2    1    1    2  501    0  0.41820708971E+02 -0.76719603951E+02 -0.15455182561E+03  0.17754192781E+03  0.00000000000E+00 0. -1.
          1    1    1    2  502    0 -0.44516326959E+02  0.34326135790E+02  0.66696873290E+03  0.66933345773E+03  0.00000000000E+00 0. -1.
         22    1    3    3    0    0 -0.50246316125E+02  0.92810117310E+01  0.13129656991E+03  0.14088867496E+03  0.00000000000E+00 0. -1.
         22    1    3    3    0    0  0.52941934114E+02  0.33112456430E+02  0.35489393871E+02  0.71824649222E+02  0.00000000000E+00 0. -1.
</event>
<event>
 7    1  0.5789396E-006  0.1141849E+03  0.7818608E-02  0.1272019E+00
          2   -1    0    0  502    0  0.00000000000E+00  0.00000000000E+00  0.23121459392E+04  0.23121459392E+04  0.00000000000E+00 0. -1.
          1   -1    0    0  501    0 -0.00000000000E+00 -0.00000000000E+00 -0.26077642986E+03  0.26077642986E+03  0.00000000000E+00 0. -1.
         25    2    1    2    0    0  0.48928940749E+02  0.86696991194E+02 -0.97078555856E+02  0.18696907189E+03  0.12499111293E+03 0.  0.
          2    1    1    2  501    0  0.29418795741E+02 -0.14006925701E+03 -0.74247119731E+02  0.16123739358E+03  0.00000000000E+00 0. -1.
          1    1    1    2  502    0 -0.78347736491E+02  0.53372265813E+02  0.22226951849E+04  0.22247159035E+04  0.00000000000E+00 0. -1.
         22    1    3    3    0    0  0.21421509824E+02  0.98866954229E+02 -0.11403574121E+03  0.15243918786E+03  0.00000000000E+00 0. -1.
         22    1    3    3    0    0  0.27507430925E+02 -0.12169963034E+02  0.16957185353E+02  0.34529884035E+02  0.00000000000E+00 0. -1.
</event>
<event>
 7    1  0.5789396E-006  0.7961327E+02  0.7818608E-02  0.1350607E+00
          2   -1    0    0  502    0  0.00000000000E+00  0.00000000000E+00  0.10359077075E+04  0.10359077075E+04  0.00000000000E+00 0. -1.
          1   -1    0    0  501    0 -0.00000000000E+00 -0.00000000000E+00 -0.85548399047E+02  0.85548399047E+02  0.00000000000E+00 0. -1.
         25    2    1    2    0    0 -0.28596207710E+02 -0.68786469755E+02  0.56477495588E+02  0.15609581612E+03  0.12500749892E+03 0.  0.
          2    1    1    2  501    0  0.66646657135E+02 -0.24589603336E+01 -0.11396622093E+01  0.66701740780E+02  0.00000000000E+00 0. -1.
          1    1    1    2  502    0 -0.38050449425E+02  0.71245430088E+02  0.89502147507E+03  0.89865854964E+03  0.00000000000E+00 0. -1.
         22    1    3    3    0    0 -0.27326992478E+02 -0.99991444856E+02  0.15867746193E+02  0.10486581393E+03  0.00000000000E+00 0.  1.
         22    1    3    3    0    0 -0.12692152317E+01  0.31204975101E+02  0.40609749395E+02  0.51230002189E+02  0.00000000000E+00 0.  1.
</event>
<event>
 7    1  0.5789396E-006  0.1437302E+03  0.7818608E-02  0.1288814E+00
          2   -1    0    0  502    0  0.00000000000E+00  0.00000000000E+00  0.38067901351E+03  0.38067901351E+03  0.00000000000E+00 0. -1.
          1   -1    0    0  501    0 -0.00000000000E+00 -0.00000000000E+00 -0.52641490750E+03  0.52641490750E+03  0.00000000000E+00 0. -1.
         25    2    1    2    0    0  0.18019603970E+03  0.85627358647E+02 -0.12542610417E+03  0.26677017821E+03  0.12502784931E+03 0.  0.
          2    1    1    2  501    0 -0.63495533275E+02 -0.94574433967E+01 -0.31121179502E+03  0.31776391762E+03  0.00000000000E+00 0. -1.
          1    1    1    2  502    0 -0.11670050643E+03 -0.76169915250E+02  0.29090200520E+03  0.32255982518E+03  0.00000000000E+00 0. -1.
         22    1    3    3    0    0  0.10759107886E+03  0.37334696987E+02  0.15368323508E+00  0.11388478154E+03  0.00000000000E+00 0. -1.
         22    1    3    3    0    0  0.72604960844E+02  0.48292661659E+02 -0.12557978741E+03  0.15288539667E+03  0.00000000000E+00 0. -1.
</event>
<event>
 7    1  0.5789396E-006  0.3520345E+02  0.7818608E-02  0.1602911E+00
          2   -1    0    0  502    0  0.00000000000E+00  0.00000000000E+00  0.69992033697E+03  0.69992033697E+03  0.00000000000E+00 0. -1.
          1   -1    0    0  501    0 -0.00000000000E+00 -0.00000000000E+00 -0.22423235746E+03  0.22423235746E+03  0.00000000000E+00 0. -1.
         25    2    1    2    0    0  0.49176643662E+02  0.33069236456E+02  0.18845078125E+02  0.13961109340E+03  0.12499681495E+03 0.  0.
          2    1    1    2  501    0 -0.30093599826E+02 -0.17175287661E+02 -0.16176551014E+03  0.16543486793E+03  0.00000000000E+00 0. -1.
          1    1    1    2  502    0 -0.19083043835E+02 -0.15893948794E+02  0.61860841152E+03  0.61910673310E+03  0.00000000000E+00 0. -1.
         22    1    3    3    0    0  0.43306523126E+02  0.59567931435E+02  0.56761301600E+02  0.92981927061E+02  0.00000000000E+00 0.  1.
         22    1    3    3    0    0  0.58701205362E+01 -0.26498694980E+02 -0.37916223475E+02  0.46629166338E+02  0.00000000000E+00 0.  1.
</event>
<event>
 7    1  0.5789396E-006  0.2959057E+03  0.7818608E-02  0.1175515E+00
          2   -1    0    0  502    0  0.00000000000E+00  0.00000000000E+00  0.33715636323E+03  0.33715636323E+03  0.00000000000E+00 0. -1.
          1   -1    0    0  501    0 -0.00000000000E+00 -0.00000000000E+00 -0.13067736107E+04  0.13067736107E+04  0.00000000000E+00 0. -1.
         25    2    1    2    0    0  0.17283495653E+03 -0.20785828231E+03 -0.11327583912E+03  0.31864229653E+03  0.12499803874E+03 0.  0.
          2    1    1    2  501    0 -0.56657257482E+02 -0.82736031660E+02 -0.98268610975E+03  0.98778908986E+03  0.00000000000E+00 0. -1.
          1    1    1    2  502    0 -0.11617769905E+03  0.29059431396E+03  0.12634470135E+03  0.33749858759E+03  0.00000000000E+00 0. -1.
         22    1    3    3    0    0  0.16751912318E+03 -0.18793353438E+03 -0.56197708415E+02  0.25795319810E+03  0.00000000000E+00 0.  1.
         22    1    3    3    0    0  0.53158333471E+01 -0.19924747922E+02 -0.57078130702E+02  0.60689098431E+02  0.00000000000E+00 0.  1.
</event>
<event>
 7    1  0.5789396E-006  0.8495861E+02  0.7818608E-02  0.1409130E+00
          2   -1    0    0  502    0  0.00000000000E+00  0.00000000000E+00  0.29416416809E+03  0.29416416809E+03  0.00000000000E+00 0. -1.
          1   -1    0    0  501    0 -0.00000000000E+00 -0.00000000000E+00 -0.14831215503E+03  0.14831215503E+03  0.00000000000E+00 0. -1.
         25    2    1    2    0    0  0.81362259332E+00 -0.79608315908E+02  0.27934812162E+02  0.15080509015E+03  0.12499470206E+03 0.  0.
          2    1    1    2  501    0  0.37951176431E+02  0.79425572514E+02 -0.61971503851E+02  0.10765305686E+03  0.00000000000E+00 0. -1.
          1    1    1    2  502    0 -0.38764799024E+02  0.18274339343E+00  0.17988870475E+03  0.18401817610E+03  0.00000000000E+00 0. -1.
         22    1    3    3    0    0 -0.47983918484E+02 -0.77625267652E+02 -0.58095450447E+01  0.91443367309E+02  0.00000000000E+00 0.  1.
         22    1    3    3    0    0  0.48797541078E+02 -0.19830482551E+01  0.33744357207E+02  0.59361722843E+02  0.00000000000E+00 0.  1.
</event>
<event>
 7    1  0.5789396E-006  0.9369081E+02  0.7818608E-02  0.1460912E+00
          2   -1    0    0  502    0  0.00000000000E+00  0.00000000000E+00  0.64726615113E+02  0.64726615113E+02  0.00000000000E+00 0. -1.
          1   -1    0    0  501    0 -0.00000000000E+00 -0.00000000000E+00 -0.44820052246E+03  0.44820052246E+03  0.00000000000E+00 0. -1.
         25    2    1    2    0    0 -0.13062892103E+02  0.91841627228E+02 -0.26817334356E+03  0.31007692279E+03  0.12500092883E+03 0.  0.
          2    1    1    2  501    0  0.36599984438E+02 -0.88289135396E+02 -0.13937365174E+03  0.16899569548E+03  0.00000000000E+00 0. -1.
          1    1    1    2  502    0 -0.23537092335E+02 -0.35524918318E+01  0.24073087955E+02  0.33854519307E+02  0.00000000000E+00 0. -1.
         22    1    3    3    0    0  0.74311720326E+01  0.20270832601E+02  0.87688742587E+01  0.23302835190E+02  0.00000000000E+00 0.  1.
         22    1    3    3    0    0 -0.20494064135E+02  0.71570794627E+02 -0.27694221782E+03  0.28677408760E+03  0.00000000000E+00 0.  1.
</event>
<event>
 7    1  0.5789396E-006  0.8739335E+02  0.7818608E-02  0.1367817E+00
          2   -1    0    0  502    0  0.00000000000E+00  0.00000000000E+00  0.15010180230E+02  0.15010180230E+02  0.00000000000E+00 0. -1.
          1   -1    0    0  501    0 -0.00000000000E+00 -0.00000000000E+00 -0.20252587054E+04  0.20252587054E+04  0.00000000000E+00 0. -1.
         25    2    1    2    0    0  0.63289233872E+02  0.54274391928E+02 -0.53478534343E+03  0.55549254437E+03  0.12500146622E+03 0.  0.
          2    1    1    2  501    0  0.35332786442E+02 -0.38918541024E+02 -0.82782520330E+03  0.82949239048E+03  0.00000000000E+00 0. -1.
          1    1    1    2  502    0 -0.98622020314E+02 -0.15355850904E+02 -0.64763797848E+03  0.65528395084E+03  0.00000000000E+00 0. -1.
         22    1    3    3    0    0  0.64614301463E+02  0.47247994686E+01 -0.10876561455E+03  0.12659893598E+03  0.00000000000E+00 0. -1.
         22    1    3    3    0    0 -0.13250675912E+01  0.49549592460E+02 -0.42601972888E+03  0.42889360839E+03  0.00000000000E+00 0. -1.
</event>
<event>
 7    1  0.5789396E-006  0.1191323E+03  0.7818608E-02  0.1363120E+00
          2   -1    0    0  502    0  0.00000000000E+00  0.00000000000E+00  0.75732786251E+03  0.75732786251E+03  0.00000000000E+00 0. -1.
          1   -1    0    0  501    0 -0.00000000000E+00 -0.00000000000E+00 -0.57294254683E+03  0.57294254683E+03  0.00000000000E+00 0. -1.
         25    2    1    2    0    0 -0.15642759981E+03 -0.91137219862E+01 -0.36519983100E+02  0.20374085390E+03  0.12499588982E+03 0.  0.
          2    1    1    2  501    0  0.38889314270E+02  0.97797483803E+01 -0.44678064378E+03  0.44857659981E+03  0.00000000000E+00 0. -1.
          1    1    1    2  502    0  0.11753828554E+03 -0.66602639401E+00  0.66768594255E+03  0.67795295563E+03  0.00000000000E+00 0. -1.
         22    1    3    3    0    0 -0.11879998946E+03  0.38848853795E+02  0.12363928209E+02  0.12560070723E+03  0.00000000000E+00 0. -1.
         22    1    3    3    0    0 -0.37627610351E+02 -0.47962575781E+02 -0.48883911309E+02  0.78140146668E+02  0.00000000000E+00 0. -1.
</event>
<event>
 7    1  0.5789396E-006  0.4043811E+02  0.7818608E-02  0.1554204E+00
          2   -1    0    0  502    0  0.00000000000E+00  0.00000000000E+00  0.16088659893E+04  0.16088659893E+04  0.00000000000E+00 0. -1.
          1   -1    0    0  501    0 -0.00000000000E+00 -0.00000000000E+00 -0.16906075633E+02  0.16906075633E+02  0.00000000000E+00 0. -1.
         25    2    1    2    0    0 -0.30297642070E+02 -0.10494615523E+02  0.12811854022E+04  0.12876685635E+04  0.12500484207E+03 0.  0.
          2    1    1    2  501    0  0.31668933926E+01 -0.29052186166E+02  0.63264506027E+01  0.29901215895E+02  0.00000000000E+00 0. -1.
          1    1    1    2  502    0  0.27130748677E+02  0.39546801689E+02  0.30444806081E+03  0.30820228548E+03  0.00000000000E+00 0. -1.
         22    1    3    3    0    0 -0.74492300248E+02  0.10593878498E+02  0.93715473246E+03  0.94017037053E+03  0.00000000000E+00 0. -1.
         22    1    3    3    0    0  0.44194658178E+02 -0.21088494021E+02  0.34403066979E+03  0.34749819301E+03  0.00000000000E+00 0. -1.
</event>
<event>
 7    1  0.5789396E-006  0.1148819E+03  0.7818608E-02  0.1307504E+00
          2   -1    0    0  502    0  0.00000000000E+00  0.00000000000E+00  0.27667019036E+03  0.27667019036E+03  0.00000000000E+00 0. -1.
          1   -1    0    0  501    0 -0.00000000000E+00 -0.00000000000E+00 -0.97627887790E+03  0.97627887790E+03  0.00000000000E+00 0. -1.
         25    2    1    2    0    0 -0.10092990646E+03  0.14299040407E+03  0.21115623924E+02  0.21611096571E+03  0.12499991302E+03 0.  0.
          2    1    1    2  501    0  0.46318641392E+02 -0.10319829637E+03 -0.86771676312E+03  0.87505867570E+03  0.00000000000E+00 0. -1.
          1    1    1    2  502    0  0.54611265064E+02 -0.39792107697E+02  0.14699245166E+03  0.16177942685E+03  0.00000000000E+00 0. -1.
         22    1    3    3    0    0  0.20863115919E+02  0.66207916690E+02  0.19583630798E+02  0.72126808009E+02  0.00000000000E+00 0.  1.
         22    1    3    3    0    0 -0.12179302237E+03  0.76782487376E+02  0.15319931258E+01  0.14398415770E+03  0.00000000000E+00 0.  1.
</event>
<event>
 7    1  0.5789396E-006  0.6291344E+02  0.7818608E-02  0.1481861E+00
          2   -1    0    0  502    0  0.00000000000E+00  0.00000000000E+00  0.11357007830E+04  0.11357007830E+04  0.00000000000E+00 0. -1.
          1   -1    0    0  501    0 -0.00000000000E+00 -0.00000000000E+00 -0.30503548679E+03  0.30503548679E+03  0.00000000000E+00 0. -1.
         25    2    1    2    0    0  0.21899454798E+02  0.57855850891E+02 -0.28799994233E+02  0.14241173309E+03  0.12499910581E+03 0.  0.
          2    1    1    2  501    0  0.25654888039E+02 -0.16527815024E+02 -0.21744335983E+03  0.21957449006E+03  0.00000000000E+00 0. -1.
          1    1    1    2  502    0 -0.47554342837E+02 -0.41328035867E+02  0.10769086502E+04  0.10787500466E+04  0.00000000000E+00 0. -1.
         22    1    3    3    0    0  0.32691875379E+02 -0.24267026310E+02  0.20952245156E+02  0.45789123804E+02  0.00000000000E+00 0. -1.
         22    1    3    3    0    0 -0.10792420581E+02  0.82122877201E+02 -0.49752239389E+02  0.96622609290E+02  0.00000000000E+00 0. -1.
</event>
<event>
 7    1  0.5789396E-006  0.3504262E+03  0.7818608E-02  0.1268930E+00
          2   -1    0    0  502    0  0.00000000000E+00  0.00000000000E+00  0.75342805197E+03  0.75342805197E+03  0.00000000000E+00 0. -1.
          1   -1    0    0  501    0 -0.00000000000E+00 -0.00000000000E+00 -0.66719089826E+03  0.66719089826E+03  0.00000000000E+00 0. -1.
         25    2    1    2    0    0  0.10281353790E+02  0.32484407660E+03 -0.11830957554E+03  0.36776366945E+03  0.12499432213E+03 0.  0.
          2    1    1    2  501    0 -0.77870150288E+01  0.30858686493E+02 -0.37310821393E+03  0.37446312961E+03  0.00000000000E+00 0. -1.
          1    1    1    2  502    0 -0.24943387609E+01 -0.35570276309E+03  0.57765494318E+03  0.67839215118E+03  0.00000000000E+00 0. -1.
         22    1    3    3    0    0 -0.51502786536E+02  0.77622313147E+02 -0.25735577938E+02  0.96644091858E+02  0.00000000000E+00 0. -1.
         22    1    3    3    0    0  0.61784140326E+02  0.24722176345E+03 -0.92573997600E+02  0.27111957759E+03  0.00000000000E+00 0. -1.
</event>
<event>
 7    1  0.5789396E-006  0.4522928E+02  0.7818608E-02  0.1545904E+00
          2   -1    0    0  502    0  0.00000000000E+00  0.00000000000E+00  0.15424023948E+04  0.15424023948E+04  0.00000000000E+00 0. -1.
          1   -1    0    0  501    0 -0.00000000000E+00 -0.00000000000E+00 -0.10125475252E+02  0.10125475252E+02  0.00000000000E+00 0. -1.
         25    2    1    2    0    0  0.22388967833E+02  0.81613059292E+01  0.83951633973E+03  0.84910579819E+03  0.12500039622E+03 0.  0.
          2    1    1    2  501    0  0.17530601862E+02  0.21264592276E+02  0.38842265583E+02  0.47625901377E+02  0.00000000000E+00 0. -1.
          1    1    1    2  502    0 -0.39919569695E+02 -0.29425898206E+02  0.65391831426E+03  0.65579617051E+03  0.00000000000E+00 0. -1.
         22    1    3    3    0    0  0.38661680215E+02  0.21355930933E+02  0.10031850810E+03  0.10961115076E+03  0.00000000000E+00 0. -1.
         22    1    3    3    0    0 -0.16272712382E+02 -0.13194625004E+02  0.73919783163E+03  0.73949464743E+03  0.00000000000E+00 0. -1.
</event>
<event>
 7    1  0.5789396E-006  0.1198406E+03  0.7818608E-02  0.1276292E+00
          2   -1    0    0  502    0  0.00000000000E+00  0.00000000000E+00  0.45402565930E+03  0.45402565930E+03  0.00000000000E+00 0. -1.
          1   -1    0    0  501    0 -0.00000000000E+00 -0.00000000000E+00 -0.69513307197E+03  0.69513307197E+03  0.00000000000E+00 0. -1.
         25    2    1    2    0    0  0.18190337383E+03 -0.15009197831E+02 -0.15024980461E+02  0.22173259640E+03  0.12500192334E+03 0.  0.
          2    1    1    2  501    0 -0.78477820913E+02 -0.36838793260E+02 -0.56380765952E+03  0.57043399442E+03  0.00000000000E+00 0. -1.
          1    1    1    2  502    0 -0.10342555292E+03  0.51847991091E+02  0.33772522731E+03  0.35699214045E+03  0.00000000000E+00 0. -1.
         22    1    3    3    0    0  0.17102033482E+03 -0.32168669621E+02 -0.50195475816E+02  0.18111422921E+03  0.00000000000E+00 0. -1.
         22    1    3    3    0    0  0.10883039011E+02  0.17159471790E+02  0.35170495355E+02  0.40618367197E+02  0.00000000000E+00 0. -1.
</event>
<event>
 7    1  0.5789396E-006  0.5031950E+02  0.7818608E-02  0.1469666E+00
          2   -1    0    0  502    0  0.00000000000E+00  0.00000000000E+00  0.10608537531E+04  0.10608537531E+04  0.00000000000E+00 0. -1.
          1   -1    0    0  501    0 -0.00000000000E+00 -0.00000000000E+00 -0.84383905079E+03  0.84383905079E+03  0.00000000000E+00 0. -1.
         25    2    1    2    0    0 -0.82547861834E+01 -0.69575425771E+01  0.17918081657E+03  0.21873905845E+03  0.12499784706E+03 0.  0.
          2    1    1    2  501    0 -0.20868015640E+02 -0.35998285920E+02 -0.82275247651E+03  0.82380397442E+03  0.00000000000E+00 0. -1.
          1    1    1    2  502    0  0.29122801824E+02  0.42955828497E+02  0.86058636228E+03  0.86214977106E+03  0.00000000000E+00 0. -1.
         22    1    3    3    0    0 -0.56377352342E+02 -0.13463039007E+02  0.37669684237E+02  0.69127884294E+02  0.00000000000E+00 0.  1.
         22    1    3    3    0    0  0.48122566159E+02  0.65054964300E+01  0.14151113233E+03  0.14961117415E+03  0.00000000000E+00 0.  1.
</event>
<event>
 7    1  0.5789396E-006  0.7881917E+02  0.7818608E-02  0.1424068E+00
          2   -1    0    0  502    0  0.00000000000E+00  0.00000000000E+00  0.16000732345E+04  0.16000732345E+04  0.00000000000E+00 0. -1.
          1   -1    0    0  501    0 -0.00000000000E+00 -0.00000000000E+00 -0.66658682665E+02  0.66658682665E+02  0.00000000000E+00 0. -1.
         25    2    1    2    0    0 -0.10883514916E+03 -0.30754245254E+01  0.12748669732E+03  0.20912241342E+03  0.12499911148E+03 0.  0.
          2    1    1    2  501    0  0.32283170862E+02  0.18540641549E+02 -0.10774379394E+02  0.38756235128E+02  0.00000000000E+00 0. -1.
          1    1    1    2  502    0  0.76551978295E+02 -0.15465217024E+02  0.14167022339E+04  0.14188532686E+04  0.00000000000E+00 0. -1.
         22    1    3    3    0    0 -0.67422539444E+02  0.46179591871E+02  0.11879142470E+03  0.14418653236E+03  0.00000000000E+00 0. -1.
         22    1    3    3    0    0 -0.41412609712E+02 -0.49255016396E+02  0.86952726231E+01  0.64935881062E+02  0.00000000000E+00 0. -1.
</event>
<event>
 7    1  0.5789396E-006  0.4927548E+02  0.7818608E-02  0.1495590E+00
          2   -1    0    0  502    0  0.00000000000E+00  0.00000000000E+00  0.23158109950E+04  0.23158109950E+04  0.00000000000E+00 0. -1.
          1   -1    0    0  501    0 -0.00000000000E+00 -0.00000000000E+00 -0.95736755033E+02  0.95736755033E+02  0.00000000000E+00 0. -1.
         25    2    1    2    0    0  0.15563162269E+02  0.13604128901E+01  0.17419584777E+03  0.21497185867E+03  0.12499857558E+03 0.  0.
          2    1    1    2  501    0 -0.50656176188E+02  0.33236714347E+01 -0.66633000410E+02  0.83767844197E+02  0.00000000000E+00 0. -1.
          1    1    1    2  502    0  0.35093013919E+02 -0.46840843248E+01  0.21125113926E+04  0.21128080471E+04  0.00000000000E+00 0. -1.
         22    1    3    3    0    0 -0.37601479838E+02 -0.40036973218E+02  0.10434633140E+03  0.11791941056E+03  0.00000000000E+00 0.  1.
         22    1    3    3    0    0  0.53164642107E+02  0.41397386109E+02  0.69849516376E+02  0.97052448114E+02  0.00000000000E+00 0.  1.
</event>
<event>
 7    1  0.5789396E-006  0.8314058E+02  0.7818608E-02  0.1464391E+00
          2   -1    0    0  502    0  0.00000000000E+00  0.00000000000E+00  0.91088065364E+03  0.91088065364E+03  0.00000000000E+00 0. -1.
          1   -1    0    0  501    0 -0.00000000000E+00 -0.00000000000E+00 -0.94492112887E+02  0.94492112887E+02  0.00000000000E+00 0. -1.
         25    2    1    2    0    0  0.85692559660E+02  0.62037064754E+02  0.34930202077E+02  0.16744510855E+03  0.12500373265E+03 0.  0.
          2    1    1    2  501    0 -0.25537225099E+02 -0.56614256155E+01 -0.19570050368E+02  0.32667850819E+02  0.00000000000E+00 0. -1.
          1    1    1    2  502    0 -0.60155334561E+02 -0.56375639139E+02  0.80102838904E+03  0.80525980715E+03  0.00000000000E+00 0. -1.
         22    1    3    3    0    0  0.41165115688E+01  0.32881600895E+02  0.67259232145E+02  0.74979661599E+02  0.00000000000E+00 0.  1.
         22    1    3    3    0    0  0.81576048091E+02  0.29155463860E+02 -0.32329030068E+02  0.92465446953E+02  0.00000000000E+00 0.  1.
</event>
<event>
 7    1  0.5789396E-006  0.5401103E+02  0.7818608E-02  0.1479682E+00
          2   -1    0    0  502    0  0.00000000000E+00  0.00000000000E+00  0.20955910886E+03  0.20955910886E+03  0.00000000000E+00 0. -1.
          1   -1    0    0  501    0 -0.00000000000E+00 -0.00000000000E+00 -0.10458557014E+04  0.10458557014E+04  0.00000000000E+00 0. -1.
         25    2    1    2    0    0  0.63347815254E+02  0.12600807561E+02 -0.16179386400E+03  0.21441695106E+03  0.12500259367E+03 0.  0.
          2    1    1    2  501    0 -0.49819719908E+02  0.20867114328E+02 -0.85511209507E+03  0.85681627908E+03  0.00000000000E+00 0. -1.
          1    1    1    2  502    0 -0.13528095347E+02 -0.33467921888E+02  0.18060936656E+03  0.18418158010E+03  0.00000000000E+00 0. -1.
         22    1    3    3    0    0  0.82152021763E+02 -0.18636068129E+02 -0.15628599560E+03  0.17754315006E+03  0.00000000000E+00 0.  1.
         22    1    3    3    0    0 -0.18804206509E+02  0.31236875689E+02 -0.55078684031E+01  0.36873800992E+02  0.00000000000E+00 0.  1.
</event>
<event>
 7    1  0.5789396E-006  0.7143758E+02  0.7818608E-02  0.1397501E+00
          2   -1    0    0  502    0  0.00000000000E+00  0.00000000000E+00  0.68911257730E+03  0.68911257730E+03  0.00000000000E+00 0. -1.
          1   -1    0    0  501    0 -0.00000000000E+00 -0.00000000000E+00 -0.27092289275E+03  0.27092289275E+03  0.00000000000E+00 0. -1.
         25    2    1    2    0    0  0.10346084499E+03 -0.19730544524E+02  0.31990899494E+03  0.35924898057E+03  0.12499849665E+03 0.  0.
          2    1    1    2  501    0 -0.57798950520E+02  0.41361765292E+02 -0.24433644758E+03  0.25446377724E+03  0.00000000000E+00 0. -1.
          1    1    1    2  502    0 -0.45661894467E+02 -0.21631220768E+02  0.34261713719E+03  0.34632271224E+03  0.00000000000E+00 0. -1.
         22    1    3    3    0    0  0.56119349675E+02  0.52191488897E+02  0.13398386949E+03  0.15435352346E+03  0.00000000000E+00 0. -1.
         22    1    3    3    0    0  0.47341495312E+02 -0.71922033422E+02  0.18592512545E+03  0.20489545711E+03  0.00000000000E+00 0. -1.
</event>
<event>
 7    1  0.5789396E-006  0.5655136E+02  0.7818608E-02  0.1430307E+00
          2   -1    0    0  502    0  0.00000000000E+00  0.00000000000E+00  0.14830731886E+03  0.14830731886E+03  0.00000000000E+00 0. -1.
          1   -1    0    0  501    0 -0.00000000000E+00 -0.00000000000E+00 -0.23088095114E+03  0.23088095114E+03  0.00000000000E+00 0. -1.
         25    2    1    2    0    0 -0.76189513377E+02  0.66205436519E+02 -0.29782474047E+02  0.16339941709E+03  0.12499748786E+03 0.  0.
          2    1    1    2  501    0  0.32179497620E+02 -0.37588260617E+02 -0.12041223485E+03  0.13018257834E+03  0.00000000000E+00 0. -1.
          1    1    1    2  502    0  0.44010015757E+02 -0.28617175902E+02  0.67621076611E+02  0.85606274569E+02  0.00000000000E+00 0. -1.
         22    1    3    3    0    0  0.30672782827E+01  0.15032212941E+02  0.42090235281E+02  0.44799146509E+02  0.00000000000E+00 0.  1.
         22    1    3    3    0    0 -0.79256791660E+02  0.51173223578E+02 -0.71872709327E+02  0.11860027058E+03  0.00000000000E+00 0.  1.
</event>
<event>
 7    1  0.5789396E-006  0.5476525E+02  0.7818608E-02  0.1423295E+00
          2   -1    0    0  502    0  0.00000000000E+00  0.00000000000E+00  0.10168598436E+04  0.10168598436E+04  0.00000000000E+00 0. -1.
          1   -1    0    0  501    0 -0.00000000000E+00 -0.00000000000E+00 -0.10883461161E+04  0.10883461161E+04  0.00000000000E+00 0. -1.
         25    2    1    2    0    0 -0.50712264577E+02 -0.64386592079E+02 -0.24023016987E+02  0.15139425348E+03  0.12500299046E+03 0.  0.
          2    1    1    2  501    0 -0.29534072574E+01  0.53816932936E+02 -0.99912585543E+03  0.10005785626E+04  0.00000000000E+00 0. -1.
          1    1    1    2  502    0  0.53665671834E+02  0.10569659143E+02  0.95166259988E+03  0.95323314359E+03  0.00000000000E+00 0. -1.
         22    1    3    3    0    0 -0.70458416611E+02  0.93040371699E+01  0.10852590807E+01  0.71078346676E+02  0.00000000000E+00 0.  1.
         22    1    3    3    0    0  0.19746152034E+02 -0.73690629249E+02 -0.25108276068E+02  0.80315906808E+02  0.00000000000E+00 0.  1.
</event>
<event>
 7    1  0.5789396E-006  0.1229498E+03  0.7818608E-02  0.1262333E+00
          2   -1    0    0  502    0  0.00000000000E+00  0.00000000000E+00  0.22901201372E+04  0.22901201372E+04  0.00000000000E+00 0. -1.
          1   -1    0    0  501    0 -0.00000000000E+00 -0.00000000000E+00 -0.12982668616E+03  0.12982668616E+03  0.00000000000E+00 0. -1.
         25    2    1    2    0    0 -0.94884671525E+00  0.41176376548E+02  0.79254091921E+03  0.80339656244E+03  0.12501413368E+03 0.  0.
          2    1    1    2  501    0  0.77821706196E+02 -0.99885425979E+02 -0.90154122719E+02  0.15543835473E+03  0.00000000000E+00 0. -1.
          1    1    1    2  502    0 -0.76872859481E+02  0.58709049431E+02  0.14579066546E+04  0.14611119062E+04  0.00000000000E+00 0. -1.
         22    1    3    3    0    0 -0.35239426104E+02  0.12176128351E+02  0.68709819391E+02  0.78173617893E+02  0.00000000000E+00 0.  1.
         22    1    3    3    0    0  0.34290579389E+02  0.29000248197E+02  0.72383109982E+03  0.72522294454E+03  0.00000000000E+00 0.  1.
</event>
<event>
 7    1  0.5789396E-006  0.1381202E+03  0.7818608E-02  0.1290938E+00
          2   -1    0    0  502    0  0.00000000000E+00  0.00000000000E+00  0.20957199241E+03  0.20957199241E+03  0.00000000000E+00 0. -1.
          1   -1    0    0  501    0 -0.00000000000E+00 -0.00000000000E+00 -0.28248792844E+04  0.28248792844E+04  0.00000000000E+00 0. -1.
         25    2    1    2    0    0 -0.60350532063E+02 -0.45581666496E+02 -0.75437338524E+02  0.16442710689E+03  0.12500242555E+03 0.  0.
          2    1    1    2  501    0  0.11802634354E+03  0.76598923404E+02 -0.26965450749E+04  0.27002135015E+04  0.00000000000E+00 0. -1.
          1    1    1    2  502    0 -0.57675811478E+02 -0.31017256908E+02  0.15667512139E+03  0.16981066845E+03  0.00000000000E+00 0. -1.
         22    1    3    3    0    0 -0.59651214779E+02  0.66337333705E+00  0.16169033363E+02  0.61807322614E+02  0.00000000000E+00 0.  1.
         22    1    3    3    0    0 -0.69931728378E+00 -0.46245039833E+02 -0.91606371887E+02  0.10261978427E+03  0.00000000000E+00 0.  1.
</event>
<event>
 7    1  0.5789396E-006  0.8851064E+02  0.7818608E-02  0.1420204E+00
          2   -1    0    0  502    0  0.00000000000E+00  0.00000000000E+00  0.91951144759E+02  0.91951144759E+02  0.00000000000E+00 0. -1.
          1   -1    0    0  501    0 -0.00000000000E+00 -0.00000000000E+00 -0.13862851066E+04  0.13862851066E+04  0.00000000000E+00 0. -1.
         25    2    1    2    0    0 -0.56349245202E+02 -0.31333558230E+02 -0.17379306293E+03  0.22357584887E+03  0.12500040868E+03 0.  0.
          2    1    1    2  501    0 -0.33273529858E+02  0.76833645532E+01 -0.11551978188E+04  0.11557024541E+04  0.00000000000E+00 0. -1.
          1    1    1    2  502    0  0.89622775060E+02  0.23650193677E+02  0.34656919814E+02  0.98957948450E+02  0.00000000000E+00 0. -1.
         22    1    3    3    0    0 -0.87476074068E+01  0.27474201927E+02 -0.13596244102E+03  0.13898610641E+03  0.00000000000E+00 0.  1.
         22    1    3    3    0    0 -0.47601637796E+02 -0.58807760156E+02 -0.37830621907E+02  0.84589742459E+02  0.00000000000E+00 0.  1.
</event>
<event>
 7    1  0.5789396E-006  0.1515569E+03  0.7818608E-02  0.1399603E+00
          2   -1    0    0  502    0  0.00000000000E+00  0.00000000000E+00  0.54766926954E+03  0.54766926954E+03  0.00000000000E+00 0. -1.
          1   -1    0    0  501    0 -0.00000000000E+00 -0.00000000000E+00 -0.15165327422E+04  0.15165327422E+04  0.00000000000E+00 0. -1.
         25    2    1    2    0    0 -0.65517526371E+02  0.13982382748E+03  0.21454365442E+03  0.29238823399E+03  0.12497460036E+03 0.  0.
          2    1    1    2  501    0  0.42764322018E+02 -0.14538081755E+03 -0.14732514150E+04  0.14810246794E+04  0.00000000000E+00 0. -1.
          1    1    1    2  502    0  0.22753204353E+02  0.55569900727E+01  0.28984428792E+03  0.29078909830E+03  0.00000000000E+00 0. -1.
         22    1    3    3    0    0 -0.97774566444E+02  0.10622890982E+03  0.12295304130E+03  0.18963622410E+03  0.00000000000E+00 0. -1.
         22    1    3    3    0    0  0.32257040073E+02  0.33594917655E+02  0.91590613114E+02  0.10275200989E+03  0.00000000000E+00 0. -1.
</event>
<event>
 7    1  0.5789396E-006  0.9979453E+02  0.7818608E-02  0.1468183E+00
          2   -1    0    0  502    0  0.00000000000E+00  0.00000000000E+00  0.18598338188E+04  0.18598338188E+04  0.00000000000E+00 0. -1.
          1   -1    0    0  501    0 -0.00000000000E+00 -0.00000000000E+00 -0.59592899595E+03  0.59592899595E+03  0.00000000000E+00 0. -1.
         25    2    1    2    0    0  0.10541061623E+03  0.58035246074E+02 -0.17655656155E+03  0.24754148704E+03  0.12500032232E+03 0.  0.
          2    1    1    2  501    0 -0.16104297549E+02 -0.13795270916E+02 -0.38222472465E+03  0.38281248416E+03  0.00000000000E+00 0. -1.
          1    1    1    2  502    0 -0.89306318678E+02 -0.44239975157E+02  0.18226861091E+04  0.18254088436E+04  0.00000000000E+00 0. -1.
         22    1    3    3    0    0  0.23171786654E+02 -0.14194125162E+02 -0.12247809428E+03  0.12545632094E+03  0.00000000000E+00 0. -1.
         22    1    3    3    0    0  0.82238829573E+02  0.72229371235E+02 -0.54078467268E+02  0.12208516610E+03  0.00000000000E+00 0. -1.
</event>
<event>
 7    1  0.5789396E-006  0.1208190E+03  0.7818608E-02  0.1321669E+00
          2   -1    0    0  502    0  0.00000000000E+00  0.00000000000E+00  0.31365994440E+03  0.31365994440E+03  0.00000000000E+00 0. -1.
          1   -1    0    0  501    0 -0.00000000000E+00 -0.00000000000E+00 -0.13809990756E+04  0.13809990756E+04  0.00000000000E+00 0. -1.
         25    2    1    2    0    0 -0.60039319942E+02  0.12776505392E+03 -0.29280280165E+03  0.34826427223E+03  0.12500357479E+03 0.  0.
          2    1    1    2  501    0  0.56068383201E+02 -0.73823966530E+01 -0.10469837477E+04  0.10485099577E+04  0.00000000000E+00 0. -1.
          1    1    1    2  502    0  0.39709367405E+01 -0.12038265726E+03  0.27244741816E+03  0.29788479010E+03  0.00000000000E+00 0. -1.
         22    1    3    3    0    0 -0.33738883289E+02 -0.14502191606E+02 -0.26802505865E+02  0.45464273090E+02  0.00000000000E+00 0. -1.
         22    1    3    3    0    0 -0.26300436653E+02  0.14226724552E+03 -0.26600029579E+03  0.30279999914E+03  0.00000000000E+00 0. -1.
</event>
<event>
 7    1  0.5789396E-006  0.4941026E+02  0.7818608E-02  0.1468332E+00
          2   -1    0    0  502    0  0.00000000000E+00  0.00000000000E+00  0.32972682141E+03  0.32972682141E+03  0.00000000000E+00 0. -1.
          1   -1    0    0  501    0 -0.00000000000E+00 -0.00000000000E+00 -0.15729462633E+04  0.15729462633E+04  0.00000000000E+00 0. -1.
         25    2    1    2    0    0 -0.76135096184E+02  0.13064703189E+02 -0.47470484768E+03  0.49692896452E+03  0.12500585599E+03 0.  0.
          2    1    1    2  501    0  0.29982830201E+02 -0.30518569060E+02 -0.10847948146E+04  0.10856381270E+04  0.00000000000E+00 0. -1.
          1    1    1    2  502    0  0.46152265984E+02  0.17453865871E+02  0.31628022033E+03  0.32010599317E+03  0.00000000000E+00 0. -1.
         22    1    3    3    0    0  0.32513956009E+02 -0.79605271966E+01 -0.15619780394E+03  0.15974442489E+03  0.00000000000E+00 0.  1.
         22    1    3    3    0    0 -0.10864905219E+03  0.21025230386E+02 -0.31850704374E+03  0.33718453963E+03  0.00000000000E+00 0.  1.
</event>
<event>
 7    1  0.5789396E-006  0.6125956E+02  0.7818608E-02  0.1429477E+00
          2   -1    0    0  502    0  0.00000000000E+00  0.00000000000E+00  0.75041159999E+02  0.75041159999E+02  0.00000000000E+00 0. -1.
          1   -1    0    0  501    0 -0.00000000000E+00 -0.00000000000E+00 -0.56712115513E+03  0.56712115513E+03  0.00000000000E+00 0. -1.
         25    2    1    2    0    0 -0.17498542625E+02 -0.50466983525E+02 -0.39722887989E+03  0.41984391454E+03  0.12500005656E+03 0.  0.
          2    1    1    2  501    0 -0.38965207265E+02  0.24385907093E+02 -0.13876586455E+03  0.14618113766E+03  0.00000000000E+00 0. -1.
          1    1    1    2  502    0  0.56463749890E+02  0.26081076431E+02  0.43914749310E+02  0.76137262930E+02  0.00000000000E+00 0. -1.
         22    1    3    3    0    0  0.14477523743E+02 -0.85128355725E+02 -0.29266020585E+03  0.30513346544E+03  0.00000000000E+00 0.  1.
         22    1    3    3    0    0 -0.31976066368E+02  0.34661372201E+02 -0.10456867404E+03  0.11471044910E+03  0.00000000000E+00 0.  1.
</event>
<event>
 7    1  0.5789396E-006  0.1903242E+03  0.7818608E-02  0.1221778E+00
          2   -1    0    0  502    0  0.00000000000E+00  0.00000000000E+00  0.16392801651E+04  0.16392801651E+04  0.00000000000E+00 0. -1.
          1   -1    0    0  501    0 -0.00000000000E+00 -0.00000000000E+00 -0.48731530450E+03  0.48731530450E+03  0.00000000000E+00 0. -1.
         25    2    1    2    0    0  0.36019325524E+02  0.13035877501E+03 -0.43587616756E+02  0.18925048456E+03  0.12500025416E+03 0.  0.
          2    1    1    2  501    0 -0.11360316090E+03 -0.18379647829E+03 -0.33785865323E+03  0.40104275728E+03  0.00000000000E+00 0. -1.
          1    1    1    2  502    0  0.77583835377E+02  0.53437703285E+02  0.15334111306E+04  0.15363022278E+04  0.00000000000E+00 0. -1.
         22    1    3    3    0    0  0.38517409465E+02  0.60568393087E+02  0.38519819613E+02  0.81461018752E+02  0.00000000000E+00 0. -1.
         22    1    3    3    0    0 -0.24980839408E+01  0.69790381921E+02 -0.82107436370E+02  0.10778946581E+03  0.00000000000E+00 0. -1.
</event>
<event>
 7    1  0.5789396E-006  0.2248898E+03  0.7818608E-02  0.1289980E+00
          2   -1    0    0  502    0  0.00000000000E+00  0.00000000000E+00  0.11450630340E+03  0.11450630340E+03  0.00000000000E+00 0. -1.
          1   -1    0    0  501    0 -0.00000000000E+00 -0.00000000000E+00 -0.29701733836E+04  0.29701733836E+04  0.00000000000E+00 0. -1.
         25    2    1    2    0    0 -0.16868434042E+02  0.25594801169E+03 -0.96119337908E+03  0.10026526326E+04  0.12500264328E+03 0.  0.
          2    1    1    2  501    0  0.14905678033E+02 -0.21541325450E+03 -0.19776899050E+04  0.19894427385E+04  0.00000000000E+00 0. -1.
          1    1    1    2  502    0  0.19627560087E+01 -0.40534757190E+02  0.83216203931E+02  0.92584315887E+02  0.00000000000E+00 0. -1.
         22    1    3    3    0    0 -0.65014323536E+01  0.20416414015E+03 -0.52606556402E+03  0.56433167764E+03  0.00000000000E+00 0.  1.
         22    1    3    3    0    0 -0.10367001688E+02  0.51783871547E+02 -0.43512781506E+03  0.43832095491E+03  0.00000000000E+00 0.  1.
</event>
<event>
 7    1  0.5789396E-006  0.6957161E+02  0.7818608E-02  0.1465958E+00
          2   -1    0    0  502    0  0.00000000000E+00  0.00000000000E+00  0.20628255240E+04  0.20628255240E+04  0.00000000000E+00 0. -1.
          1   -1    0    0  501    0 -0.00000000000E+00 -0.00000000000E+00 -0.61908429436E+02  0.61908429436E+02  0.00000000000E+00 0. -1.
         25    2    1    2    0    0  0.70122490754E+02  0.14961411655E+01  0.13861969434E+03  0.19939894968E+03  0.12500047730E+03 0.  0.
          2    1    1    2  501    0 -0.66026143742E+01 -0.30194199714E+02 -0.23139689015E+02  0.38609965302E+02  0.00000000000E+00 0. -1.
          1    1    1    2  502    0 -0.63519876380E+02  0.28698058549E+02  0.18854370892E+04  0.18867250384E+04  0.00000000000E+00 0. -1.
         22    1    3    3    0    0  0.13952652123E+02  0.60004820041E+02  0.69106255428E+02  0.92579314475E+02  0.00000000000E+00 0.  1.
         22    1    3    3    0    0  0.56169838632E+02 -0.58508678876E+02  0.69513438916E+02  0.10681963521E+03  0.00000000000E+00 0.  1.
</event>
<event>
 7    1  0.5789396E-006  0.1089588E+03  0.7818608E-02  0.1272967E+00
          2   -1    0    0  502    0  0.00000000000E+00  0.00000000000E+00  0.20709855252E+04  0.20709855252E+04  0.00000000000E+00 0. -1.
          1   -1    0    0  501    0 -0.00000000000E+00 -0.00000000000E+00 -0.56137958737E+03  0.56137958737E+03  0.00000000000E+00 0. -1.
         25    2    1    2    0    0 -0.17506528409E+03 -0.72896542161E+02  0.42026914855E+03  0.47772037346E+03  0.12501535281E+03 0.  0.
          2    1    1    2  501    0  0.98434417732E+02  0.13676123256E+01 -0.52639239775E+03  0.53551859106E+03  0.00000000000E+00 0. -1.
          1    1    1    2  502    0  0.76630866361E+02  0.71528929835E+02  0.16157291870E+04  0.16191261480E+04  0.00000000000E+00 0. -1.
         22    1    3    3    0    0  0.34037796343E+01 -0.45779576623E+02  0.70764649125E+02  0.84350405555E+02  0.00000000000E+00 0.  1.
         22    1    3    3    0    0 -0.17846906373E+03 -0.27116965537E+02  0.34950449943E+03  0.39336996790E+03  0.00000000000E+00 0.  1.
</event>
<event>
 7    1  0.5789396E-006  0.1898972E+03  0.7818608E-02  0.1232000E+00
          2   -1    0    0  502    0  0.00000000000E+00  0.00000000000E+00  0.20539492285E+04  0.20539492285E+04  0.00000000000E+00 0. -1.
          1   -1    0    0  501    0 -0.00000000000E+00 -0.00000000000E+00 -0.72763394164E+03  0.72763394164E+03  0.00000000000E+00 0. -1.
         25    2    1    2    0    0 -0.31146015002E+02 -0.24781781443E+03  0.84819445538E+03  0.89299544463E+03  0.12499314613E+03 0.  0.
          2    1    1    2  501    0  0.40870781202E+02  0.74431791941E+02 -0.69626895816E+03  0.70142781133E+03  0.00000000000E+00 0. -1.
          1    1    1    2  502    0 -0.97247662001E+01  0.17338602249E+03  0.11743897896E+04  0.11871599141E+04  0.00000000000E+00 0. -1.
         22    1    3    3    0    0 -0.69232970478E+02 -0.19634180986E+03  0.55193084459E+03  0.58989064047E+03  0.00000000000E+00 0. -1.
         22    1    3    3    0    0  0.38086955476E+02 -0.51476004571E+02  0.29626361079E+03  0.30310480415E+03  0.00000000000E+00 0. -1.
</event>
<event>
 7    1  0.5789396E-006  0.1412375E+03  0.7818608E-02  0.1214607E+00
          2   -1    0    0  502    0  0.00000000000E+00  0.00000000000E+00  0.39368045047E+04  0.39368045047E+04  0.00000000000E+00 0. -1.
          1   -1    0    0  501    0 -0.00000000000E+00 -0.00000000000E+00 -0.86173050942E+02  0.86173050942E+02  0.00000000000E+00 0. -1.
         25    2    1    2    0    0 -0.10413796377E+03 -0.30482576499E+01  0.11120235431E+04  0.11238666207E+04  0.12500325285E+03 0.  0.
          2    1    1    2  501    0  0.85486881798E+01  0.14097850739E+03 -0.13509271558E+02  0.14188206382E+03  0.00000000000E+00 0. -1.
          1    1    1    2  502    0  0.95589275586E+02 -0.13793024974E+03  0.27521171822E+04  0.27572288712E+04  0.00000000000E+00 0. -1.
         22    1    3    3    0    0 -0.35662675907E+02 -0.13665047740E+02  0.71692204348E+02  0.81230118471E+02  0.00000000000E+00 0.  1.
         22    1    3    3    0    0 -0.68475287859E+02  0.10616790090E+02  0.10403313388E+04  0.10426365022E+04  0.00000000000E+00 0.  1.
</event>
<event>
 7    1  0.5789396E-006  0.6439035E+02  0.7818608E-02  0.1510534E+00
          2   -1    0    0  502    0  0.00000000000E+00  0.00000000000E+00  0.15270835180E+04  0.15270835180E+04  0.00000000000E+00 0. -1.
          1   -1    0    0  501    0 -0.00000000000E+00 -0.00000000000E+00 -0.81685811875E+02  0.81685811875E+02  0.00000000000E+00 0. -1.
         25    2    1    2    0    0  0.40512323593E+02  0.30378847317E+01  0.54462788110E+03  0.56026429769E+03  0.12500430907E+03 0.  0.
          2    1    1    2  501    0 -0.64593482247E+02 -0.73264285267E+01 -0.59379027508E+02  0.88044667138E+02  0.00000000000E+00 0. -1.
          1    1    1    2  502    0  0.24081158654E+02  0.42885437950E+01  0.96014885258E+03  0.96046036509E+03  0.00000000000E+00 0. -1.
         22    1    3    3    0    0 -0.41735975424E+02 -0.36982561142E+00  0.10491491304E+03  0.11291221101E+03  0.00000000000E+00 0. -1.
         22    1    3    3    0    0  0.82248299017E+02  0.34077103431E+01  0.43971296806E+03  0.44735208668E+03  0.00000000000E+00 0. -1.
</event>
<event>
 7    1  0.5789396E-006  0.1147987E+03  0.7818608E-02  0.1309454E+00
          2   -1    0    0  502    0  0.00000000000E+00  0.00000000000E+00  0.15053439561E+04  0.15053439561E+04  0.00000000000E+00 0. -1.
          1   -1    0    0  501    0 -0.00000000000E+00 -0.00000000000E+00 -0.11334757324E+03  0.11334757324E+03  0.00000000000E+00 0. -1.
         25    2    1    2    0    0 -0.52907825630E+02 -0.20993242488E+01  0.83354555778E+02  0.15929128662E+03  0.12498834686E+03 0.  0.
          2    1    1    2  501    0 -0.65175475158E+02 -0.12855578115E+02 -0.57635171293E+02  0.87948402036E+02  0.00000000000E+00 0. -1.
          1    1    1    2  502    0  0.11808330079E+03  0.14954902364E+02  0.13662769984E+04  0.13714518407E+04  0.00000000000E+00 0. -1.
         22    1    3    3    0    0  0.20153970022E+02 -0.45295876385E+02  0.20372836986E+02  0.53599919888E+02  0.00000000000E+00 0. -1.
         22    1    3    3    0    0 -0.73061795652E+02  0.43196552136E+02  0.62981718792E+02  0.10569136674E+03  0.00000000000E+00 0. -1.
</event>
<event>
 7    1  0.5789396E-006  0.8679511E+02  0.7818608E-02  0.1352737E+00
          2   -1    0    0  502    0  0.00000000000E+00  0.00000000000E+00  0.10833072484E+04  0.10833072484E+04  0.00000000000E+00 0. -1.
          1   -1    0    0  501    0 -0.00000000000E+00 -0.00000000000E+00 -0.78231523827E+03  0.78231523827E+03  0.00000000000E+00 0. -1.
         25    2    1    2    0    0  0.35801447975E+01 -0.84740387208E+02 -0.93921366684E+02  0.17787837637E+03  0.12500297197E+03 0.  0.
          2    1    1    2  501    0 -0.57752773747E+02  0.16541682427E+02 -0.64319202069E+03  0.64599147488E+03  0.00000000000E+00 0. -1.
          1    1    1    2  502    0  0.54172628949E+02  0.68198704782E+02  0.10381053975E+04  0.10417526354E+04  0.00000000000E+00 0. -1.
         22    1    3    3    0    0  0.53224633757E+02 -0.56141675186E+02 -0.12567926425E+02  0.78375392221E+02  0.00000000000E+00 0. -1.
         22    1    3    3    0    0 -0.49644488959E+02 -0.28598712023E+02 -0.81353440259E+02  0.99502984153E+02  0.00000000000E+00 0. -1.
</event>
<event>
 7    1  0.5789396E-006  0.1161285E+03  0.7818608E-02  0.1420353E+00
          2   -1    0    0  502    0  0.00000000000E+00  0.00000000000E+00  0.15855277461E+04  0.15855277461E+04  0.00000000000E+00 0. -1.
          1   -1    0    0  501    0 -0.00000000000E+00 -0.00000000000E+00 -0.86236744613E+03  0.86236744613E+03  0.00000000000E+00 0. -1.
         25    2    1    2    0    0  0.92695825279E+02 -0.94940855745E+02 -0.27959683692E+02  0.18442240094E+03  0.12499438365E+03 0.  0.
          2    1    1    2  501    0 -0.92395572195E+02  0.68944767905E+02 -0.75166939739E+03  0.76045854967E+03  0.00000000000E+00 0. -1.
          1    1    1    2  502    0 -0.30025308332E+00  0.25996087840E+02  0.15027893810E+04  0.15030142416E+04  0.00000000000E+00 0. -1.
         22    1    3    3    0    0  0.30789221654E+02 -0.10379073549E+03 -0.48459638918E+02  0.11861209697E+03  0.00000000000E+00 0. -1.
         22    1    3    3    0    0  0.61906603625E+02  0.88498797493E+01  0.20499955226E+02  0.65810303967E+02  0.00000000000E+00 0. -1.
</event>
<event>
 7    1  0.5789396E-006  0.4130718E+02  0.7818608E-02  0.1504259E+00
          2   -1    0    0  502    0  0.00000000000E+00  0.00000000000E+00  0.13392095457E+04  0.13392095457E+04  0.00000000000E+00 0. -1.
          1   -1    0    0  501    0 -0.00000000000E+00 -0.00000000000E+00 -0.29563358028E+03  0.29563358028E+03  0.00000000000E+00 0. -1.
         25    2    1    2    0    0  0.43419522427E+01 -0.24785443571E+02  0.88000681997E+03  0.88919634177E+03  0.12499984108E+03 0.  0.
          2    1    1    2  501    0 -0.38602750622E+02 -0.96529286426E+01 -0.28837099791E+03  0.29110339027E+03  0.00000000000E+00 0. -1.
          1    1    1    2  502    0  0.34260798380E+02  0.34438372213E+02  0.45194014333E+03  0.45454339390E+03  0.00000000000E+00 0. -1.
         22    1    3    3    0    0  0.39147651586E+02  0.78775837832E+01  0.99252834762E+02  0.10698467254E+03  0.00000000000E+00 0.  1.
         22    1    3    3    0    0 -0.34805699344E+02 -0.32663027354E+02  0.78075398520E+03  0.78221166923E+03  0.00000000000E+00 0.  1.
</event>
<event>
 7    1  0.5789396E-006  0.1570526E+03  0.7818608E-02  0.1262288E+00
          2   -1    0    0  502    0  0.00000000000E+00  0.00000000000E+00  0.15172749073E+04  0.15172749073E+04  0.00000000000E+00 0. -1.
          1   -1    0    0  501    0 -0.00000000000E+00 -0.00000000000E+00 -0.15402224733E+03  0.15402224733E+03  0.00000000000E+00 0. -1.
         25    2    1    2    0    0  0.20723571200E+03 -0.78904917216E+02  0.45235485656E+03  0.51906256927E+03  0.12501363238E+03 0.  0.
          2    1    1    2  501    0 -0.66983593124E+02  0.35388432765E+02 -0.10294303682E+03  0.12781397322E+03  0.00000000000E+00 0. -1.
          1    1    1    2  502    0 -0.14025211887E+03  0.43516484451E+02  0.10138408402E+04  0.10244206121E+04  0.00000000000E+00 0. -1.
         22    1    3    3    0    0 -0.17237766229E+01 -0.42323089029E+02  0.79731153671E+02  0.90284395864E+02  0.00000000000E+00 0. -1.
         22    1    3    3    0    0  0.20895948862E+03 -0.36581828186E+02  0.37262370289E+03  0.42877817341E+03  0.00000000000E+00 0. -1.
</event>
<event>
 7    1  0.5789396E-006  0.2663252E+03  0.7818608E-02  0.1222716E+00
          2   -1    0    0  502    0  0.00000000000E+00  0.00000000000E+00  0.54769698633E+03  0.54769698633E+03  0.00000000000E+00 0. -1.
          1   -1    0    0  501    0 -0.00000000000E+00 -0.00000000000E+00 -0.52989208632E+03  0.52989208632E+03  0.00000000000E+00 0. -1.
         25    2    1    2    0    0 -0.19604535215E+03  0.11664095665E+03 -0.85115672063E+02  0.27369491228E+03  0.12500133804E+03 0.  0.
          2    1    1    2  501    0  0.23746014110E+03 -0.16888194221E+03 -0.28659696297E+03  0.40871291660E+03  0.00000000000E+00 0. -1.
          1    1    1    2  502    0 -0.41414788952E+02  0.52240985562E+02  0.38951753504E+03  0.39518124376E+03  0.00000000000E+00 0. -1.
         22    1    3    3    0    0 -0.13299160426E+03  0.11396310801E+03 -0.10891660680E+03  0.20624544608E+03  0.00000000000E+00 0. -1.
         22    1    3    3    0    0 -0.63053747893E+02  0.26778486347E+01  0.23800934740E+02  0.67449466204E+02  0.00000000000E+00 0. -1.
</event>
<event>
 7    1  0.5789396E-006  0.4558341E+02  0.7818608E-02  0.1509811E+00
          2   -1    0    0  502    0  0.00000000000E+00  0.00000000000E+00  0.48889975285E+03  0.48889975285E+03  0.00000000000E+00 0. -1.
          1   -1    0    0  501    0 -0.00000000000E+00 -0.00000000000E+00 -0.45741123954E+02  0.45741123954E+02  0.00000000000E+00 0. -1.
         25    2    1    2    0    0 -0.22854201024E+02  0.58593050216E+01  0.16750999581E+03  0.21031256887E+03  0.12496052164E+03 0.  0.
          2    1    1    2  501    0 -0.19681398692E+02 -0.28604709878E+02 -0.87996549999E+01  0.35819279861E+02  0.00000000000E+00 0. -1.
          1    1    1    2  502    0  0.42535599716E+02  0.22745404856E+02  0.28444828809E+03  0.28850902807E+03  0.00000000000E+00 0. -1.
         22    1    3    3    0    0  0.27863504122E+02 -0.46272274325E+02  0.62999886012E+02  0.82984841210E+02  0.00000000000E+00 0.  1.
         22    1    3    3    0    0 -0.50717705146E+02  0.52131579346E+02  0.10451010980E+03  0.12732772766E+03  0.00000000000E+00 0.  1.
</event>
<event>
 7    1  0.5789396E-006  0.2281600E+03  0.7818608E-02  0.1146150E+00
          2   -1    0    0  502    0  0.00000000000E+00  0.00000000000E+00  0.13983848992E+04  0.13983848992E+04  0.00000000000E+00 0. -1.
          1   -1    0    0  501    0 -0.00000000000E+00 -0.00000000000E+00 -0.43378093963E+03  0.43378093963E+03  0.00000000000E+00 0. -1.
         25    2    1    2    0    0  0.91128288100E+02  0.29809897210E+03  0.69274461161E+02  0.34291485603E+03  0.12499714180E+03 0.  0.
          2    1    1    2  501    0  0.87765929106E+02 -0.16053306606E+03 -0.25675473401E+03  0.31527244892E+03  0.00000000000E+00 0. -1.
          1    1    1    2  502    0 -0.17889421721E+03 -0.13756590604E+03  0.11520842324E+04  0.11739785338E+04  0.00000000000E+00 0. -1.
         22    1    3    3    0    0  0.10547087745E+03  0.13281997027E+03  0.42746352671E+02  0.17490712153E+03  0.00000000000E+00 0. -1.
         22    1    3    3    0    0 -0.14342589350E+02  0.16527900182E+03  0.26528108489E+02  0.16800773450E+03  0.00000000000E+00 0. -1.
</event>
<event>
 7    1  0.5789396E-006  0.2398272E+02  0.7818608E-02  0.1703517E+00
          2   -1    0    0  502    0  0.00000000000E+00  0.00000000000E+00  0.11708892259E+04  0.11708892259E+04  0.00000000000E+00 0. -1.
          1   -1    0    0  501    0 -0.00000000000E+00 -0.00000000000E+00 -0.21892797833E+03  0.21892797833E+03  0.00000000000E+00 0. -1.
         25    2    1    2    0    0 -0.30628918573E+02  0.24884812620E+02  0.99847718987E+02  0.16477748713E+03  0.12499867490E+03 0.  0.
          2    1    1    2  501    0  0.20437651763E+02 -0.32296380706E+01 -0.18575069793E+03  0.18689957184E+03  0.00000000000E+00 0. -1.
          1    1    1    2  502    0  0.10191266810E+02 -0.21655174550E+02  0.10378642265E+04  0.10381401452E+04  0.00000000000E+00 0. -1.
         22    1    3    3    0    0  0.12498513819E+02  0.24392081922E+02  0.11564255944E+03  0.11884606877E+03  0.00000000000E+00 0.  1.
         22    1    3    3    0    0 -0.43127432392E+02  0.49273069834E+00 -0.15794840451E+02  0.45931418366E+02  0.00000000000E+00 0.  1.
</event>
<event>
 7    1  0.5789396E-006  0.1412726E+03  0.7818608E-02  0.1342750E+00
          2   -1    0    0  502    0  0.00000000000E+00  0.00000000000E+00  0.12054620160E+04  0.12054620160E+04  0.00000000000E+00 0. -1.
          1   -1    0    0  501    0 -0.00000000000E+00 -0.00000000000E+00 -0.23229136326E+03  0.23229136326E+03  0.00000000000E+00 0. -1.
         25    2    1    2    0    0 -0.15312828192E+03 -0.73143031374E+02  0.18149005438E+03  0.27814024049E+03  0.12500071911E+03 0.  0.
          2    1    1    2  501    0  0.39682160856E+02 -0.64515738804E+01 -0.17677670972E+03  0.18129065556E+03  0.00000000000E+00 0. -1.
          1    1    1    2  502    0  0.11344612106E+03  0.79594605254E+02  0.96845730811E+03  0.97832248323E+03  0.00000000000E+00 0. -1.
         22    1    3    3    0    0 -0.15026066111E+03 -0.10173158945E+03  0.16340692982E+03  0.24419133335E+03  0.00000000000E+00 0.  1.
         22    1    3    3    0    0 -0.28676208048E+01  0.28588558077E+02  0.18083124565E+02  0.33948907141E+02  0.00000000000E+00 0.  1.
</event>
<event>
 7    1  0.5789396E-006  0.1749046E+03  0.7818608E-02  0.1220882E+00
          2   -1    0    0  502    0  0.00000000000E+00  0.00000000000E+00  0.16543128370E+04  0.16543128370E+04  0.00000000000E+00 0. -1.
          1   -1    0    0  501    0 -0.00000000000E+00 -0.00000000000E+00 -0.59445759751E+03  0.59445759751E+03  0.00000000000E+00 0. -1.
         25    2    1    2    0    0  0.26353508943E+03 -0.27083608082E+02  0.67762277088E+02  0.30066604775E+03  0.12499632348E+03 0.  0.
          2    1    1    2  501    0 -0.93207181368E+02  0.44946234821E+02 -0.46733906097E+03  0.47865806229E+03  0.00000000000E+00 0. -1.
          1    1    1    2  502    0 -0.17032790806E+03 -0.17862626739E+02  0.14594320234E+04  0.14694463245E+04  0.00000000000E+00 0. -1.
         22    1    3    3    0    0  0.13394346887E+03  0.83827014516E+01  0.93895450547E+02  0.16379095875E+03  0.00000000000E+00 0. -1.
         22    1    3    3    0    0  0.12959162056E+03 -0.35466309534E+02 -0.26133173459E+02  0.13687508900E+03  0.00000000000E+00 0. -1.
</event>
<event>
 7    1  0.5789396E-006  0.5077972E+02  0.7818608E-02  0.1521587E+00
          2   -1    0    0  502    0  0.00000000000E+00  0.00000000000E+00  0.45250978055E+03  0.45250978055E+03  0.00000000000E+00 0. -1.
          1   -1    0    0  501    0 -0.00000000000E+00 -0.00000000000E+00 -0.13177214238E+04  0.13177214238E+04  0.00000000000E+00 0. -1.
         25    2    1    2    0    0 -0.54750596027E+02  0.23185165769E+02 -0.56435841020E+01  0.13853496493E+03  0.12499962716E+03 0.  0.
          2    1    1    2  501    0  0.42806706341E+01 -0.28475132148E+02 -0.12437971961E+04  0.12441304684E+04  0.00000000000E+00 0. -1.
          1    1    1    2  502    0  0.50469925393E+02  0.52899663792E+01  0.38422913702E+03  0.38756577099E+03  0.00000000000E+00 0. -1.
         22    1    3    3    0    0 -0.40175397017E+02  0.73453082018E+02  0.89522861344E+01  0.84199532128E+02  0.00000000000E+00 0. -1.
         22    1    3    3    0    0 -0.14575199010E+02 -0.50267916250E+02 -0.14595870236E+02  0.54335432806E+02  0.00000000000E+00 0. -1.
</event>
<event>
 7    1  0.5789396E-006  0.1401933E+03  0.7818608E-02  0.1389674E+00
          2   -1    0    0  502    0  0.00000000000E+00  0.00000000000E+00  0.27189197796E+04  0.27189197796E+04  0.00000000000E+00 0. -1.
          1   -1    0    0  501    0 -0.00000000000E+00 -0.00000000000E+00 -0.40164217065E+02  0.40164217065E+02  0.00000000000E+00 0. -1.
         25    2    1    2    0    0 -0.52725893975E+02 -0.12972401120E+03  0.16018548203E+04  0.16128150149E+04  0.12500027271E+03 0.  0.
          2    1    1    2  501    0  0.77168363574E+02  0.11732270937E+03  0.10844569143E+03  0.17742616059E+03  0.00000000000E+00 0. -1.
          1    1    1    2  502    0 -0.24442469598E+02  0.12401301833E+02  0.96845505085E+03  0.96884282117E+03  0.00000000000E+00 0. -1.
         22    1    3    3    0    0  0.38146142311E+01 -0.12515389890E+03  0.89946829718E+03  0.90814165598E+03  0.00000000000E+00 0. -1.
         22    1    3    3    0    0 -0.56540508207E+02 -0.45701122998E+01  0.70238652310E+03  0.70467335896E+03  0.00000000000E+00 0. -1.
</event>
<event>
 7    1  0.5789396E-006  0.2318236E+03  0.7818608E-02  0.1254864E+00
          2   -1    0    0  502    0  0.00000000000E+00  0.00000000000E+00  0.27323857870E+03  0.27323857870E+03  0.00000000000E+00 0. -1.
          1   -1    0    0  501    0 -0.00000000000E+00 -0.00000000000E+00 -0.50023492725E+03  0.50023492725E+03  0.00000000000E+00 0. -1.
         25    2    1    2    0    0  0.12028647710E+03 -0.19447154421E+03 -0.34449154726E+03  0.43197464280E+03  0.12505857750E+03 0.  0.
          2    1    1    2  501    0 -0.81109064990E+02  0.23338170743E+03  0.46257128956E+02  0.25136710956E+03  0.00000000000E+00 0. -1.
          1    1    1    2  502    0 -0.39177412107E+02 -0.38910163224E+02  0.71238069767E+02  0.90131753592E+02  0.00000000000E+00 0. -1.
         22    1    3    3    0    0  0.89428130011E+02 -0.35578551988E+02 -0.10029188748E+03  0.13900246938E+03  0.00000000000E+00 0. -1.
         22    1    3    3    0    0  0.30858347086E+02 -0.15889299222E+03 -0.24419965978E+03  0.29297217342E+03  0.00000000000E+00 0. -1.
</event>
<event>
 7    1  0.5789396E-006  0.1554330E+03  0.7818608E-02  0.1335338E+00
          2   -1    0    0  502    0  0.00000000000E+00  0.00000000000E+00  0.62019099426E+03  0.62019099426E+03  0.00000000000E+00 0. -1.
          1   -1    0    0  501    0 -0.00000000000E+00 -0.00000000000E+00 -0.13775689321E+03  0.13775689321E+03  0.00000000000E+00 0. -1.
         25    2    1    2    0    0 -0.15709201426E+03  0.77469382398E+02  0.36131066344E+03  0.42053441901E+03  0.12499758358E+03 0.  0.
          2    1    1    2  501    0  0.38966951896E+02 -0.15980265195E+00 -0.81570997198E+02  0.90400644140E+02  0.00000000000E+00 0. -1.
          1    1    1    2  502    0  0.11812506236E+03 -0.77309579746E+02  0.20269443481E+03  0.24701282433E+03  0.00000000000E+00 0. -1.
         22    1    3    3    0    0 -0.10749726469E+03  0.11157775859E+03  0.25589548508E+03  0.29914504410E+03  0.00000000000E+00 0.  1.
         22    1    3    3    0    0 -0.49594749568E+02 -0.34108376189E+02  0.10541517836E+03  0.12138937491E+03  0.00000000000E+00 0.  1.
</event>
<event>
 7    1  0.5789396E-006  0.1030468E+03  0.7818608E-02  0.1289532E+00
          2   -1    0    0  502    0  0.00000000000E+00  0.00000000000E+00  0.70152314401E+03  0.70152314401E+03  0.00000000000E+00 0. -1.
          1   -1    0    0  501    0 -0.00000000000E+00 -0.00000000000E+00 -0.39876885023E+04  0.39876885023E+04  0.00000000000E+00 0. -1.
         25    2    1    2    0    0 -0.10179869407E+03  0.76167187765E+01  0.11115815756E+03  0.19596829476E+03  0.12500579203E+03 0.  0.
          2    1    1    2  501    0  0.27137320408E+02 -0.84698304223E+02 -0.39395227169E+04  0.39405265478E+04  0.00000000000E+00 0. -1.
          1    1    1    2  502    0  0.74661373666E+02  0.77081585447E+02  0.54219920105E+03  0.55271680376E+03  0.00000000000E+00 0. -1.
         22    1    3    3    0    0 -0.95179782561E+02  0.17996435606E+02  0.13810996886E+02  0.97845829435E+02  0.00000000000E+00 0. -1.
         22    1    3    3    0    0 -0.66189115126E+01 -0.10379716829E+02  0.97347160670E+02  0.98122465325E+02  0.00000000000E+00 0. -1.
</event>
<event>
 7    1  0.5789396E-006  0.1002426E+03  0.7818608E-02  0.1342708E+00
          2   -1    0    0  502    0  0.00000000000E+00  0.00000000000E+00  0.57031993718E+03  0.57031993718E+03  0.00000000000E+00 0. -1.
          1   -1    0    0  501    0 -0.00000000000E+00 -0.00000000000E+00 -0.76990771957E+03  0.76990771957E+03  0.00000000000E+00 0. -1.
         25    2    1    2    0    0  0.27227031923E+02 -0.14419946975E+03 -0.78764714522E+02  0.20823937837E+03  0.12499984043E+03 0.  0.
          2    1    1    2  501    0 -0.40266563919E+02  0.89040804145E+02 -0.62098400216E+03  0.62862611456E+03  0.00000000000E+00 0. -1.
          1    1    1    2  502    0  0.13039531996E+02  0.55158665601E+02  0.50016093429E+03  0.50336216383E+03  0.00000000000E+00 0. -1.
         22    1    3    3    0    0  0.34813333357E+02 -0.12281114924E+03 -0.11076615884E+03  0.16900795396E+03  0.00000000000E+00 0. -1.
         22    1    3    3    0    0 -0.75863014337E+01 -0.21388320504E+02  0.32001444314E+02  0.39231424415E+02  0.00000000000E+00 0. -1.
</event>
<event>
 7    1  0.5789396E-006  0.9545409E+02  0.7818608E-02  0.1382417E+00
          2   -1    0    0  502    0  0.00000000000E+00  0.00000000000E+00  0.10832963701E+04  0.10832963701E+04  0.00000000000E+00 0. -1.
          1   -1    0    0  501    0 -0.00000000000E+00 -0.00000000000E+00 -0.51345522387E+02  0.51345522387E+02  0.00000000000E+00 0. -1.
         25    2    1    2    0    0 -0.12052414153E+03  0.59763853257E+02  0.18084379590E+03  0.25773482205E+03  0.12499989255E+03 0.  0.
          2    1    1    2  501    0  0.34310898909E+02 -0.25395092570E+02  0.34071585281E+02  0.54617043440E+02  0.00000000000E+00 0. -1.
          1    1    1    2  502    0  0.86213242616E+02 -0.34368760687E+02  0.81703546650E+03  0.82229002695E+03  0.00000000000E+00 0. -1.
         22    1    3    3    0    0  0.47583728887E+01  0.37944101085E+02  0.20073103219E+01  0.38293944879E+02  0.00000000000E+00 0. -1.
         22    1    3    3    0    0 -0.12528251441E+03  0.21819752172E+02  0.17883648557E+03  0.21944087717E+03  0.00000000000E+00 0. -1.
</event>
<event>
 7    1  0.5789396E-006  0.9452399E+02  0.7818608E-02  0.1292515E+00
          2   -1    0    0  502    0  0.00000000000E+00  0.00000000000E+00  0.20173756043E+04  0.20173756043E+04  0.00000000000E+00 0. -1.
          1   -1    0    0  501    0 -0.00000000000E+00 -0.00000000000E+00 -0.22609030731E+03  0.22609030731E+03  0.00000000000E+00 0. -1.
         25    2    1    2    0    0  0.73794657591E+00  0.92975138536E+01  0.20547083586E+03  0.24068015550E+03  0.12498673744E+03 0.  0.
          2    1    1    2  501    0 -0.88411808870E+02 -0.44625667503E+02 -0.19540026007E+03  0.21906473880E+03  0.00000000000E+00 0. -1.
          1    1    1    2  502    0  0.87673862294E+02  0.35328153649E+02  0.17812147212E+04  0.17837210173E+04  0.00000000000E+00 0. -1.
         22    1    3    3    0    0  0.31683155681E+02  0.32734500477E+02  0.17595185660E+02  0.48836056698E+02  0.00000000000E+00 0.  1.
         22    1    3    3    0    0 -0.30945209105E+02 -0.23436986624E+02  0.18787565020E+03  0.19184409880E+03  0.00000000000E+00 0.  1.
</event>
<event>
 7    1  0.5789396E-006  0.1369500E+03  0.7818608E-02  0.1390525E+00
          2   -1    0    0  502    0  0.00000000000E+00  0.00000000000E+00  0.91685505867E+03  0.91685505867E+03  0.00000000000E+00 0. -1.
          1   -1    0    0  501    0 -0.00000000000E+00 -0.00000000000E+00 -0.55785944681E+02  0.55785944681E+02  0.00000000000E+00 0. -1.
         25    2    1    2    0    0  0.10109275364E+03 -0.11778983483E+03  0.31915511571E+03  0.37626837853E+03  0.12499485898E+03 0.  0.
          2    1    1    2  501    0 -0.77470722899E+02  0.10300654898E+03  0.12843266709E+03  0.18195332373E+03  0.00000000000E+00 0. -1.
          1    1    1    2  502    0 -0.23622030745E+02  0.14783285859E+02  0.41348133118E+03  0.41441930109E+03  0.00000000000E+00 0. -1.
         22    1    3    3    0    0 -0.27174308461E+02 -0.38077947266E+02  0.96345892869E+02  0.10710230708E+03  0.00000000000E+00 0. -1.
         22    1    3    3    0    0  0.12826706211E+03 -0.79711887568E+02  0.22280922284E+03  0.26916607146E+03  0.00000000000E+00 0. -1.
</event>
<event>
 7    1  0.5789396E-006  0.1446642E+03  0.7818608E-02  0.1231165E+00
          2   -1    0    0  502    0  0.00000000000E+00  0.00000000000E+00  0.87945131261E+03  0.87945131261E+03  0.00000000000E+00 0. -1.
          1   -1    0    0  501    0 -0.00000000000E+00 -0.00000000000E+00 -0.45122419141E+03  0.45122419141E+03  0.00000000000E+00 0. -1.
         25    2    1    2    0    0 -0.15747007125E+03 -0.17085070506E+03  0.26237533269E+03  0.37209231857E+03  0.12500036631E+03 0.  0.
          2    1    1    2  501    0  0.10039872004E+03  0.50597838193E+02 -0.38023485854E+03  0.39650799723E+03  0.00000000000E+00 0. -1.
          1    1    1    2  502    0  0.57071351201E+02  0.12025286687E+03  0.54608664705E+03  0.56207518821E+03  0.00000000000E+00 0. -1.
         22    1    3    3    0    0 -0.17649515585E+03 -0.16944054471E+03  0.24066953618E+03  0.34319449861E+03  0.00000000000E+00 0.  1.
         22    1    3    3    0    0  0.19025084604E+02 -0.14101603464E+01  0.21705796510E+02  0.28897819961E+02  0.00000000000E+00 0.  1.
</event>
<event>
 7    1  0.5789396E-006  0.8306982E+02  0.7818608E-02  0.1459727E+00
          2   -1    0    0  502    0  0.00000000000E+00  0.00000000000E+00  0.40398676917E+03  0.40398676917E+03  0.00000000000E+00 0. -1.
          1   -1    0    0  501    0 -0.00000000000E+00 -0.00000000000E+00 -0.78573091762E+03  0.78573091762E+03  0.00000000000E+00 0. -1.
         25    2    1    2    0    0 -0.11996476180E+02 -0.55264299345E+02 -0.19659412482E+03  0.23973224607E+03  0.12499696664E+03 0.  0.
          2    1    1    2  501    0 -0.63256893609E+01 -0.26329894470E+02 -0.56266644260E+03  0.56331767531E+03  0.00000000000E+00 0. -1.
          1    1    1    2  502    0  0.18322165541E+02  0.81594193815E+02  0.37751641897E+03  0.38666776541E+03  0.00000000000E+00 0. -1.
         22    1    3    3    0    0 -0.59287800447E+02 -0.12120813411E+02 -0.14630815174E+03  0.15832887502E+03  0.00000000000E+00 0. -1.
         22    1    3    3    0    0  0.47291324266E+02 -0.43143485934E+02 -0.50285973079E+02  0.81403371047E+02  0.00000000000E+00 0. -1.
</event>
<event>
 7    1  0.5789396E-006  0.6404637E+02  0.7818608E-02  0.1443462E+00
          2   -1    0    0  502    0  0.00000000000E+00  0.00000000000E+00  0.10082109048E+04  0.10082109048E+04  0.00000000000E+00 0. -1.
          1   -1    0    0  501    0 -0.00000000000E+00 -0.00000000000E+00 -0.80569477389E+03  0.80569477389E+03  0.00000000000E+00 0. -1.
         25    2    1    2    0    0 -0.82067799112E+02 -0.80565895942E+01 -0.49959426083E+03  0.52155439623E+03  0.12499812194E+03 0.  0.
          2    1    1    2  501    0  0.56487839030E+02 -0.22150349169E+02 -0.29160360235E+03  0.29784924849E+03  0.00000000000E+00 0. -1.
          1    1    1    2  502    0  0.25579960082E+02  0.30206938763E+02  0.99371399405E+03  0.99450203392E+03  0.00000000000E+00 0. -1.
         22    1    3    3    0    0 -0.29144882843E+02 -0.45598932936E+02 -0.39340616050E+03  0.39711093413E+03  0.00000000000E+00 0. -1.
         22    1    3    3    0    0 -0.52922916269E+02  0.37542343341E+02 -0.10618810033E+03  0.12444346211E+03  0.00000000000E+00 0. -1.
</event>
<event>
 7    1  0.5789396E-006  0.8385794E+02  0.7818608E-02  0.1369023E+00
          2   -1    0    0  502    0  0.00000000000E+00  0.00000000000E+00  0.14303133110E+04  0.14303133110E+04  0.00000000000E+00 0. -1.
          1   -1    0    0  501    0 -0.00000000000E+00 -0.00000000000E+00 -0.56287682147E+03  0.56287682147E+03  0.00000000000E+00 0. -1.
         25    2    1    2    0    0 -0.63111498862E+02 -0.66495902416E+02  0.24653822088E+03  0.29122246844E+03  0.12499866177E+03 0.  0.
          2    1    1    2  501    0  0.51463346939E+02 -0.17118217204E+02 -0.53763445756E+03  0.54036313660E+03  0.00000000000E+00 0. -1.
          1    1    1    2  502    0  0.11648151923E+02  0.83614119619E+02  0.11585327262E+04  0.11616045274E+04  0.00000000000E+00 0. -1.
         22    1    3    3    0    0 -0.10048390987E+03 -0.58957283304E+02  0.19430113333E+03  0.22655221872E+03  0.00000000000E+00 0.  1.
         22    1    3    3    0    0  0.37372411005E+02 -0.75386191116E+01  0.52237087551E+02  0.64670249715E+02  0.00000000000E+00 0.  1.
</event>
<event>
 7    1  0.5789396E-006  0.9940089E+02  0.7818608E-02  0.1296351E+00
          2   -1    0    0  502    0  0.00000000000E+00  0.00000000000E+00  0.64036417347E+03  0.64036417347E+03  0.00000000000E+00 0. -1.
          1   -1    0    0  501    0 -0.00000000000E+00 -0.00000000000E+00 -0.88576504487E+03  0.88576504487E+03  0.00000000000E+00 0. -1.
         25    2    1    2    0    0  0.10021960285E+03 -0.14654959624E+03  0.16379654399E+03  0.27198501400E+03  0.12500314822E+03 0.  0.
          2    1    1    2  501    0 -0.56910691337E+02  0.65172576140E+02 -0.82435092536E+03  0.82887920688E+03  0.00000000000E+00 0. -1.
          1    1    1    2  502    0 -0.43308911516E+02  0.81377020100E+02  0.41515350997E+03  0.42526499745E+03  0.00000000000E+00 0. -1.
         22    1    3    3    0    0  0.51081646806E+02 -0.82011204038E+02  0.87656246937E+01  0.97015506000E+02  0.00000000000E+00 0.  1.
         22    1    3    3    0    0  0.49137956047E+02 -0.64538392203E+02  0.15503091930E+03  0.17496950800E+03  0.00000000000E+00 0.  1.
</event>
<event>
 7    1  0.5789396E-006  0.1394008E+03  0.7818608E-02  0.1328135E+00
          2   -1    0    0  502    0  0.00000000000E+00  0.00000000000E+00  0.48412788822E+03  0.48412788822E+03  0.00000000000E+00 0. -1.
          1   -1    0    0  501    0 -0.00000000000E+00 -0.00000000000E+00 -0.16594726207E+04  0.16594726207E+04  0.00000000000E+00 0. -1.
         25    2    1    2    0    0  0.12497552642E+03  0.10314830655E+03 -0.59561785494E+03  0.62979573275E+03  0.12499432197E+03 0.  0.
          2    1    1    2  501    0  0.19666406289E+01 -0.46241437541E+02 -0.10358783678E+04  0.10369118242E+04  0.00000000000E+00 0. -1.
          1    1    1    2  502    0 -0.12694216704E+03 -0.56906869006E+02  0.45615149030E+03  0.47689295195E+03  0.00000000000E+00 0. -1.
         22    1    3    3    0    0  0.15825810079E+02  0.73967456556E+02 -0.12761741474E+03  0.14835041435E+03  0.00000000000E+00 0.  1.
         22    1    3    3    0    0  0.10914971634E+03  0.29180849992E+02 -0.46800044020E+03  0.48144531840E+03  0.00000000000E+00 0.  1.
</event>
<event>
 7    1  0.5789396E-006  0.7439322E+02  0.7818608E-02  0.1447238E+00
          2   -1    0    0  502    0  0.00000000000E+00  0.00000000000E+00  0.35856831384E+04  0.35856831384E+04  0.00000000000E+00 0. -1.
          1   -1    0    0  501    0 -0.00000000000E+00 -0.00000000000E+00 -0.44908100999E+03  0.44908100999E+03  0.00000000000E+00 0. -1.
         25    2    1    2    0    0  0.77583818684E+02  0.34401685005E+02  0.18795349241E+04  0.18855978781E+04  0.12500040777E+03 0.  0.
          2    1    1    2  501    0 -0.46012325962E+01 -0.32815556329E+02 -0.44465050926E+03  0.44588351333E+03  0.00000000000E+00 0. -1.
          1    1    1    2  502    0 -0.72982586088E+02 -0.15861286752E+01  0.17017177135E+04  0.17032827570E+04  0.00000000000E+00 0. -1.
         22    1    3    3    0    0  0.74253140533E+02  0.28953541399E+02  0.18770572552E+04  0.18787484599E+04  0.00000000000E+00 0. -1.
         22    1    3    3    0    0  0.33306781504E+01  0.54481436060E+01  0.24776689532E+01  0.68494181603E+01  0.00000000000E+00 0. -1.
</event>
<event>
 7    1  0.5789396E-006  0.6540588E+02  0.7818608E-02  0.1470048E+00
          2   -1    0    0  502    0  0.00000000000E+00  0.00000000000E+00  0.23621393212E+04  0.23621393212E+04  0.00000000000E+00 0. -1.
          1   -1    0    0  501    0 -0.00000000000E+00 -0.00000000000E+00 -0.24151572305E+02  0.24151572305E+02  0.00000000000E+00 0. -1.
         25    2    1    2    0    0  0.53043808074E+02 -0.64519314200E+02  0.24941233214E+03  0.29121853050E+03  0.12500133440E+03 0.  0.
          2    1    1    2  501    0  0.31868050228E+01  0.31765040630E+02  0.91002615194E+02  0.96439875076E+02  0.00000000000E+00 0. -1.
          1    1    1    2  502    0 -0.56230613096E+02  0.32754273570E+02  0.19975728016E+04  0.19986324880E+04  0.00000000000E+00 0. -1.
         22    1    3    3    0    0 -0.23946345713E+02 -0.30678609109E+02  0.17387173939E+03  0.17817403371E+03  0.00000000000E+00 0. -1.
         22    1    3    3    0    0  0.76990153787E+02 -0.33840705091E+02  0.75540592756E+02  0.11304449679E+03  0.00000000000E+00 0. -1.
</event>
<event>
 7    1  0.5789396E-006  0.5929161E+02  0.7818608E-02  0.1447865E+00
          2   -1    0    0  502    0  0.00000000000E+00  0.00000000000E+00  0.13807762840E+03  0.13807762840E+03  0.00000000000E+00 0. -1.
          1   -1    0    0  501    0 -0.00000000000E+00 -0.00000000000E+00 -0.25860030243E+03  0.25860030243E+03  0.00000000000E+00 0. -1.
         25    2    1    2    0    0 -0.27926478664E+01  0.20039117137E+02  0.30766172519E+02  0.13030963069E+03  0.12499870952E+03 0.  0.
          2    1    1    2  501    0  0.11355672039E+02 -0.60527725428E+02 -0.19599824458E+03  0.20544553710E+03  0.00000000000E+00 0. -1.
          1    1    1    2  502    0 -0.85630241725E+01  0.40488608292E+02  0.44709398034E+02  0.60922763044E+02  0.00000000000E+00 0. -1.
         22    1    3    3    0    0  0.39242551045E+02  0.22825346995E+02 -0.31410707431E+02  0.55205133993E+02  0.00000000000E+00 0. -1.
         22    1    3    3    0    0 -0.42035198911E+02 -0.27862298580E+01  0.62176879950E+02  0.75104496701E+02  0.00000000000E+00 0. -1.
</event>
<event>
 7    1  0.5789396E-006  0.7033890E+02  0.7818608E-02  0.1523308E+00
          2   -1    0    0  502    0  0.00000000000E+00  0.00000000000E+00  0.11250553325E+04  0.11250553325E+04  0.00000000000E+00 0. -1.
          1   -1    0    0  501    0 -0.00000000000E+00 -0.00000000000E+00 -0.38865583697E+03  0.38865583697E+03  0.00000000000E+00 0. -1.
         25    2    1    2    0    0 -0.37410841790E+02 -0.39736745215E+02  0.52371023576E+03  0.54118056064E+03  0.12500163265E+03 0.  0.
          2    1    1    2  501    0 -0.17498631370E+02 -0.10776847273E+02 -0.37729154998E+03  0.37785083859E+03  0.00000000000E+00 0. -1.
          1    1    1    2  502    0  0.54909473160E+02  0.50513592488E+02  0.58998080974E+03  0.59467977024E+03  0.00000000000E+00 0. -1.
         22    1    3    3    0    0 -0.60808138504E+01  0.45159648072E+02  0.19374957147E+03  0.19903584239E+03  0.00000000000E+00 0. -1.
         22    1    3    3    0    0 -0.31330027940E+02 -0.84896393286E+02  0.32996066429E+03  0.34214471824E+03  0.00000000000E+00 0. -1.
</event>
<event>
 7    1  0.5789396E-006  0.7993984E+02  0.7818608E-02  0.1409890E+00
          2   -1    0    0  502    0  0.00000000000E+00  0.00000000000E+00  0.85017018855E+03  0.85017018855E+03  0.00000000000E+00 0. -1.
          1   -1    0    0  501    0 -0.00000000000E+00 -0.00000000000E+00 -0.22555943860E+02  0.22555943860E+02  0.00000000000E+00 0. -1.
         25    2    1    2    0    0 -0.17577149235E+02 -0.75715865649E+02  0.46138534447E+03  0.48429637315E+03  0.12499876985E+03 0.  0.
          2    1    1    2  501    0  0.40554615124E+02 -0.57123437578E+01  0.78807173539E+02  0.88813727994E+02  0.00000000000E+00 0. -1.
          1    1    1    2  502    0 -0.22977465888E+02  0.81428209407E+02  0.28742172668E+03  0.29961603127E+03  0.00000000000E+00 0. -1.
         22    1    3    3    0    0  0.22445117489E+02  0.24288021307E+02  0.57885179835E+02  0.66666223252E+02  0.00000000000E+00 0.  1.
         22    1    3    3    0    0 -0.40022266724E+02 -0.10000388696E+03  0.40350016463E+03  0.41763014989E+03  0.00000000000E+00 0.  1.
</event>
<event>
 7    1  0.5789396E-006  0.5723407E+02  0.7818608E-02  0.1434806E+00
          2   -1    0    0  502    0  0.00000000000E+00  0.00000000000E+00  0.26145693387E+03  0.26145693387E+03  0.00000000000E+00 0. -1.
          1   -1    0    0  501    0 -0.00000000000E+00 -0.00000000000E+00 -0.87520025074E+03  0.87520025074E+03  0.00000000000E+00 0. -1.
         25    2    1    2    0    0 -0.50583382977E+02  0.60100622461E+02 -0.10071523017E+03  0.17871733020E+03  0.12500225228E+03 0.  0.
          2    1    1    2  501    0  0.47153667932E+02 -0.31350432084E+01 -0.73104834330E+03  0.73257421272E+03  0.00000000000E+00 0. -1.
          1    1    1    2  502    0  0.34297150447E+01 -0.56965579252E+02  0.21802025660E+03  0.22536564168E+03  0.00000000000E+00 0. -1.
         22    1    3    3    0    0 -0.29216995116E+02  0.82171727635E+02 -0.11541712840E+03  0.14466146396E+03  0.00000000000E+00 0.  1.
         22    1    3    3    0    0 -0.21366387861E+02 -0.22071105174E+02  0.14701898237E+02  0.34055866244E+02  0.00000000000E+00 0.  1.
</event>
<event>
 7    1  0.5789396E-006  0.5809371E+02  0.7818608E-02  0.1523238E+00
          2   -1    0    0  502    0  0.00000000000E+00  0.00000000000E+00  0.16443925581E+03  0.16443925581E+03  0.00000000000E+00 0. -1.
          1   -1    0    0  501    0 -0.00000000000E+00 -0.00000000000E+00 -0.53130897419E+03  0.53130897419E+03  0.00000000000E+00 0. -1.
         25    2    1    2    0    0  0.61012505293E+02  0.15776141263E+02 -0.24650927710E+02  0.14213087550E+03  0.12498841986E+03 0.  0.
          2    1    1    2  501    0 -0.15107787974E+02  0.19785850686E+02 -0.43956401135E+03  0.44026837863E+03  0.00000000000E+00 0. -1.
          1    1    1    2  502    0 -0.45904717320E+02 -0.35561991949E+02  0.97345220675E+02  0.11334897587E+03  0.00000000000E+00 0. -1.
         22    1    3    3    0    0 -0.28204492382E+02 -0.69753888392E+00  0.25877932467E+02  0.38283773844E+02  0.00000000000E+00 0. -1.
         22    1    3    3    0    0  0.89216997675E+02  0.16473680147E+02 -0.50528860176E+02  0.10384710166E+03  0.00000000000E+00 0. -1.
</event>
<event>
 7    1  0.5789396E-006  0.1289188E+03  0.7818608E-02  0.1381764E+00
          2   -1    0    0  502    0  0.00000000000E+00  0.00000000000E+00  0.28710969316E+03  0.28710969316E+03  0.00000000000E+00 0. -1.
          1   -1    0    0  501    0 -0.00000000000E+00 -0.00000000000E+00 -0.10736047104E+04  0.10736047104E+04  0.00000000000E+00 0. -1.
         25    2    1    2    0    0 -0.71103616234E+02  0.11990975037E+03 -0.16675142821E+03  0.25073160975E+03  0.12500491527E+03 0.  0.
          2    1    1    2  501    0  0.88038836671E+02 -0.93024720642E+02 -0.85906546468E+03  0.86856082575E+03  0.00000000000E+00 0. -1.
          1    1    1    2  502    0 -0.16935220437E+02 -0.26885029727E+02  0.23932187564E+03  0.24142196808E+03  0.00000000000E+00 0. -1.
         22    1    3    3    0    0  0.48639688420E+01  0.10256643599E+03 -0.61210535506E+02  0.11954188237E+03  0.00000000000E+00 0. -1.
         22    1    3    3    0    0 -0.75967585076E+02  0.17343314384E+02 -0.10554089271E+03  0.13118972738E+03  0.00000000000E+00 0. -1.
</event>
<event>
 7    1  0.5789396E-006  0.2528835E+03  0.7818608E-02  0.1161879E+00
          2   -1    0    0  502    0  0.00000000000E+00  0.00000000000E+00  0.97548298725E+03  0.97548298725E+03  0.00000000000E+00 0. -1.
          1   -1    0    0  501    0 -0.00000000000E+00 -0.00000000000E+00 -0.62047214633E+03  0.62047214633E+03  0.00000000000E+00 0. -1.
         25    2    1    2    0    0  0.30250169082E+02 -0.22119767540E+03 -0.22514710990E+03  0.34082217451E+03  0.12500019684E+03 0.  0.
          2    1    1    2  501    0 -0.16368682341E+03  0.25306149673E+03 -0.26353740911E+03  0.40035667009E+03  0.00000000000E+00 0. -1.
          1    1    1    2  502    0  0.13343665433E+03 -0.31863821330E+02  0.84369535992E+03  0.85477628897E+03  0.00000000000E+00 0. -1.
         22    1    3    3    0    0 -0.38557236108E+02 -0.63827285300E+02 -0.28757702166E+02  0.79922388847E+02  0.00000000000E+00 0. -1.
         22    1    3    3    0    0  0.68807405190E+02 -0.15737039010E+03 -0.19638940773E+03  0.26089978566E+03  0.00000000000E+00 0. -1.
</event>
<event>
 7    1  0.5789396E-006  0.7210057E+02  0.7818608E-02  0.1504764E+00
          2   -1    0    0  502    0  0.00000000000E+00  0.00000000000E+00  0.17250066749E+03  0.17250066749E+03  0.00000000000E+00 0. -1.
          1   -1    0    0  501    0 -0.00000000000E+00 -0.00000000000E+00 -0.75479627802E+03  0.75479627802E+03  0.00000000000E+00 0. -1.
         25    2    1    2    0    0 -0.34718197825E+02 -0.56238670652E+02 -0.33862226813E+03  0.36695683532E+03  0.12499654866E+03 0.  0.
          2    1    1    2  501    0  0.18243904642E+02  0.71882360023E+02 -0.39774636887E+03  0.40460114642E+03  0.00000000000E+00 0. -1.
          1    1    1    2  502    0  0.16474293182E+02 -0.15643689371E+02  0.15407302646E+03  0.15573896377E+03  0.00000000000E+00 0. -1.
         22    1    3    3    0    0 -0.55349543736E+02  0.90457008629E+01 -0.24276489896E+03  0.24915897106E+03  0.00000000000E+00 0. -1.
         22    1    3    3    0    0  0.20631345912E+02 -0.65284371515E+02 -0.95857369168E+02  0.11779786425E+03  0.00000000000E+00 0. -1.
</event>
<event>
 7    1  0.5789396E-006  0.1036595E+03  0.7818608E-02  0.1318788E+00
          2   -1    0    0  502    0  0.00000000000E+00  0.00000000000E+00  0.11008232805E+04  0.11008232805E+04  0.00000000000E+00 0. -1.
          1   -1    0    0  501    0 -0.00000000000E+00 -0.00000000000E+00 -0.94253962329E+03  0.94253962329E+03  0.00000000000E+00 0. -1.
         25    2    1    2    0    0  0.18713601132E+02 -0.10163987677E+03 -0.29089830048E+02  0.16477792180E+03  0.12499872753E+03 0.  0.
          2    1    1    2  501    0 -0.78240776929E+02  0.69537542701E+02 -0.84125157742E+03  0.84773893713E+03  0.00000000000E+00 0. -1.
          1    1    1    2  502    0  0.59527175796E+02  0.32102334065E+02  0.10286250647E+04  0.10308460448E+04  0.00000000000E+00 0. -1.
         22    1    3    3    0    0 -0.45063118706E+02 -0.83602811423E+02 -0.83982270939E+01  0.95344873819E+02  0.00000000000E+00 0.  1.
         22    1    3    3    0    0  0.63776719838E+02 -0.18037065344E+02 -0.20691602954E+02  0.69433047984E+02  0.00000000000E+00 0.  1.
</event>
<event>
 7    1  0.5789396E-006  0.6430669E+02  0.7818608E-02  0.1474187E+00
          2   -1    0    0  502    0  0.00000000000E+00  0.00000000000E+00  0.32748268991E+04  0.32748268991E+04  0.00000000000E+00 0. -1.
          1   -1    0    0  501    0 -0.00000000000E+00 -0.00000000000E+00 -0.73420830930E+01  0.73420830930E+01  0.00000000000E+00 0. -1.
         25    2    1    2    0    0 -0.23802179659E+02 -0.60408691199E+02  0.18729574056E+04  0.18782462174E+04  0.12499462419E+03 0.  0.
          2    1    1    2  501    0 -0.74341005478E+01  0.64661494107E+02  0.23170690262E+03  0.24067501614E+03  0.00000000000E+00 0. -1.
          1    1    1    2  502    0  0.31236280206E+02 -0.42528029085E+01  0.11628205077E+04  0.11632477486E+04  0.00000000000E+00 0. -1.
         22    1    3    3    0    0 -0.36521925774E+02 -0.20175186651E+02  0.18037315216E+03  0.18513606682E+03  0.00000000000E+00 0. -1.
         22    1    3    3    0    0  0.12719746116E+02 -0.40233504548E+02  0.16925842535E+04  0.16931101506E+04  0.00000000000E+00 0. -1.
</event>
<event>
 7    1  0.5789396E-006  0.5898551E+02  0.7818608E-02  0.1433769E+00
          2   -1    0    0  502    0  0.00000000000E+00  0.00000000000E+00  0.99358039552E+02  0.99358039552E+02  0.00000000000E+00 0. -1.
          1   -1    0    0  501    0 -0.00000000000E+00 -0.00000000000E+00 -0.19191073540E+03  0.19191073540E+03  0.00000000000E+00 0. -1.
         25    2    1    2    0    0  0.51474192333E+02 -0.30064992230E+02  0.80909236474E+01  0.13872050613E+03  0.12499767814E+03 0.  0.
          2    1    1    2  501    0  0.14767567199E+02  0.43791148760E+02 -0.32279567790E+02  0.56371235993E+02  0.00000000000E+00 0. -1.
          1    1    1    2  502    0 -0.66241759532E+02 -0.13726156530E+02 -0.68364051708E+02  0.96177032835E+02  0.00000000000E+00 0. -1.
         22    1    3    3    0    0 -0.11262103903E+02  0.22912701310E+02 -0.37067705392E+02  0.45009350681E+02  0.00000000000E+00 0.  1.
         22    1    3    3    0    0  0.62736296237E+02 -0.52977693540E+02  0.45158629040E+02  0.93711155446E+02  0.00000000000E+00 0.  1.
</event>
<event>
 7    1  0.5789396E-006  0.9743239E+02  0.7818608E-02  0.1460666E+00
          2   -1    0    0  502    0  0.00000000000E+00  0.00000000000E+00  0.39396245416E+03  0.39396245416E+03  0.00000000000E+00 0. -1.
          1   -1    0    0  501    0 -0.00000000000E+00 -0.00000000000E+00 -0.50166293105E+03  0.50166293105E+03  0.00000000000E+00 0. -1.
         25    2    1    2    0    0 -0.10466421836E+03  0.33330108697E+02 -0.35416745643E+03  0.39131333691E+03  0.12500418270E+03 0.  0.
          2    1    1    2  501    0  0.84730957001E+02 -0.21995616125E+02 -0.11365576124E+03  0.14346000929E+03  0.00000000000E+00 0. -1.
          1    1    1    2  502    0  0.19933261357E+02 -0.11334492572E+02  0.36012274078E+03  0.36085203901E+03  0.00000000000E+00 0. -1.
         22    1    3    3    0    0 -0.61262836617E+02  0.13531613029E+02 -0.33345680746E+03  0.33930765117E+03  0.00000000000E+00 0. -1.
         22    1    3    3    0    0 -0.43401381742E+02  0.19798495668E+02 -0.20710648973E+02  0.52005685734E+02  0.00000000000E+00 0. -1.
</event>
<event>
 7    1  0.5789396E-006  0.6991787E+02  0.7818608E-02  0.1511384E+00
          2   -1    0    0  502    0  0.00000000000E+00  0.00000000000E+00  0.63221023735E+03  0.63221023735E+03  0.00000000000E+00 0. -1.
          1   -1    0    0  501    0 -0.00000000000E+00 -0.00000000000E+00 -0.13986066167E+04  0.13986066167E+04  0.00000000000E+00 0. -1.
         25    2    1    2    0    0  0.76767717640E+02 -0.53788481847E+01 -0.27501992809E+02  0.14934977107E+03  0.12500711992E+03 0.  0.
          2    1    1    2  501    0 -0.68162951441E+02 -0.15299361711E+02 -0.13090294835E+04  0.13108922332E+04  0.00000000000E+00 0. -1.
          1    1    1    2  502    0 -0.86047661996E+01  0.20678209896E+02  0.57013509698E+03  0.57057484976E+03  0.00000000000E+00 0. -1.
         22    1    3    3    0    0 -0.34042187469E+02  0.11910124243E+01  0.31014323153E+01  0.34203916745E+02  0.00000000000E+00 0. -1.
         22    1    3    3    0    0  0.11080990511E+03 -0.65698606090E+01 -0.30603425124E+02  0.11514585432E+03  0.00000000000E+00 0. -1.
</event>
<event>
 7    1  0.5789396E-006  0.4154994E+03  0.7818608E-02  0.1230538E+00
          2   -1    0    0  502    0  0.00000000000E+00  0.00000000000E+00  0.18112102231E+04  0.18112102231E+04  0.00000000000E+00 0. -1.
          1   -1    0    0  501    0 -0.00000000000E+00 -0.00000000000E+00 -0.53487267125E+03  0.53487267125E+03  0.00000000000E+00 0. -1.
         25    2    1    2    0    0 -0.40241416855E+03  0.48078267059E+02  0.40158449452E+03  0.58407452000E+03  0.12499702343E+03 0.  0.
          2    1    1    2  501    0 -0.82301210070E+01  0.38528808151E+02 -0.40925884842E+03  0.41115083481E+03  0.00000000000E+00 0. -1.
          1    1    1    2  502    0  0.41064428956E+03 -0.86607075210E+02  0.12840119058E+04  0.13508575396E+04  0.00000000000E+00 0. -1.
         22    1    3    3    0    0 -0.33960857097E+03  0.20845015383E+02  0.26490853768E+03  0.43121343843E+03  0.00000000000E+00 0.  1.
         22    1    3    3    0    0 -0.62805597582E+02  0.27233251676E+02  0.13667595683E+03  0.15286108157E+03  0.00000000000E+00 0.  1.
</event>
<event>
 7    1  0.5789396E-006  0.1331154E+03  0.7818608E-02  0.1286010E+00
          2   -1    0    0  502    0  0.00000000000E+00  0.00000000000E+00  0.81828913225E+03  0.81828913225E+03  0.00000000000E+00 0. -1.
          1   -1    0    0  501    0 -0.00000000000E+00 -0.00000000000E+00 -0.86346501700E+03  0.86346501700E+03  0.00000000000E+00 0. -1.
         25    2    1    2    0    0  0.16163278153E+03  0.95031556331E+02  0.29323401537E+03  0.36981862606E+03  0.12499390243E+03 0.  0.
          2    1    1    2  501    0 -0.45919047320E+02 -0.54370444101E+02 -0.81587302101E+03  0.81897099492E+03  0.00000000000E+00 0. -1.
          1    1    1    2  502    0 -0.11571373421E+03 -0.40661112230E+02  0.47746312089E+03  0.49296452828E+03  0.00000000000E+00 0. -1.
         22    1    3    3    0    0  0.15743267225E+03  0.64444098979E+02  0.29316376367E+03  0.33894406694E+03  0.00000000000E+00 0. -1.
         22    1    3    3    0    0  0.42001092859E+01  0.30587457352E+02  0.70251695759E-01  0.30874559116E+02  0.00000000000E+00 0. -1.
</event>
<event>
 7    1  0.5789396E-006  0.6622341E+02  0.7818608E-02  0.1496405E+00
          2   -1    0    0  502    0  0.00000000000E+00  0.00000000000E+00  0.10206575887E+03  0.10206575887E+03  0.00000000000E+00 0. -1.
          1   -1    0    0  501    0 -0.00000000000E+00 -0.00000000000E+00 -0.20467782794E+03  0.20467782794E+03  0.00000000000E+00 0. -1.
         25    2    1    2    0    0  0.56395273558E+02  0.29668444154E+02 -0.64216181926E+02  0.15428077085E+03  0.12497277614E+03 0.  0.
          2    1    1    2  501    0 -0.13493203708E+02  0.22453320335E+02 -0.72314694856E+02  0.76913153833E+02  0.00000000000E+00 0. -1.
          1    1    1    2  502    0 -0.42902069849E+02 -0.52121764490E+02  0.33918807712E+02  0.75549662127E+02  0.00000000000E+00 0. -1.
         22    1    3    3    0    0  0.91598119847E+02  0.44775963408E+02 -0.45596806173E+02  0.11168782920E+03  0.00000000000E+00 0.  1.
         22    1    3    3    0    0 -0.35202846289E+02 -0.15107519254E+02 -0.18619375753E+02  0.42592941649E+02  0.00000000000E+00 0.  1.
</event>
<event>
 7    1  0.5789396E-006  0.8965447E+02  0.7818608E-02  0.1359040E+00
          2   -1    0    0  502    0  0.00000000000E+00  0.00000000000E+00  0.11468287001E+04  0.11468287001E+04  0.00000000000E+00 0. -1.
          1   -1    0    0  501    0 -0.00000000000E+00 -0.00000000000E+00 -0.10735397145E+04  0.10735397145E+04  0.00000000000E+00 0. -1.
         25    2    1    2    0    0 -0.44719347633E+02  0.34076237036E+02  0.31701360674E+03  0.34537665335E+03  0.12500558323E+03 0.  0.
          2    1    1    2  501    0  0.26188126189E+02 -0.86009587839E+02 -0.10565147500E+04  0.10603333834E+04  0.00000000000E+00 0. -1.
          1    1    1    2  502    0  0.18531221444E+02  0.51933350803E+02  0.81279012880E+03  0.81465837783E+03  0.00000000000E+00 0. -1.
         22    1    3    3    0    0 -0.50842380648E+02  0.39884529078E+02  0.32641090799E+03  0.33274585525E+03  0.00000000000E+00 0.  1.
         22    1    3    3    0    0  0.61230330146E+01 -0.58082920426E+01 -0.93973012541E+01  0.12630798099E+02  0.00000000000E+00 0.  1.
</event>
<event>
 7    1  0.5789396E-006  0.7835096E+02  0.7818608E-02  0.1412843E+00
          2   -1    0    0  502    0  0.00000000000E+00  0.00000000000E+00  0.75746322267E+03  0.75746322267E+03  0.00000000000E+00 0. -1.
          1   -1    0    0  501    0 -0.00000000000E+00 -0.00000000000E+00 -0.25265974982E+02  0.25265974982E+02  0.00000000000E+00 0. -1.
         25    2    1    2    0    0  0.63180914637E+02 -0.27135266107E+02  0.46800952898E+03  0.48925792920E+03  0.12494899531E+03 0.  0.
          2    1    1    2  501    0 -0.83280657462E+02 -0.84112844723E+01  0.14430360893E+03  0.16682310740E+03  0.00000000000E+00 0. -1.
          1    1    1    2  502    0  0.20099742825E+02  0.35546550579E+02  0.11988410978E+03  0.12664816105E+03  0.00000000000E+00 0. -1.
         22    1    3    3    0    0 -0.14886926497E+00  0.45808954754E+02  0.13836923526E+03  0.14575502655E+03  0.00000000000E+00 0.  1.
         22    1    3    3    0    0  0.63329783902E+02 -0.72944220861E+02  0.32964029372E+03  0.34350290265E+03  0.00000000000E+00 0.  1.
</event>
<event>
 7    1  0.5789396E-006  0.6622158E+02  0.7818608E-02  0.1512467E+00
          2   -1    0    0  502    0  0.00000000000E+00  0.00000000000E+00  0.26874324098E+02  0.26874324098E+02  0.00000000000E+00 0. -1.
          1   -1    0    0  501    0 -0.00000000000E+00 -0.00000000000E+00 -0.73480142909E+03  0.73480142909E+03  0.00000000000E+00 0. -1.
         25    2    1    2    0    0  0.38279097399E+02  0.53610244375E+02 -0.22317664095E+03  0.26414375722E+03  0.12499905525E+03 0.  0.
          2    1    1    2  501    0 -0.55243088958E+02 -0.37384171989E+02 -0.45385223048E+03  0.45872783031E+03  0.00000000000E+00 0. -1.
          1    1    1    2  502    0  0.16963991558E+02 -0.16226072385E+02 -0.30898233564E+02  0.38804165653E+02  0.00000000000E+00 0. -1.
         22    1    3    3    0    0 -0.34236223003E+02  0.22523383546E+02 -0.18839536857E+02  0.45103768366E+02  0.00000000000E+00 0. -1.
         22    1    3    3    0    0  0.72515320402E+02  0.31086860829E+02 -0.20433710409E+03  0.21903998885E+03  0.00000000000E+00 0. -1.
</event>
<event>
 7    1  0.5789396E-006  0.9974585E+02  0.7818608E-02  0.1365674E+00
          2   -1    0    0  502    0  0.00000000000E+00  0.00000000000E+00  0.75271626288E+03  0.75271626288E+03  0.00000000000E+00 0. -1.
          1   -1    0    0  501    0 -0.00000000000E+00 -0.00000000000E+00 -0.65060629456E+02  0.65060629456E+02  0.00000000000E+00 0. -1.
         25    2    1    2    0    0  0.46712788154E+02  0.11251355163E+03  0.51561731702E+03  0.54435999508E+03  0.12500081099E+03 0.  0.
          2    1    1    2  501    0 -0.39568989954E+02 -0.25146941258E+02 -0.28284387932E+02  0.54754727845E+02  0.00000000000E+00 0. -1.
          1    1    1    2  502    0 -0.71437981995E+01 -0.87366610376E+02  0.20032270433E+03  0.21866216941E+03  0.00000000000E+00 0. -1.
         22    1    3    3    0    0  0.87831286480E+02  0.95974481996E+02  0.39351868606E+03  0.41446639473E+03  0.00000000000E+00 0. -1.
         22    1    3    3    0    0 -0.41118498326E+02  0.16539069638E+02  0.12209863096E+03  0.12989360035E+03  0.00000000000E+00 0. -1.
</event>
<event>
 7    1  0.5789396E-006  0.5165559E+02  0.7818608E-02  0.1497600E+00
          2   -1    0    0  502    0  0.00000000000E+00  0.00000000000E+00  0.29000835284E+03  0.29000835284E+03  0.00000000000E+00 0. -1.
          1   -1    0    0  501    0 -0.00000000000E+00 -0.00000000000E+00 -0.31927782288E+03  0.31927782288E+03  0.00000000000E+00 0. -1.
         25    2    1    2    0    0  0.39100972255E+02  0.36494213654E+02 -0.18637340597E+03  0.23070512501E+03  0.12501637729E+03 0.  0.
          2    1    1    2  501    0 -0.53145468630E+02 -0.62923454956E+01 -0.10314886316E+03  0.11620551803E+03  0.00000000000E+00 0. -1.
          1    1    1    2  502    0  0.14044496375E+02 -0.30201868158E+02  0.26025279909E+03  0.26237553268E+03  0.00000000000E+00 0. -1.
         22    1    3    3    0    0  0.27152521348E+02  0.76556264055E+02 -0.16463940668E+03  0.18358718696E+03  0.00000000000E+00 0.  1.
         22    1    3    3    0    0  0.11948450907E+02 -0.40062050401E+02 -0.21733999290E+02  0.47117938055E+02  0.00000000000E+00 0.  1.
</event>
<event>
 7    1  0.5789396E-006  0.6062242E+02  0.7818608E-02  0.1527088E+00
          2   -1    0    0  502    0  0.00000000000E+00  0.00000000000E+00  0.26217588529E+02  0.26217588529E+02  0.00000000000E+00 0. -1.
          1   -1    0    0  501    0 -0.00000000000E+00 -0.00000000000E+00 -0.14251202912E+04  0.14251202912E+04  0.00000000000E+00 0. -1.
         25    2    1    2    0    0  0.29268298658E+02 -0.69624203925E+02 -0.34089069662E+03  0.37085795729E+03  0.12499997747E+03 0.  0.
          2    1    1    2  501    0 -0.36483796460E+02  0.47518239876E+02 -0.10553785298E+04  0.10570775240E+04  0.00000000000E+00 0. -1.
          1    1    1    2  502    0  0.72154978020E+01  0.22105964049E+02 -0.26334762125E+01  0.23402398424E+02  0.00000000000E+00 0. -1.
         22    1    3    3    0    0  0.11032374900E+02 -0.42784932177E+02 -0.20291850224E+02  0.48621218648E+02  0.00000000000E+00 0. -1.
         22    1    3    3    0    0  0.18235923758E+02 -0.26839271748E+02 -0.32059884640E+03  0.32223673865E+03  0.00000000000E+00 0. -1.
</event>
<event>
 7    1  0.5789396E-006  0.1280120E+03  0.7818608E-02  0.1324741E+00
          2   -1    0    0  502    0  0.00000000000E+00  0.00000000000E+00  0.77421938482E+03  0.77421938482E+03  0.00000000000E+00 0. -1.
          1   -1    0    0  501    0 -0.00000000000E+00 -0.00000000000E+00 -0.43142911296E+03  0.43142911296E+03  0.00000000000E+00 0. -1.
         25    2    1    2    0    0  0.14118851574E+02 -0.16347897298E+03  0.58055222812E+03  0.61610887434E+03  0.12499815554E+03 0.  0.
          2    1    1    2  501    0 -0.42723490530E+02  0.12012921667E+03 -0.39966520474E+03  0.41950995366E+03  0.00000000000E+00 0. -1.
          1    1    1    2  502    0  0.28604638955E+02  0.43349756306E+02  0.16190324847E+03  0.17002966978E+03  0.00000000000E+00 0. -1.
         22    1    3    3    0    0  0.76261615494E+01 -0.16817971038E+03  0.38268554786E+03  0.41807989890E+03  0.00000000000E+00 0. -1.
         22    1    3    3    0    0  0.64926900250E+01  0.47007374014E+01  0.19786668026E+03  0.19802897544E+03  0.00000000000E+00 0. -1.
</event>
<event>
 7    1  0.5789396E-006  0.1389468E+03  0.7818608E-02  0.1326048E+00
          2   -1    0    0  502    0  0.00000000000E+00  0.00000000000E+00  0.18186352937E+04  0.18186352937E+04  0.00000000000E+00 0. -1.
          1   -1    0    0  501    0 -0.00000000000E+00 -0.00000000000E+00 -0.56880687603E+02  0.56880687603E+02  0.00000000000E+00 0. -1.
         25    2    1    2    0    0 -0.17146761850E+02 -0.10490830144E+03  0.53397928733E+03  0.55862180608E+03  0.12499871910E+03 0.  0.
          2    1    1    2  501    0  0.10418785729E+02 -0.46136880844E+02 -0.26041772014E+02  0.53993858537E+02  0.00000000000E+00 0. -1.
          1    1    1    2  502    0  0.67279761209E+01  0.15104518228E+03  0.12538170908E+04  0.12629003167E+04  0.00000000000E+00 0. -1.
         22    1    3    3    0    0 -0.12452740842E+02 -0.93225782446E+02  0.16887086768E+03  0.19329637146E+03  0.00000000000E+00 0.  1.
         22    1    3    3    0    0 -0.46940210077E+01 -0.11682518989E+02  0.36510841965E+03  0.36532543462E+03  0.00000000000E+00 0.  1.
</event>
<event>
 7    1  0.5789396E-006  0.1222448E+03  0.7818608E-02  0.1323231E+00
          2   -1    0    0  502    0  0.00000000000E+00  0.00000000000E+00  0.19884931114E+04  0.19884931114E+04  0.00000000000E+00 0. -1.
          1   -1    0    0  501    0 -0.00000000000E+00 -0.00000000000E+00 -0.26139241161E+02  0.26139241161E+02  0.00000000000E+00 0. -1.
         25    2    1    2    0    0  0.94099401231E+02  0.97583151918E+02  0.52856165490E+03  0.55980326715E+03  0.12500042411E+03 0.  0.
          2    1    1    2  501    0 -0.52523444952E+02  0.16722883246E+02  0.89965746945E+02  0.10550925418E+03  0.00000000000E+00 0. -1.
          1    1    1    2  502    0 -0.41575956279E+02 -0.11430603516E+03  0.13438264684E+04  0.13493198313E+04  0.00000000000E+00 0. -1.
         22    1    3    3    0    0  0.10116435872E+03  0.18786840247E+02  0.25337300669E+03  0.27346856010E+03  0.00000000000E+00 0. -1.
         22    1    3    3    0    0 -0.70649574934E+01  0.78796311670E+02  0.27518864822E+03  0.28633470705E+03  0.00000000000E+00 0. -1.
</event>
<event>
 7    1  0.5789396E-006  0.2157419E+03  0.7818608E-02  0.1210379E+00
          2   -1    0    0  502    0  0.00000000000E+00  0.00000000000E+00  0.16508634563E+04  0.16508634563E+04  0.00000000000E+00 0. -1.
          1   -1    0    0  501    0 -0.00000000000E+00 -0.00000000000E+00 -0.83511797133E+03  0.83511797133E+03  0.00000000000E+00 0. -1.
         25    2    1    2    0    0  0.26940643569E+03  0.29739728200E+02  0.20009884786E+03  0.35934517855E+03  0.12500051763E+03 0.  0.
          2    1    1    2  501    0 -0.19498018117E+03 -0.86741383460E+02 -0.73877213620E+03  0.76897698787E+03  0.00000000000E+00 0. -1.
          1    1    1    2  502    0 -0.74426254526E+02  0.57001655260E+02  0.13544187733E+04  0.13576592612E+04  0.00000000000E+00 0. -1.
         22    1    3    3    0    0  0.21167411127E+03  0.47450860258E+02  0.92223212688E+02  0.23571727658E+03  0.00000000000E+00 0. -1.
         22    1    3    3    0    0  0.57732324422E+02 -0.17711132058E+02  0.10787563517E+03  0.12362790197E+03  0.00000000000E+00 0. -1.
</event>
<event>
 7    1  0.5789396E-006  0.1094260E+03  0.7818608E-02  0.1403033E+00
          2   -1    0    0  502    0  0.00000000000E+00  0.00000000000E+00  0.18635172480E+04  0.18635172480E+04  0.00000000000E+00 0. -1.
          1   -1    0    0  501    0 -0.00000000000E+00 -0.00000000000E+00 -0.25613054704E+02  0.25613054704E+02  0.00000000000E+00 0. -1.
         25    2    1    2    0    0 -0.33621613939E+02 -0.75642455301E+02  0.92461268122E+03  0.93668905996E+03  0.12500236322E+03 0.  0.
          2    1    1    2  501    0  0.48568750467E+02  0.10345265334E+03  0.15039446081E+03  0.18889115609E+03  0.00000000000E+00 0. -1.
          1    1    1    2  502    0 -0.14947136529E+02 -0.27810198040E+02  0.76289705129E+03  0.76355008669E+03  0.00000000000E+00 0. -1.
         22    1    3    3    0    0 -0.47748306446E+01 -0.39129055036E+02  0.66426629198E+02  0.77242339570E+02  0.00000000000E+00 0. -1.
         22    1    3    3    0    0 -0.28846783294E+02 -0.36513400265E+02  0.85818605202E+03  0.85944672039E+03  0.00000000000E+00 0. -1.
</event>
<event>
 7    1  0.5789396E-006  0.5337587E+02  0.7818608E-02  0.1460128E+00
          2   -1    0    0  502    0  0.00000000000E+00  0.00000000000E+00  0.34958665016E+04  0.34958665016E+04  0.00000000000E+00 0. -1.
          1   -1    0    0  501    0 -0.00000000000E+00 -0.00000000000E+00 -0.91494717242E+01  0.91494717242E+01  0.00000000000E+00 0. -1.
         25    2    1    2    0    0 -0.39616039433E+01 -0.27533304967E+02  0.76409606885E+03  0.77475265937E+03  0.12500041435E+03 0.  0.
          2    1    1    2  501    0  0.39263335491E+02  0.50327171837E+02  0.27613910214E+03  0.28342060170E+03  0.00000000000E+00 0. -1.
          1    1    1    2  502    0 -0.35301731547E+02 -0.22793866870E+02  0.24464818589E+04  0.24468427122E+04  0.00000000000E+00 0. -1.
         22    1    3    3    0    0 -0.25981107908E+02 -0.62357168679E+02  0.64896259346E+03  0.65246906606E+03  0.00000000000E+00 0.  1.
         22    1    3    3    0    0  0.22019503965E+02  0.34823863712E+02  0.11513347539E+03  0.12228359331E+03  0.00000000000E+00 0.  1.
</event>
<event>
 7    1  0.5789396E-006  0.9357091E+02  0.7818608E-02  0.1442906E+00
          2   -1    0    0  502    0  0.00000000000E+00  0.00000000000E+00  0.24179839811E+03  0.24179839811E+03  0.00000000000E+00 0. -1.
          1   -1    0    0  501    0 -0.00000000000E+00 -0.00000000000E+00 -0.33991387900E+03  0.33991387900E+03  0.00000000000E+00 0. -1.
         25    2    1    2    0    0 -0.90197862943E+02 -0.49459383899E+02 -0.17719193977E+03  0.24001161000E+03  0.12500681693E+03 0.  0.
          2    1    1    2  501    0  0.22732655069E+02 -0.14945433501E+02 -0.11936839759E+03  0.12242938345E+03  0.00000000000E+00 0. -1.
          1    1    1    2  502    0  0.67465207874E+02  0.64404817400E+02  0.19844485648E+03  0.21927128366E+03  0.00000000000E+00 0. -1.
         22    1    3    3    0    0 -0.45375736337E+02 -0.23395456006E+02  0.43247776253E+01  0.51234836892E+02  0.00000000000E+00 0. -1.
         22    1    3    3    0    0 -0.44822126606E+02 -0.26063927893E+02 -0.18151671740E+03  0.18877677311E+03  0.00000000000E+00 0. -1.
</event>
<event>
 7    1  0.5789396E-006  0.4466052E+02  0.7818608E-02  0.1581964E+00
          2   -1    0    0  502    0  0.00000000000E+00  0.00000000000E+00  0.10623948658E+04  0.10623948658E+04  0.00000000000E+00 0. -1.
          1   -1    0    0  501    0 -0.00000000000E+00 -0.00000000000E+00 -0.68087219496E+03  0.68087219496E+03  0.00000000000E+00 0. -1.
         25    2    1    2    0    0  0.53108326462E+02 -0.27878645571E+02 -0.19896203548E+03  0.24250782835E+03  0.12500576800E+03 0.  0.
          2    1    1    2  501    0 -0.91275435228E+01  0.20273030503E+02 -0.45938969715E+03  0.45992738738E+03  0.00000000000E+00 0. -1.
          1    1    1    2  502    0 -0.43980782939E+02  0.76056150677E+01  0.10398744035E+04  0.10408318451E+04  0.00000000000E+00 0. -1.
         22    1    3    3    0    0 -0.20321326912E+02 -0.48339927951E+02 -0.39127188161E+02  0.65426613967E+02  0.00000000000E+00 0. -1.
         22    1    3    3    0    0  0.73429653374E+02  0.20461282380E+02 -0.15983484731E+03  0.17708121438E+03  0.00000000000E+00 0. -1.
</event>
<event>
 7    1  0.5789396E-006  0.8032979E+02  0.7818608E-02  0.1407484E+00
          2   -1    0    0  502    0  0.00000000000E+00  0.00000000000E+00  0.34496396008E+03  0.34496396008E+03  0.00000000000E+00 0. -1.
          1   -1    0    0  501    0 -0.00000000000E+00 -0.00000000000E+00 -0.86933252575E+03  0.86933252575E+03  0.00000000000E+00 0. -1.
         25    2    1    2    0    0  0.35919177701E+02  0.30079948728E+02 -0.28413911993E+03  0.31393341606E+03  0.12499663837E+03 0.  0.
          2    1    1    2  501    0 -0.72071486371E+02 -0.50519284767E+02 -0.56557257757E+03  0.57237997675E+03  0.00000000000E+00 0. -1.
          1    1    1    2  502    0  0.36152308670E+02  0.20439336039E+02  0.32534313183E+03  0.32798309302E+03  0.00000000000E+00 0. -1.
         22    1    3    3    0    0  0.53566288605E+02  0.13314451562E+02 -0.38989059452E+02  0.67577871025E+02  0.00000000000E+00 0. -1.
         22    1    3    3    0    0 -0.17647110904E+02  0.16765497166E+02 -0.24515006047E+03  0.24635554503E+03  0.00000000000E+00 0. -1.
</event>
<event>
 7    1  0.5789396E-006  0.7835203E+02  0.7818608E-02  0.1494748E+00
          2   -1    0    0  502    0  0.00000000000E+00  0.00000000000E+00  0.64008208067E+03  0.64008208067E+03  0.00000000000E+00 0. -1.
          1   -1    0    0  501    0 -0.00000000000E+00 -0.00000000000E+00 -0.52904069541E+03  0.52904069541E+03  0.00000000000E+00 0. -1.
         25    2    1    2    0    0 -0.20155837323E+02 -0.61307902918E+02 -0.22262051005E+03  0.26334668922E+03  0.12500668179E+03 0.  0.
          2    1    1    2  501    0  0.11303671167E+02  0.81879962348E+02 -0.27987759597E+03  0.29182798005E+03  0.00000000000E+00 0. -1.
          1    1    1    2  502    0  0.88521661567E+01 -0.20572059430E+02  0.61353949129E+03  0.61394810680E+03  0.00000000000E+00 0. -1.
         22    1    3    3    0    0  0.46078139430E+02 -0.55651394373E+02 -0.13767962547E+03  0.15548617912E+03  0.00000000000E+00 0. -1.
         22    1    3    3    0    0 -0.66233976754E+02 -0.56565085445E+01 -0.84940884587E+02  0.10786051010E+03  0.00000000000E+00 0. -1.
</event>
<event>
 7    1  0.5789396E-006  0.1337737E+03  0.7818608E-02  0.1386240E+00
          2   -1    0    0  502    0  0.00000000000E+00  0.00000000000E+00  0.16779406837E+04  0.16779406837E+04  0.00000000000E+00 0. -1.
          1   -1    0    0  501    0 -0.00000000000E+00 -0.00000000000E+00 -0.13626384861E+04  0.13626384861E+04  0.00000000000E+00 0. -1.
         25    2    1    2    0    0  0.12984729194E+03  0.85702481855E+02  0.16982265732E+02  0.20029848194E+03  0.12500339955E+03 0.  0.
          2    1    1    2  501    0 -0.29476453578E+02  0.17774660649E+01 -0.12679841247E+04  0.12683279391E+04  0.00000000000E+00 0. -1.
          1    1    1    2  502    0 -0.10037083836E+03 -0.87479947920E+02  0.15663040565E+04  0.15719527487E+04  0.00000000000E+00 0. -1.
         22    1    3    3    0    0  0.95813345869E+02  0.73805106952E+02 -0.44627623616E+02  0.12891476195E+03  0.00000000000E+00 0.  1.
         22    1    3    3    0    0  0.34033946068E+02  0.11897374903E+02  0.61609889348E+02  0.71383719993E+02  0.00000000000E+00 0.  1.
</event>
<event>
 7    1  0.5789396E-006  0.5584876E+02  0.7818608E-02  0.1449051E+00
          2   -1    0    0  502    0  0.00000000000E+00  0.00000000000E+00  0.19345287714E+04  0.19345287714E+04  0.00000000000E+00 0. -1.
          1   -1    0    0  501    0 -0.00000000000E+00 -0.00000000000E+00 -0.81412710988E+01  0.81412710988E+01  0.00000000000E+00 0. -1.
         25    2    1    2    0    0  0.32201523639E+02 -0.48585026337E+02  0.12114836139E+04  0.12193098541E+04  0.12500612176E+03 0.  0.
          2    1    1    2  501    0  0.25958192870E+02  0.34971107548E+02  0.18291552160E+03  0.18802897166E+03  0.00000000000E+00 0. -1.
          1    1    1    2  502    0 -0.58159716509E+02  0.13613918789E+02  0.53198836474E+03  0.53533121675E+03  0.00000000000E+00 0. -1.
         22    1    3    3    0    0  0.74733678003E+02 -0.39876211707E+01  0.57508434201E+03  0.57993363773E+03  0.00000000000E+00 0.  1.
         22    1    3    3    0    0 -0.42532154365E+02 -0.44597405166E+02  0.63639927191E+03  0.63937621632E+03  0.00000000000E+00 0.  1.
</event>
<event>
 7    1  0.5789396E-006  0.6528787E+02  0.7818608E-02  0.1388409E+00
          2   -1    0    0  502    0  0.00000000000E+00  0.00000000000E+00  0.76434853775E+03  0.76434853775E+03  0.00000000000E+00 0. -1.
          1   -1    0    0  501    0 -0.00000000000E+00 -0.00000000000E+00 -0.10206728144E+04  0.10206728144E+04  0.00000000000E+00 0. -1.
         25    2    1    2    0    0  0.21503724412E+02 -0.74130615554E+02 -0.89674088902E+02  0.17211383166E+03  0.12499588194E+03 0.  0.
          2    1    1    2  501    0  0.34986382488E+02  0.55584660299E+02 -0.88734096535E+03  0.88976833513E+03  0.00000000000E+00 0. -1.
          1    1    1    2  502    0 -0.56490106900E+02  0.18545955254E+02  0.72069077755E+03  0.72313918541E+03  0.00000000000E+00 0. -1.
         22    1    3    3    0    0  0.62979382896E+02 -0.24310029669E+01 -0.49009404471E+02  0.79838801168E+02  0.00000000000E+00 0.  1.
         22    1    3    3    0    0 -0.41475658484E+02 -0.71699612587E+02 -0.40664684431E+02  0.92275030488E+02  0.00000000000E+00 0.  1.
</event>
<event>
 7    1  0.5789396E-006  0.1052551E+03  0.7818608E-02  0.1376856E+00
          2   -1    0    0  502    0  0.00000000000E+00  0.00000000000E+00  0.25174651902E+03  0.25174651902E+03  0.00000000000E+00 0. -1.
          1   -1    0    0  501    0 -0.00000000000E+00 -0.00000000000E+00 -0.12098485998E+04  0.12098485998E+04  0.00000000000E+00 0. -1.
         25    2    1    2    0    0  0.51236978024E+02  0.11179649669E+03 -0.28045438531E+03  0.33076396044E+03  0.12500580266E+03 0.  0.
          2    1    1    2  501    0 -0.11665239080E+02 -0.10313426156E+03 -0.89942032814E+03  0.90538924248E+03  0.00000000000E+00 0. -1.
          1    1    1    2  502    0 -0.39571738944E+02 -0.86622351388E+01  0.22177263267E+03  0.22544191590E+03  0.00000000000E+00 0. -1.
         22    1    3    3    0    0  0.80966609826E+02  0.97422979538E+02 -0.15067674427E+03  0.19685098454E+03  0.00000000000E+00 0.  1.
         22    1    3    3    0    0 -0.29729631802E+02  0.14373517157E+02 -0.12977764104E+03  0.13391297591E+03  0.00000000000E+00 0.  1.
</event>
<event>
 7    1  0.5789396E-006  0.8699628E+02  0.7818608E-02  0.1473478E+00
          2   -1    0    0  502    0  0.00000000000E+00  0.00000000000E+00  0.36955519311E+03  0.36955519311E+03  0.00000000000E+00 0. -1.
          1   -1    0    0  501    0 -0.00000000000E+00 -0.00000000000E+00 -0.73884239057E+02  0.73884239057E+02  0.00000000000E+00 0. -1.
         25    2    1    2    0    0 -0.17522104969E+02 -0.77389171179E+02  0.12501414616E+03  0.19378017053E+03  0.12500443901E+03 0.  0.
          2    1    1    2  501    0 -0.21440302506E+01  0.90107893601E+02  0.13943506722E+02  0.91205541140E+02  0.00000000000E+00 0. -1.
          1    1    1    2  502    0  0.19666135219E+02 -0.12718722423E+02  0.15671330117E+03  0.15845372049E+03  0.00000000000E+00 0. -1.
         22    1    3    3    0    0 -0.64678953020E+02 -0.10363495116E+02  0.46894939379E+02  0.80559942491E+02  0.00000000000E+00 0. -1.
         22    1    3    3    0    0  0.47156848051E+02 -0.67025676062E+02  0.78119206782E+02  0.11322022804E+03  0.00000000000E+00 0. -1.
</event>
<event>
 7    1  0.5789396E-006  0.6121906E+02  0.7818608E-02  0.1395167E+00
          2   -1    0    0  502    0  0.00000000000E+00  0.00000000000E+00  0.49980142864E+03  0.49980142864E+03  0.00000000000E+00 0. -1.
          1   -1    0    0  501    0 -0.00000000000E+00 -0.00000000000E+00 -0.21945540297E+03  0.21945540297E+03  0.00000000000E+00 0. -1.
         25    2    1    2    0    0 -0.62823881261E+02  0.32881814379E+01  0.51071987513E+02  0.14896559609E+03  0.12499899486E+03 0.  0.
          2    1    1    2  501    0  0.28976225543E+02 -0.54299056458E+02 -0.16249896533E+03  0.17376398623E+03  0.00000000000E+00 0. -1.
          1    1    1    2  502    0  0.33847655717E+02  0.51010875021E+02  0.39177300349E+03  0.39652724929E+03  0.00000000000E+00 0. -1.
         22    1    3    3    0    0  0.37240186835E+02 -0.49631556572E+00  0.16051972016E+01  0.37278069997E+02  0.00000000000E+00 0.  1.
         22    1    3    3    0    0 -0.10006406810E+03  0.37844970036E+01  0.49466790312E+02  0.11168752609E+03  0.00000000000E+00 0.  1.
</event>
<event>
 7    1  0.5789396E-006  0.8076846E+02  0.7818608E-02  0.1336348E+00
          2   -1    0    0  502    0  0.00000000000E+00  0.00000000000E+00  0.84576446130E+03  0.84576446130E+03  0.00000000000E+00 0. -1.
          1   -1    0    0  501    0 -0.00000000000E+00 -0.00000000000E+00 -0.23420624143E+03  0.23420624143E+03  0.00000000000E+00 0. -1.
         25    2    1    2    0    0  0.52738499027E+02 -0.11936907336E+03  0.37847270429E+03  0.41940084884E+03  0.12500063665E+03 0.  0.
          2    1    1    2  501    0  0.70161706696E+01  0.74000757991E+02 -0.20398513657E+03  0.21710659772E+03  0.00000000000E+00 0. -1.
          1    1    1    2  502    0 -0.59754669697E+02  0.45368315372E+02  0.43707065215E+03  0.44346325616E+03  0.00000000000E+00 0. -1.
         22    1    3    3    0    0  0.92080949184E+01 -0.37771780301E+01  0.21136697919E+03  0.21160117197E+03  0.00000000000E+00 0.  1.
         22    1    3    3    0    0  0.43530404109E+02 -0.11559189533E+03  0.16710572510E+03  0.20779967687E+03  0.00000000000E+00 0.  1.
</event>
<event>
 7    1  0.5789396E-006  0.1805013E+03  0.7818608E-02  0.1249485E+00
          2   -1    0    0  502    0  0.00000000000E+00  0.00000000000E+00  0.12939192836E+04  0.12939192836E+04  0.00000000000E+00 0. -1.
          1   -1    0    0  501    0 -0.00000000000E+00 -0.00000000000E+00 -0.88374976274E+03  0.88374976274E+03  0.00000000000E+00 0. -1.
         25    2    1    2    0    0  0.16760528031E+03  0.46993916498E+02 -0.31524897723E+03  0.38119247539E+03  0.12500330985E+03 0.  0.
          2    1    1    2  501    0 -0.18701299945E+03  0.25262189236E+02 -0.51774468842E+03  0.55106406393E+03  0.00000000000E+00 0. -1.
          1    1    1    2  502    0  0.19407719134E+02 -0.72256105734E+02  0.12431631865E+04  0.12454125070E+04  0.00000000000E+00 0. -1.
         22    1    3    3    0    0  0.57316591361E+02  0.26122167675E+02 -0.23477833757E+03  0.24308111215E+03  0.00000000000E+00 0.  1.
         22    1    3    3    0    0  0.11028868895E+03  0.20871748823E+02 -0.80470639656E+02  0.13811136324E+03  0.00000000000E+00 0.  1.
</event>
<event>
 7    1  0.5789396E-006  0.3452531E+03  0.7818608E-02  0.1236816E+00
          2   -1    0    0  502    0  0.00000000000E+00  0.00000000000E+00  0.42154154302E+03  0.42154154302E+03  0.00000000000E+00 0. -1.
          1   -1    0    0  501    0 -0.00000000000E+00 -0.00000000000E+00 -0.97623688451E+03  0.97623688451E+03  0.00000000000E+00 0. -1.
         25    2    1    2    0    0 -0.65389918974E+02  0.31510863168E+03 -0.19710810969E+03  0.39755032696E+03  0.12500145720E+03 0.  0.
          2    1    1    2  501    0 -0.38271527539E+02  0.22618628895E+02 -0.58069711080E+03  0.58239629693E+03  0.00000000000E+00 0. -1.
          1    1    1    2  502    0  0.10366144651E+03 -0.33772726057E+03  0.22310987899E+03  0.41783180364E+03  0.00000000000E+00 0. -1.
         22    1    3    3    0    0 -0.23561191359E+02  0.29430153669E+03 -0.18781025850E+03  0.34991601483E+03  0.00000000000E+00 0. -1.
         22    1    3    3    0    0 -0.41828727615E+02  0.20807094987E+02 -0.92978511913E+01  0.47634312134E+02  0.00000000000E+00 0. -1.
</event>
<event>
 7    1  0.5789396E-006  0.3238099E+03  0.7818608E-02  0.1273667E+00
          2   -1    0    0  502    0  0.00000000000E+00  0.00000000000E+00  0.18158178605E+04  0.18158178605E+04  0.00000000000E+00 0. -1.
          1   -1    0    0  501    0 -0.00000000000E+00 -0.00000000000E+00 -0.13933793030E+04  0.13933793030E+04  0.00000000000E+00 0. -1.
         25    2    1    2    0    0 -0.23385342108E+03 -0.26350070489E+03  0.32623058089E+03  0.49615646953E+03  0.12499922530E+03 0.  0.
          2    1    1    2  501    0  0.22373898307E+03  0.23219091230E+03 -0.12883519869E+04  0.13280898292E+04  0.00000000000E+00 0. -1.
          1    1    1    2  502    0  0.10114438013E+02  0.31309792591E+02  0.13845599636E+04  0.13849508647E+04  0.00000000000E+00 0. -1.
         22    1    3    3    0    0 -0.16330217385E+03 -0.98737704617E+02  0.13304398861E+03  0.23263154817E+03  0.00000000000E+00 0. -1.
         22    1    3    3    0    0 -0.70551247227E+02 -0.16476300027E+03  0.19318659228E+03  0.26352492136E+03  0.00000000000E+00 0. -1.
</event>
<event>
 7    1  0.5789396E-006  0.5666772E+02  0.7818608E-02  0.1461442E+00
          2   -1    0    0  502    0  0.00000000000E+00  0.00000000000E+00  0.49085236380E+03  0.49085236380E+03  0.00000000000E+00 0. -1.
          1   -1    0    0  501    0 -0.00000000000E+00 -0.00000000000E+00 -0.74161947756E+02  0.74161947756E+02  0.00000000000E+00 0. -1.
         25    2    1    2    0    0  0.34999756690E+01 -0.46380649504E+02  0.31177795365E+03  0.33910538395E+03  0.12499421812E+03 0.  0.
          2    1    1    2  501    0  0.39108847454E+02 -0.27360650551E+01 -0.46680380523E+02  0.60959379319E+02  0.00000000000E+00 0. -1.
          1    1    1    2  502    0 -0.42608823123E+02  0.49116714559E+02  0.15159284292E+03  0.16494954829E+03  0.00000000000E+00 0. -1.
         22    1    3    3    0    0  0.45988733720E+02 -0.66728396837E+02  0.23941238643E+03  0.25275666826E+03  0.00000000000E+00 0.  1.
         22    1    3    3    0    0 -0.42488758051E+02  0.20347747333E+02  0.72365567222E+02  0.86348715691E+02  0.00000000000E+00 0.  1.
</event>
<event>
 7    1  0.5789396E-006  0.3925249E+03  0.7818608E-02  0.1283109E+00
          2   -1    0    0  502    0  0.00000000000E+00  0.00000000000E+00  0.68783814328E+03  0.68783814328E+03  0.00000000000E+00 0. -1.
          1   -1    0    0  501    0 -0.00000000000E+00 -0.00000000000E+00 -0.10762444987E+04  0.10762444987E+04  0.00000000000E+00 0. -1.
         25    2    1    2    0    0 -0.93605541352E+02  0.38431251949E+03 -0.46099750946E+03  0.62016199416E+03  0.12499634103E+03 0.  0.
          2    1    1    2  501    0  0.24736142202E+02  0.18459878440E+01 -0.47206649676E+03  0.47271774005E+03  0.00000000000E+00 0. -1.
          1    1    1    2  502    0  0.68869399150E+02 -0.38615850733E+03  0.54465765075E+03  0.67120290781E+03  0.00000000000E+00 0. -1.
         22    1    3    3    0    0 -0.93579662676E+02  0.26038409949E+03 -0.38728232294E+03  0.47596704739E+03  0.00000000000E+00 0.  1.
         22    1    3    3    0    0 -0.25878676433E-01  0.12392842000E+03 -0.73715186514E+02  0.14419494678E+03  0.00000000000E+00 0.  1.
</event>
<event>
 7    1  0.5789396E-006  0.1505664E+03  0.7818608E-02  0.1268047E+00
          2   -1    0    0  502    0  0.00000000000E+00  0.00000000000E+00  0.13173487319E+04  0.13173487319E+04  0.00000000000E+00 0. -1.
          1   -1    0    0  501    0 -0.00000000000E+00 -0.00000000000E+00 -0.22966091135E+03  0.22966091135E+03  0.00000000000E+00 0. -1.
         25    2    1    2    0    0 -0.27229065331E+02  0.14483807065E+03  0.12603726594E+03  0.23071426969E+03  0.12499677246E+03 0.  0.
          2    1    1    2  501    0 -0.47458997789E+02 -0.14657616429E+03 -0.14235422811E+03  0.20976571376E+03  0.00000000000E+00 0. -1.
          1    1    1    2  502    0  0.74688063119E+02  0.17380936443E+01  0.11040047827E+04  0.11065296598E+04  0.00000000000E+00 0. -1.
         22    1    3    3    0    0 -0.30660439462E+02  0.27979822088E+02 -0.17966056136E+02  0.45229549690E+02  0.00000000000E+00 0.  1.
         22    1    3    3    0    0  0.34313741310E+01  0.11685824856E+03  0.14400332207E+03  0.18548472000E+03  0.00000000000E+00 0.  1.
</event>
<event>
 7    1  0.5789396E-006  0.1084452E+03  0.7818608E-02  0.1354045E+00
          2   -1    0    0  502    0  0.00000000000E+00  0.00000000000E+00  0.20063869177E+04  0.20063869177E+04  0.00000000000E+00 0. -1.
          1   -1    0    0  501    0 -0.00000000000E+00 -0.00000000000E+00 -0.50666168842E+03  0.50666168842E+03  0.00000000000E+00 0. -1.
         25    2    1    2    0    0 -0.66523102529E+02  0.64481642594E+02  0.13859778036E+03  0.20836822450E+03  0.12499906743E+03 0.  0.
          2    1    1    2  501    0  0.38001391470E+02 -0.10252843580E+03 -0.46512711434E+03  0.47780688400E+03  0.00000000000E+00 0. -1.
          1    1    1    2  502    0  0.28521711059E+02  0.38046793207E+02  0.18262545633E+04  0.18268734976E+04  0.00000000000E+00 0. -1.
         22    1    3    3    0    0  0.10209672586E+02  0.11051271320E+02  0.10937576586E+03  0.11040573432E+03  0.00000000000E+00 0.  1.
         22    1    3    3    0    0 -0.76732775115E+02  0.53430371274E+02  0.29222014492E+02  0.97962490180E+02  0.00000000000E+00 0.  1.
</event>
<event>
 7    1  0.5789396E-006  0.1445285E+03  0.7818608E-02  0.1319092E+00
          2   -1    0    0  502    0  0.00000000000E+00  0.00000000000E+00  0.66179488837E+03  0.66179488837E+03  0.00000000000E+00 0. -1.
          1   -1    0    0  501    0 -0.00000000000E+00 -0.00000000000E+00 -0.40349542348E+04  0.40349542348E+04  0.00000000000E+00 0. -1.
         25    2    1    2    0    0 -0.22525119991E+02 -0.13958518222E+03 -0.34695253149E+03  0.39495800670E+03  0.12499745528E+03 0.  0.
          2    1    1    2  501    0 -0.25738469438E+02  0.14287079985E+03 -0.36616412922E+04  0.36645179065E+04  0.00000000000E+00 0. -1.
          1    1    1    2  502    0  0.48263589430E+02 -0.32856176355E+01  0.63543447722E+03  0.63727321001E+03  0.00000000000E+00 0. -1.
         22    1    3    3    0    0 -0.72590113924E+02 -0.64746131330E+02 -0.20415442770E+03  0.22614246950E+03  0.00000000000E+00 0.  1.
         22    1    3    3    0    0  0.50064993933E+02 -0.74839050889E+02 -0.14279810379E+03  0.16881553721E+03  0.00000000000E+00 0.  1.
</event>
<event>
 7    1  0.5789396E-006  0.1023262E+03  0.7818608E-02  0.1414478E+00
          2   -1    0    0  502    0  0.00000000000E+00  0.00000000000E+00  0.12923576205E+04  0.12923576205E+04  0.00000000000E+00 0. -1.
          1   -1    0    0  501    0 -0.00000000000E+00 -0.00000000000E+00 -0.27993318134E+03  0.27993318134E+03  0.00000000000E+00 0. -1.
         25    2    1    2    0    0 -0.30952083070E+01 -0.12383312484E+03  0.21869687266E+03  0.28070901115E+03  0.12500001483E+03 0.  0.
          2    1    1    2  501    0  0.19021813382E+02  0.24317660548E+02 -0.24552273238E+03  0.24745623879E+03  0.00000000000E+00 0. -1.
          1    1    1    2  502    0 -0.15926605075E+02  0.99515464289E+02  0.10392502989E+04  0.10441255519E+04  0.00000000000E+00 0. -1.
         22    1    3    3    0    0  0.87614959898E+01 -0.22781417193E+01 -0.14714208896E+02  0.17276043677E+02  0.00000000000E+00 0.  1.
         22    1    3    3    0    0 -0.11856704297E+02 -0.12155498312E+03  0.23341108156E+03  0.26343296747E+03  0.00000000000E+00 0.  1.
</event>
<event>
 7    1  0.5789396E-006  0.4331205E+02  0.7818608E-02  0.1513995E+00
          2   -1    0    0  502    0  0.00000000000E+00  0.00000000000E+00  0.11724133856E+03  0.11724133856E+03  0.00000000000E+00 0. -1.
          1   -1    0    0  501    0 -0.00000000000E+00 -0.00000000000E+00 -0.14492446269E+04  0.14492446269E+04  0.00000000000E+00 0. -1.
         25    2    1    2    0    0 -0.12388624309E+02  0.52548128601E+02 -0.26520820235E+01  0.13618762649E+03  0.12500100895E+03 0.  0.
          2    1    1    2  501    0 -0.22862653273E+02 -0.27188305940E+02 -0.13702113773E+04  0.13706717782E+04  0.00000000000E+00 0. -1.
          1    1    1    2  502    0  0.35251277582E+02 -0.25359822660E+02  0.40860171021E+02  0.59626560796E+02  0.00000000000E+00 0. -1.
         22    1    3    3    0    0  0.35865266249E+02  0.58534125011E+02  0.32731673336E+02  0.76052110775E+02  0.00000000000E+00 0.  1.
         22    1    3    3    0    0 -0.48253890557E+02 -0.59859964108E+01 -0.35383755360E+02  0.60135515715E+02  0.00000000000E+00 0.  1.
</event>
<event>
 7    1  0.5789396E-006  0.1166202E+03  0.7818608E-02  0.1417184E+00
          2   -1    0    0  502    0  0.00000000000E+00  0.00000000000E+00  0.24396499884E+04  0.24396499884E+04  0.00000000000E+00 0. -1.
          1   -1    0    0  501    0 -0.00000000000E+00 -0.00000000000E+00 -0.41679392730E+02  0.41679392730E+02  0.00000000000E+00 0. -1.
         25    2    1    2    0    0 -0.88050475978E+02  0.99033576434E+02  0.67764775669E+03  0.70170572421E+03  0.12499562253E+03 0.  0.
          2    1    1    2  501    0 -0.38267339634E+00 -0.26525375644E+02 -0.21441090782E+02  0.34109564141E+02  0.00000000000E+00 0. -1.
          1    1    1    2  502    0  0.88433149374E+02 -0.72508200790E+02  0.17417639298E+04  0.17455140928E+04  0.00000000000E+00 0. -1.
         22    1    3    3    0    0 -0.62680410369E+02  0.78307209252E+02  0.20805138151E+03  0.23096802855E+03  0.00000000000E+00 0. -1.
         22    1    3    3    0    0 -0.25370065609E+02  0.20726367182E+02  0.46959637518E+03  0.47073769565E+03  0.00000000000E+00 0. -1.
</event>
<event>
 7    1  0.5789396E-006  0.4248634E+02  0.7818608E-02  0.1525782E+00
          2   -1    0    0  502    0  0.00000000000E+00  0.00000000000E+00  0.66243574373E+03  0.66243574373E+03  0.00000000000E+00 0. -1.
          1   -1    0    0  501    0 -0.00000000000E+00 -0.00000000000E+00 -0.35836644244E+03  0.35836644244E+03  0.00000000000E+00 0. -1.
         25    2    1    2    0    0 -0.68904661965E+01  0.22436111013E+02  0.28780026473E+02  0.13040182572E+03  0.12500195449E+03 0.  0.
          2    1    1    2  501    0 -0.23778711385E+02 -0.35835610379E+02 -0.30556799225E+03  0.30857967524E+03  0.00000000000E+00 0. -1.
          1    1    1    2  502    0  0.30669177581E+02  0.13399499365E+02  0.58085726707E+03  0.58182068521E+03  0.00000000000E+00 0. -1.
         22    1    3    3    0    0  0.43827666631E+02  0.46404577138E+02 -0.64581574906E+01  0.64155724139E+02  0.00000000000E+00 0. -1.
         22    1    3    3    0    0 -0.50718132827E+02 -0.23968466124E+02  0.35238183963E+02  0.66246101582E+02  0.00000000000E+00 0. -1.
</event>
<event>
 7    1  0.5789396E-006  0.1103743E+03  0.7818608E-02  0.1338424E+00
          2   -1    0    0  502    0  0.00000000000E+00  0.00000000000E+00  0.90600895654E+03  0.90600895654E+03  0.00000000000E+00 0. -1.
          1   -1    0    0  501    0 -0.00000000000E+00 -0.00000000000E+00 -0.54876193944E+03  0.54876193944E+03  0.00000000000E+00 0. -1.
         25    2    1    2    0    0 -0.11960604685E+03 -0.64900867450E+02  0.55318275135E+02  0.19288190054E+03  0.12500234779E+03 0.  0.
          2    1    1    2  501    0  0.49779521709E+02 -0.19384896133E+02 -0.47464407316E+03  0.47764083909E+03  0.00000000000E+00 0. -1.
          1    1    1    2  502    0  0.69826525143E+02  0.84285763584E+02  0.77657281512E+03  0.78424815635E+03  0.00000000000E+00 0. -1.
         22    1    3    3    0    0 -0.47118235614E+02 -0.93790678172E+02  0.18419835940E+02  0.10656504960E+03  0.00000000000E+00 0. -1.
         22    1    3    3    0    0 -0.72487811238E+02  0.28889810722E+02  0.36898439195E+02  0.86316850943E+02  0.00000000000E+00 0. -1.
</event>
<event>
 7    1  0.5789396E-006  0.5368979E+02  0.7818608E-02  0.1446984E+00
          2   -1    0    0  502    0  0.00000000000E+00  0.00000000000E+00  0.22450714732E+04  0.22450714732E+04  0.00000000000E+00 0. -1.
          1   -1    0    0  501    0 -0.00000000000E+00 -0.00000000000E+00 -0.19744725991E+03  0.19744725991E+03  0.00000000000E+00 0. -1.
         25    2    1    2    0    0 -0.88874191032E+02 -0.26572145667E+01  0.39156161745E+03  0.42053670315E+03  0.12499974328E+03 0.  0.
          2    1    1    2  501    0  0.47924862836E+02  0.23614374201E+02 -0.17876493528E+03  0.18657795484E+03  0.00000000000E+00 0. -1.
          1    1    1    2  502    0  0.40949328196E+02 -0.20957159634E+02  0.18348275311E+04  0.18354040751E+04  0.00000000000E+00 0. -1.
         22    1    3    3    0    0 -0.72724582625E+02  0.49250174267E+02  0.31236030021E+03  0.32447403861E+03  0.00000000000E+00 0.  1.
         22    1    3    3    0    0 -0.16149608408E+02 -0.51907388834E+02  0.79201317239E+02  0.96062664546E+02  0.00000000000E+00 0.  1.
</event>
<event>
 7    1  0.5789396E-006  0.2077916E+03  0.7818608E-02  0.1347887E+00
          2   -1    0    0  502    0  0.00000000000E+00  0.00000000000E+00  0.18525168574E+03  0.18525168574E+03  0.00000000000E+00 0. -1.
          1   -1    0    0  501    0 -0.00000000000E+00 -0.00000000000E+00 -0.17608021603E+04  0.17608021603E+04  0.00000000000E+00 0. -1.
         25    2    1    2    0    0  0.20341502018E+03 -0.88746858562E+02 -0.84165062001E+03  0.87934860427E+03  0.12499810528E+03 0.  0.
          2    1    1    2  501    0 -0.23026644856E+02 -0.12399818108E+02 -0.83576121653E+03  0.83617031334E+03  0.00000000000E+00 0. -1.
          1    1    1    2  502    0 -0.18038837533E+03  0.10114667667E+03  0.10186136198E+03  0.23053492842E+03  0.00000000000E+00 0. -1.
         22    1    3    3    0    0  0.17508843873E+02 -0.62372867257E+02 -0.16931635529E+03  0.18128696134E+03  0.00000000000E+00 0.  1.
         22    1    3    3    0    0  0.18590617631E+03 -0.26373991305E+02 -0.67233426473E+03  0.69806164293E+03  0.00000000000E+00 0.  1.
</event>
<event>
 7    1  0.5789396E-006  0.1301383E+03  0.7818608E-02  0.1439798E+00
          2   -1    0    0  502    0  0.00000000000E+00  0.00000000000E+00  0.16381215443E+04  0.16381215443E+04  0.00000000000E+00 0. -1.
          1   -1    0    0  501    0 -0.00000000000E+00 -0.00000000000E+00 -0.25242869015E+03  0.25242869015E+03  0.00000000000E+00 0. -1.
         25    2    1    2    0    0  0.11919728433E+03 -0.16645573596E+02  0.15345958353E+03  0.23164780861E+03  0.12500318294E+03 0.  0.
          2    1    1    2  501    0 -0.12642810485E+03  0.35313920327E+02 -0.19306500268E+03  0.23346356016E+03  0.00000000000E+00 0. -1.
          1    1    1    2  502    0  0.72308205183E+01 -0.18668346732E+02  0.14252982733E+04  0.14254388657E+04  0.00000000000E+00 0. -1.
         22    1    3    3    0    0  0.63660626662E+02  0.27796813670E+02  0.82500337609E+01  0.69952850509E+02  0.00000000000E+00 0.  1.
         22    1    3    3    0    0  0.55536657667E+02 -0.44442387266E+02  0.14520954977E+03  0.16169495810E+03  0.00000000000E+00 0.  1.
</event>
<event>
 7    1  0.5789396E-006  0.5300350E+02  0.7818608E-02  0.1443179E+00
          2   -1    0    0  502    0  0.00000000000E+00  0.00000000000E+00  0.37528935792E+03  0.37528935792E+03  0.00000000000E+00 0. -1.
          1   -1    0    0  501    0 -0.00000000000E+00 -0.00000000000E+00 -0.57265235888E+03  0.57265235888E+03  0.00000000000E+00 0. -1.
         25    2    1    2    0    0  0.60757646990E+01  0.12834459845E+02 -0.22996670995E+03  0.26213027838E+03  0.12500382746E+03 0.  0.
          2    1    1    2  501    0  0.42863208780E+02 -0.33190002674E+02 -0.32237303899E+03  0.32689938392E+03  0.00000000000E+00 0. -1.
          1    1    1    2  502    0 -0.48938973479E+02  0.20355542829E+02  0.35497674799E+03  0.35891205450E+03  0.00000000000E+00 0. -1.
         22    1    3    3    0    0  0.18354802329E+02  0.44939871511E+02 -0.25575607199E+02  0.54868957558E+02  0.00000000000E+00 0. -1.
         22    1    3    3    0    0 -0.12279037630E+02 -0.32105411666E+02 -0.20439110276E+03  0.20726132082E+03  0.00000000000E+00 0. -1.
</event>
<event>
 7    1  0.5789396E-006  0.3294033E+02  0.7818608E-02  0.1579524E+00
          2   -1    0    0  502    0  0.00000000000E+00  0.00000000000E+00  0.23056636137E+03  0.23056636137E+03  0.00000000000E+00 0. -1.
          1   -1    0    0  501    0 -0.00000000000E+00 -0.00000000000E+00 -0.17193833454E+04  0.17193833454E+04  0.00000000000E+00 0. -1.
         25    2    1    2    0    0 -0.11095896779E+02 -0.15213291270E+02  0.67693583296E+02  0.14339299882E+03  0.12499827093E+03 0.  0.
          2    1    1    2  501    0 -0.16421336871E+02  0.28599991012E+02 -0.16794968708E+04  0.16798206329E+04  0.00000000000E+00 0. -1.
          1    1    1    2  502    0  0.27517233650E+02 -0.13386699742E+02  0.12298630346E+03  0.12673607504E+03  0.00000000000E+00 0. -1.
         22    1    3    3    0    0  0.52504365654E+02  0.39546202066E+01  0.64571725970E+01  0.53047549534E+02  0.00000000000E+00 0.  1.
         22    1    3    3    0    0 -0.63600262433E+02 -0.19167911476E+02  0.61236410699E+02  0.90345449289E+02  0.00000000000E+00 0.  1.
</event>
<event>
 7    1  0.6927443E-006  0.6445798E+02  0.7818608E-02  0.1459805E+00
          2   -1    0    0  502    0  0.00000000000E+00  0.00000000000E+00  0.11456665108E+04  0.11456665108E+04  0.00000000000E+00 0. -1.
          1   -1    0    0  501    0 -0.00000000000E+00 -0.00000000000E+00 -0.11936890377E+04  0.11936890377E+04  0.00000000000E+00 0. -1.
         25    2    1    2    0    0  0.56981934927E+02 -0.81188542274E+02 -0.19085827803E+03  0.24877995909E+03  0.12500426172E+03 0.  0.
          2    1    1    2  501    0 -0.19917360712E+02  0.28631866033E+02 -0.97263114659E+03  0.97325630352E+03  0.00000000000E+00 0. -1.
          1    1    1    2  502    0 -0.37064574214E+02  0.52556676241E+02  0.11154668977E+04  0.11173192859E+04  0.00000000000E+00 0. -1.
         22    1    3    3    0    0  0.86612638135E+02 -0.93141721440E+02 -0.15960115031E+03  0.20408247484E+03  0.00000000000E+00 0. -1.
         22    1    3    3    0    0 -0.29630703208E+02  0.11953179166E+02 -0.31257127716E+02  0.44697484245E+02  0.00000000000E+00 0. -1.
</event>
<event>
 7    1  0.5789396E-006  0.3499457E+03  0.7818608E-02  0.1131133E+00
          2   -1    0    0  502    0  0.00000000000E+00  0.00000000000E+00  0.11213171530E+04  0.11213171530E+04  0.00000000000E+00 0. -1.
          1   -1    0    0  501    0 -0.00000000000E+00 -0.00000000000E+00 -0.19587898849E+04  0.19587898849E+04  0.00000000000E+00 0. -1.
         25    2    1    2    0    0 -0.22416265999E+03  0.28834164653E+03 -0.23409465646E+03  0.45145876054E+03  0.12499960411E+03 0.  0.
          2    1    1    2  501    0  0.90659052440E+02 -0.33968144480E+03 -0.15916820803E+04  0.16300473590E+04  0.00000000000E+00 0. -1.
          1    1    1    2  502    0  0.13350360755E+03  0.51339798270E+02  0.98830400491E+03  0.99860091840E+03  0.00000000000E+00 0. -1.
         22    1    3    3    0    0 -0.14723134314E+03  0.18793014614E+03 -0.79318826136E+02  0.25156765375E+03  0.00000000000E+00 0.  1.
         22    1    3    3    0    0 -0.76931316850E+02  0.10041150039E+03 -0.15477583032E+03  0.19989110679E+03  0.00000000000E+00 0.  1.
</event>
<event>
 7    1  0.5789396E-006  0.1555497E+03  0.7818608E-02  0.1305076E+00
          2   -1    0    0  502    0  0.00000000000E+00  0.00000000000E+00  0.13690987553E+04  0.13690987553E+04  0.00000000000E+00 0. -1.
          1   -1    0    0  501    0 -0.00000000000E+00 -0.00000000000E+00 -0.13449639470E+04  0.13449639470E+04  0.00000000000E+00 0. -1.
         25    2    1    2    0    0  0.11647090240E+03 -0.69308274550E+02 -0.19453205201E+02  0.18539889214E+03  0.12500085594E+03 0.  0.
          2    1    1    2  501    0 -0.13737822702E+02 -0.49138629439E+02 -0.12372314827E+04  0.12382831156E+04  0.00000000000E+00 0. -1.
          1    1    1    2  502    0 -0.10273307970E+03  0.11844690399E+03  0.12808194963E+04  0.12903806945E+04  0.00000000000E+00 0. -1.
         22    1    3    3    0    0  0.90950193553E+02 -0.10082906867E+03 -0.37702563262E+02  0.14092523576E+03  0.00000000000E+00 0. -1.
         22    1    3    3    0    0  0.25520708850E+02  0.31520794120E+02  0.18249358061E+02  0.44473656380E+02  0.00000000000E+00 0. -1.
</event>
<event>
 7    1  0.5789396E-006  0.1355288E+03  0.7818608E-02  0.1255323E+00
          2   -1    0    0  502    0  0.00000000000E+00  0.00000000000E+00  0.70229112023E+02  0.70229112023E+02  0.00000000000E+00 0. -1.
          1   -1    0    0  501    0 -0.00000000000E+00 -0.00000000000E+00 -0.65705833019E+03  0.65705833019E+03  0.00000000000E+00 0. -1.
         25    2    1    2    0    0 -0.18933667491E+01  0.60547987395E+02 -0.22234583211E+03  0.26216927066E+03  0.12500165523E+03 0.  0.
          2    1    1    2  501    0 -0.13545421436E+03  0.44942331385E+01 -0.14875501165E+03  0.20123641770E+03  0.00000000000E+00 0. -1.
          1    1    1    2  502    0  0.13734758111E+03 -0.65042220534E+02 -0.21572837441E+03  0.26388175385E+03  0.00000000000E+00 0. -1.
         22    1    3    3    0    0 -0.41049781127E+02 -0.10743894444E+02 -0.14055271758E+03  0.14681819444E+03  0.00000000000E+00 0. -1.
         22    1    3    3    0    0  0.39156414378E+02  0.71291881839E+02 -0.81793114521E+02  0.11535107622E+03  0.00000000000E+00 0. -1.
</event>
<event>
 7    1  0.5789396E-006  0.6479650E+02  0.7818608E-02  0.1454239E+00
          2   -1    0    0  502    0  0.00000000000E+00  0.00000000000E+00  0.19439754171E+04  0.19439754171E+04  0.00000000000E+00 0. -1.
          1   -1    0    0  501    0 -0.00000000000E+00 -0.00000000000E+00 -0.11412727343E+02  0.11412727343E+02  0.00000000000E+00 0. -1.
         25    2    1    2    0    0  0.46357291624E+02  0.15702300838E+02  0.83934450981E+03  0.85001287432E+03  0.12500847822E+03 0.  0.
          2    1    1    2  501    0  0.21893358842E+02 -0.28745685457E+02  0.61570796322E+02  0.71390451417E+02  0.00000000000E+00 0. -1.
          1    1    1    2  502    0 -0.68250650466E+02  0.13043384619E+02  0.10316473837E+04  0.10339848187E+04  0.00000000000E+00 0. -1.
         22    1    3    3    0    0  0.16671983150E+02  0.40881338518E+02  0.96175744737E+02  0.10582538796E+03  0.00000000000E+00 0.  1.
         22    1    3    3    0    0  0.29685308474E+02 -0.25179037679E+02  0.74316876507E+03  0.74418748636E+03  0.00000000000E+00 0.  1.
</event>
<event>
 7    1  0.5789396E-006  0.6013529E+02  0.7818608E-02  0.1476205E+00
          2   -1    0    0  502    0  0.00000000000E+00  0.00000000000E+00  0.59676776750E+03  0.59676776750E+03  0.00000000000E+00 0. -1.
          1   -1    0    0  501    0 -0.00000000000E+00 -0.00000000000E+00 -0.36351270197E+03  0.36351270197E+03  0.00000000000E+00 0. -1.
         25    2    1    2    0    0 -0.22224859982E+02 -0.70893048912E+02 -0.18820872092E+03  0.23783715875E+03  0.12499689064E+03 0.  0.
          2    1    1    2  501    0  0.39658826250E+02  0.42602757696E+02 -0.14435599191E+03  0.15564854597E+03  0.00000000000E+00 0. -1.
          1    1    1    2  502    0 -0.17433966268E+02  0.28290291215E+02  0.56581977835E+03  0.56679476474E+03  0.00000000000E+00 0. -1.
         22    1    3    3    0    0  0.18457258648E+02  0.27426994617E+02 -0.19515198968E+02  0.38389496237E+02  0.00000000000E+00 0. -1.
         22    1    3    3    0    0 -0.40682118630E+02 -0.98320043529E+02 -0.16869352195E+03  0.19944766252E+03  0.00000000000E+00 0. -1.
</event>
<event>
 7    1  0.5789396E-006  0.8658131E+02  0.7818608E-02  0.1482482E+00
          2   -1    0    0  502    0  0.00000000000E+00  0.00000000000E+00  0.27198733732E+04  0.27198733732E+04  0.00000000000E+00 0. -1.
          1   -1    0    0  501    0 -0.00000000000E+00 -0.00000000000E+00 -0.23666071252E+02  0.23666071252E+02  0.00000000000E+00 0. -1.
         25    2    1    2    0    0 -0.62448741545E+02  0.83736147011E+02  0.13453785770E+04  0.13552042949E+04  0.12499431127E+03 0.  0.
          2    1    1    2  501    0  0.58651986113E+02 -0.61986395763E+02  0.78922733101E+02  0.11623754357E+03  0.00000000000E+00 0. -1.
          1    1    1    2  502    0  0.37967554327E+01 -0.21749751248E+02  0.12719059918E+04  0.12720976059E+04  0.00000000000E+00 0. -1.
         22    1    3    3    0    0 -0.70814296300E+02  0.15408325323E+02  0.10227082351E+04  0.10252727516E+04  0.00000000000E+00 0. -1.
         22    1    3    3    0    0  0.83655547547E+01  0.68327821688E+02  0.32267034197E+03  0.32993154337E+03  0.00000000000E+00 0. -1.
</event>
<event>
 7    1  0.5789396E-006  0.1341825E+03  0.7818608E-02  0.1282988E+00
          2   -1    0    0  502    0  0.00000000000E+00  0.00000000000E+00  0.10036897031E+04  0.10036897031E+04  0.00000000000E+00 0. -1.
          1   -1    0    0  501    0 -0.00000000000E+00 -0.00000000000E+00 -0.14941540051E+04  0.14941540051E+04  0.00000000000E+00 0. -1.
         25    2    1    2    0    0 -0.46397341412E+02  0.19155067392E+03 -0.27992764544E+03  0.36445331340E+03  0.12498942755E+03 0.  0.
          2    1    1    2  501    0  0.43420411782E+02 -0.58241151924E+02 -0.11662044555E+04  0.11684648886E+04  0.00000000000E+00 0. -1.
          1    1    1    2  502    0  0.29769296301E+01 -0.13330952199E+03  0.95566779886E+03  0.96492550621E+03  0.00000000000E+00 0. -1.
         22    1    3    3    0    0  0.37018723897E+02  0.37044951418E+02 -0.34613518456E+02  0.62775871196E+02  0.00000000000E+00 0.  1.
         22    1    3    3    0    0 -0.83416065310E+02  0.15450572250E+03 -0.24531412698E+03  0.30167744220E+03  0.00000000000E+00 0.  1.
</event>
<event>
 7    1  0.5789396E-006  0.1543687E+03  0.7818608E-02  0.1397809E+00
          2   -1    0    0  502    0  0.00000000000E+00  0.00000000000E+00  0.94239422623E+02  0.94239422623E+02  0.00000000000E+00 0. -1.
          1   -1    0    0  501    0 -0.00000000000E+00 -0.00000000000E+00 -0.90623651920E+03  0.90623651920E+03  0.00000000000E+00 0. -1.
         25    2    1    2    0    0  0.16467416182E+03  0.35476401946E+02 -0.37184115521E+03  0.42691669149E+03  0.12496344305E+03 0.  0.
          2    1    1    2  501    0 -0.20533121097E+02  0.11065592259E+02 -0.42012465986E+03  0.42077165567E+03  0.00000000000E+00 0. -1.
          1    1    1    2  502    0 -0.14414104073E+03 -0.46541994205E+02 -0.20031281520E+02  0.15278759467E+03  0.00000000000E+00 0. -1.
         22    1    3    3    0    0  0.24738457534E+02 -0.30439508261E+02 -0.23374423638E+02  0.45660909153E+02  0.00000000000E+00 0. -1.
         22    1    3    3    0    0  0.13993570429E+03  0.65915910207E+02 -0.34846673157E+03  0.38125578233E+03  0.00000000000E+00 0. -1.
</event>
<event>
 7    1  0.5789396E-006  0.1492674E+03  0.7818608E-02  0.1335131E+00
          2   -1    0    0  502    0  0.00000000000E+00  0.00000000000E+00  0.24558842025E+04  0.24558842025E+04  0.00000000000E+00 0. -1.
          1   -1    0    0  501    0 -0.00000000000E+00 -0.00000000000E+00 -0.72495897588E+03  0.72495897588E+03  0.00000000000E+00 0. -1.
         25    2    1    2    0    0  0.38693197616E+02  0.13910307464E+03  0.27375642011E+03  0.33379034373E+03  0.12500634825E+03 0.  0.
          2    1    1    2  501    0 -0.77725907196E+02 -0.12774995060E+03 -0.68670277811E+03  0.70279589640E+03  0.00000000000E+00 0. -1.
          1    1    1    2  502    0  0.39032709580E+02 -0.11353124041E+02  0.21438715846E+04  0.21442569382E+04  0.00000000000E+00 0. -1.
         22    1    3    3    0    0  0.79109751375E+02  0.10910901189E+03  0.15867775291E+03  0.20818683557E+03  0.00000000000E+00 0.  1.
         22    1    3    3    0    0 -0.40416553759E+02  0.29994062752E+02  0.11507866720E+03  0.12560350816E+03  0.00000000000E+00 0.  1.
</event>
<event>
 7    1  0.5789396E-006  0.8997274E+02  0.7818608E-02  0.1314104E+00
          2   -1    0    0  502    0  0.00000000000E+00  0.00000000000E+00  0.26122209250E+04  0.26122209250E+04  0.00000000000E+00 0. -1.
          1   -1    0    0  501    0 -0.00000000000E+00 -0.00000000000E+00 -0.28970797032E+03  0.28970797032E+03  0.00000000000E+00 0. -1.
         25    2    1    2    0    0 -0.30931873758E+02  0.38708391607E+02  0.78644281300E+03  0.79785469616E+03  0.12499879068E+03 0.  0.
          2    1    1    2  501    0  0.49615677318E+02  0.64365742295E+02 -0.27664485801E+03  0.28833494704E+03  0.00000000000E+00 0. -1.
          1    1    1    2  502    0 -0.18683803561E+02 -0.10307413390E+03  0.18127149997E+04  0.18157392521E+04  0.00000000000E+00 0. -1.
         22    1    3    3    0    0 -0.36622625026E+02 -0.14780378424E+02  0.78531004914E+02  0.87902189865E+02  0.00000000000E+00 0.  1.
         22    1    3    3    0    0  0.56907512681E+01  0.53488770031E+02  0.70791180809E+03  0.70995250630E+03  0.00000000000E+00 0.  1.
</event>
<event>
 7    1  0.5789396E-006  0.9294833E+02  0.7818608E-02  0.1364653E+00
          2   -1    0    0  502    0  0.00000000000E+00  0.00000000000E+00  0.14504709623E+04  0.14504709623E+04  0.00000000000E+00 0. -1.
          1   -1    0    0  501    0 -0.00000000000E+00 -0.00000000000E+00 -0.20939156417E+04  0.20939156417E+04  0.00000000000E+00 0. -1.
         25    2    1    2    0    0  0.82748587308E+02  0.60010728851E+02 -0.54950554952E+02  0.17057026875E+03  0.12500414718E+03 0.  0.
          2    1    1    2  501    0 -0.92459645614E+02 -0.10206247242E+02 -0.19796004974E+04  0.19817848226E+04  0.00000000000E+00 0. -1.
          1    1    1    2  502    0  0.97110583052E+01 -0.49804481608E+02  0.13911063730E+04  0.13920315126E+04  0.00000000000E+00 0. -1.
         22    1    3    3    0    0  0.53059083127E+02 -0.31740363293E+02 -0.51682952185E+01  0.62043760683E+02  0.00000000000E+00 0.  1.
         22    1    3    3    0    0  0.29689504181E+02  0.91751092144E+02 -0.49782259733E+02  0.10852650806E+03  0.00000000000E+00 0.  1.
</event>
<event>
 7    1  0.5789396E-006  0.6825696E+02  0.7818608E-02  0.1370896E+00
          2   -1    0    0  502    0  0.00000000000E+00  0.00000000000E+00  0.29845668604E+03  0.29845668604E+03  0.00000000000E+00 0. -1.
          1   -1    0    0  501    0 -0.00000000000E+00 -0.00000000000E+00 -0.10726782233E+04  0.10726782233E+04  0.00000000000E+00 0. -1.
         25    2    1    2    0    0  0.12764796922E+03 -0.12944746407E+01  0.66183051143E+02  0.19052720500E+03  0.12499895950E+03 0.  0.
          2    1    1    2  501    0 -0.64760340371E+02  0.19986059038E+02 -0.10029937543E+04  0.10052809634E+04  0.00000000000E+00 0. -1.
          1    1    1    2  502    0 -0.62887628846E+02 -0.18691584398E+02  0.16258916594E+03  0.17532674089E+03  0.00000000000E+00 0. -1.
         22    1    3    3    0    0  0.12919624281E+03  0.25482621530E+02  0.14734877445E+02  0.13250716874E+03  0.00000000000E+00 0.  1.
         22    1    3    3    0    0 -0.15482735889E+01 -0.26777096171E+02  0.51448173698E+02  0.58020036258E+02  0.00000000000E+00 0.  1.
</event>
<event>
 7    1  0.5789396E-006  0.6213765E+02  0.7818608E-02  0.1430820E+00
          2   -1    0    0  502    0  0.00000000000E+00  0.00000000000E+00  0.15849581781E+04  0.15849581781E+04  0.00000000000E+00 0. -1.
          1   -1    0    0  501    0 -0.00000000000E+00 -0.00000000000E+00 -0.49175780953E+03  0.49175780953E+03  0.00000000000E+00 0. -1.
         25    2    1    2    0    0  0.75418326940E+02  0.52408567080E+02  0.66004949860E+03  0.67802990951E+03  0.12499854259E+03 0.  0.
          2    1    1    2  501    0 -0.30588827671E+02 -0.54016157991E+02 -0.48021939204E+03  0.48421491736E+03  0.00000000000E+00 0. -1.
          1    1    1    2  502    0 -0.44829499269E+02  0.16075909109E+01  0.91337026202E+03  0.91447116078E+03  0.00000000000E+00 0. -1.
         22    1    3    3    0    0  0.72691212269E+02 -0.24420816971E+02  0.28182616945E+03  0.29207255679E+03  0.00000000000E+00 0.  1.
         22    1    3    3    0    0  0.27271146715E+01  0.76829384052E+02  0.37822332915E+03  0.38595735272E+03  0.00000000000E+00 0.  1.
</event>
<event>
 7    1  0.5789396E-006  0.6776312E+02  0.7818608E-02  0.1397423E+00
          2   -1    0    0  502    0  0.00000000000E+00  0.00000000000E+00  0.21581422910E+03  0.21581422910E+03  0.00000000000E+00 0. -1.
          1   -1    0    0  501    0 -0.00000000000E+00 -0.00000000000E+00 -0.31446396369E+03  0.31446396369E+03  0.00000000000E+00 0. -1.
         25    2    1    2    0    0 -0.50232781488E+02 -0.37752162879E+02 -0.38621990282E+02  0.14513825998E+03  0.12499959296E+03 0.  0.
          2    1    1    2  501    0  0.76565161792E+01  0.69815718376E+02 -0.21240193413E+03  0.22371284808E+03  0.00000000000E+00 0. -1.
          1    1    1    2  502    0  0.42576265308E+02 -0.32063555497E+02  0.15237418983E+03  0.16142708473E+03  0.00000000000E+00 0. -1.
         22    1    3    3    0    0 -0.20577487630E+02 -0.82723312201E+02 -0.31132506531E+02  0.90751376527E+02  0.00000000000E+00 0.  1.
         22    1    3    3    0    0 -0.29655293858E+02  0.44971149322E+02 -0.74894837508E+01  0.54386883455E+02  0.00000000000E+00 0.  1.
</event>
<event>
 7    1  0.5789396E-006  0.6704475E+02  0.7818608E-02  0.1397358E+00
          2   -1    0    0  502    0  0.00000000000E+00  0.00000000000E+00  0.89311924134E+02  0.89311924134E+02  0.00000000000E+00 0. -1.
          1   -1    0    0  501    0 -0.00000000000E+00 -0.00000000000E+00 -0.30773426912E+03  0.30773426912E+03  0.00000000000E+00 0. -1.
         25    2    1    2    0    0  0.89833386439E+02  0.56496224304E+01 -0.80352508814E+02  0.17373459343E+03  0.12500091092E+03 0.  0.
          2    1    1    2  501    0 -0.40012993191E+02  0.36110412049E+02 -0.14803788024E+03  0.15754432858E+03  0.00000000000E+00 0. -1.
          1    1    1    2  502    0 -0.49820393248E+02 -0.41760034479E+02  0.99680440707E+01  0.65767271235E+02  0.00000000000E+00 0. -1.
         22    1    3    3    0    0  0.34204166530E+02 -0.40677570460E+02 -0.86026071384E+02  0.10111911147E+03  0.00000000000E+00 0.  1.
         22    1    3    3    0    0  0.55629219910E+02  0.46327192890E+02  0.56735625700E+01  0.72615481966E+02  0.00000000000E+00 0.  1.
</event>
<event>
 7    1  0.5789396E-006  0.4199215E+02  0.7818608E-02  0.1582651E+00
          2   -1    0    0  502    0  0.00000000000E+00  0.00000000000E+00  0.54884207894E+03  0.54884207894E+03  0.00000000000E+00 0. -1.
          1   -1    0    0  501    0 -0.00000000000E+00 -0.00000000000E+00 -0.51318117090E+03  0.51318117090E+03  0.00000000000E+00 0. -1.
         25    2    1    2    0    0  0.57114082617E+02  0.25414481986E+02 -0.20725312548E+03  0.24997324055E+03  0.12499939457E+03 0.  0.
          2    1    1    2  501    0 -0.15986447731E+02 -0.17287257386E+02 -0.28324573359E+03  0.28422273198E+03  0.00000000000E+00 0. -1.
          1    1    1    2  502    0 -0.41127634886E+02 -0.81272245996E+01  0.52615976712E+03  0.52782727730E+03  0.00000000000E+00 0. -1.
         22    1    3    3    0    0  0.50467145035E+02  0.19448004717E+02 -0.13144345459E+02  0.55659064248E+02  0.00000000000E+00 0. -1.
         22    1    3    3    0    0  0.66469375820E+01  0.59664772688E+01 -0.19410878002E+03  0.19431417630E+03  0.00000000000E+00 0. -1.
</event>
<event>
 7    1  0.5789396E-006  0.6283111E+02  0.7818608E-02  0.1403317E+00
          2   -1    0    0  502    0  0.00000000000E+00  0.00000000000E+00  0.50972361733E+03  0.50972361733E+03  0.00000000000E+00 0. -1.
          1   -1    0    0  501    0 -0.00000000000E+00 -0.00000000000E+00 -0.12685066629E+03  0.12685066629E+03  0.00000000000E+00 0. -1.
         25    2    1    2    0    0 -0.61745367178E+01 -0.25996818464E+02 -0.13749530732E+02  0.12856449637E+03  0.12500328259E+03 0.  0.
          2    1    1    2  501    0 -0.54658158428E+02  0.47418562593E+01 -0.39213008830E+02  0.67436336978E+02  0.00000000000E+00 0. -1.
          1    1    1    2  502    0  0.60832695146E+02  0.21254962204E+02  0.43583549060E+03  0.44057345027E+03  0.00000000000E+00 0. -1.
         22    1    3    3    0    0 -0.44331297437E+02 -0.52067055625E+02 -0.35993404922E+02  0.77277211465E+02  0.00000000000E+00 0.  1.
         22    1    3    3    0    0  0.38156760719E+02  0.26070237161E+02  0.22243874190E+02  0.51287284908E+02  0.00000000000E+00 0.  1.
</event>
<event>
 7    1  0.5789396E-006  0.5546861E+02  0.7818608E-02  0.1441520E+00
          2   -1    0    0  502    0  0.00000000000E+00  0.00000000000E+00  0.94884049831E+03  0.94884049831E+03  0.00000000000E+00 0. -1.
          1   -1    0    0  501    0 -0.00000000000E+00 -0.00000000000E+00 -0.35626105403E+02  0.35626105403E+02  0.00000000000E+00 0. -1.
         25    2    1    2    0    0  0.88385044331E+02 -0.29141316743E+01  0.35517799614E+03  0.38677745330E+03  0.12499992487E+03 0.  0.
          2    1    1    2  501    0 -0.39478071207E+02  0.24323206266E+02  0.10483730053E+02  0.47539931269E+02  0.00000000000E+00 0. -1.
          1    1    1    2  502    0 -0.48906973124E+02 -0.21409074592E+02  0.54755266672E+03  0.55014921914E+03  0.00000000000E+00 0. -1.
         22    1    3    3    0    0  0.10090989431E+03 -0.43482575419E+02  0.23786809123E+03  0.26202055255E+03  0.00000000000E+00 0.  1.
         22    1    3    3    0    0 -0.12524849978E+02  0.40568443745E+02  0.11730990491E+03  0.12475690075E+03  0.00000000000E+00 0.  1.
</event>
<event>
 7    1  0.5789396E-006  0.4463513E+02  0.7818608E-02  0.1523456E+00
          2   -1    0    0  502    0  0.00000000000E+00  0.00000000000E+00  0.14319667980E+03  0.14319667980E+03  0.00000000000E+00 0. -1.
          1   -1    0    0  501    0 -0.00000000000E+00 -0.00000000000E+00 -0.80924634480E+03  0.80924634480E+03  0.00000000000E+00 0. -1.
         25    2    1    2    0    0 -0.36946258332E+01 -0.13699147485E+02 -0.22566878959E+02  0.12782035030E+03  0.12500984371E+03 0.  0.
          2    1    1    2  501    0  0.27262072479E+02  0.35865226995E+02 -0.73044709080E+03  0.73183501389E+03  0.00000000000E+00 0. -1.
          1    1    1    2  502    0 -0.23567446646E+02 -0.22166079510E+02  0.86964304759E+02  0.92787660410E+02  0.00000000000E+00 0. -1.
         22    1    3    3    0    0  0.28144066682E+02 -0.51424537723E+02 -0.44700440897E+02  0.73720424482E+02  0.00000000000E+00 0. -1.
         22    1    3    3    0    0 -0.31838692515E+02  0.37725390238E+02  0.22133561938E+02  0.54099925820E+02  0.00000000000E+00 0. -1.
</event>
<event>
 7    1  0.5789396E-006  0.9423533E+02  0.7818608E-02  0.1426727E+00
          2   -1    0    0  502    0  0.00000000000E+00  0.00000000000E+00  0.54946692255E+03  0.54946692255E+03  0.00000000000E+00 0. -1.
          1   -1    0    0  501    0 -0.00000000000E+00 -0.00000000000E+00 -0.20498438309E+03  0.20498438309E+03  0.00000000000E+00 0. -1.
         25    2    1    2    0    0 -0.66689330107E+02  0.45819245925E+02  0.23870240344E+02  0.15080359676E+03  0.12500026550E+03 0.  0.
          2    1    1    2  501    0  0.78684399984E+01  0.29480947449E+02 -0.13485588009E+03  0.13826477138E+03  0.00000000000E+00 0. -1.
          1    1    1    2  502    0  0.58820890108E+02 -0.75300193373E+02  0.45546817921E+03  0.46538293749E+03  0.00000000000E+00 0. -1.
         22    1    3    3    0    0 -0.92669728967E+02  0.33736365681E+02 -0.17819878564E+02  0.10021661094E+03  0.00000000000E+00 0. -1.
         22    1    3    3    0    0  0.25980398861E+02  0.12082880244E+02  0.41690118908E+02  0.50586985822E+02  0.00000000000E+00 0. -1.
</event>
<event>
 7    1  0.5789396E-006  0.1202714E+03  0.7818608E-02  0.1305422E+00
          2   -1    0    0  502    0  0.00000000000E+00  0.00000000000E+00  0.11065432638E+04  0.11065432638E+04  0.00000000000E+00 0. -1.
          1   -1    0    0  501    0 -0.00000000000E+00 -0.00000000000E+00 -0.67882901076E+03  0.67882901076E+03  0.00000000000E+00 0. -1.
         25    2    1    2    0    0  0.72334551555E+00 -0.76730236562E+02  0.34144661853E+03  0.37161725473E+03  0.12500215307E+03 0.  0.
          2    1    1    2  501    0 -0.25766984606E+02 -0.60524419523E+02 -0.65559489468E+03  0.65888679512E+03  0.00000000000E+00 0. -1.
          1    1    1    2  502    0  0.25043639090E+02  0.13725465609E+03  0.74186252923E+03  0.75486822476E+03  0.00000000000E+00 0. -1.
         22    1    3    3    0    0  0.29199197847E+02  0.17371835668E+02  0.31066874746E+02  0.46038294233E+02  0.00000000000E+00 0. -1.
         22    1    3    3    0    0 -0.28475852331E+02 -0.94102072231E+02  0.31037974378E+03  0.32557896049E+03  0.00000000000E+00 0. -1.
</event>
<event>
 7    1  0.5789396E-006  0.7278830E+02  0.7818608E-02  0.1482476E+00
          2   -1    0    0  502    0  0.00000000000E+00  0.00000000000E+00  0.12332468249E+04  0.12332468249E+04  0.00000000000E+00 0. -1.
          1   -1    0    0  501    0 -0.00000000000E+00 -0.00000000000E+00 -0.22766031572E+03  0.22766031572E+03  0.00000000000E+00 0. -1.
         25    2    1    2    0    0 -0.83888049898E+02 -0.51995789872E+02 -0.10221985829E+02  0.15959166092E+03  0.12499696861E+03 0.  0.
          2    1    1    2  501    0  0.22656181188E+02  0.13284443811E+02 -0.14040222282E+03  0.14283754117E+03  0.00000000000E+00 0. -1.
          1    1    1    2  502    0  0.61231868711E+02  0.38711346061E+02  0.11562107178E+04  0.11584779385E+04  0.00000000000E+00 0. -1.
         22    1    3    3    0    0  0.78654572385E+01 -0.18302237773E+02 -0.50184362110E+02  0.53993587818E+02  0.00000000000E+00 0.  1.
         22    1    3    3    0    0 -0.91753507137E+02 -0.33693552099E+02  0.39962376281E+02  0.10559807310E+03  0.00000000000E+00 0.  1.
</event>
<event>
 7    1  0.5789396E-006  0.1801379E+03  0.7818608E-02  0.1216502E+00
          2   -1    0    0  502    0  0.00000000000E+00  0.00000000000E+00  0.23939886383E+04  0.23939886383E+04  0.00000000000E+00 0. -1.
          1   -1    0    0  501    0 -0.00000000000E+00 -0.00000000000E+00 -0.14541460466E+04  0.14541460466E+04  0.00000000000E+00 0. -1.
         25    2    1    2    0    0  0.13136981011E+03  0.72454520280E+02  0.20391966670E+02  0.19633791504E+03  0.12500024025E+03 0.  0.
          2    1    1    2  501    0  0.50007337707E+02 -0.92566872959E+02 -0.13604962282E+04  0.13645582973E+04  0.00000000000E+00 0. -1.
          1    1    1    2  502    0 -0.18137714782E+03  0.20112352679E+02  0.22799468533E+04  0.22872384725E+04  0.00000000000E+00 0. -1.
         22    1    3    3    0    0  0.13454979686E+03  0.12388399314E+02  0.13346943631E+02  0.13577651188E+03  0.00000000000E+00 0. -1.
         22    1    3    3    0    0 -0.31799867536E+01  0.60066120966E+02  0.70450230387E+01  0.60561403165E+02  0.00000000000E+00 0. -1.
</event>
<event>
 7    1  0.5789396E-006  0.1046618E+03  0.7818608E-02  0.1274284E+00
          2   -1    0    0  502    0  0.00000000000E+00  0.00000000000E+00  0.45327410025E+02  0.45327410025E+02  0.00000000000E+00 0. -1.
          1   -1    0    0  501    0 -0.00000000000E+00 -0.00000000000E+00 -0.25623064270E+04  0.25623064270E+04  0.00000000000E+00 0. -1.
         25    2    1    2    0    0 -0.18068184174E+02  0.78221042013E+02 -0.27456704555E+03  0.31217966032E+03  0.12499634844E+03 0.  0.
          2    1    1    2  501    0  0.97548947102E+02  0.26925056753E+02 -0.20960459895E+04  0.20984874424E+04  0.00000000000E+00 0. -1.
          1    1    1    2  502    0 -0.79480762928E+02 -0.10514609877E+03 -0.14636598192E+03  0.19696673431E+03  0.00000000000E+00 0. -1.
         22    1    3    3    0    0 -0.42815164241E+01 -0.34434192305E+02 -0.55416968509E+02  0.65384137077E+02  0.00000000000E+00 0. -1.
         22    1    3    3    0    0 -0.13786667750E+02  0.11265523432E+03 -0.21915007704E+03  0.24679552324E+03  0.00000000000E+00 0. -1.
</event>
<event>
 7    1  0.5789396E-006  0.1630989E+03  0.7818608E-02  0.1234437E+00
          2   -1    0    0  502    0  0.00000000000E+00  0.00000000000E+00  0.20819404606E+04  0.20819404606E+04  0.00000000000E+00 0. -1.
          1   -1    0    0  501    0 -0.00000000000E+00 -0.00000000000E+00 -0.31206394262E+03  0.31206394262E+03  0.00000000000E+00 0. -1.
         25    2    1    2    0    0  0.12480187848E+03  0.19204219968E+03  0.11538482185E+04  0.11829820532E+04  0.12500044638E+03 0.  0.
          2    1    1    2  501    0 -0.74001463568E+02 -0.61815839927E+02 -0.28414541928E+03  0.30006005062E+03  0.00000000000E+00 0. -1.
          1    1    1    2  502    0 -0.50800414915E+02 -0.13022635975E+03  0.90017371876E+03  0.91096229937E+03  0.00000000000E+00 0. -1.
         22    1    3    3    0    0  0.11043905190E+03  0.19391892440E+03  0.85056908137E+03  0.87935720592E+03  0.00000000000E+00 0.  1.
         22    1    3    3    0    0  0.14362826585E+02 -0.18767247222E+01  0.30327913714E+03  0.30362484731E+03  0.00000000000E+00 0.  1.
</event>
<event>
 7    1  0.5789396E-006  0.1285976E+03  0.7818608E-02  0.1270661E+00
          2   -1    0    0  502    0  0.00000000000E+00  0.00000000000E+00  0.39229264321E+03  0.39229264321E+03  0.00000000000E+00 0. -1.
          1   -1    0    0  501    0 -0.00000000000E+00 -0.00000000000E+00 -0.62790629913E+03  0.62790629913E+03  0.00000000000E+00 0. -1.
         25    2    1    2    0    0  0.59642198360E+02  0.63287318777E+02  0.23987123987E+02  0.15414706660E+03  0.12499383777E+03 0.  0.
          2    1    1    2  501    0  0.79446400604E+02 -0.31013728903E+02 -0.54249955128E+03  0.54916240320E+03  0.00000000000E+00 0. -1.
          1    1    1    2  502    0 -0.13908859896E+03 -0.32273589874E+02  0.28289877137E+03  0.31688947254E+03  0.00000000000E+00 0. -1.
         22    1    3    3    0    0  0.46160792170E+02 -0.26092499016E+02  0.34327740754E+02  0.63166692361E+02  0.00000000000E+00 0. -1.
         22    1    3    3    0    0  0.13481406190E+02  0.89379817793E+02 -0.10340616767E+02  0.90980374239E+02  0.00000000000E+00 0. -1.
</event>
<event>
 7    1  0.5789396E-006  0.6439624E+02  0.7818608E-02  0.1389215E+00
          2   -1    0    0  502    0  0.00000000000E+00  0.00000000000E+00  0.90506344143E+03  0.90506344143E+03  0.00000000000E+00 0. -1.
          1   -1    0    0  501    0 -0.00000000000E+00 -0.00000000000E+00 -0.60389568427E+02  0.60389568427E+02  0.00000000000E+00 0. -1.
         25    2    1    2    0    0  0.19216634682E+02 -0.99919170348E+01  0.21342976962E+03  0.24828665830E+03  0.12499952269E+03 0.  0.
          2    1    1    2  501    0 -0.90654610676E+01 -0.59200352607E+02 -0.19262158349E+02  0.62911803960E+02  0.00000000000E+00 0. -1.
          1    1    1    2  502    0 -0.10151173615E+02  0.69192269642E+02  0.65050626173E+03  0.65425454760E+03  0.00000000000E+00 0. -1.
         22    1    3    3    0    0  0.31054872571E+02  0.52121624315E+02  0.77962418701E+02  0.98788701588E+02  0.00000000000E+00 0.  1.
         22    1    3    3    0    0 -0.11838237888E+02 -0.62113541350E+02  0.13546735092E+03  0.14949795671E+03  0.00000000000E+00 0.  1.
</event>
<event>
 7    1  0.5789396E-006  0.6543344E+02  0.7818608E-02  0.1446480E+00
          2   -1    0    0  502    0  0.00000000000E+00  0.00000000000E+00  0.17914633261E+03  0.17914633261E+03  0.00000000000E+00 0. -1.
          1   -1    0    0  501    0 -0.00000000000E+00 -0.00000000000E+00 -0.25679044570E+04  0.25679044570E+04  0.00000000000E+00 0. -1.
         25    2    1    2    0    0 -0.30770990889E+01 -0.33369014922E+02 -0.11376930288E+03  0.17231159434E+03  0.12499948629E+03 0.  0.
          2    1    1    2  501    0  0.21262565925E+02 -0.31356702624E+02 -0.24171682664E+04  0.24174651533E+04  0.00000000000E+00 0. -1.
          1    1    1    2  502    0 -0.18185466836E+02  0.64725717546E+02  0.14217944489E+03  0.15727404193E+03  0.00000000000E+00 0. -1.
         22    1    3    3    0    0  0.19471262058E+02 -0.11173029151E+02  0.22875905507E+02  0.32051110422E+02  0.00000000000E+00 0.  1.
         22    1    3    3    0    0 -0.22548361147E+02 -0.22195985771E+02 -0.13664520839E+03  0.14026048392E+03  0.00000000000E+00 0.  1.
</event>
<event>
 7    1  0.5789396E-006  0.1605940E+03  0.7818608E-02  0.1227673E+00
          2   -1    0    0  502    0  0.00000000000E+00  0.00000000000E+00  0.18095273359E+04  0.18095273359E+04  0.00000000000E+00 0. -1.
          1   -1    0    0  501    0 -0.00000000000E+00 -0.00000000000E+00 -0.15875453966E+04  0.15875453966E+04  0.00000000000E+00 0. -1.
         25    2    1    2    0    0 -0.13676455370E+02  0.69835931043E+02  0.30745204445E+02  0.14708560212E+03  0.12499921623E+03 0.  0.
          2    1    1    2  501    0 -0.78616764048E+02  0.69597863846E+02 -0.15235015220E+04  0.15271153676E+04  0.00000000000E+00 0. -1.
          1    1    1    2  502    0  0.92293219418E+02 -0.13943379489E+03  0.17147382569E+04  0.17228717628E+04  0.00000000000E+00 0. -1.
         22    1    3    3    0    0  0.37174612326E+02  0.83266827739E+02  0.17569727838E+02  0.92865557337E+02  0.00000000000E+00 0.  1.
         22    1    3    3    0    0 -0.50851067696E+02 -0.13430896696E+02  0.13175476607E+02  0.54220044778E+02  0.00000000000E+00 0.  1.
</event>
<event>
 7    1  0.5789396E-006  0.4169840E+02  0.7818608E-02  0.1569038E+00
          2   -1    0    0  502    0  0.00000000000E+00  0.00000000000E+00  0.10534211392E+04  0.10534211392E+04  0.00000000000E+00 0. -1.
          1   -1    0    0  501    0 -0.00000000000E+00 -0.00000000000E+00 -0.44710057901E+02  0.44710057901E+02  0.00000000000E+00 0. -1.
         25    2    1    2    0    0 -0.31715494595E+02 -0.94741172216E+01  0.66088044667E+03  0.67341177456E+03  0.12499928736E+03 0.  0.
          2    1    1    2  501    0 -0.10582310027E+02  0.23533072694E+02 -0.32662245339E+02  0.41624668966E+02  0.00000000000E+00 0. -1.
          1    1    1    2  502    0  0.42297804622E+02 -0.14058955473E+02  0.38049287994E+03  0.38309475354E+03  0.00000000000E+00 0. -1.
         22    1    3    3    0    0 -0.53535560264E+02 -0.53372205162E+02  0.48382862978E+03  0.48969867418E+03  0.00000000000E+00 0.  1.
         22    1    3    3    0    0  0.21820065669E+02  0.43898087940E+02  0.17705181689E+03  0.18371310039E+03  0.00000000000E+00 0.  1.
</event>
<event>
 7    1  0.5789396E-006  0.1029711E+03  0.7818608E-02  0.1430146E+00
          2   -1    0    0  502    0  0.00000000000E+00  0.00000000000E+00  0.14791352576E+03  0.14791352576E+03  0.00000000000E+00 0. -1.
          1   -1    0    0  501    0 -0.00000000000E+00 -0.00000000000E+00 -0.46125390360E+03  0.46125390360E+03  0.00000000000E+00 0. -1.
         25    2    1    2    0    0  0.62260766063E+02 -0.64722475275E+02 -0.27396180153E+03  0.31423726101E+03  0.12499834284E+03 0.  0.
          2    1    1    2  501    0 -0.85170835758E+02  0.79399707298E+02 -0.14493963652E+03  0.18591902274E+03  0.00000000000E+00 0. -1.
          1    1    1    2  502    0  0.22910069695E+02 -0.14677232023E+02  0.10556106022E+03  0.10901114561E+03  0.00000000000E+00 0. -1.
         22    1    3    3    0    0  0.86377652366E+02 -0.13581772520E+02 -0.21710645774E+03  0.23405293710E+03  0.00000000000E+00 0.  1.
         22    1    3    3    0    0 -0.24116886303E+02 -0.51140702754E+02 -0.56855343797E+02  0.80184323913E+02  0.00000000000E+00 0.  1.
</event>
<event>
 7    1  0.5789396E-006  0.1197173E+03  0.7818608E-02  0.1381711E+00
          2   -1    0    0  502    0  0.00000000000E+00  0.00000000000E+00  0.85800094506E+03  0.85800094506E+03  0.00000000000E+00 0. -1.
          1   -1    0    0  501    0 -0.00000000000E+00 -0.00000000000E+00 -0.62290848121E+03  0.62290848121E+03  0.00000000000E+00 0. -1.
         25    2    1    2    0    0 -0.25939411251E+02 -0.10202584308E+03  0.19179393387E+03  0.25198800718E+03  0.12502366569E+03 0.  0.
          2    1    1    2  501    0  0.60106697667E+02  0.10411584354E+03 -0.58624660246E+03  0.59844632414E+03  0.00000000000E+00 0. -1.
          1    1    1    2  502    0 -0.34167286416E+02 -0.20900004548E+01  0.62954513245E+03  0.63047509495E+03  0.00000000000E+00 0. -1.
         22    1    3    3    0    0  0.38000169687E+01  0.84687041470E+01  0.11224213229E+03  0.11262528730E+03  0.00000000000E+00 0. -1.
         22    1    3    3    0    0 -0.29739428219E+02 -0.11049454723E+03  0.79551801577E+02  0.13936271988E+03  0.00000000000E+00 0. -1.
</event>
<event>
 7    1  0.5789396E-006  0.1148575E+03  0.7818608E-02  0.1306498E+00
          2   -1    0    0  502    0  0.00000000000E+00  0.00000000000E+00  0.41603368576E+02  0.41603368576E+02  0.00000000000E+00 0. -1.
          1   -1    0    0  501    0 -0.00000000000E+00 -0.00000000000E+00 -0.23266428953E+04  0.23266428953E+04  0.00000000000E+00 0. -1.
         25    2    1    2    0    0 -0.54653370559E+02 -0.59985311751E+02 -0.10836530743E+04  0.10938527430E+04  0.12499843701E+03 0.  0.
          2    1    1    2  501    0  0.71369901669E+02  0.12611320679E+03 -0.11973279095E+04  0.12060648103E+04  0.00000000000E+00 0. -1.
          1    1    1    2  502    0 -0.16716531110E+02 -0.66127895040E+02 -0.40585428374E+01  0.68328710545E+02  0.00000000000E+00 0. -1.
         22    1    3    3    0    0 -0.79252698963E+02 -0.82487896212E+02 -0.89442173088E+03  0.90170697901E+03  0.00000000000E+00 0. -1.
         22    1    3    3    0    0  0.24599328404E+02  0.22502584461E+02 -0.18923134345E+03  0.19214576396E+03  0.00000000000E+00 0. -1.
</event>
<event>
 7    1  0.5789396E-006  0.5178176E+02  0.7818608E-02  0.1573536E+00
          2   -1    0    0  502    0  0.00000000000E+00  0.00000000000E+00  0.33682416036E+03  0.33682416036E+03  0.00000000000E+00 0. -1.
          1   -1    0    0  501    0 -0.00000000000E+00 -0.00000000000E+00 -0.56066285583E+03  0.56066285583E+03  0.00000000000E+00 0. -1.
         25    2    1    2    0    0 -0.22798207812E+02  0.64758607240E+02  0.20623122848E+03  0.25073832514E+03  0.12499981042E+03 0.  0.
          2    1    1    2  501    0  0.25824654247E+02 -0.44783813942E+02 -0.53621341399E+03  0.53869966410E+03  0.00000000000E+00 0. -1.
          1    1    1    2  502    0 -0.30264464350E+01 -0.19974793297E+02  0.10614349005E+03  0.10804902695E+03  0.00000000000E+00 0. -1.
         22    1    3    3    0    0 -0.18213441098E+02 -0.25171464798E+02  0.66353878350E+01  0.31770433557E+02  0.00000000000E+00 0. -1.
         22    1    3    3    0    0 -0.45847667149E+01  0.89930072038E+02  0.19959584065E+03  0.21896789159E+03  0.00000000000E+00 0. -1.
</event>
<event>
 7    1  0.5789396E-006  0.2476249E+03  0.7818608E-02  0.1220483E+00
          2   -1    0    0  502    0  0.00000000000E+00  0.00000000000E+00  0.75233751934E+03  0.75233751934E+03  0.00000000000E+00 0. -1.
          1   -1    0    0  501    0 -0.00000000000E+00 -0.00000000000E+00 -0.12516056515E+04  0.12516056515E+04  0.00000000000E+00 0. -1.
         25    2    1    2    0    0  0.19399937229E+02 -0.30925380822E+03 -0.21972255275E+03  0.39989760799E+03  0.12500328487E+03 0.  0.
          2    1    1    2  501    0 -0.24541130697E+02  0.23603757721E+03 -0.92473267828E+03  0.95469708873E+03  0.00000000000E+00 0. -1.
          1    1    1    2  502    0  0.51411934677E+01  0.73216231006E+02  0.64518709884E+03  0.64934847414E+03  0.00000000000E+00 0. -1.
         22    1    3    3    0    0  0.24708250499E+02 -0.19848907030E+03 -0.20770407806E+03  0.28835636410E+03  0.00000000000E+00 0.  1.
         22    1    3    3    0    0 -0.53083132698E+01 -0.11076473792E+03 -0.12018474690E+02  0.11154124389E+03  0.00000000000E+00 0.  1.
</event>
<event>
 7    1  0.5789396E-006  0.9072324E+02  0.7818608E-02  0.1384493E+00
          2   -1    0    0  502    0  0.00000000000E+00  0.00000000000E+00  0.21820869895E+04  0.21820869895E+04  0.00000000000E+00 0. -1.
          1   -1    0    0  501    0 -0.00000000000E+00 -0.00000000000E+00 -0.11278801477E+04  0.11278801477E+04  0.00000000000E+00 0. -1.
         25    2    1    2    0    0  0.36530238828E+02 -0.12711443586E+03  0.30579665622E+03  0.35584872570E+03  0.12499672985E+03 0.  0.
          2    1    1    2  501    0 -0.13389609646E+02  0.89500417816E+02 -0.11007335728E+04  0.11044473752E+04  0.00000000000E+00 0. -1.
          1    1    1    2  502    0 -0.23140629182E+02  0.37614018041E+02  0.18491437584E+04  0.18496710362E+04  0.00000000000E+00 0. -1.
         22    1    3    3    0    0  0.20403378367E+02 -0.10310187898E+03  0.30934000634E+03  0.32670710861E+03  0.00000000000E+00 0. -1.
         22    1    3    3    0    0  0.16126860461E+02 -0.24012556877E+02 -0.35433501198E+01  0.29141617082E+02  0.00000000000E+00 0. -1.
</event>
<event>
 7    1  0.5789396E-006  0.1045892E+03  0.7818608E-02  0.1370994E+00
          2   -1    0    0  502    0  0.00000000000E+00  0.00000000000E+00  0.56271834358E+02  0.56271834358E+02  0.00000000000E+00 0. -1.
          1   -1    0    0  501    0 -0.00000000000E+00 -0.00000000000E+00 -0.55496863069E+03  0.55496863069E+03  0.00000000000E+00 0. -1.
         25    2    1    2    0    0  0.45506364884E+02  0.74954669853E+02 -0.14280328471E+03  0.20906785093E+03  0.12501022515E+03 0.  0.
          2    1    1    2  501    0 -0.65464271160E+01  0.42277888419E+02 -0.19326693061E+03  0.19794540162E+03  0.00000000000E+00 0. -1.
          1    1    1    2  502    0 -0.38959937768E+02 -0.11723255827E+03 -0.16262658101E+03  0.20422721248E+03  0.00000000000E+00 0. -1.
         22    1    3    3    0    0  0.33847734430E+02  0.10803333036E+03 -0.85447934284E+02  0.14183870794E+03  0.00000000000E+00 0.  1.
         22    1    3    3    0    0  0.11658630455E+02 -0.33078660512E+02 -0.57355350429E+02  0.67229142998E+02  0.00000000000E+00 0.  1.
</event>
<event>
 7    1  0.5789396E-006  0.5106095E+02  0.7818608E-02  0.1517768E+00
          2   -1    0    0  502    0  0.00000000000E+00  0.00000000000E+00  0.19841104027E+03  0.19841104027E+03  0.00000000000E+00 0. -1.
          1   -1    0    0  501    0 -0.00000000000E+00 -0.00000000000E+00 -0.17347313154E+04  0.17347313154E+04  0.00000000000E+00 0. -1.
         25    2    1    2    0    0  0.63676516572E+02 -0.48981966696E+02 -0.96222732451E+03  0.97363282623E+03  0.12500209779E+03 0.  0.
          2    1    1    2  501    0 -0.23303098342E+02  0.17888599223E+02 -0.76314483734E+03  0.76371007531E+03  0.00000000000E+00 0. -1.
          1    1    1    2  502    0 -0.40373418230E+02  0.31093367473E+02  0.18905188667E+03  0.19579945417E+03  0.00000000000E+00 0. -1.
         22    1    3    3    0    0  0.90961977073E+02 -0.38053569134E+02 -0.89296024787E+03  0.89838753313E+03  0.00000000000E+00 0.  1.
         22    1    3    3    0    0 -0.27285460501E+02 -0.10928397562E+02 -0.69267076639E+02  0.75245293103E+02  0.00000000000E+00 0.  1.
</event>
<event>
 7    1  0.5789396E-006  0.9910796E+02  0.7818608E-02  0.1342464E+00
          2   -1    0    0  502    0  0.00000000000E+00  0.00000000000E+00  0.17072874103E+03  0.17072874103E+03  0.00000000000E+00 0. -1.
          1   -1    0    0  501    0 -0.00000000000E+00 -0.00000000000E+00 -0.12934443761E+04  0.12934443761E+04  0.00000000000E+00 0. -1.
         25    2    1    2    0    0 -0.21937569237E+02 -0.77143930349E+02 -0.55161488843E+03  0.57125811192E+03  0.12499760944E+03 0.  0.
          2    1    1    2  501    0  0.79386265545E+02  0.77261549068E+02 -0.72252055591E+03  0.73096339159E+03  0.00000000000E+00 0. -1.
          1    1    1    2  502    0 -0.57448696308E+02 -0.11761871938E+00  0.15141980923E+03  0.16195161367E+03  0.00000000000E+00 0. -1.
         22    1    3    3    0    0  0.16614511329E+02 -0.95527040741E+02 -0.46093921931E+03  0.47102698585E+03  0.00000000000E+00 0.  1.
         22    1    3    3    0    0 -0.38552080566E+02  0.18383110392E+02 -0.90675669124E+02  0.10023112608E+03  0.00000000000E+00 0.  1.
</event>
<event>
 7    1  0.5789396E-006  0.1188015E+03  0.7818608E-02  0.1372490E+00
          2   -1    0    0  502    0  0.00000000000E+00  0.00000000000E+00  0.69708719400E+03  0.69708719400E+03  0.00000000000E+00 0. -1.
          1   -1    0    0  501    0 -0.00000000000E+00 -0.00000000000E+00 -0.85269132390E+02  0.85269132390E+02  0.00000000000E+00 0. -1.
         25    2    1    2    0    0 -0.78472604491E+02  0.12223440336E+03  0.27890590138E+03  0.33839713556E+03  0.12499968205E+03 0.  0.
          2    1    1    2  501    0  0.75771307223E+02 -0.85131468435E+02  0.51410170934E+01  0.11408368846E+03  0.00000000000E+00 0. -1.
          1    1    1    2  502    0  0.27012972679E+01 -0.37102934924E+02  0.32777114314E+03  0.32987550237E+03  0.00000000000E+00 0. -1.
         22    1    3    3    0    0 -0.78385526055E+02  0.17721706696E+02  0.16668401882E+03  0.18504570169E+03  0.00000000000E+00 0.  1.
         22    1    3    3    0    0 -0.87078435439E-01  0.10451269666E+03  0.11222188255E+03  0.15335143387E+03  0.00000000000E+00 0.  1.
</event>
<event>
 7    1  0.5789396E-006  0.4580606E+02  0.7818608E-02  0.1568694E+00
          2   -1    0    0  502    0  0.00000000000E+00  0.00000000000E+00  0.19350111363E+03  0.19350111363E+03  0.00000000000E+00 0. -1.
          1   -1    0    0  501    0 -0.00000000000E+00 -0.00000000000E+00 -0.16180697297E+03  0.16180697297E+03  0.00000000000E+00 0. -1.
         25    2    1    2    0    0 -0.42229004468E+02 -0.29250120768E+01  0.11960076635E+03  0.17810277927E+03  0.12499764862E+03 0.  0.
          2    1    1    2  501    0 -0.25314048677E+01  0.23403113864E+02 -0.11745787670E+03  0.11979343282E+03  0.00000000000E+00 0. -1.
          1    1    1    2  502    0  0.44760409335E+02 -0.20478101787E+02  0.29551251010E+02  0.57411874494E+02  0.00000000000E+00 0. -1.
         22    1    3    3    0    0 -0.12762278746E+01 -0.44789640939E+02  0.10997478715E+03  0.11875266103E+03  0.00000000000E+00 0.  1.
         22    1    3    3    0    0 -0.40952776593E+02  0.41864628862E+02  0.96259792050E+01  0.59350118248E+02  0.00000000000E+00 0.  1.
</event>
<event>
 7    1  0.5789396E-006  0.2807675E+03  0.7818608E-02  0.1231906E+00
          2   -1    0    0  502    0  0.00000000000E+00  0.00000000000E+00  0.23355260861E+04  0.23355260861E+04  0.00000000000E+00 0. -1.
          1   -1    0    0  501    0 -0.00000000000E+00 -0.00000000000E+00 -0.70243443814E+03  0.70243443814E+03  0.00000000000E+00 0. -1.
         25    2    1    2    0    0  0.13094512108E+03  0.23482004268E+03  0.15019121840E+04  0.15308957314E+04  0.12495781231E+03 0.  0.
          2    1    1    2  501    0 -0.84146441141E+02 -0.26820770574E+03 -0.65813900583E+03  0.71565560710E+03  0.00000000000E+00 0. -1.
          1    1    1    2  502    0 -0.46798679936E+02  0.33387663057E+02  0.78931846976E+03  0.79140918569E+03  0.00000000000E+00 0. -1.
         22    1    3    3    0    0  0.63235382133E+02  0.21620692099E+03  0.10889142439E+04  0.11119704928E+04  0.00000000000E+00 0. -1.
         22    1    3    3    0    0  0.67709738943E+02  0.18613121693E+02  0.41299794010E+03  0.41892523865E+03  0.00000000000E+00 0. -1.
</event>
<event>
 7    1  0.5789396E-006  0.7348220E+02  0.7818608E-02  0.1354130E+00
          2   -1    0    0  502    0  0.00000000000E+00  0.00000000000E+00  0.41631522691E+03  0.41631522691E+03  0.00000000000E+00 0. -1.
          1   -1    0    0  501    0 -0.00000000000E+00 -0.00000000000E+00 -0.20010186516E+03  0.20010186516E+03  0.00000000000E+00 0. -1.
         25    2    1    2    0    0 -0.35590929867E+02  0.42838375168E+02  0.19846764273E+03  0.24107690640E+03  0.12500731544E+03 0.  0.
          2    1    1    2  501    0  0.61952694990E+02  0.39515788906E+02 -0.16089005867E+03  0.17687635502E+03  0.00000000000E+00 0. -1.
          1    1    1    2  502    0 -0.26361765122E+02 -0.82354164074E+02  0.17863577769E+03  0.19846383064E+03  0.00000000000E+00 0. -1.
         22    1    3    3    0    0 -0.56265756466E+01  0.23123946198E+02  0.20347405429E+03  0.20486108955E+03  0.00000000000E+00 0. -1.
         22    1    3    3    0    0 -0.29964354221E+02  0.19714428969E+02 -0.50064115658E+01  0.36215816851E+02  0.00000000000E+00 0. -1.
</event>
<event>
 7    1  0.5789396E-006  0.1713049E+03  0.7818608E-02  0.1306868E+00
          2   -1    0    0  502    0  0.00000000000E+00  0.00000000000E+00  0.21627427791E+04  0.21627427791E+04  0.00000000000E+00 0. -1.
          1   -1    0    0  501    0 -0.00000000000E+00 -0.00000000000E+00 -0.74818783393E+02  0.74818783393E+02  0.00000000000E+00 0. -1.
         25    2    1    2    0    0 -0.13033746316E+03  0.11577790793E+03  0.14061023081E+04  0.14223715315E+04  0.12499877774E+03 0.  0.
          2    1    1    2  501    0  0.15349129549E+03 -0.76518721574E+02  0.45772692706E+02  0.17751008968E+03  0.00000000000E+00 0. -1.
          1    1    1    2  502    0 -0.23153832326E+02 -0.39259186356E+02  0.63604899494E+03  0.63767994137E+03  0.00000000000E+00 0. -1.
         22    1    3    3    0    0 -0.98747449564E+02  0.85088888999E+02  0.55386797454E+03  0.56899992184E+03  0.00000000000E+00 0. -1.
         22    1    3    3    0    0 -0.31590013600E+02  0.30689018931E+02  0.85223433355E+03  0.85337160963E+03  0.00000000000E+00 0. -1.
</event>
<event>
 7    1  0.5789396E-006  0.5805635E+02  0.7818608E-02  0.1513478E+00
          2   -1    0    0  502    0  0.00000000000E+00  0.00000000000E+00  0.76504809596E+03  0.76504809596E+03  0.00000000000E+00 0. -1.
          1   -1    0    0  501    0 -0.00000000000E+00 -0.00000000000E+00 -0.26168903577E+03  0.26168903577E+03  0.00000000000E+00 0. -1.
         25    2    1    2    0    0  0.52781062784E+01  0.48077884748E+02 -0.15260041189E+02  0.13490344924E+03  0.12500692122E+03 0.  0.
          2    1    1    2  501    0  0.20222702246E+02 -0.55624659079E+02 -0.18165544522E+03  0.19105434086E+03  0.00000000000E+00 0. -1.
          1    1    1    2  502    0 -0.25500808525E+02  0.75467743314E+01  0.70027454660E+03  0.70077934163E+03  0.00000000000E+00 0. -1.
         22    1    3    3    0    0 -0.17749602671E+02 -0.38371587100E+02  0.66447348327E+01  0.42796957749E+02  0.00000000000E+00 0. -1.
         22    1    3    3    0    0  0.23027708949E+02  0.86449471848E+02 -0.21904776022E+02  0.92106491491E+02  0.00000000000E+00 0. -1.
</event>
<event>
 7    1  0.5789396E-006  0.1304525E+03  0.7818608E-02  0.1370001E+00
          2   -1    0    0  502    0  0.00000000000E+00  0.00000000000E+00  0.38966696524E+03  0.38966696524E+03  0.00000000000E+00 0. -1.
          1   -1    0    0  501    0 -0.00000000000E+00 -0.00000000000E+00 -0.22384525004E+04  0.22384525004E+04  0.00000000000E+00 0. -1.
         25    2    1    2    0    0 -0.12182166671E+03  0.45717900490E+02  0.28763782962E+01  0.18045562022E+03  0.12500124964E+03 0.  0.
          2    1    1    2  501    0  0.12999345995E+03 -0.12114678053E+02 -0.21466696161E+04  0.21506360700E+04  0.00000000000E+00 0. -1.
          1    1    1    2  502    0 -0.81717932419E+01 -0.33603222436E+02  0.29500770261E+03  0.29702777541E+03  0.00000000000E+00 0. -1.
         22    1    3    3    0    0 -0.70960467137E+02  0.88779107479E+02  0.52115382683E+01  0.11377292275E+03  0.00000000000E+00 0. -1.
         22    1    3    3    0    0 -0.50861199569E+02 -0.43061206989E+02 -0.23351599722E+01  0.66682697464E+02  0.00000000000E+00 0. -1.
</event>
<event>
 7    1  0.5789396E-006  0.1431544E+03  0.7818608E-02  0.1325892E+00
          2   -1    0    0  502    0  0.00000000000E+00  0.00000000000E+00  0.68537276628E+03  0.68537276628E+03  0.00000000000E+00 0. -1.
          1   -1    0    0  501    0 -0.00000000000E+00 -0.00000000000E+00 -0.11444207379E+03  0.11444207379E+03  0.00000000000E+00 0. -1.
         25    2    1    2    0    0  0.80407892135E+02 -0.15278165142E+03  0.13940944588E+03  0.25468882870E+03  0.12499497483E+03 0.  0.
          2    1    1    2  501    0 -0.41455229483E+02  0.19871341582E+02 -0.35447295640E+02  0.58050986520E+02  0.00000000000E+00 0. -1.
          1    1    1    2  502    0 -0.38952662652E+02  0.13291030984E+03  0.46696854225E+03  0.48707502485E+03  0.00000000000E+00 0. -1.
         22    1    3    3    0    0  0.16736642337E+02 -0.72145006068E+02 -0.85520623945E+01  0.74553033932E+02  0.00000000000E+00 0. -1.
         22    1    3    3    0    0  0.63671249798E+02 -0.80636645354E+02  0.14796150827E+03  0.18013579476E+03  0.00000000000E+00 0. -1.
</event>
<event>
 7    1  0.5789396E-006  0.6584056E+02  0.7818608E-02  0.1442233E+00
          2   -1    0    0  502    0  0.00000000000E+00  0.00000000000E+00  0.73853890289E+03  0.73853890289E+03  0.00000000000E+00 0. -1.
          1   -1    0    0  501    0 -0.00000000000E+00 -0.00000000000E+00 -0.61747652773E+03  0.61747652773E+03  0.00000000000E+00 0. -1.
         25    2    1    2    0    0  0.17041820648E+02 -0.23720085509E+02 -0.14007750399E+03  0.18999876401E+03  0.12499902838E+03 0.  0.
          2    1    1    2  501    0  0.57198975155E+01 -0.38434856732E+02 -0.45006441724E+03  0.45173879079E+03  0.00000000000E+00 0. -1.
          1    1    1    2  502    0 -0.22761718164E+02  0.62154942241E+02  0.71120429640E+03  0.71427787581E+03  0.00000000000E+00 0. -1.
         22    1    3    3    0    0  0.47231177555E+02 -0.56981981190E+02 -0.11956294593E+03  0.14061660056E+03  0.00000000000E+00 0. -1.
         22    1    3    3    0    0 -0.30189356907E+02  0.33261895681E+02 -0.20514558057E+02  0.49382163450E+02  0.00000000000E+00 0. -1.
</event>
<event>
 7    1  0.5789396E-006  0.7442447E+02  0.7818608E-02  0.1377767E+00
          2   -1    0    0  502    0  0.00000000000E+00  0.00000000000E+00  0.19147546713E+03  0.19147546713E+03  0.00000000000E+00 0. -1.
          1   -1    0    0  501    0 -0.00000000000E+00 -0.00000000000E+00 -0.18189016623E+04  0.18189016623E+04  0.00000000000E+00 0. -1.
         25    2    1    2    0    0 -0.24873989068E+02  0.53925995512E+02 -0.14329984774E+03  0.19921583322E+03  0.12500149406E+03 0.  0.
          2    1    1    2  501    0 -0.47740067724E+02 -0.30893447400E+02 -0.16382510838E+04  0.16392376682E+04  0.00000000000E+00 0. -1.
          1    1    1    2  502    0  0.72614056792E+02 -0.23032548111E+02  0.15412473638E+03  0.17192362804E+03  0.00000000000E+00 0. -1.
         22    1    3    3    0    0  0.50187405314E+02  0.28901139464E+02 -0.74511572992E+02  0.94371743781E+02  0.00000000000E+00 0.  1.
         22    1    3    3    0    0 -0.75061394382E+02  0.25024856048E+02 -0.68788274752E+02  0.10484408944E+03  0.00000000000E+00 0.  1.
</event>
<event>
 7    1  0.5789396E-006  0.5849595E+02  0.7818608E-02  0.1457145E+00
          2   -1    0    0  502    0  0.00000000000E+00  0.00000000000E+00  0.20784849996E+04  0.20784849996E+04  0.00000000000E+00 0. -1.
          1   -1    0    0  501    0 -0.00000000000E+00 -0.00000000000E+00 -0.22180077485E+04  0.22180077485E+04  0.00000000000E+00 0. -1.
         25    2    1    2    0    0 -0.20878341537E+02 -0.16047687230E+02  0.36544853586E+03  0.38713230363E+03  0.12500141896E+03 0.  0.
          2    1    1    2  501    0  0.58352664174E+02  0.45976572912E+01 -0.22065521927E+04  0.22073284194E+04  0.00000000000E+00 0. -1.
          1    1    1    2  502    0 -0.37474322637E+02  0.11450029939E+02  0.17015809080E+04  0.17020320251E+04  0.00000000000E+00 0. -1.
         22    1    3    3    0    0 -0.77001879911E+01 -0.70511307482E+02  0.18269834492E+03  0.19598424073E+03  0.00000000000E+00 0.  1.
         22    1    3    3    0    0 -0.13178153546E+02  0.54463620252E+02  0.18275019094E+03  0.19114806290E+03  0.00000000000E+00 0.  1.
</event>
<event>
 7    1  0.5789396E-006  0.1625497E+03  0.7818608E-02  0.1296284E+00
          2   -1    0    0  502    0  0.00000000000E+00  0.00000000000E+00  0.53154983631E+03  0.53154983631E+03  0.00000000000E+00 0. -1.
          1   -1    0    0  501    0 -0.00000000000E+00 -0.00000000000E+00 -0.37746844425E+03  0.37746844425E+03  0.00000000000E+00 0. -1.
         25    2    1    2    0    0  0.26933487755E+02 -0.13301443111E+03  0.14390990369E+03  0.23399447833E+03  0.12500041546E+03 0.  0.
          2    1    1    2  501    0 -0.28822068421E+02 -0.44410002255E+02 -0.30703391137E+03  0.31156505366E+03  0.00000000000E+00 0. -1.
          1    1    1    2  502    0  0.18885806657E+01  0.17742443337E+03  0.31720539974E+03  0.36345874858E+03  0.00000000000E+00 0. -1.
         22    1    3    3    0    0  0.52667257843E+02 -0.13902556259E+03  0.89557846108E+02  0.17355850570E+03  0.00000000000E+00 0.  1.
         22    1    3    3    0    0 -0.25733770089E+02  0.60111314777E+01  0.54352057579E+02  0.60435972630E+02  0.00000000000E+00 0.  1.
</event>
<event>
 7    1  0.5789396E-006  0.1602264E+03  0.7818608E-02  0.1246195E+00
          2   -1    0    0  502    0  0.00000000000E+00  0.00000000000E+00  0.10754242266E+04  0.10754242266E+04  0.00000000000E+00 0. -1.
          1   -1    0    0  501    0 -0.00000000000E+00 -0.00000000000E+00 -0.10364111853E+04  0.10364111853E+04  0.00000000000E+00 0. -1.
         25    2    1    2    0    0 -0.10226983782E+03  0.17849694652E+03  0.86874894987E+02  0.25591578561E+03  0.12500144920E+03 0.  0.
          2    1    1    2  501    0  0.84347741460E+02 -0.21763822537E+02 -0.94298584638E+03  0.94700079827E+03  0.00000000000E+00 0. -1.
          1    1    1    2  502    0  0.17922096362E+02 -0.15673312398E+03  0.89512399267E+03  0.90891882803E+03  0.00000000000E+00 0. -1.
         22    1    3    3    0    0  0.69205813134E+00  0.14758521602E+02  0.58607084090E+02  0.60440741308E+02  0.00000000000E+00 0. -1.
         22    1    3    3    0    0 -0.10296189595E+03  0.16373842492E+03  0.28267810897E+02  0.19547504431E+03  0.00000000000E+00 0. -1.
</event>
<event>
 7    1  0.5789396E-006  0.5565578E+02  0.7818608E-02  0.1439673E+00
          2   -1    0    0  502    0  0.00000000000E+00  0.00000000000E+00  0.89240222632E+03  0.89240222632E+03  0.00000000000E+00 0. -1.
          1   -1    0    0  501    0 -0.00000000000E+00 -0.00000000000E+00 -0.47624457780E+03  0.47624457780E+03  0.00000000000E+00 0. -1.
         25    2    1    2    0    0 -0.17908948784E+00 -0.27207220043E+02  0.28141700082E+02  0.13098658811E+03  0.12500106433E+03 0.  0.
          2    1    1    2  501    0 -0.46381771487E+02  0.32452501706E+02 -0.42225656693E+03  0.42603408539E+03  0.00000000000E+00 0. -1.
          1    1    1    2  502    0  0.46560860975E+02 -0.52452816625E+01  0.81027251537E+03  0.81162613063E+03  0.00000000000E+00 0. -1.
         22    1    3    3    0    0 -0.31326417875E+02 -0.68293910059E+02  0.77215739458E+01  0.75531617964E+02  0.00000000000E+00 0. -1.
         22    1    3    3    0    0  0.31147328387E+02  0.41086690016E+02  0.20420126136E+02  0.55454970143E+02  0.00000000000E+00 0. -1.
</event>
<event>
 7    1  0.5789396E-006  0.5275044E+02  0.7818608E-02  0.1553796E+00
          2   -1    0    0  502    0  0.00000000000E+00  0.00000000000E+00  0.13153218326E+04  0.13153218326E+04  0.00000000000E+00 0. -1.
          1   -1    0    0  501    0 -0.00000000000E+00 -0.00000000000E+00 -0.73829946619E+03  0.73829946619E+03  0.00000000000E+00 0. -1.
         25    2    1    2    0    0 -0.27186576782E+02  0.18119234783E+02  0.18616151104E+03  0.22660221559E+03  0.12500015717E+03 0.  0.
          2    1    1    2  501    0  0.35826275224E+02 -0.38852741961E+02 -0.71699271410E+03  0.71893783432E+03  0.00000000000E+00 0. -1.
          1    1    1    2  502    0 -0.86396984418E+01  0.20733507178E+02  0.11078535695E+04  0.11080812489E+04  0.00000000000E+00 0. -1.
         22    1    3    3    0    0  0.46671216766E+02  0.19191264941E+01  0.37823037976E+02  0.60103807888E+02  0.00000000000E+00 0. -1.
         22    1    3    3    0    0 -0.73857793548E+02  0.16200108289E+02  0.14833847306E+03  0.16649840770E+03  0.00000000000E+00 0. -1.
</event>
<event>
 7    1  0.5789396E-006  0.1718227E+03  0.7818608E-02  0.1328960E+00
          2   -1    0    0  502    0  0.00000000000E+00  0.00000000000E+00  0.50126705576E+03  0.50126705576E+03  0.00000000000E+00 0. -1.
          1   -1    0    0  501    0 -0.00000000000E+00 -0.00000000000E+00 -0.12707537321E+04  0.12707537321E+04  0.00000000000E+00 0. -1.
         25    2    1    2    0    0  0.91998914089E+02 -0.12203104332E+03  0.11030061954E+03  0.22615540527E+03  0.12499865975E+03 0.  0.
          2    1    1    2  501    0 -0.75269925220E+02  0.15534427543E+03 -0.12056160493E+04  0.12179111067E+04  0.00000000000E+00 0. -1.
          1    1    1    2  502    0 -0.16728988869E+02 -0.33313232116E+02  0.32582875342E+03  0.32795427587E+03  0.00000000000E+00 0. -1.
         22    1    3    3    0    0 -0.19085776597E+02 -0.54432997103E+02  0.33356312536E+01  0.57778408405E+02  0.00000000000E+00 0. -1.
         22    1    3    3    0    0  0.11108469069E+03 -0.67598046212E+02  0.10696498828E+03  0.16837699687E+03  0.00000000000E+00 0. -1.
</event>
<event>
 7    1  0.5789396E-006  0.1543456E+03  0.7818608E-02  0.1253352E+00
          2   -1    0    0  502    0  0.00000000000E+00  0.00000000000E+00  0.69888898839E+03  0.69888898839E+03  0.00000000000E+00 0. -1.
          1   -1    0    0  501    0 -0.00000000000E+00 -0.00000000000E+00 -0.15002503962E+03  0.15002503962E+03  0.00000000000E+00 0. -1.
         25    2    1    2    0    0  0.59534450814E+02  0.76492297631E+02  0.62573529906E+02  0.17010470980E+03  0.12499897288E+03 0.  0.
          2    1    1    2  501    0 -0.61352476632E+01  0.83963675946E+02 -0.62308715450E+02  0.10473736756E+03  0.00000000000E+00 0. -1.
          1    1    1    2  502    0 -0.53399203151E+02 -0.16045597358E+03  0.54859913431E+03  0.57407195065E+03  0.00000000000E+00 0. -1.
         22    1    3    3    0    0  0.28009864169E+02  0.19848873000E+02 -0.37518365188E+02  0.50854281792E+02  0.00000000000E+00 0. -1.
         22    1    3    3    0    0  0.31524586646E+02  0.56643424631E+02  0.10009189509E+03  0.11925042801E+03  0.00000000000E+00 0. -1.
</event>
<event>
 7    1  0.5789396E-006  0.5851877E+02  0.7818608E-02  0.1423760E+00
          2   -1    0    0  502    0  0.00000000000E+00  0.00000000000E+00  0.64057353151E+03  0.64057353151E+03  0.00000000000E+00 0. -1.
          1   -1    0    0  501    0 -0.00000000000E+00 -0.00000000000E+00 -0.13097573701E+03  0.13097573701E+03  0.00000000000E+00 0. -1.
         25    2    1    2    0    0 -0.53225761124E+02  0.72331223360E+02 -0.28665179220E+02  0.15656540950E+03  0.12500498963E+03 0.  0.
          2    1    1    2  501    0  0.46563750945E+02 -0.22512949736E+02 -0.19267157955E+02  0.55192745751E+02  0.00000000000E+00 0. -1.
          1    1    1    2  502    0  0.66620101787E+01 -0.49818273625E+02  0.55753013168E+03  0.55979111327E+03  0.00000000000E+00 0. -1.
         22    1    3    3    0    0 -0.20046447356E+02 -0.26723930929E+02 -0.39277934748E+02  0.51563404600E+02  0.00000000000E+00 0.  1.
         22    1    3    3    0    0 -0.33179313768E+02  0.99055154290E+02  0.10612755528E+02  0.10500200490E+03  0.00000000000E+00 0.  1.
</event>
<event>
 7    1  0.5789396E-006  0.9189472E+02  0.7818608E-02  0.1347656E+00
          2   -1    0    0  502    0  0.00000000000E+00  0.00000000000E+00  0.47797926853E+03  0.47797926853E+03  0.00000000000E+00 0. -1.
          1   -1    0    0  501    0 -0.00000000000E+00 -0.00000000000E+00 -0.25187244692E+03  0.25187244692E+03  0.00000000000E+00 0. -1.
         25    2    1    2    0    0 -0.25570275272E+02  0.24202486416E+02 -0.10760212664E+03  0.16865291817E+03  0.12500395923E+03 0.  0.
          2    1    1    2  501    0 -0.33516888717E+02  0.48863492670E+02 -0.10064736259E+03  0.11679432496E+03  0.00000000000E+00 0. -1.
          1    1    1    2  502    0  0.59087163989E+02 -0.73065979086E+02  0.43435631085E+03  0.44440447232E+03  0.00000000000E+00 0. -1.
         22    1    3    3    0    0 -0.53443608238E+02 -0.34977399054E+02 -0.61125367694E+02  0.88407851924E+02  0.00000000000E+00 0. -1.
         22    1    3    3    0    0  0.27873332966E+02  0.59179885470E+02 -0.46476758948E+02  0.80245066249E+02  0.00000000000E+00 0. -1.
</event>
<event>
 7    1  0.5789396E-006  0.1570164E+03  0.7818608E-02  0.1407816E+00
          2   -1    0    0  502    0  0.00000000000E+00  0.00000000000E+00  0.38363842795E+03  0.38363842795E+03  0.00000000000E+00 0. -1.
          1   -1    0    0  501    0 -0.00000000000E+00 -0.00000000000E+00 -0.42549292969E+03  0.42549292969E+03  0.00000000000E+00 0. -1.
         25    2    1    2    0    0  0.50488735930E+02 -0.13033136394E+03 -0.12336043661E+03  0.22444865604E+03  0.12499609991E+03 0.  0.
          2    1    1    2  501    0 -0.21938154643E+01 -0.21077821620E+02 -0.23212175340E+03  0.23308709915E+03  0.00000000000E+00 0. -1.
          1    1    1    2  502    0 -0.48294920465E+02  0.15140918556E+03  0.31362768827E+03  0.35159560245E+03  0.00000000000E+00 0. -1.
         22    1    3    3    0    0 -0.39851611256E+02 -0.19145734436E+02 -0.30962039645E+02  0.53975531177E+02  0.00000000000E+00 0.  1.
         22    1    3    3    0    0  0.90340347186E+02 -0.11118562951E+03 -0.92398396969E+02  0.17047312486E+03  0.00000000000E+00 0.  1.
</event>
<event>
 7    1  0.5789396E-006  0.9056383E+02  0.7818608E-02  0.1378159E+00
          2   -1    0    0  502    0  0.00000000000E+00  0.00000000000E+00  0.11740878877E+03  0.11740878877E+03  0.00000000000E+00 0. -1.
          1   -1    0    0  501    0 -0.00000000000E+00 -0.00000000000E+00 -0.18101127121E+04  0.18101127121E+04  0.00000000000E+00 0. -1.
         25    2    1    2    0    0  0.48459549141E+02  0.35756104956E+02 -0.16066485023E+04  0.16126287176E+04  0.12500057567E+03 0.  0.
          2    1    1    2  501    0  0.41387562298E+02 -0.21373885791E+02 -0.17891787248E+03  0.18488206619E+03  0.00000000000E+00 0. -1.
          1    1    1    2  502    0 -0.89847111439E+02 -0.14382219165E+02  0.92862451466E+02  0.13001071707E+03  0.00000000000E+00 0. -1.
         22    1    3    3    0    0  0.62472035622E+02  0.56072883036E+02 -0.15255507370E+04  0.15278586239E+04  0.00000000000E+00 0.  1.
         22    1    3    3    0    0 -0.14012486481E+02 -0.20316778080E+02 -0.81097765293E+02  0.84770093692E+02  0.00000000000E+00 0.  1.
</event>
<event>
 7    1  0.5789396E-006  0.1536098E+03  0.7818608E-02  0.1274914E+00
          2   -1    0    0  502    0  0.00000000000E+00  0.00000000000E+00  0.22119594293E+03  0.22119594293E+03  0.00000000000E+00 0. -1.
          1   -1    0    0  501    0 -0.00000000000E+00 -0.00000000000E+00 -0.22283698052E+04  0.22283698052E+04  0.00000000000E+00 0. -1.
         25    2    1    2    0    0 -0.26240190458E+02 -0.20905316135E+03 -0.11069234159E+03  0.26882922300E+03  0.12499833914E+03 0.  0.
          2    1    1    2  501    0 -0.10695525488E+02  0.15132334749E+03 -0.20273451453E+04  0.20330129090E+04  0.00000000000E+00 0. -1.
          1    1    1    2  502    0  0.36935715946E+02  0.57729813852E+02  0.13086362464E+03  0.14772361617E+03  0.00000000000E+00 0. -1.
         22    1    3    3    0    0  0.38825998285E+02 -0.58097612191E+02 -0.71220182287E+02  0.99775272739E+02  0.00000000000E+00 0. -1.
         22    1    3    3    0    0 -0.65066188744E+02 -0.15095554915E+03 -0.39472159301E+02  0.16905395026E+03  0.00000000000E+00 0. -1.
</event>
<event>
 7    1  0.5789396E-006  0.2314818E+03  0.7818608E-02  0.1209446E+00
          2   -1    0    0  502    0  0.00000000000E+00  0.00000000000E+00  0.26395547084E+04  0.26395547084E+04  0.00000000000E+00 0. -1.
          1   -1    0    0  501    0 -0.00000000000E+00 -0.00000000000E+00 -0.50702546052E+03  0.50702546052E+03  0.00000000000E+00 0. -1.
         25    2    1    2    0    0  0.21879881593E+02 -0.22389655635E+03  0.22568704894E+03  0.34229810970E+03  0.12499981873E+03 0.  0.
          2    1    1    2  501    0 -0.88247296234E+02 -0.11324197170E+00 -0.43852025214E+03  0.44731153535E+03  0.00000000000E+00 0. -1.
          1    1    1    2  502    0  0.66367414641E+02  0.22400979832E+03  0.23453624511E+04  0.23569705239E+04  0.00000000000E+00 0. -1.
         22    1    3    3    0    0  0.70004045361E+02 -0.95104492977E+02  0.84369044494E+02  0.14513292742E+03  0.00000000000E+00 0.  1.
         22    1    3    3    0    0 -0.48124163768E+02 -0.12879206337E+03  0.14131800444E+03  0.19716518228E+03  0.00000000000E+00 0.  1.
</event>
<event>
 7    1  0.5789396E-006  0.1399673E+03  0.7818608E-02  0.1263446E+00
          2   -1    0    0  502    0  0.00000000000E+00  0.00000000000E+00  0.47168239939E+03  0.47168239939E+03  0.00000000000E+00 0. -1.
          1   -1    0    0  501    0 -0.00000000000E+00 -0.00000000000E+00 -0.12367775081E+04  0.12367775081E+04  0.00000000000E+00 0. -1.
         25    2    1    2    0    0  0.15364982328E+03  0.14488956414E+03  0.62795636935E+01  0.24549339281E+03  0.12500527590E+03 0.  0.
          2    1    1    2  501    0 -0.42450668734E+02 -0.72538866839E+02 -0.11027882372E+04  0.11059863664E+04  0.00000000000E+00 0. -1.
          1    1    1    2  502    0 -0.11119915455E+03 -0.72350697299E+02  0.33141356479E+03  0.35698014832E+03  0.00000000000E+00 0. -1.
         22    1    3    3    0    0  0.13199836288E+03  0.80911030896E+02 -0.44385885216E+02  0.16105983214E+03  0.00000000000E+00 0. -1.
         22    1    3    3    0    0  0.21651460402E+02  0.63978533242E+02  0.50665448910E+02  0.84433560665E+02  0.00000000000E+00 0. -1.
</event>
<event>
 7    1  0.5789396E-006  0.1698373E+03  0.7818608E-02  0.1399204E+00
          2   -1    0    0  502    0  0.00000000000E+00  0.00000000000E+00  0.10999391221E+04  0.10999391221E+04  0.00000000000E+00 0. -1.
          1   -1    0    0  501    0 -0.00000000000E+00 -0.00000000000E+00 -0.43969520323E+03  0.43969520323E+03  0.00000000000E+00 0. -1.
         25    2    1    2    0    0  0.22255572525E+02 -0.17566316906E+03 -0.10299888175E+03  0.23997158161E+03  0.12499892347E+03 0.  0.
          2    1    1    2  501    0 -0.30139994112E+01  0.16733333878E+03 -0.24198216424E+03  0.29421913308E+03  0.00000000000E+00 0. -1.
          1    1    1    2  502    0 -0.19241573114E+02  0.83298302762E+01  0.10052249648E+04  0.10054436106E+04  0.00000000000E+00 0. -1.
         22    1    3    3    0    0  0.55809785740E+02 -0.27863321829E+02 -0.13050672042E+02  0.63729247041E+02  0.00000000000E+00 0. -1.
         22    1    3    3    0    0 -0.33554213215E+02 -0.14779984723E+03 -0.89948209704E+02  0.17624233457E+03  0.00000000000E+00 0. -1.
</event>
<event>
 7    1  0.5789396E-006  0.1799449E+03  0.7818608E-02  0.1323096E+00
          2   -1    0    0  502    0  0.00000000000E+00  0.00000000000E+00  0.30626091299E+04  0.30626091299E+04  0.00000000000E+00 0. -1.
          1   -1    0    0  501    0 -0.00000000000E+00 -0.00000000000E+00 -0.12179652918E+03  0.12179652918E+03  0.00000000000E+00 0. -1.
         25    2    1    2    0    0  0.10563741987E+03 -0.15484841888E+03  0.18077466397E+04  0.18217326922E+04  0.12499916470E+03 0.  0.
          2    1    1    2  501    0 -0.69753972286E+02  0.16571044485E+03 -0.43928271673E+02  0.18508176905E+03  0.00000000000E+00 0. -1.
          1    1    1    2  502    0 -0.35883447587E+02 -0.10862025975E+02  0.11769942328E+04  0.11775911979E+04  0.00000000000E+00 0. -1.
         22    1    3    3    0    0 -0.24383400917E+02 -0.52302559874E+02  0.36848399906E+03  0.37297528815E+03  0.00000000000E+00 0. -1.
         22    1    3    3    0    0  0.13002082079E+03 -0.10254585900E+03  0.14392626406E+04  0.14487574040E+04  0.00000000000E+00 0. -1.
</event>
<event>
 7    1  0.5789396E-006  0.1031764E+03  0.7818608E-02  0.1299435E+00
          2   -1    0    0  502    0  0.00000000000E+00  0.00000000000E+00  0.43143306745E+04  0.43143306745E+04  0.00000000000E+00 0. -1.
          1   -1    0    0  501    0 -0.00000000000E+00 -0.00000000000E+00 -0.46051438354E+02  0.46051438354E+02  0.00000000000E+00 0. -1.
         25    2    1    2    0    0 -0.77699689458E+02 -0.29434225058E+02  0.28513146747E+04  0.28552625434E+04  0.12500081094E+03 0.  0.
          2    1    1    2  501    0 -0.72320863795E+02  0.36508362037E+02  0.80395420573E+00  0.81017369625E+02  0.00000000000E+00 0. -1.
          1    1    1    2  502    0  0.15002055325E+03 -0.70741369784E+01  0.14161606073E+04  0.14241021998E+04  0.00000000000E+00 0. -1.
         22    1    3    3    0    0 -0.62615116659E+02 -0.51027839084E+02  0.27266171987E+04  0.27278133810E+04  0.00000000000E+00 0.  1.
         22    1    3    3    0    0 -0.15084572799E+02  0.21593614026E+02  0.12469747593E+03  0.12744916244E+03  0.00000000000E+00 0.  1.
</event>
<event>
 7    1  0.5789396E-006  0.3440840E+02  0.7818608E-02  0.1629843E+00
          2   -1    0    0  502    0  0.00000000000E+00  0.00000000000E+00  0.14849910287E+04  0.14849910287E+04  0.00000000000E+00 0. -1.
          1   -1    0    0  501    0 -0.00000000000E+00 -0.00000000000E+00 -0.16187842794E+04  0.16187842794E+04  0.00000000000E+00 0. -1.
         25    2    1    2    0    0 -0.72196118951E+01  0.28691186423E+02  0.31662351319E+03  0.34169196070E+03  0.12501055925E+03 0.  0.
          2    1    1    2  501    0 -0.20289512429E+02 -0.76409524760E+01 -0.16059173444E+04  0.16060636867E+04  0.00000000000E+00 0. -1.
          1    1    1    2  502    0  0.27509124324E+02 -0.21050233947E+02  0.11555005806E+04  0.11560196607E+04  0.00000000000E+00 0. -1.
         22    1    3    3    0    0 -0.56505451070E+02 -0.11446798029E+02  0.20795730262E+03  0.21580114666E+03  0.00000000000E+00 0. -1.
         22    1    3    3    0    0  0.49285839174E+02  0.40137984452E+02  0.10866621057E+03  0.12589081404E+03  0.00000000000E+00 0. -1.
</event>
<event>
 7    1  0.5789396E-006  0.6325591E+02  0.7818608E-02  0.1395130E+00
          2   -1    0    0  502    0  0.00000000000E+00  0.00000000000E+00  0.21489469276E+04  0.21489469276E+04  0.00000000000E+00 0. -1.
          1   -1    0    0  501    0 -0.00000000000E+00 -0.00000000000E+00 -0.98826698968E+02  0.98826698968E+02  0.00000000000E+00 0. -1.
         25    2    1    2    0    0  0.21783317219E+02  0.28008346422E+02  0.85568436516E+02  0.15558188839E+03  0.12499914515E+03 0.  0.
          2    1    1    2  501    0 -0.69914462233E+02  0.46211679361E+01 -0.44040183241E+02  0.82758231992E+02  0.00000000000E+00 0. -1.
          1    1    1    2  502    0  0.48131145015E+02 -0.32629514358E+02  0.20085919753E+04  0.20094335061E+04  0.00000000000E+00 0. -1.
         22    1    3    3    0    0 -0.13854658342E+02  0.95453130287E+00  0.10563556056E+03  0.10654451813E+03  0.00000000000E+00 0.  1.
         22    1    3    3    0    0  0.35637975561E+02  0.27053815119E+02 -0.20067124044E+02  0.49037370260E+02  0.00000000000E+00 0.  1.
</event>
<event>
 7    1  0.5789396E-006  0.1558623E+03  0.7818608E-02  0.1403759E+00
          2   -1    0    0  502    0  0.00000000000E+00  0.00000000000E+00  0.33021626723E+03  0.33021626723E+03  0.00000000000E+00 0. -1.
          1   -1    0    0  501    0 -0.00000000000E+00 -0.00000000000E+00 -0.12459767510E+04  0.12459767510E+04  0.00000000000E+00 0. -1.
         25    2    1    2    0    0  0.14411849517E+03 -0.41014930778E+01 -0.54851427567E+02  0.19854158206E+03  0.12499247100E+03 0.  0.
          2    1    1    2  501    0  0.13570913249E+02  0.17365937789E+02 -0.10949284036E+04  0.10951501972E+04  0.00000000000E+00 0. -1.
          1    1    1    2  502    0 -0.15768940842E+03 -0.13264444711E+02  0.23401934742E+03  0.28250123892E+03  0.00000000000E+00 0. -1.
         22    1    3    3    0    0  0.10326690212E+03  0.50062634396E+02 -0.59583375202E+01  0.11491658811E+03  0.00000000000E+00 0.  1.
         22    1    3    3    0    0  0.40851593048E+02 -0.54164127473E+02 -0.48893090047E+02  0.83624993954E+02  0.00000000000E+00 0.  1.
</event>
<event>
 7    1  0.5789396E-006  0.1260357E+03  0.7818608E-02  0.1410509E+00
          2   -1    0    0  502    0  0.00000000000E+00  0.00000000000E+00  0.14254643466E+04  0.14254643466E+04  0.00000000000E+00 0. -1.
          1   -1    0    0  501    0 -0.00000000000E+00 -0.00000000000E+00 -0.12588313389E+04  0.12588313389E+04  0.00000000000E+00 0. -1.
         25    2    1    2    0    0 -0.99196185524E+02 -0.10677053994E+03  0.61760167022E+03  0.64675866229E+03  0.12500045108E+03 0.  0.
          2    1    1    2  501    0  0.18319543648E+02  0.18239554592E+02 -0.12395859026E+04  0.12398554339E+04  0.00000000000E+00 0. -1.
          1    1    1    2  502    0  0.80876641876E+02  0.88530985352E+02  0.78861724005E+03  0.79768158927E+03  0.00000000000E+00 0. -1.
         22    1    3    3    0    0  0.24087630656E+02  0.21595590139E+01  0.12776552285E+03  0.13003425116E+03  0.00000000000E+00 0. -1.
         22    1    3    3    0    0 -0.12328381618E+03 -0.10893009896E+03  0.48983614737E+03  0.51672441114E+03  0.00000000000E+00 0. -1.
</event>
<event>
 7    1  0.5789396E-006  0.5935598E+02  0.7818608E-02  0.1445399E+00
          2   -1    0    0  502    0  0.00000000000E+00  0.00000000000E+00  0.28466423791E+03  0.28466423791E+03  0.00000000000E+00 0. -1.
          1   -1    0    0  501    0 -0.00000000000E+00 -0.00000000000E+00 -0.65002717456E+03  0.65002717456E+03  0.00000000000E+00 0. -1.
         25    2    1    2    0    0 -0.75214393752E+02  0.19939703628E+02 -0.11490541591E+03  0.18676998305E+03  0.12499990062E+03 0.  0.
          2    1    1    2  501    0  0.34957177710E+02  0.23462441593E+02 -0.49476049915E+03  0.49654852931E+03  0.00000000000E+00 0. -1.
          1    1    1    2  502    0  0.40257216042E+02 -0.43402145221E+02  0.24430297841E+03  0.25137290012E+03  0.00000000000E+00 0. -1.
         22    1    3    3    0    0  0.28239981145E+02  0.20219822935E+02 -0.37727649574E+01  0.34936678864E+02  0.00000000000E+00 0. -1.
         22    1    3    3    0    0 -0.10345437490E+03 -0.28011930725E+00 -0.11113265095E+03  0.15183330418E+03  0.00000000000E+00 0. -1.
</event>
<event>
 7    1  0.5789396E-006  0.2324714E+03  0.7818608E-02  0.1208588E+00
          2   -1    0    0  502    0  0.00000000000E+00  0.00000000000E+00  0.15811443807E+04  0.15811443807E+04  0.00000000000E+00 0. -1.
          1   -1    0    0  501    0 -0.00000000000E+00 -0.00000000000E+00 -0.18133411592E+03  0.18133411592E+03  0.00000000000E+00 0. -1.
         25    2    1    2    0    0  0.18494387104E+03  0.14247484189E+03  0.37094324452E+02  0.26740252539E+03  0.12499922269E+03 0.  0.
          2    1    1    2  501    0 -0.66309077485E+02  0.58885764229E+02 -0.21515019241E+02  0.91254167240E+02  0.00000000000E+00 0. -1.
          1    1    1    2  502    0 -0.11863479355E+03 -0.20136060612E+03  0.13842309595E+04  0.14038218039E+04  0.00000000000E+00 0. -1.
         22    1    3    3    0    0  0.43203847049E+02  0.11087417129E+03  0.25686615613E+02  0.12173518998E+03  0.00000000000E+00 0. -1.
         22    1    3    3    0    0  0.14174002399E+03  0.31600670599E+02  0.11407708839E+02  0.14566733541E+03  0.00000000000E+00 0. -1.
</event>
<event>
 7    1  0.5789396E-006  0.1195088E+03  0.7818608E-02  0.1359503E+00
          2   -1    0    0  502    0  0.00000000000E+00  0.00000000000E+00  0.11078130102E+04  0.11078130102E+04  0.00000000000E+00 0. -1.
          1   -1    0    0  501    0 -0.00000000000E+00 -0.00000000000E+00 -0.11067306486E+04  0.11067306486E+04  0.00000000000E+00 0. -1.
         25    2    1    2    0    0  0.13533223639E+03 -0.85301297860E+02  0.52422619676E+03  0.56216507657E+03  0.12500136929E+03 0.  0.
          2    1    1    2  501    0 -0.10373043518E+03  0.58859302356E+02 -0.10837335853E+04  0.10902765266E+04  0.00000000000E+00 0. -1.
          1    1    1    2  502    0 -0.31601801210E+02  0.26441995504E+02  0.56058975014E+03  0.56210205562E+03  0.00000000000E+00 0. -1.
         22    1    3    3    0    0 -0.11591868076E+02  0.94781902102E+01  0.76754421457E+01  0.16826167338E+02  0.00000000000E+00 0.  1.
         22    1    3    3    0    0  0.14692410447E+03 -0.94779488070E+02  0.51655075461E+03  0.54533890923E+03  0.00000000000E+00 0.  1.
</event>
<event>
 7    1  0.5789396E-006  0.6840038E+02  0.7818608E-02  0.1415999E+00
          2   -1    0    0  502    0  0.00000000000E+00  0.00000000000E+00  0.97981922009E+03  0.97981922009E+03  0.00000000000E+00 0. -1.
          1   -1    0    0  501    0 -0.00000000000E+00 -0.00000000000E+00 -0.32202372793E+03  0.32202372793E+03  0.00000000000E+00 0. -1.
         25    2    1    2    0    0 -0.13594284625E+02  0.39496674235E+02  0.25485036533E+01  0.13181875975E+03  0.12499959480E+03 0.  0.
          2    1    1    2  501    0  0.59237879714E+02 -0.39053063553E+02 -0.25191409186E+03  0.26171545205E+03  0.00000000000E+00 0. -1.
          1    1    1    2  502    0 -0.45643595089E+02 -0.44361068179E+00  0.90716108036E+03  0.90830873622E+03  0.00000000000E+00 0. -1.
         22    1    3    3    0    0  0.18783469695E+02  0.48032993261E+02 -0.48481144317E+02  0.70784239275E+02  0.00000000000E+00 0.  1.
         22    1    3    3    0    0 -0.32377754320E+02 -0.85363190266E+01  0.51029647970E+02  0.61034520472E+02  0.00000000000E+00 0.  1.
</event>
<event>
 7    1  0.5789396E-006  0.5460750E+02  0.7818608E-02  0.1441000E+00
          2   -1    0    0  502    0  0.00000000000E+00  0.00000000000E+00  0.66561109323E+03  0.66561109323E+03  0.00000000000E+00 0. -1.
          1   -1    0    0  501    0 -0.00000000000E+00 -0.00000000000E+00 -0.25950406232E+03  0.25950406232E+03  0.00000000000E+00 0. -1.
         25    2    1    2    0    0  0.10955369144E+02 -0.95102801422E+00  0.36514248673E+03  0.38610174255E+03  0.12499838165E+03 0.  0.
          2    1    1    2  501    0  0.15136837899E+02 -0.52467654715E+02 -0.24291413174E+03  0.24897641264E+03  0.00000000000E+00 0. -1.
          1    1    1    2  502    0 -0.26092207044E+02  0.53418682729E+02  0.28387867593E+03  0.29003700036E+03  0.00000000000E+00 0. -1.
         22    1    3    3    0    0  0.55825152367E+02 -0.33850835075E+02  0.14470487960E+03  0.15875083890E+03  0.00000000000E+00 0.  1.
         22    1    3    3    0    0 -0.44869783222E+02  0.32899807061E+02  0.22043760713E+03  0.22735090365E+03  0.00000000000E+00 0.  1.
</event>
<event>
 7    1  0.5789396E-006  0.3025787E+03  0.7818608E-02  0.1111319E+00
          2   -1    0    0  502    0  0.00000000000E+00  0.00000000000E+00  0.52100641318E+03  0.52100641318E+03  0.00000000000E+00 0. -1.
          1   -1    0    0  501    0 -0.00000000000E+00 -0.00000000000E+00 -0.14556949007E+04  0.14556949007E+04  0.00000000000E+00 0. -1.
         25    2    1    2    0    0 -0.12582069916E+03  0.66963581011E+02  0.11272107410E+02  0.18991331546E+03  0.12500014986E+03 0.  0.
          2    1    1    2  501    0  0.22157316690E+03 -0.25591333298E+03 -0.13168546460E+04  0.13596663050E+04  0.00000000000E+00 0. -1.
          1    1    1    2  502    0 -0.95752467742E+02  0.18894975197E+03  0.37089405108E+03  0.42712169340E+03  0.00000000000E+00 0. -1.
         22    1    3    3    0    0 -0.96249837096E+02 -0.18937613868E+02 -0.19078909894E+01  0.98113732005E+02  0.00000000000E+00 0.  1.
         22    1    3    3    0    0 -0.29570862060E+02  0.85901194879E+02  0.13179998399E+02  0.91799583454E+02  0.00000000000E+00 0.  1.
</event>
<event>
 7    1  0.5789396E-006  0.6158480E+02  0.7818608E-02  0.1504661E+00
          2   -1    0    0  502    0  0.00000000000E+00  0.00000000000E+00  0.13267439676E+04  0.13267439676E+04  0.00000000000E+00 0. -1.
          1   -1    0    0  501    0 -0.00000000000E+00 -0.00000000000E+00 -0.28717876294E+03  0.28717876294E+03  0.00000000000E+00 0. -1.
         25    2    1    2    0    0  0.34696571256E+02  0.31513263631E+02 -0.19758912795E+02  0.13495334388E+03  0.12500021019E+03 0.  0.
          2    1    1    2  501    0 -0.94802805429E+01  0.24870770367E+02 -0.20822352036E+03  0.20991775858E+03  0.00000000000E+00 0. -1.
          1    1    1    2  502    0 -0.25216290713E+02 -0.56384033997E+02  0.12675476378E+04  0.12690516281E+04  0.00000000000E+00 0. -1.
         22    1    3    3    0    0  0.55555066970E+01 -0.32355111153E+02  0.33447629822E+02  0.46866414553E+02  0.00000000000E+00 0.  1.
         22    1    3    3    0    0  0.29141064559E+02  0.63868374784E+02 -0.53206542617E+02  0.88086929327E+02  0.00000000000E+00 0.  1.
</event>
<event>
 7    1  0.5789396E-006  0.6594649E+02  0.7818608E-02  0.1402639E+00
          2   -1    0    0  502    0  0.00000000000E+00  0.00000000000E+00  0.54379911411E+03  0.54379911411E+03  0.00000000000E+00 0. -1.
          1   -1    0    0  501    0 -0.00000000000E+00 -0.00000000000E+00 -0.45661325453E+03  0.45661325453E+03  0.00000000000E+00 0. -1.
         25    2    1    2    0    0  0.69539344700E+02  0.17137229090E+02 -0.58117658291E+02  0.15534491623E+03  0.12499990285E+03 0.  0.
          2    1    1    2  501    0 -0.34869283870E+02  0.39316728156E+02 -0.34567126080E+03  0.34964309319E+03  0.00000000000E+00 0. -1.
          1    1    1    2  502    0 -0.34670060830E+02 -0.56453957245E+02  0.49097477868E+03  0.49542435921E+03  0.00000000000E+00 0. -1.
         22    1    3    3    0    0 -0.84718273449E+01  0.13835494441E+02  0.32138852485E+02  0.36001369475E+02  0.00000000000E+00 0.  1.
         22    1    3    3    0    0  0.78011172045E+02  0.33017346486E+01 -0.90256510776E+02  0.11934354676E+03  0.00000000000E+00 0.  1.
</event>
<event>
 7    1  0.5789396E-006  0.7456316E+02  0.7818608E-02  0.1442880E+00
          2   -1    0    0  502    0  0.00000000000E+00  0.00000000000E+00  0.81230769605E+03  0.81230769605E+03  0.00000000000E+00 0. -1.
          1   -1    0    0  501    0 -0.00000000000E+00 -0.00000000000E+00 -0.56234281902E+03  0.56234281902E+03  0.00000000000E+00 0. -1.
         25    2    1    2    0    0 -0.85553688622E+02 -0.61162942989E+02  0.29804476934E+03  0.33987627326E+03  0.12499942944E+03 0.  0.
          2    1    1    2  501    0  0.52490107192E+02  0.52627681425E+02 -0.53827922796E+03  0.54338698131E+03  0.00000000000E+00 0. -1.
          1    1    1    2  502    0  0.33063581430E+02  0.85352615641E+01  0.49019933565E+03  0.49138726050E+03  0.00000000000E+00 0. -1.
         22    1    3    3    0    0  0.12777468254E+02  0.18313704439E+02  0.11663850316E+03  0.11875687721E+03  0.00000000000E+00 0.  1.
         22    1    3    3    0    0 -0.98331156876E+02 -0.79476647428E+02  0.18140626618E+03  0.22111939605E+03  0.00000000000E+00 0.  1.
</event>
<event>
 7    1  0.5789396E-006  0.1120460E+03  0.7818608E-02  0.1425616E+00
          2   -1    0    0  502    0  0.00000000000E+00  0.00000000000E+00  0.16207692899E+03  0.16207692899E+03  0.00000000000E+00 0. -1.
          1   -1    0    0  501    0 -0.00000000000E+00 -0.00000000000E+00 -0.19354302667E+04  0.19354302667E+04  0.00000000000E+00 0. -1.
         25    2    1    2    0    0  0.11287481329E+02  0.12805753426E+03 -0.52189969845E+03  0.55184229616E+03  0.12499794110E+03 0.  0.
          2    1    1    2  501    0 -0.25955827071E+02 -0.10673486007E+03 -0.13952453385E+04  0.13995626423E+04  0.00000000000E+00 0. -1.
          1    1    1    2  502    0  0.14668345743E+02 -0.21322674182E+02  0.14379169920E+03  0.14610225720E+03  0.00000000000E+00 0. -1.
         22    1    3    3    0    0 -0.43021429879E+02  0.12866221378E+02 -0.21370922996E+03  0.21837586416E+03  0.00000000000E+00 0.  1.
         22    1    3    3    0    0  0.54308911208E+02  0.11519131288E+03 -0.30819046850E+03  0.33346643200E+03  0.00000000000E+00 0.  1.
</event>
<event>
 7    1  0.5789396E-006  0.3829453E+02  0.7818608E-02  0.1608233E+00
          2   -1    0    0  502    0  0.00000000000E+00  0.00000000000E+00  0.34598912997E+03  0.34598912997E+03  0.00000000000E+00 0. -1.
          1   -1    0    0  501    0 -0.00000000000E+00 -0.00000000000E+00 -0.49539306837E+03  0.49539306837E+03  0.00000000000E+00 0. -1.
         25    2    1    2    0    0 -0.13689722577E+02  0.30482167161E+02  0.39089165711E+02  0.13516166671E+03  0.12499656897E+03 0.  0.
          2    1    1    2  501    0 -0.19412520430E+02 -0.10595853155E+02 -0.44564090596E+03  0.44618934895E+03  0.00000000000E+00 0. -1.
          1    1    1    2  502    0  0.33102243008E+02 -0.19886314006E+02  0.25714780184E+03  0.26003118268E+03  0.00000000000E+00 0. -1.
         22    1    3    3    0    0  0.44037988823E+02 -0.23823192933E+02  0.17155317982E+02  0.52926306466E+02  0.00000000000E+00 0. -1.
         22    1    3    3    0    0 -0.57727711400E+02  0.54305360094E+02  0.21933847729E+02  0.82235360245E+02  0.00000000000E+00 0. -1.
</event>
<event>
 7    1  0.5789396E-006  0.7496900E+02  0.7818608E-02  0.1500109E+00
          2   -1    0    0  502    0  0.00000000000E+00  0.00000000000E+00  0.14565323277E+03  0.14565323277E+03  0.00000000000E+00 0. -1.
          1   -1    0    0  501    0 -0.00000000000E+00 -0.00000000000E+00 -0.37119868591E+03  0.37119868591E+03  0.00000000000E+00 0. -1.
         25    2    1    2    0    0 -0.26541654481E+02 -0.52338957636E+02  0.60176580511E+02  0.15063083085E+03  0.12499840179E+03 0.  0.
          2    1    1    2  501    0  0.48292898268E+02  0.58314023867E+02 -0.31797370660E+03  0.32686389751E+03  0.00000000000E+00 0. -1.
          1    1    1    2  502    0 -0.21751243787E+02 -0.59750662309E+01  0.32251672949E+02  0.39357190330E+02  0.00000000000E+00 0. -1.
         22    1    3    3    0    0 -0.37543702581E+02 -0.57682009670E+02 -0.18293137836E+02  0.71213641495E+02  0.00000000000E+00 0. -1.
         22    1    3    3    0    0  0.11002048100E+02  0.53430520338E+01  0.78469718347E+02  0.79417189354E+02  0.00000000000E+00 0. -1.
</event>
<event>
 7    1  0.5789396E-006  0.6407590E+02  0.7818608E-02  0.1462314E+00
          2   -1    0    0  502    0  0.00000000000E+00  0.00000000000E+00  0.22807126911E+04  0.22807126911E+04  0.00000000000E+00 0. -1.
          1   -1    0    0  501    0 -0.00000000000E+00 -0.00000000000E+00 -0.38651211638E+02  0.38651211638E+02  0.00000000000E+00 0. -1.
         25    2    1    2    0    0 -0.18218557699E+02 -0.93711021163E+02  0.85486964376E+03  0.86921867368E+03  0.12500129405E+03 0.  0.
          2    1    1    2  501    0  0.92094365899E+01  0.33199933195E+02 -0.21181444451E+02  0.40443823700E+02  0.00000000000E+00 0. -1.
          1    1    1    2  502    0  0.90091211089E+01  0.60511087968E+02  0.14083732801E+04  0.14097014053E+04  0.00000000000E+00 0. -1.
         22    1    3    3    0    0 -0.68896786350E+02 -0.42423102371E+02  0.35025474687E+03  0.35947861479E+03  0.00000000000E+00 0. -1.
         22    1    3    3    0    0  0.50678228651E+02 -0.51287918792E+02  0.50461489689E+03  0.50974005889E+03  0.00000000000E+00 0. -1.
</event>
<event>
 7    1  0.5789396E-006  0.2175969E+03  0.7818608E-02  0.1324787E+00
          2   -1    0    0  502    0  0.00000000000E+00  0.00000000000E+00  0.95424975509E+03  0.95424975509E+03  0.00000000000E+00 0. -1.
          1   -1    0    0  501    0 -0.00000000000E+00 -0.00000000000E+00 -0.95344076674E+02  0.95344076674E+02  0.00000000000E+00 0. -1.
         25    2    1    2    0    0 -0.16708104720E+03 -0.11929480227E+03  0.36056662984E+03  0.43333638889E+03  0.12499922080E+03 0.  0.
          2    1    1    2  501    0  0.19611189600E+03  0.10980713189E+03  0.15844771323E+03  0.27499665415E+03  0.00000000000E+00 0. -1.
          1    1    1    2  502    0 -0.29030848801E+02  0.94876703776E+01  0.33989133535E+03  0.34126078872E+03  0.00000000000E+00 0. -1.
         22    1    3    3    0    0 -0.17923979765E+03 -0.10546428496E+03  0.26941957023E+03  0.34034765356E+03  0.00000000000E+00 0. -1.
         22    1    3    3    0    0  0.12158750452E+02 -0.13830517306E+02  0.91147059613E+02  0.92988735327E+02  0.00000000000E+00 0. -1.
</event>
<event>
 7    1  0.5789396E-006  0.6669760E+02  0.7818608E-02  0.1473989E+00
          2   -1    0    0  502    0  0.00000000000E+00  0.00000000000E+00  0.16645244032E+04  0.16645244032E+04  0.00000000000E+00 0. -1.
          1   -1    0    0  501    0 -0.00000000000E+00 -0.00000000000E+00 -0.74551865081E+03  0.74551865081E+03  0.00000000000E+00 0. -1.
         25    2    1    2    0    0  0.36084921871E+02 -0.12840231668E+02  0.10161559982E+03  0.16558342861E+03  0.12500059427E+03 0.  0.
          2    1    1    2  501    0  0.22387341703E+02 -0.20621044010E+02 -0.71246848956E+03  0.71311834161E+03  0.00000000000E+00 0. -1.
          1    1    1    2  502    0 -0.58472263574E+02  0.33461275677E+02  0.15298586421E+04  0.15313412838E+04  0.00000000000E+00 0. -1.
         22    1    3    3    0    0  0.48441715008E+02  0.21699283490E+02 -0.45349483465E+01  0.53273111542E+02  0.00000000000E+00 0.  1.
         22    1    3    3    0    0 -0.12356793137E+02 -0.34539515157E+02  0.10615054816E+03  0.11231031706E+03  0.00000000000E+00 0.  1.
</event>
<event>
 7    1  0.5789396E-006  0.6374541E+02  0.7818608E-02  0.1426760E+00
          2   -1    0    0  502    0  0.00000000000E+00  0.00000000000E+00  0.23284331762E+04  0.23284331762E+04  0.00000000000E+00 0. -1.
          1   -1    0    0  501    0 -0.00000000000E+00 -0.00000000000E+00 -0.40273947273E+03  0.40273947273E+03  0.00000000000E+00 0. -1.
         25    2    1    2    0    0 -0.83175502602E+02  0.47873719674E+02  0.25365209793E+03  0.29862053310E+03  0.12499911494E+03 0.  0.
          2    1    1    2  501    0  0.45025416358E+02  0.25216365543E+01 -0.37842953099E+03  0.38110701475E+03  0.00000000000E+00 0. -1.
          1    1    1    2  502    0  0.38150086245E+02 -0.50395356229E+02  0.20504711365E+04  0.20514451010E+04  0.00000000000E+00 0. -1.
         22    1    3    3    0    0  0.14018937131E+02  0.13608571618E+02 -0.50219358344E+01  0.20172844601E+02  0.00000000000E+00 0.  1.
         22    1    3    3    0    0 -0.97194439733E+02  0.34265148056E+02  0.25867403377E+03  0.27844768850E+03  0.00000000000E+00 0.  1.
</event>
<event>
 7    1  0.5789396E-006  0.4649840E+02  0.7818608E-02  0.1470752E+00
          2   -1    0    0  502    0  0.00000000000E+00  0.00000000000E+00  0.19252758458E+03  0.19252758458E+03  0.00000000000E+00 0. -1.
          1   -1    0    0  501    0 -0.00000000000E+00 -0.00000000000E+00 -0.45229647308E+03  0.45229647308E+03  0.00000000000E+00 0. -1.
         25    2    1    2    0    0 -0.27126184813E+02 -0.61089802565E+02 -0.19578727290E+03  0.24172026407E+03  0.12501294314E+03 0.  0.
          2    1    1    2  501    0  0.41894641365E+02  0.18921016573E+02 -0.22826767997E+03  0.23285038021E+03  0.00000000000E+00 0. -1.
          1    1    1    2  502    0 -0.14768456552E+02  0.42168785992E+02  0.16428606437E+03  0.17025341338E+03  0.00000000000E+00 0. -1.
         22    1    3    3    0    0  0.27108458724E+02 -0.63024214228E+02 -0.46514495453E+02  0.82888590293E+02  0.00000000000E+00 0.  1.
         22    1    3    3    0    0 -0.54234643537E+02  0.19344116632E+01 -0.14927277744E+03  0.15883167377E+03  0.00000000000E+00 0.  1.
</event>
<event>
 7    1  0.5789396E-006  0.1820599E+03  0.7818608E-02  0.1277384E+00
          2   -1    0    0  502    0  0.00000000000E+00  0.00000000000E+00  0.25410903725E+04  0.25410903725E+04  0.00000000000E+00 0. -1.
          1   -1    0    0  501    0 -0.00000000000E+00 -0.00000000000E+00 -0.20585869730E+03  0.20585869730E+03  0.00000000000E+00 0. -1.
         25    2    1    2    0    0 -0.15976062103E+03 -0.89172116288E+02  0.65213952090E+03  0.68875511830E+03  0.12499014328E+03 0.  0.
          2    1    1    2  501    0  0.17894771959E+03  0.36058646535E+02 -0.14259268996E+03  0.23163589439E+03  0.00000000000E+00 0. -1.
          1    1    1    2  502    0 -0.19187098568E+02  0.53113469753E+02  0.18256848443E+04  0.18265580571E+04  0.00000000000E+00 0. -1.
         22    1    3    3    0    0 -0.41498416393E+02  0.15881285990E+02  0.53381483394E+02  0.69454420861E+02  0.00000000000E+00 0. -1.
         22    1    3    3    0    0 -0.11826220463E+03 -0.10505340228E+03  0.59875803750E+03  0.61930069744E+03  0.00000000000E+00 0. -1.
</event>
<event>
 7    1  0.5789396E-006  0.1004931E+03  0.7818608E-02  0.1352436E+00
          2   -1    0    0  502    0  0.00000000000E+00  0.00000000000E+00  0.29843056168E+04  0.29843056168E+04  0.00000000000E+00 0. -1.
          1   -1    0    0  501    0 -0.00000000000E+00 -0.00000000000E+00 -0.81838521909E+02  0.81838521909E+02  0.00000000000E+00 0. -1.
         25    2    1    2    0    0 -0.43437679657E+02  0.39385358793E+02  0.53048687898E+03  0.54816346507E+03  0.12501526772E+03 0.  0.
          2    1    1    2  501    0  0.95450203558E+02 -0.40209444533E+02 -0.35839341516E+02  0.10959926637E+03  0.00000000000E+00 0. -1.
          1    1    1    2  502    0 -0.52012523901E+02  0.82408574004E+00  0.24078195574E+04  0.24083814073E+04  0.00000000000E+00 0. -1.
         22    1    3    3    0    0 -0.17081104547E+02  0.95447895062E+00  0.47666044288E+03  0.47696735000E+03  0.00000000000E+00 0.  1.
         22    1    3    3    0    0 -0.26356575110E+02  0.38430879843E+02  0.53826436103E+02  0.71196115066E+02  0.00000000000E+00 0.  1.
</event>
<event>
 7    1  0.5789396E-006  0.5629543E+02  0.7818608E-02  0.1471883E+00
          2   -1    0    0  502    0  0.00000000000E+00  0.00000000000E+00  0.27561376691E+03  0.27561376691E+03  0.00000000000E+00 0. -1.
          1   -1    0    0  501    0 -0.00000000000E+00 -0.00000000000E+00 -0.70005887481E+03  0.70005887481E+03  0.00000000000E+00 0. -1.
         25    2    1    2    0    0  0.51054636219E+02 -0.50321994922E+02 -0.33193356863E+02  0.14786600916E+03  0.12499471458E+03 0.  0.
          2    1    1    2  501    0 -0.54423206749E+02  0.13870020360E+02 -0.60668815101E+03  0.60928218049E+03  0.00000000000E+00 0. -1.
          1    1    1    2  502    0  0.33685705303E+01  0.36451974562E+02  0.21543639997E+03  0.21852445206E+03  0.00000000000E+00 0. -1.
         22    1    3    3    0    0 -0.72498009248E+01  0.28051818122E+02  0.21347441997E+02  0.35988573092E+02  0.00000000000E+00 0.  1.
         22    1    3    3    0    0  0.58304437144E+02 -0.78373813045E+02 -0.54540798859E+02  0.11187743607E+03  0.00000000000E+00 0.  1.
</event>
<event>
 7    1  0.5789396E-006  0.1321885E+03  0.7818608E-02  0.1262122E+00
          2   -1    0    0  502    0  0.00000000000E+00  0.00000000000E+00  0.12181115636E+04  0.12181115636E+04  0.00000000000E+00 0. -1.
          1   -1    0    0  501    0 -0.00000000000E+00 -0.00000000000E+00 -0.11329937570E+04  0.11329937570E+04  0.00000000000E+00 0. -1.
         25    2    1    2    0    0  0.12012809637E+03 -0.10980607319E+02 -0.40077561916E+02  0.17827571922E+03  0.12499875127E+03 0.  0.
          2    1    1    2  501    0 -0.93416710899E+02  0.97085718800E+02 -0.10176016615E+04  0.10264820798E+04  0.00000000000E+00 0. -1.
          1    1    1    2  502    0 -0.26711385471E+02 -0.86105111481E+02  0.11427970300E+04  0.11463475216E+04  0.00000000000E+00 0. -1.
         22    1    3    3    0    0  0.58868842987E+02 -0.65365867303E+02 -0.21231084130E+01  0.87992868303E+02  0.00000000000E+00 0.  1.
         22    1    3    3    0    0  0.61259253382E+02  0.54385259985E+02 -0.37954453503E+02  0.90282850915E+02  0.00000000000E+00 0.  1.
</event>
<event>
 7    1  0.5789396E-006  0.6555819E+02  0.7818608E-02  0.1396164E+00
          2   -1    0    0  502    0  0.00000000000E+00  0.00000000000E+00  0.13651401079E+04  0.13651401079E+04  0.00000000000E+00 0. -1.
          1   -1    0    0  501    0 -0.00000000000E+00 -0.00000000000E+00 -0.29235147039E+03  0.29235147039E+03  0.00000000000E+00 0. -1.
         25    2    1    2    0    0 -0.10754240493E+03  0.37262834022E+02  0.24177675289E+03  0.29501892947E+03  0.12500513129E+03 0.  0.
          2    1    1    2  501    0  0.43577738895E+02 -0.34604957364E+02 -0.26187010695E+03  0.26771715544E+03  0.00000000000E+00 0. -1.
          1    1    1    2  502    0  0.63964666035E+02 -0.26578766588E+01  0.10928819916E+04  0.10947554934E+04  0.00000000000E+00 0. -1.
         22    1    3    3    0    0 -0.12594314837E+03  0.30381454798E+02  0.24295367481E+03  0.27533833282E+03  0.00000000000E+00 0. -1.
         22    1    3    3    0    0  0.18400743436E+02  0.68813792243E+01 -0.11769219275E+01  0.19680596644E+02  0.00000000000E+00 0. -1.
</event>
<event>
 7    1  0.5789396E-006  0.6170161E+02  0.7818608E-02  0.1544461E+00
          2   -1    0    0  502    0  0.00000000000E+00  0.00000000000E+00  0.63237122554E+03  0.63237122554E+03  0.00000000000E+00 0. -1.
          1   -1    0    0  501    0 -0.00000000000E+00 -0.00000000000E+00 -0.18592998385E+03  0.18592998385E+03  0.00000000000E+00 0. -1.
         25    2    1    2    0    0  0.44668228170E+02 -0.17495641115E+02  0.55335387366E+02  0.14487215977E+03  0.12499835805E+03 0.  0.
          2    1    1    2  501    0 -0.62336102177E+02  0.73152348619E+01 -0.13397732939E+03  0.14795008309E+03  0.00000000000E+00 0. -1.
          1    1    1    2  502    0  0.17667874008E+02  0.10180406254E+02  0.52508318372E+03  0.52547896653E+03  0.00000000000E+00 0. -1.
         22    1    3    3    0    0  0.48972079576E+02 -0.28119818635E+02 -0.26399658322E+02  0.62337233958E+02  0.00000000000E+00 0.  1.
         22    1    3    3    0    0 -0.43038514066E+01  0.10624177519E+02  0.81735045688E+02  0.82534925811E+02  0.00000000000E+00 0.  1.
</event>
<event>
 7    1  0.5789396E-006  0.2291128E+03  0.7818608E-02  0.1169867E+00
          2   -1    0    0  502    0  0.00000000000E+00  0.00000000000E+00  0.88630078397E+03  0.88630078397E+03  0.00000000000E+00 0. -1.
          1   -1    0    0  501    0 -0.00000000000E+00 -0.00000000000E+00 -0.10883073555E+04  0.10883073555E+04  0.00000000000E+00 0. -1.
         25    2    1    2    0    0  0.16960948550E+03  0.24033455469E+02  0.77303124366E+02  0.22571159378E+03  0.12499986389E+03 0.  0.
          2    1    1    2  501    0  0.25574973127E+02  0.13572134158E+03 -0.98751006091E+03  0.99712109706E+03  0.00000000000E+00 0. -1.
          1    1    1    2  502    0 -0.19518445863E+03 -0.15975479705E+03  0.70820036504E+03  0.75177544860E+03  0.00000000000E+00 0. -1.
         22    1    3    3    0    0  0.53520164101E+02 -0.17619505218E+02 -0.28562408764E+02  0.63171719336E+02  0.00000000000E+00 0. -1.
         22    1    3    3    0    0  0.11608932140E+03  0.41652960687E+02  0.10586553313E+03  0.16253987444E+03  0.00000000000E+00 0. -1.
</event>
<event>
 7    1  0.5789396E-006  0.8632662E+02  0.7818608E-02  0.1389703E+00
          2   -1    0    0  502    0  0.00000000000E+00  0.00000000000E+00  0.98446913980E+02  0.98446913980E+02  0.00000000000E+00 0. -1.
          1   -1    0    0  501    0 -0.00000000000E+00 -0.00000000000E+00 -0.40053333857E+03  0.40053333857E+03  0.00000000000E+00 0. -1.
         25    2    1    2    0    0 -0.51469597559E+02  0.53095958359E+02 -0.16396099112E+03  0.21903666091E+03  0.12500220777E+03 0.  0.
          2    1    1    2  501    0  0.29138211004E+02  0.33634409802E+02 -0.17685580990E+03  0.18236854542E+03  0.00000000000E+00 0. -1.
          1    1    1    2  502    0  0.22331386556E+02 -0.86730368162E+02  0.38730376428E+02  0.97575046222E+02  0.00000000000E+00 0. -1.
         22    1    3    3    0    0  0.29446275763E+02 -0.20470749615E+02 -0.41869534508E+02  0.55128873251E+02  0.00000000000E+00 0. -1.
         22    1    3    3    0    0 -0.80915873322E+02  0.73566707974E+02 -0.12209145661E+03  0.16390778766E+03  0.00000000000E+00 0. -1.
</event>
<event>
 7    1  0.5789396E-006  0.8790214E+02  0.7818608E-02  0.1347106E+00
          2   -1    0    0  502    0  0.00000000000E+00  0.00000000000E+00  0.93661836290E+03  0.93661836290E+03  0.00000000000E+00 0. -1.
          1   -1    0    0  501    0 -0.00000000000E+00 -0.00000000000E+00 -0.53149616815E+03  0.53149616815E+03  0.00000000000E+00 0. -1.
         25    2    1    2    0    0  0.87506514485E+02 -0.17673269451E+02  0.66733418142E+02  0.16748946594E+03  0.12501854892E+03 0.  0.
          2    1    1    2  501    0 -0.10174918422E+02  0.61400431321E+02 -0.47668163853E+03  0.48072749707E+03  0.00000000000E+00 0. -1.
          1    1    1    2  502    0 -0.77331596063E+02 -0.43727161870E+02  0.81507041514E+03  0.81989756804E+03  0.00000000000E+00 0. -1.
         22    1    3    3    0    0  0.10140006776E+03 -0.43736776424E+02  0.78718329925E+02  0.13561509805E+03  0.00000000000E+00 0.  1.
         22    1    3    3    0    0 -0.13893553271E+02  0.26063506973E+02 -0.11984911783E+02  0.31874367894E+02  0.00000000000E+00 0.  1.
</event>
<event>
 7    1  0.5789396E-006  0.1274303E+03  0.7818608E-02  0.1292612E+00
          2   -1    0    0  502    0  0.00000000000E+00  0.00000000000E+00  0.21202433426E+04  0.21202433426E+04  0.00000000000E+00 0. -1.
          1   -1    0    0  501    0 -0.00000000000E+00 -0.00000000000E+00 -0.28639029679E+03  0.28639029679E+03  0.00000000000E+00 0. -1.
         25    2    1    2    0    0 -0.38538491126E+02 -0.59528275601E+02  0.10662032157E+04  0.10758452111E+04  0.12499916088E+03 0.  0.
          2    1    1    2  501    0  0.10766517663E+03  0.69758700202E+02 -0.26571497167E+03  0.29506357397E+03  0.00000000000E+00 0. -1.
          1    1    1    2  502    0 -0.69126685502E+02 -0.10230424601E+02  0.10333648018E+04  0.10357248543E+04  0.00000000000E+00 0. -1.
         22    1    3    3    0    0  0.43725621744E+02 -0.34104601717E+02  0.33039279053E+03  0.33501410402E+03  0.00000000000E+00 0.  1.
         22    1    3    3    0    0 -0.82264112870E+02 -0.25423673884E+02  0.73581042516E+03  0.74083110709E+03  0.00000000000E+00 0.  1.
</event>
<event>
 7    1  0.5789396E-006  0.7658220E+02  0.7818608E-02  0.1365223E+00
          2   -1    0    0  502    0  0.00000000000E+00  0.00000000000E+00  0.30715318754E+03  0.30715318754E+03  0.00000000000E+00 0. -1.
          1   -1    0    0  501    0 -0.00000000000E+00 -0.00000000000E+00 -0.28179963681E+04  0.28179963681E+04  0.00000000000E+00 0. -1.
         25    2    1    2    0    0  0.45083903722E+02 -0.83359795932E+02 -0.13662092710E+04  0.13751850473E+04  0.12499891215E+03 0.  0.
          2    1    1    2  501    0  0.26227416018E+02  0.55399982220E+02 -0.14417914438E+04  0.14430937609E+04  0.00000000000E+00 0. -1.
          1    1    1    2  502    0 -0.71311319740E+02  0.27959813712E+02  0.29715753424E+03  0.30687074748E+03  0.00000000000E+00 0. -1.
         22    1    3    3    0    0 -0.20844960157E+02 -0.83416154240E+02 -0.93769106717E+03  0.94162482157E+03  0.00000000000E+00 0.  1.
         22    1    3    3    0    0  0.65928863879E+02  0.56358307788E-01 -0.42851820385E+03  0.43356022569E+03  0.00000000000E+00 0.  1.
</event>
<event>
 7    1  0.5789396E-006  0.1679176E+03  0.7818608E-02  0.1248423E+00
          2   -1    0    0  502    0  0.00000000000E+00  0.00000000000E+00  0.49222288087E+03  0.49222288087E+03  0.00000000000E+00 0. -1.
          1   -1    0    0  501    0 -0.00000000000E+00 -0.00000000000E+00 -0.84387529315E+03  0.84387529315E+03  0.00000000000E+00 0. -1.
         25    2    1    2    0    0 -0.64484279011E+02  0.82042878147E+02 -0.43366076965E+02  0.16850840374E+03  0.12500083761E+03 0.  0.
          2    1    1    2  501    0 -0.12440745010E+02  0.80325658115E+02 -0.71675674188E+03  0.72135096210E+03  0.00000000000E+00 0. -1.
          1    1    1    2  502    0  0.76925024021E+02 -0.16236853626E+03  0.40847040657E+03  0.44623880819E+03  0.00000000000E+00 0. -1.
         22    1    3    3    0    0 -0.73324295616E+01 -0.33051696384E+02 -0.38884837891E+01  0.34077844170E+02  0.00000000000E+00 0.  1.
         22    1    3    3    0    0 -0.57151849449E+02  0.11509457453E+03 -0.39477593176E+02  0.13443055957E+03  0.00000000000E+00 0.  1.
</event>
<event>
 7    1  0.5789396E-006  0.1865250E+03  0.7818608E-02  0.1258718E+00
          2   -1    0    0  502    0  0.00000000000E+00  0.00000000000E+00  0.24253488923E+04  0.24253488923E+04  0.00000000000E+00 0. -1.
          1   -1    0    0  501    0 -0.00000000000E+00 -0.00000000000E+00 -0.74111871992E+03  0.74111871992E+03  0.00000000000E+00 0. -1.
         25    2    1    2    0    0 -0.14377109057E+03 -0.96831465639E+02  0.58535450139E+02  0.22158048091E+03  0.12500020550E+03 0.  0.
          2    1    1    2  501    0  0.34962004404E+02 -0.56052726215E+02 -0.65407740198E+03  0.65740512445E+03  0.00000000000E+00 0. -1.
          1    1    1    2  502    0  0.10880908616E+03  0.15288419185E+03  0.22797721242E+04  0.22874820068E+04  0.00000000000E+00 0. -1.
         22    1    3    3    0    0 -0.16624542805E+03 -0.78958482066E+02  0.43275995774E+02  0.18906294203E+03  0.00000000000E+00 0.  1.
         22    1    3    3    0    0  0.22474337484E+02 -0.17872983573E+02  0.15259454365E+02  0.32517538878E+02  0.00000000000E+00 0.  1.
</event>
<event>
 7    1  0.5789396E-006  0.4683428E+03  0.7818608E-02  0.1078778E+00
          2   -1    0    0  502    0  0.00000000000E+00  0.00000000000E+00  0.10864234038E+04  0.10864234038E+04  0.00000000000E+00 0. -1.
          1   -1    0    0  501    0 -0.00000000000E+00 -0.00000000000E+00 -0.60749062675E+03  0.60749062675E+03  0.00000000000E+00 0. -1.
         25    2    1    2    0    0 -0.26812118025E+03  0.40202066099E+03 -0.64912278706E+02  0.50333714577E+03  0.12500039688E+03 0.  0.
          2    1    1    2  501    0 -0.13785986036E+03 -0.15784832809E+03 -0.21227575333E+03  0.29829923102E+03  0.00000000000E+00 0. -1.
          1    1    1    2  502    0  0.40598104061E+03 -0.24417233290E+03  0.75612080913E+03  0.89227765381E+03  0.00000000000E+00 0. -1.
         22    1    3    3    0    0 -0.97767957634E+02  0.23903225589E+03  0.19955487412E+01  0.25826144720E+03  0.00000000000E+00 0. -1.
         22    1    3    3    0    0 -0.17035322262E+03  0.16298840510E+03 -0.66907827448E+02  0.24507569857E+03  0.00000000000E+00 0. -1.
</event>
<event>
 7    1  0.5789396E-006  0.9810784E+02  0.7818608E-02  0.1375421E+00
          2   -1    0    0  502    0  0.00000000000E+00  0.00000000000E+00  0.32239832019E+03  0.32239832019E+03  0.00000000000E+00 0. -1.
          1   -1    0    0  501    0 -0.00000000000E+00 -0.00000000000E+00 -0.42674584413E+03  0.42674584413E+03  0.00000000000E+00 0. -1.
         25    2    1    2    0    0  0.57507744932E+02  0.55504320996E+01 -0.75302842553E+02  0.15695155621E+03  0.12500129950E+03 0.  0.
          2    1    1    2  501    0  0.42201331848E+02  0.12361622773E+02 -0.29985081634E+03  0.30305820264E+03  0.00000000000E+00 0. -1.
          1    1    1    2  502    0 -0.99709076780E+02 -0.17912054872E+02  0.27080613495E+03  0.28913440548E+03  0.00000000000E+00 0. -1.
         22    1    3    3    0    0  0.52684568570E+02  0.20299782111E+02  0.20374561431E+02  0.60023892515E+02  0.00000000000E+00 0.  1.
         22    1    3    3    0    0  0.48231763618E+01 -0.14749350012E+02 -0.95677403985E+02  0.96927663694E+02  0.00000000000E+00 0.  1.
</event>
<event>
 7    1  0.5789396E-006  0.4979777E+02  0.7818608E-02  0.1518930E+00
          2   -1    0    0  502    0  0.00000000000E+00  0.00000000000E+00  0.46542290788E+03  0.46542290788E+03  0.00000000000E+00 0. -1.
          1   -1    0    0  501    0 -0.00000000000E+00 -0.00000000000E+00 -0.26165098968E+03  0.26165098968E+03  0.00000000000E+00 0. -1.
         25    2    1    2    0    0 -0.61321206276E+02  0.46857751544E+02  0.11832625382E+03  0.18863437673E+03  0.12500354604E+03 0.  0.
          2    1    1    2  501    0  0.33330083946E+02 -0.36377114954E+02 -0.22307936008E+03  0.22847010719E+03  0.00000000000E+00 0. -1.
          1    1    1    2  502    0  0.27991122329E+02 -0.10480636590E+02  0.30852502446E+03  0.30996941364E+03  0.00000000000E+00 0. -1.
         22    1    3    3    0    0 -0.58983263811E+01  0.70372451209E+02  0.20097002488E+02  0.73423168362E+02  0.00000000000E+00 0.  1.
         22    1    3    3    0    0 -0.55422879894E+02 -0.23514699665E+02  0.98229251335E+02  0.11521120837E+03  0.00000000000E+00 0.  1.
</event>
<event>
 7    1  0.5789396E-006  0.5255879E+02  0.7818608E-02  0.1503944E+00
          2   -1    0    0  502    0  0.00000000000E+00  0.00000000000E+00  0.14608703489E+04  0.14608703489E+04  0.00000000000E+00 0. -1.
          1   -1    0    0  501    0 -0.00000000000E+00 -0.00000000000E+00 -0.35455697003E+03  0.35455697003E+03  0.00000000000E+00 0. -1.
         25    2    1    2    0    0  0.29948711048E+02 -0.81000378635E+01  0.18497656136E+03  0.22539759669E+03  0.12500084974E+03 0.  0.
          2    1    1    2  501    0  0.66557885978E+01 -0.30625360277E+02 -0.33304511053E+03  0.33451645380E+03  0.00000000000E+00 0. -1.
          1    1    1    2  502    0 -0.36604499646E+02  0.38725398141E+02  0.12543819280E+04  0.12555132685E+04  0.00000000000E+00 0. -1.
         22    1    3    3    0    0  0.25763720991E+02  0.48283266833E+02  0.14812003301E+03  0.15790689457E+03  0.00000000000E+00 0.  1.
         22    1    3    3    0    0  0.41849900568E+01 -0.56383304697E+02  0.36856528349E+02  0.67490702117E+02  0.00000000000E+00 0.  1.
</event>
<event>
 7    1  0.5789396E-006  0.8841469E+02  0.7818608E-02  0.1347402E+00
          2   -1    0    0  502    0  0.00000000000E+00  0.00000000000E+00  0.10424497471E+04  0.10424497471E+04  0.00000000000E+00 0. -1.
          1   -1    0    0  501    0 -0.00000000000E+00 -0.00000000000E+00 -0.19457800106E+04  0.19457800106E+04  0.00000000000E+00 0. -1.
         25    2    1    2    0    0  0.13966891986E+03 -0.23331933422E+02  0.62421161303E+03  0.65216352473E+03  0.12500135541E+03 0.  0.
          2    1    1    2  501    0 -0.87764001599E+02 -0.10063731599E+02 -0.19284312332E+04  0.19304535270E+04  0.00000000000E+00 0. -1.
          1    1    1    2  502    0 -0.51904918262E+02  0.33395665021E+02  0.40088935663E+03  0.40561270597E+03  0.00000000000E+00 0. -1.
         22    1    3    3    0    0  0.37168392175E+02  0.26868559313E+02  0.37814409048E+03  0.38091516381E+03  0.00000000000E+00 0. -1.
         22    1    3    3    0    0  0.10250052769E+03 -0.50200492735E+02  0.24606752254E+03  0.27124836091E+03  0.00000000000E+00 0. -1.
</event>
<event>
 7    1  0.5789396E-006  0.1688146E+03  0.7818608E-02  0.1180080E+00
          2   -1    0    0  502    0  0.00000000000E+00  0.00000000000E+00  0.10538668663E+04  0.10538668663E+04  0.00000000000E+00 0. -1.
          1   -1    0    0  501    0 -0.00000000000E+00 -0.00000000000E+00 -0.10083838045E+03  0.10083838045E+03  0.00000000000E+00 0. -1.
         25    2    1    2    0    0 -0.13537599713E+03  0.67174752599E+02  0.44979219910E+03  0.49069040660E+03  0.12499977909E+03 0.  0.
          2    1    1    2  501    0  0.66313544681E+02  0.15320989867E+03  0.87623432642E+02  0.18854343056E+03  0.00000000000E+00 0. -1.
          1    1    1    2  502    0  0.69062452452E+02 -0.22038465127E+03  0.41561285414E+03  0.47547140964E+03  0.00000000000E+00 0. -1.
         22    1    3    3    0    0  0.20981391690E+02 -0.74186378574E+01  0.39783872549E+02  0.45585211416E+02  0.00000000000E+00 0.  1.
         22    1    3    3    0    0 -0.15635738882E+03  0.74593390456E+02  0.41000832655E+03  0.44510519518E+03  0.00000000000E+00 0.  1.
</event>
<event>
 7    1  0.5789396E-006  0.8019540E+02  0.7818608E-02  0.1332573E+00
          2   -1    0    0  502    0  0.00000000000E+00  0.00000000000E+00  0.73294587991E+03  0.73294587991E+03  0.00000000000E+00 0. -1.
          1   -1    0    0  501    0 -0.00000000000E+00 -0.00000000000E+00 -0.81374600295E+02  0.81374600295E+02  0.00000000000E+00 0. -1.
         25    2    1    2    0    0  0.43062424139E+02  0.32640417103E+02  0.85036725314E+02  0.16055110290E+03  0.12500257113E+03 0.  0.
          2    1    1    2  501    0  0.41079530000E+01 -0.97496089094E+02  0.17784067247E+02  0.99189897239E+02  0.00000000000E+00 0. -1.
          1    1    1    2  502    0 -0.47170377139E+02  0.64855671990E+02  0.54875048705E+03  0.55457948006E+03  0.00000000000E+00 0. -1.
         22    1    3    3    0    0  0.50603384265E+01 -0.89618779865E+01  0.10136537388E+03  0.10188651188E+03  0.00000000000E+00 0.  1.
         22    1    3    3    0    0  0.38002085713E+02  0.41602295090E+02 -0.16328648565E+02  0.58664591017E+02  0.00000000000E+00 0.  1.
</event>
<event>
 7    1  0.5789396E-006  0.5822157E+02  0.7818608E-02  0.1544108E+00
          2   -1    0    0  502    0  0.00000000000E+00  0.00000000000E+00  0.14049924741E+04  0.14049924741E+04  0.00000000000E+00 0. -1.
          1   -1    0    0  501    0 -0.00000000000E+00 -0.00000000000E+00 -0.20107104496E+03  0.20107104496E+03  0.00000000000E+00 0. -1.
         25    2    1    2    0    0 -0.71169529049E+02  0.32081181121E+02  0.30268516653E+02  0.15045969076E+03  0.12501052514E+03 0.  0.
          2    1    1    2  501    0  0.15773391117E+02 -0.14843385640E+02 -0.13949924456E+03  0.14117069525E+03  0.00000000000E+00 0. -1.
          1    1    1    2  502    0  0.55396137932E+02 -0.17237795481E+02  0.13131521570E+04  0.13144331330E+04  0.00000000000E+00 0. -1.
         22    1    3    3    0    0  0.86263298507E+01 -0.18173120228E+02 -0.31753834198E+02  0.37589650860E+02  0.00000000000E+00 0.  1.
         22    1    3    3    0    0 -0.79795858899E+02  0.50254301349E+02  0.62022350851E+02  0.11287003990E+03  0.00000000000E+00 0.  1.
</event>
<event>
 7    1  0.5789396E-006  0.3749339E+02  0.7818608E-02  0.1531259E+00
          2   -1    0    0  502    0  0.00000000000E+00  0.00000000000E+00  0.23112968554E+04  0.23112968554E+04  0.00000000000E+00 0. -1.
          1   -1    0    0  501    0 -0.00000000000E+00 -0.00000000000E+00 -0.11921418612E+02  0.11921418612E+02  0.00000000000E+00 0. -1.
         25    2    1    2    0    0  0.34325976032E+01  0.21345268463E+02  0.53253869580E+03  0.54744119836E+03  0.12500799942E+03 0.  0.
          2    1    1    2  501    0  0.32665695227E+02 -0.27244381220E+02  0.10167852096E+03  0.11021717461E+03  0.00000000000E+00 0. -1.
          1    1    1    2  502    0 -0.36098292830E+02  0.58991127576E+01  0.16651582200E+04  0.16655599011E+04  0.00000000000E+00 0. -1.
         22    1    3    3    0    0  0.52404254504E+02  0.24897845919E+02  0.42836410979E+03  0.43227528171E+03  0.00000000000E+00 0. -1.
         22    1    3    3    0    0 -0.48971656901E+02 -0.35525774566E+01  0.10417458602E+03  0.11516591665E+03  0.00000000000E+00 0. -1.
</event>
<event>
 7    1  0.5789396E-006  0.1499759E+03  0.7818608E-02  0.1254065E+00
          2   -1    0    0  502    0  0.00000000000E+00  0.00000000000E+00  0.32936717006E+03  0.32936717006E+03  0.00000000000E+00 0. -1.
          1   -1    0    0  501    0 -0.00000000000E+00 -0.00000000000E+00 -0.92040702423E+03  0.92040702423E+03  0.00000000000E+00 0. -1.
         25    2    1    2    0    0 -0.54547625343E+02 -0.49219680164E+02 -0.23146805084E+02  0.14683090341E+03  0.12500207704E+03 0.  0.
          2    1    1    2  501    0  0.11622552724E+03  0.10919448265E+03 -0.82062163103E+03  0.83597348614E+03  0.00000000000E+00 0. -1.
          1    1    1    2  502    0 -0.61677901893E+02 -0.59974802481E+02  0.25272858194E+03  0.26696980474E+03  0.00000000000E+00 0. -1.
         22    1    3    3    0    0 -0.41455433767E+02 -0.54168771845E+02  0.42061607519E+02  0.80137305040E+02  0.00000000000E+00 0.  1.
         22    1    3    3    0    0 -0.13092191576E+02  0.49490916807E+01 -0.65208412603E+02  0.66693598365E+02  0.00000000000E+00 0.  1.
</event>
<event>
 7    1  0.5789396E-006  0.6655515E+02  0.7818608E-02  0.1431835E+00
          2   -1    0    0  502    0  0.00000000000E+00  0.00000000000E+00  0.19324219294E+04  0.19324219294E+04  0.00000000000E+00 0. -1.
          1   -1    0    0  501    0 -0.00000000000E+00 -0.00000000000E+00 -0.77988376084E+03  0.77988376084E+03  0.00000000000E+00 0. -1.
         25    2    1    2    0    0 -0.21005930407E+02  0.39272651037E+02  0.95662130033E+02  0.16358288312E+03  0.12499810517E+03 0.  0.
          2    1    1    2  501    0 -0.10786408227E+02 -0.66040478442E+02 -0.74418245526E+03  0.74718486207E+03  0.00000000000E+00 0. -1.
          1    1    1    2  502    0  0.31792338633E+02  0.26767827405E+02  0.18010584938E+04  0.18015379450E+04  0.00000000000E+00 0. -1.
         22    1    3    3    0    0  0.47050423332E+02 -0.34506006185E+01  0.14459991832E+02  0.49343088108E+02  0.00000000000E+00 0. -1.
         22    1    3    3    0    0 -0.68056353738E+02  0.42723251656E+02  0.81202138202E+02  0.11423979501E+03  0.00000000000E+00 0. -1.
</event>
<event>
 7    1  0.5789396E-006  0.6326775E+02  0.7818608E-02  0.1414701E+00
          2   -1    0    0  502    0  0.00000000000E+00  0.00000000000E+00  0.53224223216E+03  0.53224223216E+03  0.00000000000E+00 0. -1.
          1   -1    0    0  501    0 -0.00000000000E+00 -0.00000000000E+00 -0.36041482527E+03  0.36041482527E+03  0.00000000000E+00 0. -1.
         25    2    1    2    0    0 -0.62736324900E+02 -0.12467226033E+02 -0.16270274551E+03  0.21491122398E+03  0.12499349028E+03 0.  0.
          2    1    1    2  501    0  0.10629536868E+02  0.48700477002E+02 -0.16594123804E+03  0.17326632101E+03  0.00000000000E+00 0. -1.
          1    1    1    2  502    0  0.52106788031E+02 -0.36233250969E+02  0.50047139043E+03  0.50447951244E+03  0.00000000000E+00 0. -1.
         22    1    3    3    0    0 -0.11667683232E+02  0.45839281420E+02 -0.11386558684E+03  0.12329941776E+03  0.00000000000E+00 0. -1.
         22    1    3    3    0    0 -0.51068641668E+02 -0.58306507453E+02 -0.48837158667E+02  0.91611806225E+02  0.00000000000E+00 0. -1.
</event>
<event>
 7    1  0.5789396E-006  0.1329690E+03  0.7818608E-02  0.1343817E+00
          2   -1    0    0  502    0  0.00000000000E+00  0.00000000000E+00  0.33057504741E+04  0.33057504741E+04  0.00000000000E+00 0. -1.
          1   -1    0    0  501    0 -0.00000000000E+00 -0.00000000000E+00 -0.15224425336E+02  0.15224425336E+02  0.00000000000E+00 0. -1.
         25    2    1    2    0    0  0.11474119869E+03  0.45069809603E+02  0.95476558736E+03  0.97077177871E+03  0.12499475634E+03 0.  0.
          2    1    1    2  501    0 -0.88332881818E+01  0.41390675154E+02  0.81802136183E+02  0.92102141419E+02  0.00000000000E+00 0. -1.
          1    1    1    2  502    0 -0.10590791051E+03 -0.86460484758E+02  0.22539583252E+04  0.22581009793E+04  0.00000000000E+00 0. -1.
         22    1    3    3    0    0  0.47835790330E+02  0.84395879798E+02  0.57973203177E+03  0.58779261311E+03  0.00000000000E+00 0. -1.
         22    1    3    3    0    0  0.66905408361E+02 -0.39326070195E+02  0.37503355559E+03  0.38297916560E+03  0.00000000000E+00 0. -1.
</event>
<event>
 7    1  0.5789396E-006  0.1511431E+03  0.7818608E-02  0.1391828E+00
          2   -1    0    0  502    0  0.00000000000E+00  0.00000000000E+00  0.11625760621E+03  0.11625760621E+03  0.00000000000E+00 0. -1.
          1   -1    0    0  501    0 -0.00000000000E+00 -0.00000000000E+00 -0.17541377141E+04  0.17541377141E+04  0.00000000000E+00 0. -1.
         25    2    1    2    0    0 -0.85320874692E+02  0.14327689493E+03 -0.49469859124E+03  0.53680495994E+03  0.12499979423E+03 0.  0.
          2    1    1    2  501    0  0.88671475134E+02 -0.11851550340E+03 -0.12322374863E+04  0.12410953942E+04  0.00000000000E+00 0. -1.
          1    1    1    2  502    0 -0.33506004427E+01 -0.24761391535E+02  0.89055969621E+02  0.92494966129E+02  0.00000000000E+00 0. -1.
         22    1    3    3    0    0 -0.33584838252E+02  0.11792387599E+03 -0.18601293969E+03  0.22278867929E+03  0.00000000000E+00 0.  1.
         22    1    3    3    0    0 -0.51736036440E+02  0.25353018943E+02 -0.30868565156E+03  0.31401628065E+03  0.00000000000E+00 0.  1.
</event>
<event>
 7    1  0.5789396E-006  0.5507886E+02  0.7818608E-02  0.1478636E+00
          2   -1    0    0  502    0  0.00000000000E+00  0.00000000000E+00  0.12232198737E+04  0.12232198737E+04  0.00000000000E+00 0. -1.
          1   -1    0    0  501    0 -0.00000000000E+00 -0.00000000000E+00 -0.99330909478E+02  0.99330909478E+02  0.00000000000E+00 0. -1.
         25    2    1    2    0    0  0.86395071130E+02 -0.25815036192E+02  0.53973631846E+03  0.56131177959E+03  0.12500038411E+03 0.  0.
          2    1    1    2  501    0 -0.51902392105E+02  0.16758675888E+02 -0.79619841473E+02  0.96509225879E+02  0.00000000000E+00 0. -1.
          1    1    1    2  502    0 -0.34492679025E+02  0.90563603040E+01  0.66377248727E+03  0.66472977774E+03  0.00000000000E+00 0. -1.
         22    1    3    3    0    0  0.47877782557E+01  0.85306670586E+01 -0.38862694739E+01  0.10526071989E+02  0.00000000000E+00 0.  1.
         22    1    3    3    0    0  0.81607292874E+02 -0.34345703250E+02  0.54362258794E+03  0.55078570760E+03  0.00000000000E+00 0.  1.
</event>
<event>
 7    1  0.5789396E-006  0.3545042E+03  0.7818608E-02  0.1149998E+00
          2   -1    0    0  502    0  0.00000000000E+00  0.00000000000E+00  0.32809776124E+04  0.32809776124E+04  0.00000000000E+00 0. -1.
          1   -1    0    0  501    0 -0.00000000000E+00 -0.00000000000E+00 -0.94348350209E+03  0.94348350209E+03  0.00000000000E+00 0. -1.
         25    2    1    2    0    0  0.12701848530E+03  0.44110907333E+03  0.26660474820E+03  0.54535782085E+03  0.12500460320E+03 0.  0.
          2    1    1    2  501    0 -0.35324668801E+02 -0.10679700516E+03 -0.78965680629E+03  0.79762855030E+03  0.00000000000E+00 0. -1.
          1    1    1    2  502    0 -0.91693816501E+02 -0.33431206817E+03  0.28605461684E+04  0.28814747433E+04  0.00000000000E+00 0. -1.
         22    1    3    3    0    0  0.10907906723E+03  0.40897148747E+03  0.27850485854E+03  0.50667630367E+03  0.00000000000E+00 0. -1.
         22    1    3    3    0    0  0.17939418068E+02  0.32137585860E+02 -0.11900110337E+02  0.38681517182E+02  0.00000000000E+00 0. -1.
</event>
<event>
 7    1  0.5789396E-006  0.7084312E+02  0.7818608E-02  0.1393115E+00
          2   -1    0    0  502    0  0.00000000000E+00  0.00000000000E+00  0.39720693176E+03  0.39720693176E+03  0.00000000000E+00 0. -1.
          1   -1    0    0  501    0 -0.00000000000E+00 -0.00000000000E+00 -0.48483344093E+03  0.48483344093E+03  0.00000000000E+00 0. -1.
         25    2    1    2    0    0  0.21387173313E+01  0.26401333189E+02  0.35164427182E+02  0.13252550433E+03  0.12499947141E+03 0.  0.
          2    1    1    2  501    0  0.36392090585E+02  0.38204594596E+02 -0.43000263099E+03  0.43322769759E+03  0.00000000000E+00 0. -1.
          1    1    1    2  502    0 -0.38530807916E+02 -0.64605927786E+02  0.30721169464E+03  0.31628717076E+03  0.00000000000E+00 0. -1.
         22    1    3    3    0    0  0.51433945254E+01  0.61642371574E+02  0.62416607700E+02  0.87875305959E+02  0.00000000000E+00 0.  1.
         22    1    3    3    0    0 -0.30046771941E+01 -0.35241038385E+02 -0.27252180518E+02  0.44650198370E+02  0.00000000000E+00 0.  1.
</event>
<event>
 7    1  0.5789396E-006  0.1130178E+03  0.7818608E-02  0.1310639E+00
          2   -1    0    0  502    0  0.00000000000E+00  0.00000000000E+00  0.88168363996E+03  0.88168363996E+03  0.00000000000E+00 0. -1.
          1   -1    0    0  501    0 -0.00000000000E+00 -0.00000000000E+00 -0.19751321538E+03  0.19751321538E+03  0.00000000000E+00 0. -1.
         25    2    1    2    0    0 -0.10646035869E+03  0.36718629183E+02  0.78843700261E+02  0.18580706139E+03  0.12500347711E+03 0.  0.
          2    1    1    2  501    0  0.11214515271E+03  0.29795407122E+02 -0.11887421230E+03  0.16611857185E+03  0.00000000000E+00 0. -1.
          1    1    1    2  502    0 -0.56847940178E+01 -0.66514036305E+02  0.72420093661E+03  0.72727122210E+03  0.00000000000E+00 0. -1.
         22    1    3    3    0    0 -0.33596051511E+02 -0.18108706488E+02 -0.26510954971E+02  0.46469889835E+02  0.00000000000E+00 0.  1.
         22    1    3    3    0    0 -0.72864307181E+02  0.54827335672E+02  0.10535465523E+03  0.13933717155E+03  0.00000000000E+00 0.  1.
</event>
<event>
 7    1  0.5789396E-006  0.1436216E+03  0.7818608E-02  0.1375641E+00
          2   -1    0    0  502    0  0.00000000000E+00  0.00000000000E+00  0.23658159670E+04  0.23658159670E+04  0.00000000000E+00 0. -1.
          1   -1    0    0  501    0 -0.00000000000E+00 -0.00000000000E+00 -0.56395946855E+02  0.56395946855E+02  0.00000000000E+00 0. -1.
         25    2    1    2    0    0 -0.24833654369E+02  0.13921831619E+03  0.22788013132E+03  0.29589280041E+03  0.12499898051E+03 0.  0.
          2    1    1    2  501    0  0.29614773564E+02  0.46953110617E+01 -0.86247636833E+01  0.31200437622E+02  0.00000000000E+00 0. -1.
          1    1    1    2  502    0 -0.47811191950E+01 -0.14391362725E+03  0.20901646525E+04  0.20951186759E+04  0.00000000000E+00 0. -1.
         22    1    3    3    0    0  0.44565507933E+02  0.93796025465E+02  0.10532632504E+03  0.14791015394E+03  0.00000000000E+00 0. -1.
         22    1    3    3    0    0 -0.69399162302E+02  0.45422290724E+02  0.12255380628E+03  0.14798264647E+03  0.00000000000E+00 0. -1.
</event>
<event>
 7    1  0.5789396E-006  0.1176312E+03  0.7818608E-02  0.1285976E+00
          2   -1    0    0  502    0  0.00000000000E+00  0.00000000000E+00  0.95116934232E+03  0.95116934232E+03  0.00000000000E+00 0. -1.
          1   -1    0    0  501    0 -0.00000000000E+00 -0.00000000000E+00 -0.19840810035E+04  0.19840810035E+04  0.00000000000E+00 0. -1.
         25    2    1    2    0    0  0.15824218572E+03  0.26524557124E+02  0.66288062342E+03  0.69337713741E+03  0.12496796509E+03 0.  0.
          2    1    1    2  501    0 -0.63824537884E+02 -0.49156458462E+02 -0.19593473690E+04  0.19610028153E+04  0.00000000000E+00 0. -1.
          1    1    1    2  502    0 -0.94417647831E+02  0.22631901338E+02  0.26355508445E+03  0.28087039310E+03  0.00000000000E+00 0. -1.
         22    1    3    3    0    0  0.78419222300E+02 -0.44333498510E+01  0.11761115950E+03  0.14142706196E+03  0.00000000000E+00 0.  1.
         22    1    3    3    0    0  0.79822963416E+02  0.30957906975E+02  0.54526946393E+03  0.55195007545E+03  0.00000000000E+00 0.  1.
</event>
<event>
 7    1  0.5789396E-006  0.1609634E+03  0.7818608E-02  0.1326094E+00
          2   -1    0    0  502    0  0.00000000000E+00  0.00000000000E+00  0.15316336858E+03  0.15316336858E+03  0.00000000000E+00 0. -1.
          1   -1    0    0  501    0 -0.00000000000E+00 -0.00000000000E+00 -0.11045668378E+04  0.11045668378E+04  0.00000000000E+00 0. -1.
         25    2    1    2    0    0 -0.68689914887E+02 -0.11325148038E+03 -0.24937772623E+02  0.18382421446E+03  0.12500098841E+03 0.  0.
          2    1    1    2  501    0  0.10846227422E+03  0.12240735390E+03 -0.98724250272E+03  0.10006974490E+04  0.00000000000E+00 0. -1.
          1    1    1    2  502    0 -0.39772359337E+02 -0.91558735214E+01  0.60776806157E+02  0.73208542902E+02  0.00000000000E+00 0. -1.
         22    1    3    3    0    0  0.21625883017E+02 -0.23953804603E+02  0.31268377862E+02  0.44935231448E+02  0.00000000000E+00 0.  1.
         22    1    3    3    0    0 -0.90315797904E+02 -0.89297675774E+02 -0.56206150485E+02  0.13888898301E+03  0.00000000000E+00 0.  1.
</event>
<event>
 7    1  0.5789396E-006  0.3992134E+02  0.7818608E-02  0.1546922E+00
          2   -1    0    0  502    0  0.00000000000E+00  0.00000000000E+00  0.35322032286E+04  0.35322032286E+04  0.00000000000E+00 0. -1.
          1   -1    0    0  501    0 -0.00000000000E+00 -0.00000000000E+00 -0.28033558551E+03  0.28033558551E+03  0.00000000000E+00 0. -1.
         25    2    1    2    0    0 -0.53614209290E+02  0.59608840623E+01  0.24470582093E+04  0.24508424281E+04  0.12499884798E+03 0.  0.
          2    1    1    2  501    0  0.19419684189E+02 -0.24187901374E+02 -0.27723170803E+03  0.27896164368E+03  0.00000000000E+00 0. -1.
          1    1    1    2  502    0  0.34194525101E+02  0.18227017311E+02  0.10820411417E+04  0.10827347423E+04  0.00000000000E+00 0. -1.
         22    1    3    3    0    0 -0.19686882373E+02  0.27737494171E+01  0.22919000704E+04  0.22919863000E+04  0.00000000000E+00 0.  1.
         22    1    3    3    0    0 -0.33927326917E+02  0.31871346452E+01  0.15515813898E+03  0.15885612809E+03  0.00000000000E+00 0.  1.
</event>
<event>
 7    1  0.5789396E-006  0.1165370E+03  0.7818608E-02  0.1372920E+00
          2   -1    0    0  502    0  0.00000000000E+00  0.00000000000E+00  0.12601068076E+04  0.12601068076E+04  0.00000000000E+00 0. -1.
          1   -1    0    0  501    0 -0.00000000000E+00 -0.00000000000E+00 -0.12613856532E+04  0.12613856532E+04  0.00000000000E+00 0. -1.
         25    2    1    2    0    0  0.14358919581E+03 -0.51171477502E+02  0.40176740383E+03  0.44752649216E+03  0.12500614842E+03 0.  0.
          2    1    1    2  501    0 -0.10593029742E+03  0.48027770469E+02 -0.12353457415E+04  0.12408090086E+04  0.00000000000E+00 0. -1.
          1    1    1    2  502    0 -0.37658898395E+02  0.31437070329E+01  0.83229949209E+03  0.83315696004E+03  0.00000000000E+00 0. -1.
         22    1    3    3    0    0  0.57662678485E+02  0.39821427190E+02  0.17512439783E+03  0.18862472073E+03  0.00000000000E+00 0. -1.
         22    1    3    3    0    0  0.85926517325E+02 -0.90992904692E+02  0.22664300599E+03  0.25890177143E+03  0.00000000000E+00 0. -1.
</event>
<event>
 7    1  0.5789396E-006  0.2050710E+03  0.7818608E-02  0.1230730E+00
          2   -1    0    0  502    0  0.00000000000E+00  0.00000000000E+00  0.39076631239E+04  0.39076631239E+04  0.00000000000E+00 0. -1.
          1   -1    0    0  501    0 -0.00000000000E+00 -0.00000000000E+00 -0.16045616708E+03  0.16045616708E+03  0.00000000000E+00 0. -1.
         25    2    1    2    0    0 -0.15223089056E+03  0.93766079940E+02  0.59215240826E+02  0.22604439113E+03  0.12499320072E+03 0.  0.
          2    1    1    2  501    0  0.17447087192E+03 -0.17026619124E+03  0.11737396102E+03  0.27056848995E+03  0.00000000000E+00 0. -1.
          1    1    1    2  502    0 -0.22239981359E+02  0.76500111302E+02  0.35706177550E+04  0.35715064099E+04  0.00000000000E+00 0. -1.
         22    1    3    3    0    0 -0.41138137688E+02  0.25740374839E+01  0.70722004835E+02  0.81857033963E+02  0.00000000000E+00 0.  1.
         22    1    3    3    0    0 -0.11109275287E+03  0.91192042456E+02 -0.11506764009E+02  0.14418735716E+03  0.00000000000E+00 0.  1.
</event>
<event>
 7    1  0.5789396E-006  0.5614016E+02  0.7818608E-02  0.1464504E+00
          2   -1    0    0  502    0  0.00000000000E+00  0.00000000000E+00  0.18966307884E+04  0.18966307884E+04  0.00000000000E+00 0. -1.
          1   -1    0    0  501    0 -0.00000000000E+00 -0.00000000000E+00 -0.17780909473E+03  0.17780909473E+03  0.00000000000E+00 0. -1.
         25    2    1    2    0    0 -0.36744623249E+02  0.29273632731E+02  0.11499592001E+04  0.11576863144E+04  0.12499731072E+03 0.  0.
          2    1    1    2  501    0  0.22929371095E+02  0.31183197261E+02 -0.17047799556E+03  0.17481674640E+03  0.00000000000E+00 0. -1.
          1    1    1    2  502    0  0.13815252154E+02 -0.60456829993E+02  0.73934048911E+03  0.74193682232E+03  0.00000000000E+00 0. -1.
         22    1    3    3    0    0  0.34005012626E+02  0.29421674300E+02  0.76221837881E+03  0.76354360242E+03  0.00000000000E+00 0.  1.
         22    1    3    3    0    0 -0.70749635875E+02 -0.14804156840E+00  0.38774082132E+03  0.39414271198E+03  0.00000000000E+00 0.  1.
</event>
<event>
 7    1  0.5789396E-006  0.8138144E+02  0.7818608E-02  0.1365303E+00
          2   -1    0    0  502    0  0.00000000000E+00  0.00000000000E+00  0.23803260706E+04  0.23803260706E+04  0.00000000000E+00 0. -1.
          1   -1    0    0  501    0 -0.00000000000E+00 -0.00000000000E+00 -0.19303194368E+02  0.19303194368E+02  0.00000000000E+00 0. -1.
         25    2    1    2    0    0  0.19785085070E+02  0.23059759640E+02  0.10184213932E+04  0.10265137445E+04  0.12500052569E+03 0.  0.
          2    1    1    2  501    0 -0.55414156923E+02 -0.68370774572E+02  0.11823712414E+03  0.14739507837E+03  0.00000000000E+00 0. -1.
          1    1    1    2  502    0  0.35629071853E+02  0.45311014932E+02  0.12243643589E+04  0.12257204421E+04  0.00000000000E+00 0. -1.
         22    1    3    3    0    0 -0.77563545913E+01  0.43327298747E+02  0.93915724642E+03  0.94018814572E+03  0.00000000000E+00 0.  1.
         22    1    3    3    0    0  0.27541439662E+02 -0.20267539107E+02  0.79264146756E+02  0.86325598759E+02  0.00000000000E+00 0.  1.
</event>
<event>
 7    1  0.5789396E-006  0.4720167E+02  0.7818608E-02  0.1567620E+00
          2   -1    0    0  502    0  0.00000000000E+00  0.00000000000E+00  0.58243713481E+03  0.58243713481E+03  0.00000000000E+00 0. -1.
          1   -1    0    0  501    0 -0.00000000000E+00 -0.00000000000E+00 -0.89132878845E+02  0.89132878845E+02  0.00000000000E+00 0. -1.
         25    2    1    2    0    0 -0.40977346311E+02 -0.32579887800E+02  0.65554293871E+02  0.15054268227E+03  0.12500056696E+03 0.  0.
          2    1    1    2  501    0  0.20690538416E+02 -0.10040522652E+02 -0.42548435988E+02  0.48366102594E+02  0.00000000000E+00 0. -1.
          1    1    1    2  502    0  0.20286807895E+02  0.42620410452E+02  0.47029839808E+03  0.47266122879E+03  0.00000000000E+00 0. -1.
         22    1    3    3    0    0 -0.54547258974E+02 -0.10311016434E+02 -0.21602404029E+02  0.59568316925E+02  0.00000000000E+00 0. -1.
         22    1    3    3    0    0  0.13569912663E+02 -0.22268871366E+02  0.87156697900E+02  0.90974365348E+02  0.00000000000E+00 0. -1.
</event>
<event>
 7    1  0.5789396E-006  0.1133102E+03  0.7818608E-02  0.1276269E+00
          2   -1    0    0  502    0  0.00000000000E+00  0.00000000000E+00  0.40934986639E+03  0.40934986639E+03  0.00000000000E+00 0. -1.
          1   -1    0    0  501    0 -0.00000000000E+00 -0.00000000000E+00 -0.29254870478E+03  0.29254870478E+03  0.00000000000E+00 0. -1.
         25    2    1    2    0    0 -0.45332724793E+02 -0.47929294435E+02 -0.28876667161E+02  0.14426063957E+03  0.12499998808E+03 0.  0.
          2    1    1    2  501    0  0.18354888054E+02  0.13558220922E+03 -0.17612411521E+03  0.22302273725E+03  0.00000000000E+00 0. -1.
          1    1    1    2  502    0  0.26977836739E+02 -0.87652914785E+02  0.32180194398E+03  0.33461519436E+03  0.00000000000E+00 0. -1.
         22    1    3    3    0    0  0.34953063620E+02  0.16145537359E+02 -0.10521314960E+02  0.39913570393E+02  0.00000000000E+00 0.  1.
         22    1    3    3    0    0 -0.80285788414E+02 -0.64074831795E+02 -0.18355352200E+02  0.10434706917E+03  0.00000000000E+00 0.  1.
</event>
<event>
 7    1  0.5789396E-006  0.1864840E+03  0.7818608E-02  0.1246167E+00
          2   -1    0    0  502    0  0.00000000000E+00  0.00000000000E+00  0.42193274451E+03  0.42193274451E+03  0.00000000000E+00 0. -1.
          1   -1    0    0  501    0 -0.00000000000E+00 -0.00000000000E+00 -0.84143271134E+03  0.84143271134E+03  0.00000000000E+00 0. -1.
         25    2    1    2    0    0  0.23171155165E+03  0.72247811582E+02 -0.27698472188E+03  0.38891529274E+03  0.12499831730E+03 0.  0.
          2    1    1    2  501    0 -0.16928117416E+03 -0.30927721830E+02 -0.48981951071E+03  0.51916836669E+03  0.00000000000E+00 0. -1.
          1    1    1    2  502    0 -0.62430377490E+02 -0.41320089753E+02  0.34730426575E+03  0.35528179641E+03  0.00000000000E+00 0. -1.
         22    1    3    3    0    0  0.19013275842E+03  0.35853057006E+01 -0.21809746437E+03  0.28936106200E+03  0.00000000000E+00 0. -1.
         22    1    3    3    0    0  0.41578793229E+02  0.68662505882E+02 -0.58887257510E+02  0.99554230736E+02  0.00000000000E+00 0. -1.
</event>
<event>
 7    1  0.5789396E-006  0.3099164E+03  0.7818608E-02  0.1167813E+00
          2   -1    0    0  502    0  0.00000000000E+00  0.00000000000E+00  0.11947407755E+04  0.11947407755E+04  0.00000000000E+00 0. -1.
          1   -1    0    0  501    0 -0.00000000000E+00 -0.00000000000E+00 -0.12166502855E+04  0.12166502855E+04  0.00000000000E+00 0. -1.
         25    2    1    2    0    0 -0.21306516202E+03  0.26268274972E+03  0.65981829720E+03  0.75191980726E+03  0.12499688383E+03 0.  0.
          2    1    1    2  501    0 -0.27590408253E+02 -0.10082534059E+03 -0.11249483580E+04  0.11297945778E+04  0.00000000000E+00 0. -1.
          1    1    1    2  502    0  0.24065557028E+03 -0.16185740913E+03  0.44322055077E+03  0.52967667593E+03  0.00000000000E+00 0. -1.
         22    1    3    3    0    0 -0.12125209728E+03  0.18877406168E+03  0.53554199301E+03  0.58064011551E+03  0.00000000000E+00 0. -1.
         22    1    3    3    0    0 -0.91813064742E+02  0.73908688042E+02  0.12427630419E+03  0.17127969176E+03  0.00000000000E+00 0. -1.
</event>
<event>
 7    1  0.5789396E-006  0.1173613E+03  0.7818608E-02  0.1381681E+00
          2   -1    0    0  502    0  0.00000000000E+00  0.00000000000E+00  0.10406592348E+04  0.10406592348E+04  0.00000000000E+00 0. -1.
          1   -1    0    0  501    0 -0.00000000000E+00 -0.00000000000E+00 -0.92902661108E+03  0.92902661108E+03  0.00000000000E+00 0. -1.
         25    2    1    2    0    0  0.28269032149E+02 -0.10927254923E+03 -0.48512958771E+03  0.51353275763E+03  0.12500219238E+03 0.  0.
          2    1    1    2  501    0  0.43150665634E+01  0.12184895101E+03 -0.42074073981E+03  0.43805086098E+03  0.00000000000E+00 0. -1.
          1    1    1    2  502    0 -0.32584098712E+02 -0.12576401776E+02  0.10175029512E+04  0.10181022272E+04  0.00000000000E+00 0. -1.
         22    1    3    3    0    0  0.27262969078E+02 -0.13732535900E+03 -0.39120451053E+03  0.41550269887E+03  0.00000000000E+00 0.  1.
         22    1    3    3    0    0  0.10060630711E+01  0.28052809767E+02 -0.93925077176E+02  0.98030058764E+02  0.00000000000E+00 0.  1.
</event>
<event>
 7    1  0.5789396E-006  0.1012038E+03  0.7818608E-02  0.1297937E+00
          2   -1    0    0  502    0  0.00000000000E+00  0.00000000000E+00  0.11255721098E+04  0.11255721098E+04  0.00000000000E+00 0. -1.
          1   -1    0    0  501    0 -0.00000000000E+00 -0.00000000000E+00 -0.10363046753E+03  0.10363046753E+03  0.00000000000E+00 0. -1.
         25    2    1    2    0    0 -0.93552437950E+02 -0.10921984340E+03  0.12819203394E+03  0.22964979307E+03  0.12499918821E+03 0.  0.
          2    1    1    2  501    0 -0.33205999397E+01  0.83677925563E+02 -0.15188661098E+02  0.85110029000E+02  0.00000000000E+00 0. -1.
          1    1    1    2  502    0  0.96873037890E+02  0.25541917833E+02  0.90893826938E+03  0.91444275522E+03  0.00000000000E+00 0. -1.
         22    1    3    3    0    0 -0.10108540261E+03 -0.10813611485E+03  0.14745558140E+03  0.20893737445E+03  0.00000000000E+00 0.  1.
         22    1    3    3    0    0  0.75329646628E+01 -0.10837285461E+01 -0.19263547461E+02  0.20712418617E+02  0.00000000000E+00 0.  1.
</event>
<event>
 7    1  0.6505082E-006  0.1240209E+03  0.7818608E-02  0.1324463E+00
          2   -1    0    0  502    0  0.00000000000E+00  0.00000000000E+00  0.11427010840E+04  0.11427010840E+04  0.00000000000E+00 0. -1.
          1   -1    0    0  501    0 -0.00000000000E+00 -0.00000000000E+00 -0.10056497016E+04  0.10056497016E+04  0.00000000000E+00 0. -1.
         25    2    1    2    0    0 -0.13284849890E+03  0.24204887581E+02 -0.32934514436E+03  0.37726391020E+03  0.12500093433E+03 0.  0.
          2    1    1    2  501    0  0.12067427203E+02 -0.52368213725E+02 -0.64779191367E+03  0.65001724286E+03  0.00000000000E+00 0. -1.
          1    1    1    2  502    0  0.12078107170E+03  0.28163326144E+02  0.11141884404E+04  0.11210696325E+04  0.00000000000E+00 0. -1.
         22    1    3    3    0    0 -0.61585989727E+02  0.17935762509E+02 -0.28711160250E+03  0.29418973130E+03  0.00000000000E+00 0.  1.
         22    1    3    3    0    0 -0.71262509173E+02  0.62691250723E+01 -0.42233541853E+02  0.83074178902E+02  0.00000000000E+00 0.  1.
</event>
<event>
 7    1  0.5789396E-006  0.3397861E+02  0.7818608E-02  0.1625482E+00
          2   -1    0    0  502    0  0.00000000000E+00  0.00000000000E+00  0.46701906214E+03  0.46701906214E+03  0.00000000000E+00 0. -1.
          1   -1    0    0  501    0 -0.00000000000E+00 -0.00000000000E+00 -0.23268058714E+04  0.23268058714E+04  0.00000000000E+00 0. -1.
         25    2    1    2    0    0 -0.25088837940E+02 -0.36202485764E+02  0.31120351562E+03  0.33824872231E+03  0.12499800096E+03 0.  0.
          2    1    1    2  501    0  0.30768785466E+02  0.14412512034E+02 -0.23122667941E+04  0.23125164142E+04  0.00000000000E+00 0. -1.
          1    1    1    2  502    0 -0.56799475261E+01  0.21789973730E+02  0.14127646926E+03  0.14305979703E+03  0.00000000000E+00 0. -1.
         22    1    3    3    0    0 -0.46110050897E+02 -0.49698147235E+02  0.76489138785E+02  0.10220876178E+03  0.00000000000E+00 0. -1.
         22    1    3    3    0    0  0.21021212957E+02  0.13495661470E+02  0.23471437684E+03  0.23603996053E+03  0.00000000000E+00 0. -1.
</event>
<event>
 7    1  0.5789396E-006  0.5405088E+02  0.7818608E-02  0.1427060E+00
          2   -1    0    0  502    0  0.00000000000E+00  0.00000000000E+00  0.94448924458E+03  0.94448924458E+03  0.00000000000E+00 0. -1.
          1   -1    0    0  501    0 -0.00000000000E+00 -0.00000000000E+00 -0.27905032495E+03  0.27905032495E+03  0.00000000000E+00 0. -1.
         25    2    1    2    0    0  0.32495400920E+02 -0.61402477199E+01  0.13395519833E+03  0.18621610917E+03  0.12505514955E+03 0.  0.
          2    1    1    2  501    0 -0.95694108515E+01  0.53995281224E+02 -0.24903606754E+03  0.25500201363E+03  0.00000000000E+00 0. -1.
          1    1    1    2  502    0 -0.22925990069E+02 -0.47855033504E+02  0.78051978884E+03  0.78232144674E+03  0.00000000000E+00 0. -1.
         22    1    3    3    0    0  0.18386296916E+02  0.24410786833E+02  0.14698619324E+03  0.15012955549E+03  0.00000000000E+00 0. -1.
         22    1    3    3    0    0  0.14109104005E+02 -0.30551034553E+02 -0.13030994906E+02  0.36086553678E+02  0.00000000000E+00 0. -1.
</event>
<event>
 7    1  0.6046081E-006  0.1063360E+03  0.7818608E-02  0.1318852E+00
          2   -1    0    0  502    0  0.00000000000E+00  0.00000000000E+00  0.14958081570E+04  0.14958081570E+04  0.00000000000E+00 0. -1.
          1   -1    0    0  501    0 -0.00000000000E+00 -0.00000000000E+00 -0.10426734517E+04  0.10426734517E+04  0.00000000000E+00 0. -1.
         25    2    1    2    0    0  0.42252246161E+02  0.16433373531E+03 -0.95363686442E+02  0.23132241839E+03  0.12499999877E+03 0.  0.
          2    1    1    2  501    0 -0.27812818596E+02 -0.59734318307E+02 -0.87613938538E+03  0.87861366042E+03  0.00000000000E+00 0. -1.
          1    1    1    2  502    0 -0.14439427564E+02 -0.10459941700E+03  0.14246377771E+04  0.14285455300E+04  0.00000000000E+00 0. -1.
         22    1    3    3    0    0 -0.28790094003E+02  0.10904366653E+03 -0.83916790743E+02  0.14057531253E+03  0.00000000000E+00 0.  1.
         22    1    3    3    0    0  0.71042340163E+02  0.55290068774E+02 -0.11446895700E+02  0.90747105861E+02  0.00000000000E+00 0.  1.
</event>
<event>
 7    1  0.5789396E-006  0.8781164E+02  0.7818608E-02  0.1378457E+00
          2   -1    0    0  502    0  0.00000000000E+00  0.00000000000E+00  0.13665619315E+04  0.13665619315E+04  0.00000000000E+00 0. -1.
          1   -1    0    0  501    0 -0.00000000000E+00 -0.00000000000E+00 -0.41381275763E+03  0.41381275763E+03  0.00000000000E+00 0. -1.
         25    2    1    2    0    0 -0.20798628356E+02 -0.87087751343E+02 -0.36207039826E+01  0.15380042574E+03  0.12499840833E+03 0.  0.
          2    1    1    2  501    0 -0.27048986501E+02  0.84390559553E+02 -0.32878879173E+03  0.34052236898E+03  0.00000000000E+00 0. -1.
          1    1    1    2  502    0  0.47847614857E+02  0.26971917896E+01  0.12851586696E+04  0.12860518944E+04  0.00000000000E+00 0. -1.
         22    1    3    3    0    0  0.22731560224E+02  0.15263390622E+02 -0.28825637776E+02  0.39756915331E+02  0.00000000000E+00 0. -1.
         22    1    3    3    0    0 -0.43530188579E+02 -0.10235114196E+03  0.25204933793E+02  0.11404351041E+03  0.00000000000E+00 0. -1.
</event>
<event>
 7    1  0.1114163E-005  0.7045228E+02  0.7818608E-02  0.1418804E+00
          2   -1    0    0  502    0  0.00000000000E+00  0.00000000000E+00  0.22202651484E+04  0.22202651484E+04  0.00000000000E+00 0. -1.
          1   -1    0    0  501    0 -0.00000000000E+00 -0.00000000000E+00 -0.69053974108E+03  0.69053974108E+03  0.00000000000E+00 0. -1.
         25    2    1    2    0    0 -0.56606615866E+02  0.18087069212E+01 -0.27111255912E+03  0.30386672674E+03  0.12500155010E+03 0.  0.
          2    1    1    2  501    0 -0.34674749059E+00 -0.43365504868E+02 -0.40131777918E+03  0.40365411819E+03  0.00000000000E+00 0. -1.
          1    1    1    2  502    0  0.56953363356E+02  0.41556797947E+02  0.22021557456E+04  0.22032840445E+04  0.00000000000E+00 0. -1.
         22    1    3    3    0    0  0.34329129534E+02 -0.27786717859E+01 -0.14043437598E+03  0.14459607224E+03  0.00000000000E+00 0. -1.
         22    1    3    3    0    0 -0.90935745400E+02  0.45873787071E+01 -0.13067818314E+03  0.15927065450E+03  0.00000000000E+00 0. -1.
</event>
<event>
 7    1  0.5789396E-006  0.4650695E+02  0.7818608E-02  0.1494128E+00
          2   -1    0    0  502    0  0.00000000000E+00  0.00000000000E+00  0.13682207600E+03  0.13682207600E+03  0.00000000000E+00 0. -1.
          1   -1    0    0  501    0 -0.00000000000E+00 -0.00000000000E+00 -0.62433024343E+03  0.62433024343E+03  0.00000000000E+00 0. -1.
         25    2    1    2    0    0 -0.43319860595E+02  0.45531198294E+00 -0.21164744282E+03  0.24959082755E+03  0.12499649400E+03 0.  0.
          2    1    1    2  501    0  0.12497173245E+02 -0.35773220384E+02 -0.38809013137E+03  0.38993570329E+03  0.00000000000E+00 0. -1.
          1    1    1    2  502    0  0.30822687350E+02  0.35317908401E+02  0.11222940676E+03  0.12162578859E+03  0.00000000000E+00 0. -1.
         22    1    3    3    0    0 -0.65281661932E+01  0.11211987168E+02 -0.21085189027E+03  0.21125066920E+03  0.00000000000E+00 0. -1.
         22    1    3    3    0    0 -0.36791694402E+02 -0.10756675185E+02 -0.79555255509E+00  0.38340158344E+02  0.00000000000E+00 0. -1.
</event>
<event>
 7    1  0.5789396E-006  0.9589083E+02  0.7818608E-02  0.1435430E+00
          2   -1    0    0  502    0  0.00000000000E+00  0.00000000000E+00  0.51599958731E+03  0.51599958731E+03  0.00000000000E+00 0. -1.
          1   -1    0    0  501    0 -0.00000000000E+00 -0.00000000000E+00 -0.48090104003E+02  0.48090104003E+02  0.00000000000E+00 0. -1.
         25    2    1    2    0    0 -0.11246172085E+03 -0.30686403267E+02  0.25465301311E+03  0.30669679414E+03  0.12500188979E+03 0.  0.
          2    1    1    2  501    0  0.84600773243E+02  0.27229681338E+02  0.74930964261E+02  0.11624713237E+03  0.00000000000E+00 0. -1.
          1    1    1    2  502    0  0.27860947605E+02  0.34567219290E+01  0.13832550594E+03  0.14114576480E+03  0.00000000000E+00 0. -1.
         22    1    3    3    0    0  0.26426089973E+02 -0.14072219222E+02  0.32624022787E+02  0.44279706954E+02  0.00000000000E+00 0. -1.
         22    1    3    3    0    0 -0.13888781082E+03 -0.16614184045E+02  0.22202899032E+03  0.26241708719E+03  0.00000000000E+00 0. -1.
</event>
<event>
 7    1  0.5789396E-006  0.5230198E+02  0.7818608E-02  0.1450068E+00
          2   -1    0    0  502    0  0.00000000000E+00  0.00000000000E+00  0.21307134497E+04  0.21307134497E+04  0.00000000000E+00 0. -1.
          1   -1    0    0  501    0 -0.00000000000E+00 -0.00000000000E+00 -0.26290513104E+03  0.26290513104E+03  0.00000000000E+00 0. -1.
         25    2    1    2    0    0  0.43112614457E+02 -0.55354755340E+02  0.65767902299E+02  0.15771294492E+03  0.12500043823E+03 0.  0.
          2    1    1    2  501    0  0.29368610574E+01  0.52188325330E+02 -0.21351581014E+03  0.21982094448E+03  0.00000000000E+00 0. -1.
          1    1    1    2  502    0 -0.46049475514E+02  0.31664300107E+01  0.20155562265E+04  0.20160846913E+04  0.00000000000E+00 0. -1.
         22    1    3    3    0    0  0.40889035548E+02 -0.71738850386E+02 -0.72079238442E+01  0.82887454110E+02  0.00000000000E+00 0.  1.
         22    1    3    3    0    0  0.22235789092E+01  0.16384095045E+02  0.72975826143E+02  0.74825490810E+02  0.00000000000E+00 0.  1.
</event>
<event>
 7    1  0.5789396E-006  0.8257031E+02  0.7818608E-02  0.1406769E+00
          2   -1    0    0  502    0  0.00000000000E+00  0.00000000000E+00  0.34571080124E+04  0.34571080124E+04  0.00000000000E+00 0. -1.
          1   -1    0    0  501    0 -0.00000000000E+00 -0.00000000000E+00 -0.84389847462E+02  0.84389847462E+02  0.00000000000E+00 0. -1.
         25    2    1    2    0    0 -0.67190538829E+02 -0.99082221502E+02  0.41560709855E+03  0.45021246644E+03  0.12502059607E+03 0.  0.
          2    1    1    2  501    0  0.31177672995E+02  0.26053386272E+02 -0.60335372288E+02  0.72740520886E+02  0.00000000000E+00 0. -1.
          1    1    1    2  502    0  0.36012865834E+02  0.73028835231E+02  0.30174464387E+04  0.30185448725E+04  0.00000000000E+00 0. -1.
         22    1    3    3    0    0 -0.66220325412E+01  0.28000287885E+02  0.41538672710E+02  0.50530473648E+02  0.00000000000E+00 0.  1.
         22    1    3    3    0    0 -0.60568506288E+02 -0.12708250939E+03  0.37406842584E+03  0.39968199279E+03  0.00000000000E+00 0.  1.
</event>
<event>
 7    1  0.5789396E-006  0.4694305E+02  0.7818608E-02  0.1490390E+00
          2   -1    0    0  502    0  0.00000000000E+00  0.00000000000E+00  0.16239168215E+04  0.16239168215E+04  0.00000000000E+00 0. -1.
          1   -1    0    0  501    0 -0.00000000000E+00 -0.00000000000E+00 -0.70092256633E+03  0.70092256633E+03  0.00000000000E+00 0. -1.
         25    2    1    2    0    0 -0.62138515729E+02  0.42011966317E+02  0.28087204966E+03  0.31644976662E+03  0.12500058425E+03 0.  0.
          2    1    1    2  501    0  0.16218865159E+02 -0.34948429955E+02 -0.68218278155E+03  0.68326992601E+03  0.00000000000E+00 0. -1.
          1    1    1    2  502    0  0.45919650570E+02 -0.70635363621E+01  0.13243049871E+04  0.13251196952E+04  0.00000000000E+00 0. -1.
         22    1    3    3    0    0 -0.10175732382E+02  0.54833869566E+01 -0.12063217811E+02  0.16707312350E+02  0.00000000000E+00 0. -1.
         22    1    3    3    0    0 -0.51962783348E+02  0.36528579361E+02  0.29293526747E+03  0.29974245427E+03  0.00000000000E+00 0. -1.
</event>
<event>
 7    1  0.5789396E-006  0.3266912E+03  0.7818608E-02  0.1285746E+00
          2   -1    0    0  502    0  0.00000000000E+00  0.00000000000E+00  0.42206405891E+03  0.42206405891E+03  0.00000000000E+00 0. -1.
          1   -1    0    0  501    0 -0.00000000000E+00 -0.00000000000E+00 -0.31962368487E+03  0.31962368487E+03  0.00000000000E+00 0. -1.
         25    2    1    2    0    0 -0.23073102502E+03  0.24992114313E+03  0.76449957192E+02  0.37036191927E+03  0.12500388633E+03 0.  0.
          2    1    1    2  501    0  0.20201071914E+03 -0.24542329599E+03 -0.18245789925E+02  0.31839257798E+03  0.00000000000E+00 0. -1.
          1    1    1    2  502    0  0.28720305880E+02 -0.44978471444E+01  0.44236206773E+02  0.52933246532E+02  0.00000000000E+00 0. -1.
         22    1    3    3    0    0 -0.12661887847E+03  0.21771370617E+03  0.68950783094E+02  0.26112412514E+03  0.00000000000E+00 0. -1.
         22    1    3    3    0    0 -0.10411214655E+03  0.32207436964E+02  0.74991740980E+01  0.10923779413E+03  0.00000000000E+00 0. -1.
</event>
<event>
 7    1  0.5789396E-006  0.1111080E+03  0.7818608E-02  0.1353933E+00
          2   -1    0    0  502    0  0.00000000000E+00  0.00000000000E+00  0.53987083778E+03  0.53987083778E+03  0.00000000000E+00 0. -1.
          1   -1    0    0  501    0 -0.00000000000E+00 -0.00000000000E+00 -0.11221859721E+04  0.11221859721E+04  0.00000000000E+00 0. -1.
         25    2    1    2    0    0  0.14637826150E+03 -0.28666196741E+02  0.56763420943E+02  0.20271933451E+03  0.12499878539E+03 0.  0.
          2    1    1    2  501    0 -0.11031863158E+03 -0.62175954871E+00 -0.10449795351E+04  0.10507867604E+04  0.00000000000E+00 0. -1.
          1    1    1    2  502    0 -0.36059629923E+02  0.29287956290E+02  0.40590097982E+03  0.40855071498E+03  0.00000000000E+00 0. -1.
         22    1    3    3    0    0 -0.45647453774E+01  0.20198390979E+02  0.37580929921E+02  0.42908486250E+02  0.00000000000E+00 0.  1.
         22    1    3    3    0    0  0.15094300688E+03 -0.48864587721E+02  0.19182491022E+02  0.15981084826E+03  0.00000000000E+00 0.  1.
</event>
<event>
 7    1  0.5789396E-006  0.3967578E+02  0.7818608E-02  0.1556063E+00
          2   -1    0    0  502    0  0.00000000000E+00  0.00000000000E+00  0.12923367419E+04  0.12923367419E+04  0.00000000000E+00 0. -1.
          1   -1    0    0  501    0 -0.00000000000E+00 -0.00000000000E+00 -0.71737838647E+02  0.71737838647E+02  0.00000000000E+00 0. -1.
         25    2    1    2    0    0 -0.54127178600E+02 -0.24637485326E+02  0.36030040658E+03  0.38597775723E+03  0.12500275577E+03 0.  0.
          2    1    1    2  501    0  0.28933654395E+02 -0.54076504944E+01 -0.54775459945E+02  0.62183197511E+02  0.00000000000E+00 0. -1.
          1    1    1    2  502    0  0.25193524205E+02  0.30045135820E+02  0.91507395659E+03  0.91591362577E+03  0.00000000000E+00 0. -1.
         22    1    3    3    0    0 -0.20681979556E+02  0.21378850214E+01 -0.22419889583E+01  0.20912707744E+02  0.00000000000E+00 0. -1.
         22    1    3    3    0    0 -0.33445199045E+02 -0.26775370347E+02  0.36254239553E+03  0.36506504949E+03  0.00000000000E+00 0. -1.
</event>
<event>
 7    1  0.5789396E-006  0.3499040E+02  0.7818608E-02  0.1549383E+00
          2   -1    0    0  502    0  0.00000000000E+00  0.00000000000E+00  0.20443532865E+04  0.20443532865E+04  0.00000000000E+00 0. -1.
          1   -1    0    0  501    0 -0.00000000000E+00 -0.00000000000E+00 -0.69165899537E+02  0.69165899537E+02  0.00000000000E+00 0. -1.
         25    2    1    2    0    0 -0.25574433689E+01  0.47251590015E+01  0.21144788400E+03  0.24569135558E+03  0.12500066766E+03 0.  0.
          2    1    1    2  501    0 -0.30041902057E+02 -0.17939119647E+02 -0.45972677021E+02  0.57773825608E+02  0.00000000000E+00 0. -1.
          1    1    1    2  502    0  0.32599345426E+02  0.13213960646E+02  0.18097121800E+04  0.18100540048E+04  0.00000000000E+00 0. -1.
         22    1    3    3    0    0 -0.52064767623E+01 -0.20884600151E+02 -0.93000455021E+01  0.23447063145E+02  0.00000000000E+00 0.  1.
         22    1    3    3    0    0  0.26490333934E+01  0.25609759153E+02  0.22074792950E+03  0.22224429244E+03  0.00000000000E+00 0.  1.
</event>
<event>
 7    1  0.5789396E-006  0.1038863E+03  0.7818608E-02  0.1333431E+00
          2   -1    0    0  502    0  0.00000000000E+00  0.00000000000E+00  0.27788498273E+03  0.27788498273E+03  0.00000000000E+00 0. -1.
          1   -1    0    0  501    0 -0.00000000000E+00 -0.00000000000E+00 -0.19136928349E+04  0.19136928349E+04  0.00000000000E+00 0. -1.
         25    2    1    2    0    0 -0.60222720775E+01  0.86715869323E+02 -0.55373334834E+03  0.57428351555E+03  0.12500010168E+03 0.  0.
          2    1    1    2  501    0 -0.52377145305E+02 -0.96905646344E+02 -0.13441203588E+04  0.13486265638E+04  0.00000000000E+00 0. -1.
          1    1    1    2  502    0  0.58399417383E+02  0.10189777020E+02  0.26204585495E+03  0.26866773830E+03  0.00000000000E+00 0. -1.
         22    1    3    3    0    0 -0.54628795623E+02  0.20986965520E+02 -0.12760269747E+03  0.14038235799E+03  0.00000000000E+00 0.  1.
         22    1    3    3    0    0  0.48606523545E+02  0.65728903803E+02 -0.42613065087E+03  0.43390115756E+03  0.00000000000E+00 0.  1.
</event>
<event>
 7    1  0.5789396E-006  0.2145846E+03  0.7818608E-02  0.1161659E+00
          2   -1    0    0  502    0  0.00000000000E+00  0.00000000000E+00  0.13526807840E+04  0.13526807840E+04  0.00000000000E+00 0. -1.
          1   -1    0    0  501    0 -0.00000000000E+00 -0.00000000000E+00 -0.16292319701E+03  0.16292319701E+03  0.00000000000E+00 0. -1.
         25    2    1    2    0    0  0.12830371863E+03 -0.20699332931E+03  0.40496687817E+03  0.48880980015E+03  0.12501506194E+03 0.  0.
          2    1    1    2  501    0 -0.20869017303E+03  0.66246003481E+02 -0.65244339828E+01  0.21904951389E+03  0.00000000000E+00 0. -1.
          1    1    1    2  502    0  0.80386454404E+02  0.14074732583E+03  0.79131514276E+03  0.80774466692E+03  0.00000000000E+00 0. -1.
         22    1    3    3    0    0  0.33937354693E+02 -0.14654535698E+03  0.16101077450E+03  0.22034462825E+03  0.00000000000E+00 0. -1.
         22    1    3    3    0    0  0.94366363934E+02 -0.60447972331E+02  0.24395610367E+03  0.26846517190E+03  0.00000000000E+00 0. -1.
</event>
<event>
 7    1  0.5789396E-006  0.9631293E+02  0.7818608E-02  0.1419388E+00
          2   -1    0    0  502    0  0.00000000000E+00  0.00000000000E+00  0.20032423078E+04  0.20032423078E+04  0.00000000000E+00 0. -1.
          1   -1    0    0  501    0 -0.00000000000E+00 -0.00000000000E+00 -0.46601373860E+03  0.46601373860E+03  0.00000000000E+00 0. -1.
         25    2    1    2    0    0 -0.51300473452E+02  0.10770948401E+03 -0.70357631963E+02  0.18656730246E+03  0.12499636174E+03 0.  0.
          2    1    1    2  501    0 -0.64968518159E+01 -0.30904865647E+02 -0.33562205683E+03  0.33710456069E+03  0.00000000000E+00 0. -1.
          1    1    1    2  502    0  0.57797325268E+02 -0.76804618363E+02  0.19432082580E+04  0.19455841833E+04  0.00000000000E+00 0. -1.
         22    1    3    3    0    0 -0.74189018721E+02  0.70884058418E+02 -0.92262895924E+02  0.13798913798E+03  0.00000000000E+00 0.  1.
         22    1    3    3    0    0  0.22888545269E+02  0.36825425593E+02  0.21905263961E+02  0.48578164476E+02  0.00000000000E+00 0.  1.
</event>
<event>
 7    1  0.5789396E-006  0.1120027E+03  0.7818608E-02  0.1337004E+00
          2   -1    0    0  502    0  0.00000000000E+00  0.00000000000E+00  0.33347196743E+03  0.33347196743E+03  0.00000000000E+00 0. -1.
          1   -1    0    0  501    0 -0.00000000000E+00 -0.00000000000E+00 -0.21224101975E+03  0.21224101975E+03  0.00000000000E+00 0. -1.
         25    2    1    2    0    0 -0.13431858039E+03 -0.47640720707E+02 -0.92611989176E+02  0.21098042257E+03  0.12499855545E+03 0.  0.
          2    1    1    2  501    0  0.81044250221E+02  0.46056314274E+02 -0.19623404647E+02  0.95259816231E+02  0.00000000000E+00 0. -1.
          1    1    1    2  502    0  0.53274330167E+02  0.15844064326E+01  0.23346634150E+03  0.23947274837E+03  0.00000000000E+00 0. -1.
         22    1    3    3    0    0 -0.44584230367E+02 -0.23917182385E+02  0.28751035864E+02  0.58192845556E+02  0.00000000000E+00 0. -1.
         22    1    3    3    0    0 -0.89734350020E+02 -0.23723538322E+02 -0.12136302504E+03  0.15278757702E+03  0.00000000000E+00 0. -1.
</event>
<event>
 7    1  0.5789396E-006  0.6683524E+02  0.7818608E-02  0.1454932E+00
          2   -1    0    0  502    0  0.00000000000E+00  0.00000000000E+00  0.36027836338E+03  0.36027836338E+03  0.00000000000E+00 0. -1.
          1   -1    0    0  501    0 -0.00000000000E+00 -0.00000000000E+00 -0.50547752362E+03  0.50547752362E+03  0.00000000000E+00 0. -1.
         25    2    1    2    0    0 -0.93068378683E+02 -0.37228607518E+02 -0.20927195705E+03  0.26356001744E+03  0.12498575301E+03 0.  0.
          2    1    1    2  501    0  0.34246275224E+02  0.64810840980E+01 -0.26460125450E+03  0.26688693430E+03  0.00000000000E+00 0. -1.
          1    1    1    2  502    0  0.58822103459E+02  0.30747523420E+02  0.32867405131E+03  0.33530893525E+03  0.00000000000E+00 0. -1.
         22    1    3    3    0    0 -0.17693621369E+02 -0.19672562338E+02 -0.17821553373E+03  0.18016894962E+03  0.00000000000E+00 0. -1.
         22    1    3    3    0    0 -0.75374757314E+02 -0.17556045181E+02 -0.31056423327E+02  0.83391067821E+02  0.00000000000E+00 0. -1.
</event>
<event>
 7    1  0.5789396E-006  0.1683978E+03  0.7818608E-02  0.1299968E+00
          2   -1    0    0  502    0  0.00000000000E+00  0.00000000000E+00  0.91060962860E+03  0.91060962860E+03  0.00000000000E+00 0. -1.
          1   -1    0    0  501    0 -0.00000000000E+00 -0.00000000000E+00 -0.12160935535E+03  0.12160935535E+03  0.00000000000E+00 0. -1.
         25    2    1    2    0    0  0.10857972343E+03 -0.16724098707E+03  0.29773042014E+03  0.37951016999E+03  0.12500184780E+03 0.  0.
          2    1    1    2  501    0 -0.11034760341E+03  0.11787928053E+03  0.25392519248E+01  0.16148859451E+03  0.00000000000E+00 0. -1.
          1    1    1    2  502    0  0.17678799743E+01  0.49361706536E+02  0.48873060117E+03  0.49122021945E+03  0.00000000000E+00 0. -1.
         22    1    3    3    0    0  0.46274808961E+02 -0.19624369638E+02  0.11619794723E+02  0.51589664250E+02  0.00000000000E+00 0. -1.
         22    1    3    3    0    0  0.62304914471E+02 -0.14761661743E+03  0.28611062542E+03  0.32792050574E+03  0.00000000000E+00 0. -1.
</event>
<event>
 7    1  0.5789396E-006  0.2014824E+03  0.7818608E-02  0.1224356E+00
          2   -1    0    0  502    0  0.00000000000E+00  0.00000000000E+00  0.54168977891E+03  0.54168977891E+03  0.00000000000E+00 0. -1.
          1   -1    0    0  501    0 -0.00000000000E+00 -0.00000000000E+00 -0.35808597875E+03  0.35808597875E+03  0.00000000000E+00 0. -1.
         25    2    1    2    0    0  0.22376372142E+03  0.11254298364E+03 -0.16321390041E+03  0.32403939316E+03  0.12500649919E+03 0.  0.
          2    1    1    2  501    0 -0.14919302946E+03 -0.68462236744E+02 -0.48398965846E+02  0.17113765744E+03  0.00000000000E+00 0. -1.
          1    1    1    2  502    0 -0.74570691958E+02 -0.44080746901E+02  0.39521666641E+03  0.40459870706E+03  0.00000000000E+00 0. -1.
         22    1    3    3    0    0  0.22104554178E+03  0.63641383059E+02 -0.12413713536E+03  0.26138359847E+03  0.00000000000E+00 0.  1.
         22    1    3    3    0    0  0.27181796420E+01  0.48901600586E+02 -0.39076765055E+02  0.62655794685E+02  0.00000000000E+00 0.  1.
</event>
<event>
 7    1  0.5789396E-006  0.1130879E+03  0.7818608E-02  0.1262215E+00
          2   -1    0    0  502    0  0.00000000000E+00  0.00000000000E+00  0.19187896942E+03  0.19187896942E+03  0.00000000000E+00 0. -1.
          1   -1    0    0  501    0 -0.00000000000E+00 -0.00000000000E+00 -0.13072937715E+04  0.13072937715E+04  0.00000000000E+00 0. -1.
         25    2    1    2    0    0  0.26461541828E+02  0.91360024282E+01  0.43571240757E+02  0.13530785986E+03  0.12500433666E+03 0.  0.
          2    1    1    2  501    0 -0.86785457096E+02  0.77152998491E+02 -0.12308994068E+04  0.12363646915E+04  0.00000000000E+00 0. -1.
          1    1    1    2  502    0  0.60323915268E+02 -0.86289000919E+02  0.71913363930E+02  0.12750018959E+03  0.00000000000E+00 0. -1.
         22    1    3    3    0    0 -0.98901340046E+01  0.28162017782E+02  0.76872962334E+02  0.82464333710E+02  0.00000000000E+00 0. -1.
         22    1    3    3    0    0  0.36351675833E+02 -0.19026015354E+02 -0.33301721578E+02  0.52843526152E+02  0.00000000000E+00 0. -1.
</event>
<event>
 7    1  0.5789396E-006  0.1488069E+03  0.7818608E-02  0.1208695E+00
          2   -1    0    0  502    0  0.00000000000E+00  0.00000000000E+00  0.53141857011E+04  0.53141857011E+04  0.00000000000E+00 0. -1.
          1   -1    0    0  501    0 -0.00000000000E+00 -0.00000000000E+00 -0.11696076490E+03  0.11696076490E+03  0.00000000000E+00 0. -1.
         25    2    1    2    0    0 -0.26450973082E+02 -0.61627177602E-01  0.53019473804E+03  0.54537253881E+03  0.12500035226E+03 0.  0.
          2    1    1    2  501    0  0.15285170208E+03  0.56387361184E+02 -0.47116167878E+02  0.16959690623E+03  0.00000000000E+00 0. -1.
          1    1    1    2  502    0 -0.12640072899E+03 -0.56325734007E+02  0.47141463661E+04  0.47161770210E+04  0.00000000000E+00 0. -1.
         22    1    3    3    0    0  0.48651795674E+02  0.10345719463E+02  0.16250371791E+03  0.16994554854E+03  0.00000000000E+00 0. -1.
         22    1    3    3    0    0 -0.75102768756E+02 -0.10407346640E+02  0.36769102013E+03  0.37542699027E+03  0.00000000000E+00 0. -1.
</event>
<event>
 7    1  0.5789396E-006  0.8269989E+02  0.7818608E-02  0.1492045E+00
          2   -1    0    0  502    0  0.00000000000E+00  0.00000000000E+00  0.10546413797E+04  0.10546413797E+04  0.00000000000E+00 0. -1.
          1   -1    0    0  501    0 -0.00000000000E+00 -0.00000000000E+00 -0.71560517278E+02  0.71560517278E+02  0.00000000000E+00 0. -1.
         25    2    1    2    0    0 -0.76998670627E+02  0.67493836332E+02  0.77460284495E+02  0.17919066701E+03  0.12499994499E+03 0.  0.
          2    1    1    2  501    0  0.19760645565E+02 -0.87710854409E+01 -0.12675101586E+02  0.25061389690E+02  0.00000000000E+00 0. -1.
          1    1    1    2  502    0  0.57238025062E+02 -0.58722750891E+02  0.91829567947E+03  0.92194984024E+03  0.00000000000E+00 0. -1.
         22    1    3    3    0    0 -0.90804227014E+02  0.59403161411E+02  0.89956871257E+01  0.10888096995E+03  0.00000000000E+00 0. -1.
         22    1    3    3    0    0  0.13805556387E+02  0.80906749206E+01  0.68464597369E+02  0.70309697060E+02  0.00000000000E+00 0. -1.
</event>
<event>
 7    1  0.5789396E-006  0.8143614E+02  0.7818608E-02  0.1341786E+00
          2   -1    0    0  502    0  0.00000000000E+00  0.00000000000E+00  0.40617267318E+03  0.40617267318E+03  0.00000000000E+00 0. -1.
          1   -1    0    0  501    0 -0.00000000000E+00 -0.00000000000E+00 -0.18115363698E+04  0.18115363698E+04  0.00000000000E+00 0. -1.
         25    2    1    2    0    0  0.93205385456E+01  0.30896708707E+02 -0.14422712469E+03  0.19356631631E+03  0.12499990507E+03 0.  0.
          2    1    1    2  501    0 -0.61782753020E+02  0.33594982659E+02 -0.16373467747E+04  0.16388563671E+04  0.00000000000E+00 0. -1.
          1    1    1    2  502    0  0.52462214475E+02 -0.64491691366E+02  0.37621020276E+03  0.38528635956E+03  0.00000000000E+00 0. -1.
         22    1    3    3    0    0  0.12101172524E+02  0.76058309728E+02 -0.11904095447E+03  0.14178171143E+03  0.00000000000E+00 0. -1.
         22    1    3    3    0    0 -0.27806339780E+01 -0.45161601021E+02 -0.25186170211E+02  0.51784604875E+02  0.00000000000E+00 0. -1.
</event>
<event>
 7    1  0.5789396E-006  0.7171912E+02  0.7818608E-02  0.1454892E+00
          2   -1    0    0  502    0  0.00000000000E+00  0.00000000000E+00  0.16826140499E+04  0.16826140499E+04  0.00000000000E+00 0. -1.
          1   -1    0    0  501    0 -0.00000000000E+00 -0.00000000000E+00 -0.33369911018E+03  0.33369911018E+03  0.00000000000E+00 0. -1.
         25    2    1    2    0    0  0.28457083871E+02  0.30979558302E+02  0.17832862685E+03  0.22180576539E+03  0.12500863870E+03 0.  0.
          2    1    1    2  501    0  0.29779628480E+02  0.12991636727E+02 -0.31021369117E+03  0.31191047287E+03  0.00000000000E+00 0. -1.
          1    1    1    2  502    0 -0.58236712350E+02 -0.43971195029E+02  0.14808000041E+04  0.14825969219E+04  0.00000000000E+00 0. -1.
         22    1    3    3    0    0 -0.24447206817E+02 -0.34907924039E+02  0.33821392994E+02  0.54406945383E+02  0.00000000000E+00 0.  1.
         22    1    3    3    0    0  0.52904290687E+02  0.65887482341E+02  0.14450723386E+03  0.16739882001E+03  0.00000000000E+00 0.  1.
</event>
<event>
 7    1  0.5789396E-006  0.1338518E+03  0.7818608E-02  0.1283593E+00
          2   -1    0    0  502    0  0.00000000000E+00  0.00000000000E+00  0.99718742591E+02  0.99718742591E+02  0.00000000000E+00 0. -1.
          1   -1    0    0  501    0 -0.00000000000E+00 -0.00000000000E+00 -0.72164965936E+03  0.72164965936E+03  0.00000000000E+00 0. -1.
         25    2    1    2    0    0 -0.12149876061E+03  0.44812695323E+02 -0.28214450835E+03  0.33466476124E+03  0.12499940933E+03 0.  0.
          2    1    1    2  501    0 -0.14299207499E+02 -0.70983069340E+02 -0.34079578594E+03  0.34840325944E+03  0.00000000000E+00 0. -1.
          1    1    1    2  502    0  0.13579796810E+03  0.26170374017E+02  0.10093775269E+01  0.13830038127E+03  0.00000000000E+00 0. -1.
         22    1    3    3    0    0  0.22060995500E+02  0.11914763361E+02 -0.13953610905E+02  0.28694117266E+02  0.00000000000E+00 0.  1.
         22    1    3    3    0    0 -0.14355975611E+03  0.32897931962E+02 -0.26819089744E+03  0.30597064397E+03  0.00000000000E+00 0.  1.
</event>
<event>
 7    1  0.5789396E-006  0.1529249E+03  0.7818608E-02  0.1236817E+00
          2   -1    0    0  502    0  0.00000000000E+00  0.00000000000E+00  0.33682364246E+03  0.33682364246E+03  0.00000000000E+00 0. -1.
          1   -1    0    0  501    0 -0.00000000000E+00 -0.00000000000E+00 -0.33441920210E+03  0.33441920210E+03  0.00000000000E+00 0. -1.
         25    2    1    2    0    0  0.12904148598E+03 -0.61663227353E+02  0.15425724666E+02  0.19057075019E+03  0.12500079654E+03 0.  0.
          2    1    1    2  501    0 -0.73030012434E+02  0.14494505902E+03 -0.20653663540E+03  0.26267819592E+03  0.00000000000E+00 0. -1.
          1    1    1    2  502    0 -0.56011473542E+02 -0.83281831671E+02  0.19351535108E+03  0.21799389845E+03  0.00000000000E+00 0. -1.
         22    1    3    3    0    0  0.36601016961E+02 -0.36174528418E+02  0.64773695122E+02  0.82727640657E+02  0.00000000000E+00 0. -1.
         22    1    3    3    0    0  0.92440469015E+02 -0.25488698934E+02 -0.49347970456E+02  0.10784310953E+03  0.00000000000E+00 0. -1.
</event>
<event>
 7    1  0.5789396E-006  0.2567133E+03  0.7818608E-02  0.1336296E+00
          2   -1    0    0  502    0  0.00000000000E+00  0.00000000000E+00  0.22688372553E+04  0.22688372553E+04  0.00000000000E+00 0. -1.
          1   -1    0    0  501    0 -0.00000000000E+00 -0.00000000000E+00 -0.16858250541E+04  0.16858250541E+04  0.00000000000E+00 0. -1.
         25    2    1    2    0    0 -0.13339760384E+03  0.24000040235E+03 -0.23391767194E+03  0.38174034591E+03  0.12495239337E+03 0.  0.
          2    1    1    2  501    0 -0.32388443003E+01 -0.23172266485E+02 -0.13704145024E+04  0.13706142246E+04  0.00000000000E+00 0. -1.
          1    1    1    2  502    0  0.13663644814E+03 -0.21682813587E+03  0.21873443756E+04  0.22023077389E+04  0.00000000000E+00 0. -1.
         22    1    3    3    0    0 -0.23898459076E+02  0.14882516937E+02 -0.87078293268E+02  0.91516418281E+02  0.00000000000E+00 0.  1.
         22    1    3    3    0    0 -0.10949914477E+03  0.22511788541E+03 -0.14683937867E+03  0.29022392763E+03  0.00000000000E+00 0.  1.
</event>
<event>
 7    1  0.5789396E-006  0.3082496E+02  0.7818608E-02  0.1599004E+00
          2   -1    0    0  502    0  0.00000000000E+00  0.00000000000E+00  0.25184721954E+03  0.25184721954E+03  0.00000000000E+00 0. -1.
          1   -1    0    0  501    0 -0.00000000000E+00 -0.00000000000E+00 -0.30511396812E+03  0.30511396812E+03  0.00000000000E+00 0. -1.
         25    2    1    2    0    0 -0.40928150013E+02 -0.57494642086E+01 -0.41623213877E+02  0.13810364945E+03  0.12502782193E+03 0.  0.
          2    1    1    2  501    0  0.18753469593E+02  0.24495065506E+02 -0.21309892387E+03  0.21532034788E+03  0.00000000000E+00 0. -1.
          1    1    1    2  502    0  0.22174680420E+02 -0.18745601298E+02  0.20145538917E+03  0.20353719033E+03  0.00000000000E+00 0. -1.
         22    1    3    3    0    0 -0.22131410500E+02 -0.63066053725E+02 -0.38813078907E+01  0.66949167390E+02  0.00000000000E+00 0. -1.
         22    1    3    3    0    0 -0.18796739513E+02  0.57316589517E+02 -0.37741905986E+02  0.71154482063E+02  0.00000000000E+00 0. -1.
</event>
<event>
 7    1  0.5789396E-006  0.5002731E+02  0.7818608E-02  0.1564055E+00
          2   -1    0    0  502    0  0.00000000000E+00  0.00000000000E+00  0.16976573261E+03  0.16976573261E+03  0.00000000000E+00 0. -1.
          1   -1    0    0  501    0 -0.00000000000E+00 -0.00000000000E+00 -0.42218762934E+03  0.42218762934E+03  0.00000000000E+00 0. -1.
         25    2    1    2    0    0  0.21486597959E+02  0.33160392710E+02 -0.22407605134E+03  0.25960835105E+03  0.12500053444E+03 0.  0.
          2    1    1    2  501    0 -0.14672239188E+02  0.16648361802E+02 -0.17547057615E+03  0.17686821548E+03  0.00000000000E+00 0. -1.
          1    1    1    2  502    0 -0.68143587714E+01 -0.49808754513E+02  0.14712473076E+03  0.15547679542E+03  0.00000000000E+00 0. -1.
         22    1    3    3    0    0  0.58317576524E+02  0.16827819137E+01 -0.43849724363E+02  0.72983352988E+02  0.00000000000E+00 0. -1.
         22    1    3    3    0    0 -0.36830978565E+02  0.31477610797E+02 -0.18022632698E+03  0.18662499806E+03  0.00000000000E+00 0. -1.
</event>
<event>
 7    1  0.5789396E-006  0.2578817E+03  0.7818608E-02  0.1307683E+00
          2   -1    0    0  502    0  0.00000000000E+00  0.00000000000E+00  0.13991755845E+04  0.13991755845E+04  0.00000000000E+00 0. -1.
          1   -1    0    0  501    0 -0.00000000000E+00 -0.00000000000E+00 -0.15074095225E+04  0.15074095225E+04  0.00000000000E+00 0. -1.
         25    2    1    2    0    0 -0.26862209714E+03  0.93865337486E+02 -0.62243263460E+02  0.31696806894E+03  0.12500400085E+03 0.  0.
          2    1    1    2  501    0  0.24308773545E+03 -0.78017117100E+02 -0.13052579444E+04  0.13299912101E+04  0.00000000000E+00 0. -1.
          1    1    1    2  502    0  0.25534361691E+02 -0.15848220386E+02  0.12592672698E+04  0.12596258280E+04  0.00000000000E+00 0. -1.
         22    1    3    3    0    0 -0.17808443557E+03  0.10753033334E+03 -0.32693804574E+01  0.20805654911E+03  0.00000000000E+00 0.  1.
         22    1    3    3    0    0 -0.90537661570E+02 -0.13664995858E+02 -0.58973883003E+02  0.10891151983E+03  0.00000000000E+00 0.  1.
</event>
<event>
 7    1  0.5789396E-006  0.4679397E+02  0.7818608E-02  0.1503237E+00
          2   -1    0    0  502    0  0.00000000000E+00  0.00000000000E+00  0.14152530435E+04  0.14152530435E+04  0.00000000000E+00 0. -1.
          1   -1    0    0  501    0 -0.00000000000E+00 -0.00000000000E+00 -0.78661767485E+03  0.78661767485E+03  0.00000000000E+00 0. -1.
         25    2    1    2    0    0 -0.38721128314E+02 -0.71697732754E+02  0.27081077194E+02  0.15165270004E+03  0.12500106410E+03 0.  0.
          2    1    1    2  501    0  0.25510134890E+02  0.38885616926E+02 -0.72334907488E+03  0.72484256381E+03  0.00000000000E+00 0. -1.
          1    1    1    2  502    0  0.13210993424E+02  0.32812115828E+02  0.13249033663E+04  0.13253754545E+04  0.00000000000E+00 0. -1.
         22    1    3    3    0    0 -0.20978692082E+02  0.21666203715E+02 -0.28553278974E+02  0.41530948039E+02  0.00000000000E+00 0. -1.
         22    1    3    3    0    0 -0.17742436232E+02 -0.93363936469E+02  0.55634356168E+02  0.11012175200E+03  0.00000000000E+00 0. -1.
</event>
<event>
 7    1  0.5789396E-006  0.9650012E+02  0.7818608E-02  0.1424645E+00
          2   -1    0    0  502    0  0.00000000000E+00  0.00000000000E+00  0.10713272097E+04  0.10713272097E+04  0.00000000000E+00 0. -1.
          1   -1    0    0  501    0 -0.00000000000E+00 -0.00000000000E+00 -0.10770731500E+04  0.10770731500E+04  0.00000000000E+00 0. -1.
         25    2    1    2    0    0  0.58576069938E+02  0.10688775469E+03 -0.13005849642E+03  0.21770153789E+03  0.12499039578E+03 0.  0.
          2    1    1    2  501    0 -0.56225251234E+02 -0.76705443929E+02 -0.90046535873E+03  0.90547383522E+03  0.00000000000E+00 0. -1.
          1    1    1    2  502    0 -0.23508187044E+01 -0.30182310764E+02  0.10247779148E+04  0.10252249865E+04  0.00000000000E+00 0. -1.
         22    1    3    3    0    0 -0.25005934614E+02  0.81319843615E+02 -0.47346790620E+02  0.97364943966E+02  0.00000000000E+00 0.  1.
         22    1    3    3    0    0  0.83582004553E+02  0.25567911078E+02 -0.82711705797E+02  0.12033659393E+03  0.00000000000E+00 0.  1.
</event>
<event>
 7    1  0.5789396E-006  0.5904754E+02  0.7818608E-02  0.1455420E+00
          2   -1    0    0  502    0  0.00000000000E+00  0.00000000000E+00  0.26942278913E+04  0.26942278913E+04  0.00000000000E+00 0. -1.
          1   -1    0    0  501    0 -0.00000000000E+00 -0.00000000000E+00 -0.20664433887E+02  0.20664433887E+02  0.00000000000E+00 0. -1.
         25    2    1    2    0    0 -0.68696665084E+02  0.52394053472E+02  0.13406885447E+04  0.13492713829E+04  0.12499248851E+03 0.  0.
          2    1    1    2  501    0  0.15156330024E+02 -0.36271390278E+02  0.86947170442E+01  0.40260727726E+02  0.00000000000E+00 0. -1.
          1    1    1    2  502    0  0.53540335061E+02 -0.16122663194E+02  0.13241801957E+04  0.13253602146E+04  0.00000000000E+00 0. -1.
         22    1    3    3    0    0  0.14054077573E+02 -0.19725794199E+02  0.60047399725E+03  0.60096226622E+03  0.00000000000E+00 0.  1.
         22    1    3    3    0    0 -0.82750742657E+02  0.72119847671E+02  0.74021454742E+03  0.74830911665E+03  0.00000000000E+00 0.  1.
</event>
<event>
 7    1  0.5789396E-006  0.2399612E+03  0.7818608E-02  0.1170170E+00
          2   -1    0    0  502    0  0.00000000000E+00  0.00000000000E+00  0.12031025316E+04  0.12031025316E+04  0.00000000000E+00 0. -1.
          1   -1    0    0  501    0 -0.00000000000E+00 -0.00000000000E+00 -0.28682367582E+03  0.28682367582E+03  0.00000000000E+00 0. -1.
         25    2    1    2    0    0  0.11143246949E+03  0.12640408898E+03  0.40887988956E+03  0.45955495509E+03  0.12495120525E+03 0.  0.
          2    1    1    2  501    0 -0.57584147886E+02 -0.24627440463E+03 -0.19275247179E+03  0.31799454688E+03  0.00000000000E+00 0. -1.
          1    1    1    2  502    0 -0.53848321601E+02  0.11987031565E+03  0.70015143804E+03  0.71237670547E+03  0.00000000000E+00 0. -1.
         22    1    3    3    0    0  0.11670735965E+03  0.93717291507E+02  0.39716606367E+03  0.42443423596E+03  0.00000000000E+00 0.  1.
         22    1    3    3    0    0 -0.52748901607E+01  0.32686797471E+02  0.11713825890E+02  0.35120719128E+02  0.00000000000E+00 0.  1.
</event>
<event>
 7    1  0.5789396E-006  0.8577578E+02  0.7818608E-02  0.1458936E+00
          2   -1    0    0  502    0  0.00000000000E+00  0.00000000000E+00  0.17439905532E+04  0.17439905532E+04  0.00000000000E+00 0. -1.
          1   -1    0    0  501    0 -0.00000000000E+00 -0.00000000000E+00 -0.63187330552E+02  0.63187330552E+02  0.00000000000E+00 0. -1.
         25    2    1    2    0    0 -0.86958538545E+02  0.68061553867E+02  0.82536407804E+03  0.84204631547E+03  0.12498789351E+03 0.  0.
          2    1    1    2  501    0  0.63251320093E+02 -0.56500168936E+02 -0.21741921255E+02  0.87554038874E+02  0.00000000000E+00 0. -1.
          1    1    1    2  502    0  0.23707218452E+02 -0.11561384931E+02  0.87718106590E+03  0.87757752945E+03  0.00000000000E+00 0. -1.
         22    1    3    3    0    0  0.27479350711E+02 -0.77969662056E+01  0.17861055433E+03  0.18088017447E+03  0.00000000000E+00 0. -1.
         22    1    3    3    0    0 -0.11443788926E+03  0.75858520073E+02  0.64675352371E+03  0.66116614100E+03  0.00000000000E+00 0. -1.
</event>
<event>
 7    1  0.5789396E-006  0.1548986E+03  0.7818608E-02  0.1236086E+00
          2   -1    0    0  502    0  0.00000000000E+00  0.00000000000E+00  0.10581866138E+04  0.10581866138E+04  0.00000000000E+00 0. -1.
          1   -1    0    0  501    0 -0.00000000000E+00 -0.00000000000E+00 -0.63874941395E+03  0.63874941395E+03  0.00000000000E+00 0. -1.
         25    2    1    2    0    0 -0.20245863144E+02  0.11796654849E+03 -0.11713640785E+03  0.20897633118E+03  0.12499666960E+03 0.  0.
          2    1    1    2  501    0  0.11986144544E+03 -0.12448713135E+03 -0.45741499625E+03  0.48897064408E+03  0.00000000000E+00 0. -1.
          1    1    1    2  502    0 -0.99615582292E+02  0.65205828602E+01  0.99398860391E+03  0.99898905247E+03  0.00000000000E+00 0. -1.
         22    1    3    3    0    0  0.20554480350E+02  0.11653530618E+03 -0.46006104564E+02  0.12696269494E+03  0.00000000000E+00 0.  1.
         22    1    3    3    0    0 -0.40800343494E+02  0.14312423096E+01 -0.71130303285E+02  0.82013636239E+02  0.00000000000E+00 0.  1.
</event>
<event>
 7    1  0.5789396E-006  0.3802990E+02  0.7818608E-02  0.1539487E+00
          2   -1    0    0  502    0  0.00000000000E+00  0.00000000000E+00  0.96916369936E+03  0.96916369936E+03  0.00000000000E+00 0. -1.
          1   -1    0    0  501    0 -0.00000000000E+00 -0.00000000000E+00 -0.14450489998E+03  0.14450489998E+03  0.00000000000E+00 0. -1.
         25    2    1    2    0    0 -0.62915983992E+02  0.26384287437E+02  0.54669222026E+03  0.56493434078E+03  0.12499549604E+03 0.  0.
          2    1    1    2  501    0  0.37760103395E+02 -0.32604860035E+01 -0.13200655682E+03  0.13733967825E+03  0.00000000000E+00 0. -1.
          1    1    1    2  502    0  0.25155880597E+02 -0.23123801434E+02  0.40997313594E+03  0.41139458032E+03  0.00000000000E+00 0. -1.
         22    1    3    3    0    0 -0.89732416689E+02 -0.14856154555E+02  0.40011713456E+03  0.41032466816E+03  0.00000000000E+00 0. -1.
         22    1    3    3    0    0  0.26816432697E+02  0.41240441993E+02  0.14657508570E+03  0.15460967262E+03  0.00000000000E+00 0. -1.
</event>
<event>
 7    1  0.5789396E-006  0.3268201E+02  0.7818608E-02  0.1572389E+00
          2   -1    0    0  502    0  0.00000000000E+00  0.00000000000E+00  0.19303323528E+04  0.19303323528E+04  0.00000000000E+00 0. -1.
          1   -1    0    0  501    0 -0.00000000000E+00 -0.00000000000E+00 -0.87835735038E+01  0.87835735038E+01  0.00000000000E+00 0. -1.
         25    2    1    2    0    0  0.26667397971E+01 -0.14655912338E+01  0.10380925112E+04  0.10455950134E+04  0.12499444309E+03 0.  0.
          2    1    1    2  501    0 -0.21805671579E+00  0.34055739926E+02  0.56861095031E+02  0.66279899659E+02  0.00000000000E+00 0. -1.
          1    1    1    2  502    0 -0.24486830813E+01 -0.32590148692E+02  0.82659517304E+03  0.82724101320E+03  0.00000000000E+00 0. -1.
         22    1    3    3    0    0  0.44784899986E+02 -0.45193395992E+02  0.47609091675E+03  0.48032352776E+03  0.00000000000E+00 0.  1.
         22    1    3    3    0    0 -0.42118160189E+02  0.43727804758E+02  0.56200159445E+03  0.56527148565E+03  0.00000000000E+00 0.  1.
</event>
<event>
 7    1  0.5789396E-006  0.8628948E+02  0.7818608E-02  0.1370932E+00
          2   -1    0    0  502    0  0.00000000000E+00  0.00000000000E+00  0.44325550494E+03  0.44325550494E+03  0.00000000000E+00 0. -1.
          1   -1    0    0  501    0 -0.00000000000E+00 -0.00000000000E+00 -0.15417201677E+03  0.15417201677E+03  0.00000000000E+00 0. -1.
         25    2    1    2    0    0 -0.79964729449E+02  0.26447713086E+02 -0.67230093611E+02  0.16504385374E+03  0.12500299472E+03 0.  0.
          2    1    1    2  501    0  0.61863557532E+02 -0.75068667326E+02  0.29746986808E+02  0.10172161908E+03  0.00000000000E+00 0. -1.
          1    1    1    2  502    0  0.18101171916E+02  0.48620954240E+02  0.32656659498E+03  0.33066204888E+03  0.00000000000E+00 0. -1.
         22    1    3    3    0    0 -0.57412236617E+02 -0.36872694069E+02  0.23843085404E+01  0.68274778714E+02  0.00000000000E+00 0.  1.
         22    1    3    3    0    0 -0.22552492832E+02  0.63320407155E+02 -0.69614402152E+02  0.96769075030E+02  0.00000000000E+00 0.  1.
</event>
<event>
 7    1  0.5789396E-006  0.2762805E+03  0.7818608E-02  0.1101421E+00
          2   -1    0    0  502    0  0.00000000000E+00  0.00000000000E+00  0.98214515337E+03  0.98214515337E+03  0.00000000000E+00 0. -1.
          1   -1    0    0  501    0 -0.00000000000E+00 -0.00000000000E+00 -0.45023965357E+04  0.45023965357E+04  0.00000000000E+00 0. -1.
         25    2    1    2    0    0 -0.79341197471E+01 -0.20974473676E+03 -0.90203609340E+03  0.93453188699E+03  0.12499971654E+03 0.  0.
          2    1    1    2  501    0  0.27999475614E+03  0.16164132010E+03 -0.35568733784E+04  0.35715365334E+04  0.00000000000E+00 0. -1.
          1    1    1    2  502    0 -0.27206063640E+03  0.48103416665E+02  0.93865808946E+03  0.97847326866E+03  0.00000000000E+00 0. -1.
         22    1    3    3    0    0  0.55088692054E+02 -0.58049381608E+02 -0.29363552031E+03  0.30434571376E+03  0.00000000000E+00 0. -1.
         22    1    3    3    0    0 -0.63022811802E+02 -0.15169535515E+03 -0.60840057310E+03  0.63018617323E+03  0.00000000000E+00 0. -1.
</event>
<event>
 7    1  0.5789396E-006  0.1603303E+03  0.7818608E-02  0.1286733E+00
          2   -1    0    0  502    0  0.00000000000E+00  0.00000000000E+00  0.47262365448E+03  0.47262365448E+03  0.00000000000E+00 0. -1.
          1   -1    0    0  501    0 -0.00000000000E+00 -0.00000000000E+00 -0.11626778592E+04  0.11626778592E+04  0.00000000000E+00 0. -1.
         25    2    1    2    0    0  0.53595476935E+02  0.94897701002E+02 -0.14087164575E+03  0.21758224921E+03  0.12497666099E+03 0.  0.
          2    1    1    2  501    0  0.45816921809E+02  0.36671376927E+02 -0.96687446680E+03  0.96865381574E+03  0.00000000000E+00 0. -1.
          1    1    1    2  502    0 -0.99412398744E+02 -0.13156907793E+03  0.41769190787E+03  0.44906544868E+03  0.00000000000E+00 0. -1.
         22    1    3    3    0    0  0.74244645258E+02  0.49714437842E+02 -0.14213586408E+03  0.16788804763E+03  0.00000000000E+00 0.  1.
         22    1    3    3    0    0 -0.20649168323E+02  0.45183263160E+02  0.12642183390E+01  0.49694201575E+02  0.00000000000E+00 0.  1.
</event>
<event>
 7    1  0.5789396E-006  0.2798369E+03  0.7818608E-02  0.1261111E+00
          2   -1    0    0  502    0  0.00000000000E+00  0.00000000000E+00  0.20011581325E+04  0.20011581325E+04  0.00000000000E+00 0. -1.
          1   -1    0    0  501    0 -0.00000000000E+00 -0.00000000000E+00 -0.17897474191E+03  0.17897474191E+03  0.00000000000E+00 0. -1.
         25    2    1    2    0    0 -0.28333524732E+03  0.74695150191E+02  0.49529574251E+03  0.58889796436E+03  0.12499884817E+03 0.  0.
          2    1    1    2  501    0  0.27498809527E+03 -0.32502600155E+02  0.13592532417E+02  0.27723569123E+03  0.00000000000E+00 0. -1.
          1    1    1    2  502    0  0.83471520540E+01 -0.42192550036E+02  0.13132951157E+04  0.13139992188E+04  0.00000000000E+00 0. -1.
         22    1    3    3    0    0 -0.15411412978E+03  0.96873016779E+02  0.33995686058E+03  0.38562444611E+03  0.00000000000E+00 0.  1.
         22    1    3    3    0    0 -0.12922111754E+03 -0.22177866588E+02  0.15533888193E+03  0.20327351825E+03  0.00000000000E+00 0.  1.
</event>
<event>
 7    1  0.5789396E-006  0.7519207E+02  0.7818608E-02  0.1362091E+00
          2   -1    0    0  502    0  0.00000000000E+00  0.00000000000E+00  0.33761293074E+03  0.33761293074E+03  0.00000000000E+00 0. -1.
          1   -1    0    0  501    0 -0.00000000000E+00 -0.00000000000E+00 -0.31155742382E+03  0.31155742382E+03  0.00000000000E+00 0. -1.
         25    2    1    2    0    0 -0.42658792378E+02  0.11849848209E+03 -0.14485868177E+03  0.22906382039E+03  0.12499813319E+03 0.  0.
          2    1    1    2  501    0  0.35033009494E+02 -0.54870607639E+02 -0.11226064312E+03  0.12977113443E+03  0.00000000000E+00 0. -1.
          1    1    1    2  502    0  0.76257828842E+01 -0.63627874453E+02  0.28317483182E+03  0.29033539975E+03  0.00000000000E+00 0. -1.
         22    1    3    3    0    0  0.16805152758E+02 -0.12406770909E+02  0.49032546489E+01  0.21456538159E+02  0.00000000000E+00 0.  1.
         22    1    3    3    0    0 -0.59463945136E+02  0.13090525300E+03 -0.14976193642E+03  0.20760728223E+03  0.00000000000E+00 0.  1.
</event>
<event>
 7    1  0.5789396E-006  0.4036283E+02  0.7818608E-02  0.1559752E+00
          2   -1    0    0  502    0  0.00000000000E+00  0.00000000000E+00  0.18491426176E+04  0.18491426176E+04  0.00000000000E+00 0. -1.
          1   -1    0    0  501    0 -0.00000000000E+00 -0.00000000000E+00 -0.22499602446E+03  0.22499602446E+03  0.00000000000E+00 0. -1.
         25    2    1    2    0    0 -0.22105674099E+02 -0.31703834300E+02 -0.33868140755E+02  0.13515814878E+03  0.12500752092E+03 0.  0.
          2    1    1    2  501    0  0.39845342843E+02  0.97013562479E+01 -0.13737645147E+03  0.14336686185E+03  0.00000000000E+00 0. -1.
          1    1    1    2  502    0 -0.17739668744E+02  0.22002478052E+02  0.17953911853E+04  0.17956136314E+04  0.00000000000E+00 0. -1.
         22    1    3    3    0    0  0.17687831126E+02 -0.33266609109E+02  0.37672596249E+02  0.53279932054E+02  0.00000000000E+00 0. -1.
         22    1    3    3    0    0 -0.39793505225E+02  0.15627748086E+01 -0.71540737004E+02  0.81878216726E+02  0.00000000000E+00 0. -1.
</event>
<event>
 7    1  0.5789396E-006  0.1176789E+03  0.7818608E-02  0.1315290E+00
          2   -1    0    0  502    0  0.00000000000E+00  0.00000000000E+00  0.19350541772E+04  0.19350541772E+04  0.00000000000E+00 0. -1.
          1   -1    0    0  501    0 -0.00000000000E+00 -0.00000000000E+00 -0.44833014039E+03  0.44833014039E+03  0.00000000000E+00 0. -1.
         25    2    1    2    0    0 -0.21634100624E+02 -0.10392727969E+03 -0.32147432582E+03  0.36088779444E+03  0.12500137696E+03 0.  0.
          2    1    1    2  501    0  0.73965663553E+02  0.13618501797E+03 -0.50336753704E+02  0.16294498237E+03  0.00000000000E+00 0. -1.
          1    1    1    2  502    0 -0.52331562928E+02 -0.32257738280E+02  0.18585351163E+04  0.18595515408E+04  0.00000000000E+00 0. -1.
         22    1    3    3    0    0  0.17325667291E+02 -0.10906118818E+03 -0.29072264874E+03  0.31098903518E+03  0.00000000000E+00 0.  1.
         22    1    3    3    0    0 -0.38959767916E+02  0.51339084855E+01 -0.30751677084E+02  0.49898759262E+02  0.00000000000E+00 0.  1.
</event>
<event>
 7    1  0.5789396E-006  0.8714815E+02  0.7818608E-02  0.1364354E+00
          2   -1    0    0  502    0  0.00000000000E+00  0.00000000000E+00  0.70114883385E+03  0.70114883385E+03  0.00000000000E+00 0. -1.
          1   -1    0    0  501    0 -0.00000000000E+00 -0.00000000000E+00 -0.13709727058E+03  0.13709727058E+03  0.00000000000E+00 0. -1.
         25    2    1    2    0    0 -0.61907095691E+02 -0.11371580604E+03  0.13099518645E+03  0.22260027193E+03  0.12500947624E+03 0.  0.
          2    1    1    2  501    0  0.18735631026E+02  0.80855200320E+02 -0.70668562612E+02  0.10900749071E+03  0.00000000000E+00 0. -1.
          1    1    1    2  502    0  0.43171464664E+02  0.32860605719E+02  0.50372493943E+03  0.50663834179E+03  0.00000000000E+00 0. -1.
         22    1    3    3    0    0 -0.26207465064E+02 -0.88813988323E+02  0.89569479408E+01  0.93032159297E+02  0.00000000000E+00 0.  1.
         22    1    3    3    0    0 -0.35699630626E+02 -0.24901817715E+02  0.12203823851E+03  0.12956811263E+03  0.00000000000E+00 0.  1.
</event>
<event>
 7    1  0.5789396E-006  0.1159328E+03  0.7818608E-02  0.1269797E+00
          2   -1    0    0  502    0  0.00000000000E+00  0.00000000000E+00  0.39735894778E+03  0.39735894778E+03  0.00000000000E+00 0. -1.
          1   -1    0    0  501    0 -0.00000000000E+00 -0.00000000000E+00 -0.25329743490E+04  0.25329743490E+04  0.00000000000E+00 0. -1.
         25    2    1    2    0    0  0.11582578258E+03 -0.15926600637E+03 -0.39638963993E+03  0.45992330644E+03  0.12499371373E+03 0.  0.
          2    1    1    2  501    0 -0.36406489261E+02  0.10641879065E+03 -0.20970621374E+04  0.21000761890E+04  0.00000000000E+00 0. -1.
          1    1    1    2  502    0 -0.79419293316E+02  0.52847215719E+02  0.35783637610E+03  0.37033380135E+03  0.00000000000E+00 0. -1.
         22    1    3    3    0    0  0.80535452397E+02 -0.13842037000E+03 -0.18539548650E+03  0.24498498798E+03  0.00000000000E+00 0.  1.
         22    1    3    3    0    0  0.35290330180E+02 -0.20845636368E+02 -0.21099415343E+03  0.21493831846E+03  0.00000000000E+00 0.  1.
</event>
<event>
 7    1  0.5789396E-006  0.4409284E+02  0.7818608E-02  0.1515314E+00
          2   -1    0    0  502    0  0.00000000000E+00  0.00000000000E+00  0.25333098913E+03  0.25333098913E+03  0.00000000000E+00 0. -1.
          1   -1    0    0  501    0 -0.00000000000E+00 -0.00000000000E+00 -0.13102895271E+04  0.13102895271E+04  0.00000000000E+00 0. -1.
         25    2    1    2    0    0  0.10639211736E+02  0.36075275736E+02 -0.13045671451E+03  0.18454925125E+03  0.12499941372E+03 0.  0.
          2    1    1    2  501    0  0.29726020065E+02 -0.17678280980E+02 -0.11503501154E+04  0.11508699084E+04  0.00000000000E+00 0. -1.
          1    1    1    2  502    0 -0.40365231801E+02 -0.18396994756E+02  0.22384829196E+03  0.22820135663E+03  0.00000000000E+00 0. -1.
         22    1    3    3    0    0  0.62577157415E+02  0.45879646612E+02 -0.80870536691E+02  0.11207535995E+03  0.00000000000E+00 0.  1.
         22    1    3    3    0    0 -0.51937945679E+02 -0.98043708760E+01 -0.49586177820E+02  0.72473891302E+02  0.00000000000E+00 0.  1.
</event>
<event>
 7    1  0.5789396E-006  0.1574031E+03  0.7818608E-02  0.1268261E+00
          2   -1    0    0  502    0  0.00000000000E+00  0.00000000000E+00  0.22734812270E+04  0.22734812270E+04  0.00000000000E+00 0. -1.
          1   -1    0    0  501    0 -0.00000000000E+00 -0.00000000000E+00 -0.30373695470E+03  0.30373695470E+03  0.00000000000E+00 0. -1.
         25    2    1    2    0    0 -0.12208800310E+03 -0.17839933855E+03  0.86233646700E+03  0.89776400691E+03  0.12499690114E+03 0.  0.
          2    1    1    2  501    0  0.39478631958E+02  0.59390678853E+02 -0.27774078111E+03  0.28675033846E+03  0.00000000000E+00 0. -1.
          1    1    1    2  502    0  0.82609371146E+02  0.11900865970E+03  0.13851485864E+04  0.13927038363E+04  0.00000000000E+00 0. -1.
         22    1    3    3    0    0 -0.60173898912E+01 -0.98615015433E+02  0.48585502062E+03  0.49579857938E+03  0.00000000000E+00 0.  1.
         22    1    3    3    0    0 -0.11607061321E+03 -0.79784323121E+02  0.37648144638E+03  0.40196542753E+03  0.00000000000E+00 0.  1.
</event>
<event>
 7    1  0.5789396E-006  0.1790914E+03  0.7818608E-02  0.1222233E+00
          2   -1    0    0  502    0  0.00000000000E+00  0.00000000000E+00  0.21003598833E+04  0.21003598833E+04  0.00000000000E+00 0. -1.
          1   -1    0    0  501    0 -0.00000000000E+00 -0.00000000000E+00 -0.23820234015E+03  0.23820234015E+03  0.00000000000E+00 0. -1.
         25    2    1    2    0    0 -0.10218966705E+03  0.17956704988E+03  0.73405721915E+03  0.77275751632E+03  0.12500849807E+03 0.  0.
          2    1    1    2  501    0 -0.48263054819E+02 -0.87170574810E+02 -0.20136408899E+03  0.22466759425E+03  0.00000000000E+00 0. -1.
          1    1    1    2  502    0  0.15045272187E+03 -0.92396475066E+02  0.13294644129E+04  0.13411371128E+04  0.00000000000E+00 0. -1.
         22    1    3    3    0    0 -0.69428752133E+02  0.17682311177E+03  0.47429516708E+03  0.51092335041E+03  0.00000000000E+00 0. -1.
         22    1    3    3    0    0 -0.32760914915E+02  0.27439381080E+01  0.25976205207E+03  0.26183416591E+03  0.00000000000E+00 0. -1.
</event>
<event>
 7    1  0.5789396E-006  0.9674031E+02  0.7818608E-02  0.1300649E+00
          2   -1    0    0  502    0  0.00000000000E+00  0.00000000000E+00  0.46509600432E+03  0.46509600432E+03  0.00000000000E+00 0. -1.
          1   -1    0    0  501    0 -0.00000000000E+00 -0.00000000000E+00 -0.14251372938E+04  0.14251372938E+04  0.00000000000E+00 0. -1.
         25    2    1    2    0    0 -0.53412571314E+01  0.13439316083E+03 -0.15847872286E+03  0.24254984272E+03  0.12499947960E+03 0.  0.
          2    1    1    2  501    0  0.63851837167E+02 -0.72129198565E+02 -0.12183884403E+04  0.12221906847E+04  0.00000000000E+00 0. -1.
          1    1    1    2  502    0 -0.58510580036E+02 -0.62263962261E+02  0.41682587365E+03  0.42549277070E+03  0.00000000000E+00 0. -1.
         22    1    3    3    0    0 -0.15577155265E+02 -0.43769795260E+01 -0.82378162810E+02  0.83952173432E+02  0.00000000000E+00 0. -1.
         22    1    3    3    0    0  0.10235898134E+02  0.13877014035E+03 -0.76100560046E+02  0.15859766929E+03  0.00000000000E+00 0. -1.
</event>
<event>
 7    1  0.5789396E-006  0.9367746E+02  0.7818608E-02  0.1390792E+00
          2   -1    0    0  502    0  0.00000000000E+00  0.00000000000E+00  0.52741673119E+03  0.52741673119E+03  0.00000000000E+00 0. -1.
          1   -1    0    0  501    0 -0.00000000000E+00 -0.00000000000E+00 -0.71011924509E+03  0.71011924509E+03  0.00000000000E+00 0. -1.
         25    2    1    2    0    0  0.10952516731E+03  0.71853761384E+02  0.13653029223E+03  0.22677019341E+03  0.12500189848E+03 0.  0.
          2    1    1    2  501    0 -0.70403163901E+02 -0.60807644072E+02 -0.66053371553E+03  0.66705244502E+03  0.00000000000E+00 0. -1.
          1    1    1    2  502    0 -0.39122003413E+02 -0.11046117312E+02  0.34130090939E+03  0.34371333784E+03  0.00000000000E+00 0. -1.
         22    1    3    3    0    0  0.80450558502E+02  0.63521185340E+02  0.15894021716E+03  0.18912753893E+03  0.00000000000E+00 0.  1.
         22    1    3    3    0    0  0.29074608812E+02  0.83325760442E+01 -0.22409924933E+02  0.37642654485E+02  0.00000000000E+00 0.  1.
</event>
<event>
 7    1  0.5789396E-006  0.6023449E+02  0.7818608E-02  0.1479244E+00
          2   -1    0    0  502    0  0.00000000000E+00  0.00000000000E+00  0.14639640298E+04  0.14639640298E+04  0.00000000000E+00 0. -1.
          1   -1    0    0  501    0 -0.00000000000E+00 -0.00000000000E+00 -0.32905644615E+02  0.32905644615E+02  0.00000000000E+00 0. -1.
         25    2    1    2    0    0  0.18380078966E+02 -0.49772961712E+02  0.19959033443E+03  0.24140343670E+03  0.12499657048E+03 0.  0.
          2    1    1    2  501    0  0.10565414787E+02  0.64484120488E+02  0.78919077187E+02  0.10245999477E+03  0.00000000000E+00 0. -1.
          1    1    1    2  502    0 -0.28945493753E+02 -0.14711158776E+02  0.11525489736E+04  0.11530062429E+04  0.00000000000E+00 0. -1.
         22    1    3    3    0    0  0.22757107518E+01 -0.81143259397E+02  0.18717464505E+03  0.20401900685E+03  0.00000000000E+00 0. -1.
         22    1    3    3    0    0  0.16104368215E+02  0.31370297686E+02  0.12415689381E+02  0.37384429851E+02  0.00000000000E+00 0. -1.
</event>
<event>
 7    1  0.5789396E-006  0.1843599E+03  0.7818608E-02  0.1192916E+00
          2   -1    0    0  502    0  0.00000000000E+00  0.00000000000E+00  0.67776722961E+03  0.67776722961E+03  0.00000000000E+00 0. -1.
          1   -1    0    0  501    0 -0.00000000000E+00 -0.00000000000E+00 -0.12007715397E+04  0.12007715397E+04  0.00000000000E+00 0. -1.
         25    2    1    2    0    0 -0.12396600403E+03  0.88030340593E+02  0.12635301906E+03  0.23389162797E+03  0.12499318858E+03 0.  0.
          2    1    1    2  501    0  0.33178803189E+02 -0.18459914440E+03 -0.11303098259E+04  0.11457652376E+04  0.00000000000E+00 0. -1.
          1    1    1    2  502    0  0.90787200837E+02  0.96568803807E+02  0.48095249678E+03  0.49888190373E+03  0.00000000000E+00 0. -1.
         22    1    3    3    0    0  0.20473290335E+02 -0.94489277258E+01  0.13387773688E+02  0.26223469195E+02  0.00000000000E+00 0. -1.
         22    1    3    3    0    0 -0.14443929436E+03  0.97479268319E+02  0.11296524538E+03  0.20766815878E+03  0.00000000000E+00 0. -1.
</event>
<event>
 7    1  0.5789396E-006  0.1071852E+03  0.7818608E-02  0.1403724E+00
          2   -1    0    0  502    0  0.00000000000E+00  0.00000000000E+00  0.16265117503E+04  0.16265117503E+04  0.00000000000E+00 0. -1.
          1   -1    0    0  501    0 -0.00000000000E+00 -0.00000000000E+00 -0.44146389715E+03  0.44146389715E+03  0.00000000000E+00 0. -1.
         25    2    1    2    0    0  0.11276894748E+03 -0.77972191326E+02  0.11935985264E+03  0.22060882146E+03  0.12499991818E+03 0.  0.
          2    1    1    2  501    0 -0.29722479797E+02  0.12010730725E+02 -0.38824735965E+03  0.38956860209E+03  0.00000000000E+00 0. -1.
          1    1    1    2  502    0 -0.83046467687E+02  0.65961460601E+02  0.14539353602E+04  0.14577982239E+04  0.00000000000E+00 0. -1.
         22    1    3    3    0    0  0.21922216999E+02  0.18862987966E+02  0.75377603983E+02  0.80735240728E+02  0.00000000000E+00 0. -1.
         22    1    3    3    0    0  0.90846730485E+02 -0.96835179292E+02  0.43982248661E+02  0.13987358073E+03  0.00000000000E+00 0. -1.
</event>
<event>
 7    1  0.5789396E-006  0.3522974E+02  0.7818608E-02  0.1595154E+00
          2   -1    0    0  502    0  0.00000000000E+00  0.00000000000E+00  0.55409626155E+02  0.55409626155E+02  0.00000000000E+00 0. -1.
          1   -1    0    0  501    0 -0.00000000000E+00 -0.00000000000E+00 -0.49434836036E+03  0.49434836036E+03  0.00000000000E+00 0. -1.
         25    2    1    2    0    0  0.87371526979E+01 -0.91813609038E+01 -0.91398803148E+02  0.15536581928E+03  0.12499664539E+03 0.  0.
          2    1    1    2  501    0 -0.34740681589E+02  0.90787245209E+01 -0.36257904054E+03  0.36435271213E+03  0.00000000000E+00 0. -1.
          1    1    1    2  502    0  0.26003528891E+02  0.10263638292E+00  0.15039109485E+02  0.30039455107E+02  0.00000000000E+00 0. -1.
         22    1    3    3    0    0  0.40323072475E+02  0.46198187985E+02 -0.52162634150E+02  0.80505671529E+02  0.00000000000E+00 0. -1.
         22    1    3    3    0    0 -0.31585919777E+02 -0.55379548889E+02 -0.39236168998E+02  0.74860147749E+02  0.00000000000E+00 0. -1.
</event>
<event>
 7    1  0.5789396E-006  0.1305774E+03  0.7818608E-02  0.1360012E+00
          2   -1    0    0  502    0  0.00000000000E+00  0.00000000000E+00  0.13553358691E+03  0.13553358691E+03  0.00000000000E+00 0. -1.
          1   -1    0    0  501    0 -0.00000000000E+00 -0.00000000000E+00 -0.13943960324E+04  0.13943960324E+04  0.00000000000E+00 0. -1.
         25    2    1    2    0    0 -0.15156143562E+03 -0.58532343705E+02 -0.38668969749E+03  0.43766537519E+03  0.12500061787E+03 0.  0.
          2    1    1    2  501    0  0.11480225844E+03  0.50859838660E+02 -0.97486682263E+03  0.98291993753E+03  0.00000000000E+00 0. -1.
          1    1    1    2  502    0  0.36759177184E+02  0.76725050445E+01  0.10269407459E+03  0.10934430665E+03  0.00000000000E+00 0. -1.
         22    1    3    3    0    0 -0.14387403764E+03 -0.47548379341E+01 -0.32507493809E+03  0.35552223920E+03  0.00000000000E+00 0. -1.
         22    1    3    3    0    0 -0.76873979830E+01 -0.53777505771E+02 -0.61614759403E+02  0.82143135994E+02  0.00000000000E+00 0. -1.
</event>
<event>
 7    1  0.5789396E-006  0.7474496E+02  0.7818608E-02  0.1468265E+00
          2   -1    0    0  502    0  0.00000000000E+00  0.00000000000E+00  0.12089058992E+03  0.12089058992E+03  0.00000000000E+00 0. -1.
          1   -1    0    0  501    0 -0.00000000000E+00 -0.00000000000E+00 -0.46305570503E+03  0.46305570503E+03  0.00000000000E+00 0. -1.
         25    2    1    2    0    0 -0.31414335682E+02 -0.82306964532E+02 -0.18576073145E+03  0.24061194084E+03  0.12500303927E+03 0.  0.
          2    1    1    2  501    0  0.27032689821E+02  0.83574520038E+01 -0.23420432631E+03  0.23590735424E+03  0.00000000000E+00 0. -1.
          1    1    1    2  502    0  0.43816458602E+01  0.73949512528E+02  0.77799942659E+02  0.10742699987E+03  0.00000000000E+00 0. -1.
         22    1    3    3    0    0  0.26359205711E+02  0.11940105414E+02 -0.59573004160E+01  0.29544259531E+02  0.00000000000E+00 0.  1.
         22    1    3    3    0    0 -0.57773541393E+02 -0.94247069946E+02 -0.17980343104E+03  0.21106768130E+03  0.00000000000E+00 0.  1.
</event>
<event>
 7    1  0.5789396E-006  0.1041656E+03  0.7818608E-02  0.1303996E+00
          2   -1    0    0  502    0  0.00000000000E+00  0.00000000000E+00  0.84345642914E+03  0.84345642914E+03  0.00000000000E+00 0. -1.
          1   -1    0    0  501    0 -0.00000000000E+00 -0.00000000000E+00 -0.36573476259E+04  0.36573476259E+04  0.00000000000E+00 0. -1.
         25    2    1    2    0    0  0.32279345482E+02  0.10848564282E+02 -0.68180408886E+02  0.14640108961E+03  0.12500025357E+03 0.  0.
          2    1    1    2  501    0 -0.10445954890E+03  0.15819516647E+02 -0.35474282527E+04  0.35490011641E+04  0.00000000000E+00 0. -1.
          1    1    1    2  502    0  0.72180203422E+02 -0.26668080929E+02  0.80171746480E+03  0.80540180139E+03  0.00000000000E+00 0. -1.
         22    1    3    3    0    0  0.55869928921E+01  0.49342763022E+02 -0.83471111436E+02  0.97125430226E+02  0.00000000000E+00 0.  1.
         22    1    3    3    0    0  0.26692352589E+02 -0.38494198739E+02  0.15290702551E+02  0.49275659385E+02  0.00000000000E+00 0.  1.
</event>
<event>
 7    1  0.5789396E-006  0.5225634E+02  0.7818608E-02  0.1475261E+00
          2   -1    0    0  502    0  0.00000000000E+00  0.00000000000E+00  0.86203267118E+03  0.86203267118E+03  0.00000000000E+00 0. -1.
          1   -1    0    0  501    0 -0.00000000000E+00 -0.00000000000E+00 -0.10524188487E+04  0.10524188487E+04  0.00000000000E+00 0. -1.
         25    2    1    2    0    0  0.61722271521E+02 -0.48756333216E+02  0.14079228251E+02  0.14835866256E+03  0.12500099702E+03 0.  0.
          2    1    1    2  501    0 -0.38432748615E+02  0.22525264010E+01 -0.98403622362E+03  0.98478903296E+03  0.00000000000E+00 0. -1.
          1    1    1    2  502    0 -0.23289522907E+02  0.46503806815E+02  0.77957081785E+03  0.78130382437E+03  0.00000000000E+00 0. -1.
         22    1    3    3    0    0  0.16625055080E+02 -0.84563523421E+02  0.25028397880E+02  0.89742981064E+02  0.00000000000E+00 0. -1.
         22    1    3    3    0    0  0.45097216442E+02  0.35807190205E+02 -0.10949169629E+02  0.58615681492E+02  0.00000000000E+00 0. -1.
</event>
<event>
 7    1  0.5789396E-006  0.2154426E+02  0.7818608E-02  0.1725700E+00
          2   -1    0    0  502    0  0.00000000000E+00  0.00000000000E+00  0.16585448232E+04  0.16585448232E+04  0.00000000000E+00 0. -1.
          1   -1    0    0  501    0 -0.00000000000E+00 -0.00000000000E+00 -0.59762962170E+02  0.59762962170E+02  0.00000000000E+00 0. -1.
         25    2    1    2    0    0 -0.20317373165E+02  0.21519552727E+02  0.66638114674E+03  0.67864904786E+03  0.12499924251E+03 0.  0.
          2    1    1    2  501    0  0.21519792702E+02 -0.10386339598E+01 -0.51353884432E+02  0.55690229706E+02  0.00000000000E+00 0. -1.
          1    1    1    2  502    0 -0.12024195364E+01 -0.20480918767E+02  0.98375459869E+03  0.98396850777E+03  0.00000000000E+00 0. -1.
         22    1    3    3    0    0 -0.63680561165E+02  0.35354486010E+02  0.52736288859E+03  0.53236901657E+03  0.00000000000E+00 0. -1.
         22    1    3    3    0    0  0.43363187999E+02 -0.13834933282E+02  0.13901825816E+03  0.14628003129E+03  0.00000000000E+00 0. -1.
</event>
<event>
 7    1  0.5789396E-006  0.8400203E+02  0.7818608E-02  0.1436908E+00
          2   -1    0    0  502    0  0.00000000000E+00  0.00000000000E+00  0.63687351294E+02  0.63687351294E+02  0.00000000000E+00 0. -1.
          1   -1    0    0  501    0 -0.00000000000E+00 -0.00000000000E+00 -0.23997619824E+04  0.23997619824E+04  0.00000000000E+00 0. -1.
         25    2    1    2    0    0  0.82175778087E+02  0.63811148790E+02 -0.14882752057E+03  0.22044733606E+03  0.12499070319E+03 0.  0.
          2    1    1    2  501    0 -0.50603746734E+02 -0.66587796230E+02 -0.22050599479E+04  0.22066454286E+04  0.00000000000E+00 0. -1.
          1    1    1    2  502    0 -0.31572031353E+02  0.27766474407E+01  0.17812837373E+02  0.36356569008E+02  0.00000000000E+00 0. -1.
         22    1    3    3    0    0 -0.18137798074E+01 -0.18451375116E+02  0.11363194233E+02  0.21745464448E+02  0.00000000000E+00 0. -1.
         22    1    3    3    0    0  0.83989557894E+02  0.82262523906E+02 -0.16019071480E+03  0.19870187161E+03  0.00000000000E+00 0. -1.
</event>
<event>
 7    1  0.5789396E-006  0.2581823E+03  0.7818608E-02  0.1248055E+00
          2   -1    0    0  502    0  0.00000000000E+00  0.00000000000E+00  0.11323253415E+04  0.11323253415E+04  0.00000000000E+00 0. -1.
          1   -1    0    0  501    0 -0.00000000000E+00 -0.00000000000E+00 -0.14888614899E+04  0.14888614899E+04  0.00000000000E+00 0. -1.
         25    2    1    2    0    0  0.14940766003E+03 -0.22113628490E+03  0.39781371469E+03  0.49507399807E+03  0.12497442378E+03 0.  0.
          2    1    1    2  501    0  0.32726018666E+02  0.41766276932E+02 -0.14158987903E+04  0.14168926560E+04  0.00000000000E+00 0. -1.
          1    1    1    2  502    0 -0.18213367870E+03  0.17937000796E+03  0.66154892725E+03  0.70922017725E+03  0.00000000000E+00 0. -1.
         22    1    3    3    0    0 -0.19702587705E+02 -0.15829985915E+02  0.16601592775E+02  0.30238936803E+02  0.00000000000E+00 0.  1.
         22    1    3    3    0    0  0.16911024773E+03 -0.20530629898E+03  0.38121212191E+03  0.46483506127E+03  0.00000000000E+00 0.  1.
</event>
<event>
 7    1  0.5789396E-006  0.3928137E+02  0.7818608E-02  0.1548311E+00
          2   -1    0    0  502    0  0.00000000000E+00  0.00000000000E+00  0.56707781249E+03  0.56707781249E+03  0.00000000000E+00 0. -1.
          1   -1    0    0  501    0 -0.00000000000E+00 -0.00000000000E+00 -0.12678503859E+04  0.12678503859E+04  0.00000000000E+00 0. -1.
         25    2    1    2    0    0  0.51132918474E+02 -0.42870681087E+02  0.12603747895E+03  0.18963980977E+03  0.12500136279E+03 0.  0.
          2    1    1    2  501    0 -0.16087248159E+02  0.26783379933E+02 -0.12349428100E+04  0.12353379671E+04  0.00000000000E+00 0. -1.
          1    1    1    2  502    0 -0.35045670315E+02  0.16087301154E+02  0.40813275762E+03  0.40995042153E+03  0.00000000000E+00 0. -1.
         22    1    3    3    0    0 -0.28212399626E+02 -0.29884596600E+02  0.94905663357E+02  0.10342201673E+03  0.00000000000E+00 0. -1.
         22    1    3    3    0    0  0.79345318099E+02 -0.12986084486E+02  0.31131815596E+02  0.86217793041E+02  0.00000000000E+00 0. -1.
</event>
<event>
 7    1  0.5789396E-006  0.1301193E+03  0.7818608E-02  0.1414323E+00
          2   -1    0    0  502    0  0.00000000000E+00  0.00000000000E+00  0.29211420658E+04  0.29211420658E+04  0.00000000000E+00 0. -1.
          1   -1    0    0  501    0 -0.00000000000E+00 -0.00000000000E+00 -0.22830682917E+02  0.22830682917E+02  0.00000000000E+00 0. -1.
         25    2    1    2    0    0  0.55735430815E+01  0.13269648255E+03  0.70190379844E+03  0.72521237928E+03  0.12499852771E+03 0.  0.
          2    1    1    2  501    0 -0.23974519031E+02 -0.40142372857E+01  0.67231855074E+01  0.25220881965E+02  0.00000000000E+00 0. -1.
          1    1    1    2  502    0  0.18400975949E+02 -0.12868224527E+03  0.21896843990E+04  0.21935394875E+04  0.00000000000E+00 0. -1.
         22    1    3    3    0    0 -0.25605303067E+02 -0.15432686682E+02  0.88790292311E+02  0.93688395076E+02  0.00000000000E+00 0.  1.
         22    1    3    3    0    0  0.31178846149E+02  0.14812916923E+03  0.61311350613E+03  0.63152398420E+03  0.00000000000E+00 0.  1.
</event>
<event>
 7    1  0.5789396E-006  0.1408169E+03  0.7818608E-02  0.1233693E+00
          2   -1    0    0  502    0  0.00000000000E+00  0.00000000000E+00  0.27110974670E+04  0.27110974670E+04  0.00000000000E+00 0. -1.
          1   -1    0    0  501    0 -0.00000000000E+00 -0.00000000000E+00 -0.35157511357E+03  0.35157511357E+03  0.00000000000E+00 0. -1.
         25    2    1    2    0    0 -0.52839928703E+02 -0.10668743957E+02  0.28916333249E+03  0.31960380570E+03  0.12500111838E+03 0.  0.
          2    1    1    2  501    0 -0.96186610663E+02  0.58416152295E+02 -0.32431609422E+03  0.34328594479E+03  0.00000000000E+00 0. -1.
          1    1    1    2  502    0  0.14902653937E+03 -0.47747408338E+02  0.23946751151E+04  0.23997828300E+04  0.00000000000E+00 0. -1.
         22    1    3    3    0    0 -0.92515372651E+02 -0.11451845688E+02  0.16830790467E+03  0.19240007724E+03  0.00000000000E+00 0. -1.
         22    1    3    3    0    0  0.39675443948E+02  0.78310173067E+00  0.12085542783E+03  0.12720372847E+03  0.00000000000E+00 0. -1.
</event>
<event>
 7    1  0.5789396E-006  0.7271437E+02  0.7818608E-02  0.1515316E+00
          2   -1    0    0  502    0  0.00000000000E+00  0.00000000000E+00  0.82690916188E+02  0.82690916188E+02  0.00000000000E+00 0. -1.
          1   -1    0    0  501    0 -0.00000000000E+00 -0.00000000000E+00 -0.18636005463E+04  0.18636005463E+04  0.00000000000E+00 0. -1.
         25    2    1    2    0    0 -0.42143694670E+02 -0.76514146848E+02 -0.35767364636E+03  0.38882647462E+03  0.12500033759E+03 0.  0.
          2    1    1    2  501    0  0.19298875819E+02  0.82080487360E+01 -0.14709304670E+04  0.14710799630E+04  0.00000000000E+00 0. -1.
          1    1    1    2  502    0  0.22844818852E+02  0.68306098112E+02  0.47694483279E+02  0.86385024877E+02  0.00000000000E+00 0. -1.
         22    1    3    3    0    0 -0.31920375572E+02 -0.84025128930E+02 -0.36379959747E+03  0.37473894886E+03  0.00000000000E+00 0. -1.
         22    1    3    3    0    0 -0.10223319098E+02  0.75109820822E+01  0.61259511109E+01  0.14087525767E+02  0.00000000000E+00 0. -1.
</event>
<event>
 7    1  0.5789396E-006  0.1142335E+03  0.7818608E-02  0.1335992E+00
          2   -1    0    0  502    0  0.00000000000E+00  0.00000000000E+00  0.20086110250E+04  0.20086110250E+04  0.00000000000E+00 0. -1.
          1   -1    0    0  501    0 -0.00000000000E+00 -0.00000000000E+00 -0.20315492499E+02  0.20315492499E+02  0.00000000000E+00 0. -1.
         25    2    1    2    0    0  0.39431572953E+02 -0.64372620319E+02  0.85815379957E+03  0.87048930290E+03  0.12499999818E+03 0.  0.
          2    1    1    2  501    0 -0.62294756873E+02  0.11187674990E+03  0.29450329447E+03  0.32113740728E+03  0.00000000000E+00 0. -1.
          1    1    1    2  502    0  0.22863183920E+02 -0.47504129585E+02  0.83563843843E+03  0.83729980729E+03  0.00000000000E+00 0. -1.
         22    1    3    3    0    0  0.18790605029E+02  0.22282680989E+02  0.53545663546E+02  0.60965094882E+02  0.00000000000E+00 0.  1.
         22    1    3    3    0    0  0.20640967925E+02 -0.86655301308E+02  0.80460813603E+03  0.80952420802E+03  0.00000000000E+00 0.  1.
</event>
<event>
 7    1  0.5789396E-006  0.5412914E+02  0.7818608E-02  0.1441095E+00
          2   -1    0    0  502    0  0.00000000000E+00  0.00000000000E+00  0.17697659929E+03  0.17697659929E+03  0.00000000000E+00 0. -1.
          1   -1    0    0  501    0 -0.00000000000E+00 -0.00000000000E+00 -0.77121277785E+03  0.77121277785E+03  0.00000000000E+00 0. -1.
         25    2    1    2    0    0 -0.15212755707E+02  0.94375731578E+02 -0.17555879953E+03  0.23576634206E+03  0.12500667705E+03 0.  0.
          2    1    1    2  501    0 -0.88043720474E+01 -0.46848013376E+02 -0.55967672335E+03  0.56170302472E+03  0.00000000000E+00 0. -1.
          1    1    1    2  502    0  0.24017127755E+02 -0.47527718202E+02  0.14099934433E+03  0.15072001036E+03  0.00000000000E+00 0. -1.
         22    1    3    3    0    0 -0.34132616977E+02  0.56153673366E+02 -0.12078229655E+02  0.66814326351E+02  0.00000000000E+00 0.  1.
         22    1    3    3    0    0  0.18919861269E+02  0.38222058212E+02 -0.16348056988E+03  0.16895201571E+03  0.00000000000E+00 0.  1.
</event>
<event>
 7    1  0.5789396E-006  0.7759894E+02  0.7818608E-02  0.1364827E+00
          2   -1    0    0  502    0  0.00000000000E+00  0.00000000000E+00  0.21763076275E+04  0.21763076275E+04  0.00000000000E+00 0. -1.
          1   -1    0    0  501    0 -0.00000000000E+00 -0.00000000000E+00 -0.52852203980E+03  0.52852203980E+03  0.00000000000E+00 0. -1.
         25    2    1    2    0    0  0.64564276922E+02 -0.98194640029E+01  0.16584140136E+03  0.21770151246E+03  0.12500244155E+03 0.  0.
          2    1    1    2  501    0 -0.22267277404E+02 -0.56459200094E+02 -0.49997742074E+03  0.50364758926E+03  0.00000000000E+00 0. -1.
          1    1    1    2  502    0 -0.42296999518E+02  0.66278664097E+02  0.19819216071E+04  0.19834805656E+04  0.00000000000E+00 0. -1.
         22    1    3    3    0    0  0.11275652758E+02 -0.24835860613E+02  0.15968338144E+03  0.16199611916E+03  0.00000000000E+00 0. -1.
         22    1    3    3    0    0  0.53288624164E+02  0.15016396610E+02  0.61580199221E+01  0.55705393292E+02  0.00000000000E+00 0. -1.
</event>
<event>
 7    1  0.5789396E-006  0.1746818E+03  0.7818608E-02  0.1256370E+00
          2   -1    0    0  502    0  0.00000000000E+00  0.00000000000E+00  0.13077902053E+03  0.13077902053E+03  0.00000000000E+00 0. -1.
          1   -1    0    0  501    0 -0.00000000000E+00 -0.00000000000E+00 -0.65936217222E+03  0.65936217222E+03  0.00000000000E+00 0. -1.
         25    2    1    2    0    0 -0.14995331145E+03 -0.21537244678E+02 -0.50324835190E+02  0.20274793668E+03  0.12499715304E+03 0.  0.
          2    1    1    2  501    0 -0.69922709162E+02  0.17969670351E+02 -0.28703536123E+03  0.29597532483E+03  0.00000000000E+00 0. -1.
          1    1    1    2  502    0  0.21987602061E+03  0.35675743272E+01 -0.19122295526E+03  0.29141793124E+03  0.00000000000E+00 0. -1.
         22    1    3    3    0    0 -0.88875256920E+02 -0.73886715612E+02 -0.23425688360E+02  0.11792718479E+03  0.00000000000E+00 0. -1.
         22    1    3    3    0    0 -0.61078054531E+02  0.52349470933E+02 -0.26899146830E+02  0.84820751898E+02  0.00000000000E+00 0. -1.
</event>
<event>
 7    1  0.5789396E-006  0.2666643E+02  0.7818608E-02  0.1653113E+00
          2   -1    0    0  502    0  0.00000000000E+00  0.00000000000E+00  0.36664920286E+03  0.36664920286E+03  0.00000000000E+00 0. -1.
          1   -1    0    0  501    0 -0.00000000000E+00 -0.00000000000E+00 -0.18313800892E+03  0.18313800892E+03  0.00000000000E+00 0. -1.
         25    2    1    2    0    0 -0.13154591747E+02  0.38732231980E+02  0.14761169691E+03  0.19771913575E+03  0.12502165612E+03 0.  0.
          2    1    1    2  501    0  0.20522308701E+02 -0.13374577457E+02 -0.15622681328E+03  0.15813558001E+03  0.00000000000E+00 0. -1.
          1    1    1    2  502    0 -0.73677169532E+01 -0.25357654523E+02  0.19212631032E+03  0.19393249602E+03  0.00000000000E+00 0. -1.
         22    1    3    3    0    0 -0.91804427759E+01  0.91657872205E+01  0.16343573928E+03  0.16394978822E+03  0.00000000000E+00 0. -1.
         22    1    3    3    0    0 -0.39741489714E+01  0.29566444759E+02 -0.15824042368E+02  0.33769347530E+02  0.00000000000E+00 0. -1.
</event>
<event>
 7    1  0.5789396E-006  0.1292706E+03  0.7818608E-02  0.1428469E+00
          2   -1    0    0  502    0  0.00000000000E+00  0.00000000000E+00  0.15472958151E+03  0.15472958151E+03  0.00000000000E+00 0. -1.
          1   -1    0    0  501    0 -0.00000000000E+00 -0.00000000000E+00 -0.18798217884E+04  0.18798217884E+04  0.00000000000E+00 0. -1.
         25    2    1    2    0    0 -0.94225988665E+02  0.73848674577E+02 -0.75824539371E+03  0.77774942849E+03  0.12500373093E+03 0.  0.
          2    1    1    2  501    0  0.59282020539E+01  0.21134705608E+02 -0.10826892348E+04  0.10829117224E+04  0.00000000000E+00 0. -1.
          1    1    1    2  502    0  0.88297786611E+02 -0.94983380185E+02  0.11584242161E+03  0.17389021903E+03  0.00000000000E+00 0. -1.
         22    1    3    3    0    0 -0.11533581398E+03  0.77737271157E+02 -0.51153622837E+03  0.53010824012E+03  0.00000000000E+00 0. -1.
         22    1    3    3    0    0  0.21109825316E+02 -0.38885965800E+01 -0.24670916534E+03  0.24764118836E+03  0.00000000000E+00 0. -1.
</event>
<event>
 7    1  0.5789396E-006  0.5071671E+02  0.7818608E-02  0.1491406E+00
          2   -1    0    0  502    0  0.00000000000E+00  0.00000000000E+00  0.22557435246E+04  0.22557435246E+04  0.00000000000E+00 0. -1.
          1   -1    0    0  501    0 -0.00000000000E+00 -0.00000000000E+00 -0.69058627470E+03  0.69058627470E+03  0.00000000000E+00 0. -1.
         25    2    1    2    0    0 -0.21591053425E+02  0.80165795156E+02  0.63761771409E+03  0.65503641858E+03  0.12499452805E+03 0.  0.
          2    1    1    2  501    0  0.78738719497E+00 -0.35401828114E+02 -0.68103833964E+03  0.68195830479E+03  0.00000000000E+00 0. -1.
          1    1    1    2  502    0  0.20803666230E+02 -0.44763967042E+02  0.16085778754E+04  0.16093350759E+04  0.00000000000E+00 0. -1.
         22    1    3    3    0    0  0.43347838293E+01 -0.33199622945E+02  0.12649129177E+03  0.13084743867E+03  0.00000000000E+00 0.  1.
         22    1    3    3    0    0 -0.25925837255E+02  0.11336541810E+03  0.51112642232E+03  0.52418897990E+03  0.00000000000E+00 0.  1.
</event>
<event>
 7    1  0.5789396E-006  0.6442819E+02  0.7818608E-02  0.1402353E+00
          2   -1    0    0  502    0  0.00000000000E+00  0.00000000000E+00  0.30323357386E+03  0.30323357386E+03  0.00000000000E+00 0. -1.
          1   -1    0    0  501    0 -0.00000000000E+00 -0.00000000000E+00 -0.56523245672E+03  0.56523245672E+03  0.00000000000E+00 0. -1.
         25    2    1    2    0    0  0.24993362265E+02 -0.10078175180E+02  0.29015702314E+02  0.13113807548E+03  0.12501618330E+03 0.  0.
          2    1    1    2  501    0  0.38428062691E+02  0.37811582649E+02 -0.50734075256E+03  0.51019709034E+03  0.00000000000E+00 0. -1.
          1    1    1    2  502    0 -0.63421424956E+02 -0.27733407470E+02  0.21632616738E+03  0.22713086476E+03  0.00000000000E+00 0. -1.
         22    1    3    3    0    0  0.44213137493E+02  0.29577665271E+02 -0.27170476382E+02  0.59731688380E+02  0.00000000000E+00 0. -1.
         22    1    3    3    0    0 -0.19219775227E+02 -0.39655840451E+02  0.56186178697E+02  0.71406387097E+02  0.00000000000E+00 0. -1.
</event>
<event>
 7    1  0.5789396E-006  0.9173566E+02  0.7818608E-02  0.1343455E+00
          2   -1    0    0  502    0  0.00000000000E+00  0.00000000000E+00  0.15036212482E+04  0.15036212482E+04  0.00000000000E+00 0. -1.
          1   -1    0    0  501    0 -0.00000000000E+00 -0.00000000000E+00 -0.47296732302E+03  0.47296732302E+03  0.00000000000E+00 0. -1.
         25    2    1    2    0    0 -0.57579967580E+02 -0.12674822589E+03 -0.86723166216E+02  0.20622581198E+03  0.12501044971E+03 0.  0.
          2    1    1    2  501    0 -0.60781911431E+01  0.61236709732E+02 -0.32213258532E+03  0.32795774355E+03  0.00000000000E+00 0. -1.
          1    1    1    2  502    0  0.63658158723E+02  0.65511516155E+02  0.14395096767E+04  0.14424050157E+04  0.00000000000E+00 0. -1.
         22    1    3    3    0    0 -0.37811819578E+02  0.11208046918E+02  0.44477387721E+01  0.39687988053E+02  0.00000000000E+00 0. -1.
         22    1    3    3    0    0 -0.19768148002E+02 -0.13795627281E+03 -0.91170904988E+02  0.16653782393E+03  0.00000000000E+00 0. -1.
</event>
<event>
 7    1  0.5789396E-006  0.6756710E+02  0.7818608E-02  0.1462688E+00
          2   -1    0    0  502    0  0.00000000000E+00  0.00000000000E+00  0.13713011262E+04  0.13713011262E+04  0.00000000000E+00 0. -1.
          1   -1    0    0  501    0 -0.00000000000E+00 -0.00000000000E+00 -0.58574163547E+03  0.58574163547E+03  0.00000000000E+00 0. -1.
         25    2    1    2    0    0 -0.55158156179E+02  0.73495478400E+02  0.86273503331E+03  0.87657413259E+03  0.12500585864E+03 0.  0.
          2    1    1    2  501    0  0.11712959815E+02 -0.30406972483E+02 -0.57649438683E+03  0.57741454385E+03  0.00000000000E+00 0. -1.
          1    1    1    2  502    0  0.43445196365E+02 -0.43088505917E+02  0.49931884430E+03  0.50305408526E+03  0.00000000000E+00 0. -1.
         22    1    3    3    0    0 -0.15630544394E+02 -0.34841953359E+02  0.16408109853E+03  0.16846626525E+03  0.00000000000E+00 0.  1.
         22    1    3    3    0    0 -0.39527611785E+02  0.10833743176E+03  0.69865393478E+03  0.70810786734E+03  0.00000000000E+00 0.  1.
</event>
<event>
 7    1  0.5789396E-006  0.7446495E+02  0.7818608E-02  0.1397558E+00
          2   -1    0    0  502    0  0.00000000000E+00  0.00000000000E+00  0.13089329630E+04  0.13089329630E+04  0.00000000000E+00 0. -1.
          1   -1    0    0  501    0 -0.00000000000E+00 -0.00000000000E+00 -0.11422617828E+03  0.11422617828E+03  0.00000000000E+00 0. -1.
         25    2    1    2    0    0  0.25220155863E+02  0.74220686653E+02 -0.15771633638E+02  0.14839336650E+03  0.12500832054E+03 0.  0.
          2    1    1    2  501    0 -0.63838814054E+02 -0.44962804861E+02  0.16503971910E+02  0.79808703094E+02  0.00000000000E+00 0. -1.
          1    1    1    2  502    0  0.38618658191E+02 -0.29257881792E+02  0.11939744464E+04  0.11949570717E+04  0.00000000000E+00 0. -1.
         22    1    3    3    0    0  0.17108270192E+02 -0.20009306183E+02 -0.42604608719E+02  0.50082111847E+02  0.00000000000E+00 0. -1.
         22    1    3    3    0    0  0.81118856704E+01  0.94229992836E+02  0.26832975082E+02  0.98311254649E+02  0.00000000000E+00 0. -1.
</event>
<event>
 7    1  0.5789396E-006  0.4538856E+02  0.7818608E-02  0.1498783E+00
          2   -1    0    0  502    0  0.00000000000E+00  0.00000000000E+00  0.14745929358E+04  0.14745929358E+04  0.00000000000E+00 0. -1.
          1   -1    0    0  501    0 -0.00000000000E+00 -0.00000000000E+00 -0.27975784113E+03  0.27975784113E+03  0.00000000000E+00 0. -1.
         25    2    1    2    0    0  0.62471155750E+02  0.20549845815E+02  0.11308552205E+04  0.11396417016E+04  0.12499894729E+03 0.  0.
          2    1    1    2  501    0 -0.28045433892E+02 -0.35667410885E+02 -0.27244112575E+03  0.27619355090E+03  0.00000000000E+00 0. -1.
          1    1    1    2  502    0 -0.34425721858E+02  0.15117565071E+02  0.33642099986E+03  0.33851552438E+03  0.00000000000E+00 0. -1.
         22    1    3    3    0    0  0.67238362381E+02  0.40676406080E+02  0.10980629197E+04  0.11008713562E+04  0.00000000000E+00 0.  1.
         22    1    3    3    0    0 -0.47672066311E+01 -0.20126560265E+02  0.32792300842E+02  0.38770345390E+02  0.00000000000E+00 0.  1.
</event>
<event>
 7    1  0.5789396E-006  0.1489874E+03  0.7818608E-02  0.1256826E+00
          2   -1    0    0  502    0  0.00000000000E+00  0.00000000000E+00  0.37971834038E+04  0.37971834038E+04  0.00000000000E+00 0. -1.
          1   -1    0    0  501    0 -0.00000000000E+00 -0.00000000000E+00 -0.44360393743E+03  0.44360393743E+03  0.00000000000E+00 0. -1.
         25    2    1    2    0    0  0.15195283275E+03  0.96916068957E+02  0.34757547386E+03  0.41098957941E+03  0.12498534535E+03 0.  0.
          2    1    1    2  501    0 -0.78052108815E+02  0.31756013049E+02 -0.40595774633E+03  0.41461098377E+03  0.00000000000E+00 0. -1.
          1    1    1    2  502    0 -0.73900723934E+02 -0.12867208201E+03  0.34119617388E+04  0.34151867781E+04  0.00000000000E+00 0. -1.
         22    1    3    3    0    0  0.14378772186E+03  0.27739136078E+02  0.26664300621E+03  0.30420858205E+03  0.00000000000E+00 0.  1.
         22    1    3    3    0    0  0.81651108901E+01  0.69176932880E+02  0.80932467647E+02  0.10678099736E+03  0.00000000000E+00 0.  1.
</event>
<event>
 7    1  0.5789396E-006  0.9005299E+02  0.7818608E-02  0.1351557E+00
          2   -1    0    0  502    0  0.00000000000E+00  0.00000000000E+00  0.42162086837E+04  0.42162086837E+04  0.00000000000E+00 0. -1.
          1   -1    0    0  501    0 -0.00000000000E+00 -0.00000000000E+00 -0.75593197950E+03  0.75593197950E+03  0.00000000000E+00 0. -1.
         25    2    1    2    0    0 -0.12130106533E+03  0.80975474614E+02  0.12257846126E+04  0.12407432607E+04  0.12499978651E+03 0.  0.
          2    1    1    2  501    0  0.81419792786E+02 -0.38196795914E+02 -0.74546305220E+03  0.75086839064E+03  0.00000000000E+00 0. -1.
          1    1    1    2  502    0  0.39881272542E+02 -0.42778678700E+02  0.29799551438E+04  0.29805290118E+04  0.00000000000E+00 0. -1.
         22    1    3    3    0    0 -0.75507152659E+02 -0.13440377839E+01  0.84936946651E+03  0.85272013415E+03  0.00000000000E+00 0. -1.
         22    1    3    3    0    0 -0.45793912669E+02  0.82319512398E+02  0.37641514607E+03  0.38802312656E+03  0.00000000000E+00 0. -1.
</event>
<event>
 7    1  0.5789396E-006  0.4171488E+02  0.7818608E-02  0.1528542E+00
          2   -1    0    0  502    0  0.00000000000E+00  0.00000000000E+00  0.29862056089E+03  0.29862056089E+03  0.00000000000E+00 0. -1.
          1   -1    0    0  501    0 -0.00000000000E+00 -0.00000000000E+00 -0.22489109585E+03  0.22489109585E+03  0.00000000000E+00 0. -1.
         25    2    1    2    0    0  0.51473115063E+02 -0.30220894866E+02  0.13004717719E+03  0.18999976300E+03  0.12499943033E+03 0.  0.
          2    1    1    2  501    0 -0.10769873371E+02  0.31690067385E+02 -0.19043113709E+03  0.19335011900E+03  0.00000000000E+00 0. -1.
          1    1    1    2  502    0 -0.40703241692E+02 -0.14691725184E+01  0.13411342494E+03  0.14016177475E+03  0.00000000000E+00 0. -1.
         22    1    3    3    0    0 -0.16652262785E+02 -0.61060169226E+02  0.52032572731E+02  0.81933087008E+02  0.00000000000E+00 0.  1.
         22    1    3    3    0    0  0.68125377848E+02  0.30839274359E+02  0.78014604462E+02  0.10806667599E+03  0.00000000000E+00 0.  1.
</event>
<event>
 7    1  0.5789396E-006  0.2401565E+03  0.7818608E-02  0.1250821E+00
          2   -1    0    0  502    0  0.00000000000E+00  0.00000000000E+00  0.12045955242E+04  0.12045955242E+04  0.00000000000E+00 0. -1.
          1   -1    0    0  501    0 -0.00000000000E+00 -0.00000000000E+00 -0.85648938925E+02  0.85648938925E+02  0.00000000000E+00 0. -1.
         25    2    1    2    0    0 -0.22836865992E+02 -0.23309214829E+03  0.31182355896E+03  0.40952709238E+03  0.12500014171E+03 0.  0.
          2    1    1    2  501    0  0.54762845874E+02 -0.89366012661E+01  0.24053418724E+02  0.60476434111E+02  0.00000000000E+00 0. -1.
          1    1    1    2  502    0 -0.31925979882E+02  0.24202874955E+03  0.78306960756E+03  0.82024093661E+03  0.00000000000E+00 0. -1.
         22    1    3    3    0    0  0.36221921691E+02 -0.15694873398E+03  0.24127057872E+03  0.29009726794E+03  0.00000000000E+00 0.  1.
         22    1    3    3    0    0 -0.59058787683E+02 -0.76143414310E+02  0.70552980244E+02  0.11942982444E+03  0.00000000000E+00 0.  1.
</event>
<event>
 7    1  0.5789396E-006  0.1110719E+03  0.7818608E-02  0.1335903E+00
          2   -1    0    0  502    0  0.00000000000E+00  0.00000000000E+00  0.33973119867E+03  0.33973119867E+03  0.00000000000E+00 0. -1.
          1   -1    0    0  501    0 -0.00000000000E+00 -0.00000000000E+00 -0.26502179672E+03  0.26502179672E+03  0.00000000000E+00 0. -1.
         25    2    1    2    0    0 -0.45106060127E+02 -0.14662747489E+03  0.18129881367E+03  0.26838120933E+03  0.12500016252E+03 0.  0.
          2    1    1    2  501    0  0.55648494758E+02  0.93399152656E+02 -0.20040362597E+03  0.22799510957E+03  0.00000000000E+00 0. -1.
          1    1    1    2  502    0 -0.10542434632E+02  0.53228322230E+02  0.93814214239E+02  0.10837667650E+03  0.00000000000E+00 0. -1.
         22    1    3    3    0    0  0.43779242314E+02 -0.52425116290E+02  0.65982669264E+02  0.94966981203E+02  0.00000000000E+00 0.  1.
         22    1    3    3    0    0 -0.88885302440E+02 -0.94202358597E+02  0.11531614441E+03  0.17341422813E+03  0.00000000000E+00 0.  1.
</event>
<event>
 7    1  0.5789396E-006  0.5383676E+02  0.7818608E-02  0.1472168E+00
          2   -1    0    0  502    0  0.00000000000E+00  0.00000000000E+00  0.13953320534E+03  0.13953320534E+03  0.00000000000E+00 0. -1.
          1   -1    0    0  501    0 -0.00000000000E+00 -0.00000000000E+00 -0.65824952831E+03  0.65824952831E+03  0.00000000000E+00 0. -1.
         25    2    1    2    0    0 -0.51285084540E+02  0.70143480329E+01 -0.39828024498E+03  0.42062570152E+03  0.12497786307E+03 0.  0.
          2    1    1    2  501    0  0.16572512239E+02  0.34419339666E+02 -0.24153763593E+03  0.24453991224E+03  0.00000000000E+00 0. -1.
          1    1    1    2  502    0  0.34712572302E+02 -0.41433687699E+02  0.12110155795E+03  0.13261711990E+03  0.00000000000E+00 0. -1.
         22    1    3    3    0    0 -0.46012545399E+02 -0.51508773238E+02 -0.28209065999E+03  0.29042287876E+03  0.00000000000E+00 0.  1.
         22    1    3    3    0    0 -0.52725391415E+01  0.58523121271E+02 -0.11618958499E+03  0.13020282275E+03  0.00000000000E+00 0.  1.
</event>
<event>
 7    1  0.5789396E-006  0.8392613E+02  0.7818608E-02  0.1367786E+00
          2   -1    0    0  502    0  0.00000000000E+00  0.00000000000E+00  0.12102989585E+04  0.12102989585E+04  0.00000000000E+00 0. -1.
          1   -1    0    0  501    0 -0.00000000000E+00 -0.00000000000E+00 -0.96579144901E+02  0.96579144901E+02  0.00000000000E+00 0. -1.
         25    2    1    2    0    0  0.33753604985E+02  0.38247047640E+02  0.13345569676E+03  0.18981903675E+03  0.12497480231E+03 0.  0.
          2    1    1    2  501    0 -0.26189138752E+02  0.48080631537E+02 -0.55333358903E+02  0.77842139777E+02  0.00000000000E+00 0. -1.
          1    1    1    2  502    0 -0.75644662327E+01 -0.86327679177E+02  0.10355974758E+04  0.10392169269E+04  0.00000000000E+00 0. -1.
         22    1    3    3    0    0 -0.29310735402E+02  0.26472112385E+02 -0.24094744258E+01  0.39568895751E+02  0.00000000000E+00 0. -1.
         22    1    3    3    0    0  0.63064340387E+02  0.11774935255E+02  0.13586517119E+03  0.15025014100E+03  0.00000000000E+00 0. -1.
</event>
<event>
 7    1  0.5789396E-006  0.8623122E+02  0.7818608E-02  0.1417039E+00
          2   -1    0    0  502    0  0.00000000000E+00  0.00000000000E+00  0.74226623832E+02  0.74226623832E+02  0.00000000000E+00 0. -1.
          1   -1    0    0  501    0 -0.00000000000E+00 -0.00000000000E+00 -0.22095330874E+04  0.22095330874E+04  0.00000000000E+00 0. -1.
         25    2    1    2    0    0 -0.11821843190E+02 -0.53750904063E+02 -0.43534881543E+03  0.45626824460E+03  0.12499281688E+03 0.  0.
          2    1    1    2  501    0  0.94026603988E+01 -0.34664677857E+02 -0.17327777239E+04  0.17331499330E+04  0.00000000000E+00 0. -1.
          1    1    1    2  502    0  0.24191827913E+01  0.88415581920E+02  0.32820075830E+02  0.94341533532E+02  0.00000000000E+00 0. -1.
         22    1    3    3    0    0 -0.52000402576E+02 -0.73126533943E+02 -0.24961307288E+03  0.26525123560E+03  0.00000000000E+00 0.  1.
         22    1    3    3    0    0  0.40178559386E+02  0.19375629880E+02 -0.18573574255E+03  0.19101700900E+03  0.00000000000E+00 0.  1.
</event>
<event>
 7    1  0.5789396E-006  0.4842714E+02  0.7818608E-02  0.1467234E+00
          2   -1    0    0  502    0  0.00000000000E+00  0.00000000000E+00  0.83421177973E+03  0.83421177973E+03  0.00000000000E+00 0. -1.
          1   -1    0    0  501    0 -0.00000000000E+00 -0.00000000000E+00 -0.30363179090E+03  0.30363179090E+03  0.00000000000E+00 0. -1.
         25    2    1    2    0    0 -0.84773582586E+02 -0.62544156231E+01  0.25418584210E+03  0.29573832637E+03  0.12500014936E+03 0.  0.
          2    1    1    2  501    0  0.43347076560E+02  0.21072598914E+02 -0.27992751123E+03  0.28404653671E+03  0.00000000000E+00 0. -1.
          1    1    1    2  502    0  0.41426506026E+02 -0.14818183290E+02  0.55632165796E+03  0.55805870755E+03  0.00000000000E+00 0. -1.
         22    1    3    3    0    0 -0.90993188768E+02 -0.43329618806E+02  0.22979913846E+03  0.25092799825E+03  0.00000000000E+00 0. -1.
         22    1    3    3    0    0  0.62196061819E+01  0.37075203183E+02  0.24386703643E+02  0.44810328125E+02  0.00000000000E+00 0. -1.
</event>
<event>
 7    1  0.5789396E-006  0.5195318E+02  0.7818608E-02  0.1547672E+00
          2   -1    0    0  502    0  0.00000000000E+00  0.00000000000E+00  0.68006465504E+03  0.68006465504E+03  0.00000000000E+00 0. -1.
          1   -1    0    0  501    0 -0.00000000000E+00 -0.00000000000E+00 -0.21183952461E+03  0.21183952461E+03  0.00000000000E+00 0. -1.
         25    2    1    2    0    0 -0.21486846599E+02 -0.54380046952E+02 -0.42871471369E+02  0.14450534738E+03  0.12499983312E+03 0.  0.
          2    1    1    2  501    0  0.23589538193E+02  0.24874866185E+01 -0.11587598801E+03  0.11827890133E+03  0.00000000000E+00 0. -1.
          1    1    1    2  502    0 -0.21026915943E+01  0.51892560334E+02  0.62697258982E+03  0.62911993094E+03  0.00000000000E+00 0. -1.
         22    1    3    3    0    0  0.18422236727E+02  0.13043912931E+02  0.29974220958E+02  0.37523011508E+02  0.00000000000E+00 0. -1.
         22    1    3    3    0    0 -0.39909083326E+02 -0.67423959884E+02 -0.72845692327E+02  0.10698233587E+03  0.00000000000E+00 0. -1.
</event>
<event>
 7    1  0.5789396E-006  0.4802051E+02  0.7818608E-02  0.1486981E+00
          2   -1    0    0  502    0  0.00000000000E+00  0.00000000000E+00  0.16325595497E+04  0.16325595497E+04  0.00000000000E+00 0. -1.
          1   -1    0    0  501    0 -0.00000000000E+00 -0.00000000000E+00 -0.42487528235E+03  0.42487528235E+03  0.00000000000E+00 0. -1.
         25    2    1    2    0    0  0.59773770544E+02 -0.41142036517E+02  0.48880139237E+03  0.50972067610E+03  0.12499118230E+03 0.  0.
          2    1    1    2  501    0 -0.38555583910E+02 -0.10860985693E+01 -0.41302402145E+03  0.41482111199E+03  0.00000000000E+00 0. -1.
          1    1    1    2  502    0 -0.21218186634E+02  0.42228135086E+02  0.11319068965E+04  0.11328930440E+04  0.00000000000E+00 0. -1.
         22    1    3    3    0    0 -0.36116628605E+02 -0.19770251844E+02  0.21302686721E+03  0.21696939847E+03  0.00000000000E+00 0.  1.
         22    1    3    3    0    0  0.95890399149E+02 -0.21371784673E+02  0.27577452516E+03  0.29275127763E+03  0.00000000000E+00 0.  1.
</event>
<event>
 7    1  0.5789396E-006  0.4156805E+02  0.7818608E-02  0.1590530E+00
          2   -1    0    0  502    0  0.00000000000E+00  0.00000000000E+00  0.29087878537E+03  0.29087878537E+03  0.00000000000E+00 0. -1.
          1   -1    0    0  501    0 -0.00000000000E+00 -0.00000000000E+00 -0.23054032050E+03  0.23054032050E+03  0.00000000000E+00 0. -1.
         25    2    1    2    0    0 -0.40926164360E+02 -0.32061154966E+02 -0.92342348127E+02  0.16387632996E+03  0.12500189469E+03 0.  0.
          2    1    1    2  501    0  0.51163164104E+00  0.22660353680E+02 -0.99460287466E+02  0.10201030428E+03  0.00000000000E+00 0. -1.
          1    1    1    2  502    0  0.40414532719E+02  0.94008012862E+01  0.25214110046E+03  0.25553247164E+03  0.00000000000E+00 0. -1.
         22    1    3    3    0    0  0.13091520613E+02 -0.71580081318E+01 -0.10245960135E+03  0.10354030569E+03  0.00000000000E+00 0.  1.
         22    1    3    3    0    0 -0.54017684974E+02 -0.24903146835E+02  0.10117253225E+02  0.60336024272E+02  0.00000000000E+00 0.  1.
</event>
<event>
 7    1  0.5789396E-006  0.1918925E+03  0.7818608E-02  0.1254747E+00
          2   -1    0    0  502    0  0.00000000000E+00  0.00000000000E+00  0.25350335031E+04  0.25350335031E+04  0.00000000000E+00 0. -1.
          1   -1    0    0  501    0 -0.00000000000E+00 -0.00000000000E+00 -0.42860343877E+03  0.42860343877E+03  0.00000000000E+00 0. -1.
         25    2    1    2    0    0  0.11568543044E+03 -0.14478470787E+03  0.65518332339E+02  0.23294273405E+03  0.12499574003E+03 0.  0.
          2    1    1    2  501    0 -0.54867256967E+02 -0.38074688397E+02 -0.33772458280E+03  0.34426442107E+03  0.00000000000E+00 0. -1.
          1    1    1    2  502    0 -0.60818173471E+02  0.18285939626E+03  0.23786363148E+04  0.23864297867E+04  0.00000000000E+00 0. -1.
         22    1    3    3    0    0  0.66632712064E+02 -0.81700780399E+02 -0.28832373141E+02  0.10929886356E+03  0.00000000000E+00 0. -1.
         22    1    3    3    0    0  0.49052718375E+02 -0.63083927468E+02  0.94350705479E+02  0.12364387049E+03  0.00000000000E+00 0. -1.
</event>
<event>
 7    1  0.5789396E-006  0.3417274E+02  0.7818608E-02  0.1556076E+00
          2   -1    0    0  502    0  0.00000000000E+00  0.00000000000E+00  0.30457108294E+03  0.30457108294E+03  0.00000000000E+00 0. -1.
          1   -1    0    0  501    0 -0.00000000000E+00 -0.00000000000E+00 -0.68818353710E+02  0.68818353710E+02  0.00000000000E+00 0. -1.
         25    2    1    2    0    0  0.12550850217E+01 -0.87417045339E+01  0.15785804575E+03  0.20154887669E+03  0.12499917781E+03 0.  0.
          2    1    1    2  501    0  0.32496689485E+02  0.14089049448E+02 -0.37446289617E+02  0.51543775064E+02  0.00000000000E+00 0. -1.
          1    1    1    2  502    0 -0.33751774506E+02 -0.53473449137E+01  0.11534097310E+03  0.12029678489E+03  0.00000000000E+00 0. -1.
         22    1    3    3    0    0  0.24439534106E+01  0.34680636797E+02 -0.30314118650E+01  0.34898552045E+02  0.00000000000E+00 0. -1.
         22    1    3    3    0    0 -0.11888683889E+01 -0.43422341331E+02  0.16088945761E+03  0.16665032465E+03  0.00000000000E+00 0. -1.
</event>
<event>
 7    1  0.5789396E-006  0.5383845E+02  0.7818608E-02  0.1525914E+00
          2   -1    0    0  502    0  0.00000000000E+00  0.00000000000E+00  0.79583729782E+03  0.79583729782E+03  0.00000000000E+00 0. -1.
          1   -1    0    0  501    0 -0.00000000000E+00 -0.00000000000E+00 -0.22751750501E+02  0.22751750501E+02  0.00000000000E+00 0. -1.
         25    2    1    2    0    0  0.16694642400E+02  0.57245104091E+02  0.22683464327E+03  0.26577029403E+03  0.12499672305E+03 0.  0.
          2    1    1    2  501    0 -0.26046217444E+02 -0.42365743668E+01  0.10363566770E+03  0.10694253422E+03  0.00000000000E+00 0. -1.
          1    1    1    2  502    0  0.93515750440E+01 -0.53008529724E+02  0.44261523635E+03  0.44587622007E+03  0.00000000000E+00 0. -1.
         22    1    3    3    0    0  0.33325552883E+02  0.39248882567E+02  0.16579453605E+02  0.54092009942E+02  0.00000000000E+00 0. -1.
         22    1    3    3    0    0 -0.16630910482E+02  0.17996221524E+02  0.21025518966E+03  0.21167828408E+03  0.00000000000E+00 0. -1.
</event>
<event>
 7    1  0.5789396E-006  0.3229491E+02  0.7818608E-02  0.1596311E+00
          2   -1    0    0  502    0  0.00000000000E+00  0.00000000000E+00  0.12758526221E+03  0.12758526221E+03  0.00000000000E+00 0. -1.
          1   -1    0    0  501    0 -0.00000000000E+00 -0.00000000000E+00 -0.44255156803E+03  0.44255156803E+03  0.00000000000E+00 0. -1.
         25    2    1    2    0    0 -0.46730146556E+02 -0.16189930472E+02 -0.38120265071E+03  0.40420795079E+03  0.12499114419E+03 0.  0.
          2    1    1    2  501    0  0.26675131805E+02 -0.90514537825E+01 -0.43350311025E+02  0.51698558378E+02  0.00000000000E+00 0. -1.
          1    1    1    2  502    0  0.20055014751E+02  0.25241384255E+02  0.10958665592E+03  0.11423032107E+03  0.00000000000E+00 0. -1.
         22    1    3    3    0    0 -0.32940769654E+02  0.49689948936E+02 -0.11387018957E+03  0.12853250719E+03  0.00000000000E+00 0. -1.
         22    1    3    3    0    0 -0.13789376902E+02 -0.65879879408E+02 -0.26733246114E+03  0.27567544360E+03  0.00000000000E+00 0. -1.
</event>
<event>
 7    1  0.5789396E-006  0.1432003E+03  0.7818608E-02  0.1305132E+00
          2   -1    0    0  502    0  0.00000000000E+00  0.00000000000E+00  0.12983931712E+04  0.12983931712E+04  0.00000000000E+00 0. -1.
          1   -1    0    0  501    0 -0.00000000000E+00 -0.00000000000E+00 -0.67383333824E+03  0.67383333824E+03  0.00000000000E+00 0. -1.
         25    2    1    2    0    0 -0.76182543236E+02  0.48151690933E+02  0.96323053614E+03  0.97547909189E+03  0.12499611080E+03 0.  0.
          2    1    1    2  501    0  0.13010099862E+03 -0.60855797084E+02 -0.65756954129E+03  0.67307310116E+03  0.00000000000E+00 0. -1.
          1    1    1    2  502    0 -0.53918455385E+02  0.12704106151E+02  0.31889883811E+03  0.32367431639E+03  0.00000000000E+00 0. -1.
         22    1    3    3    0    0 -0.37982633361E+02  0.89843446551E+02  0.60428778516E+03  0.61210967369E+03  0.00000000000E+00 0. -1.
         22    1    3    3    0    0 -0.38199909874E+02 -0.41691755618E+02  0.35894275098E+03  0.36336941820E+03  0.00000000000E+00 0. -1.
</event>
<event>
 7    1  0.5789396E-006  0.1802985E+03  0.7818608E-02  0.1297854E+00
          2   -1    0    0  502    0  0.00000000000E+00  0.00000000000E+00  0.14865910593E+04  0.14865910593E+04  0.00000000000E+00 0. -1.
          1   -1    0    0  501    0 -0.00000000000E+00 -0.00000000000E+00 -0.13242648175E+03  0.13242648175E+03  0.00000000000E+00 0. -1.
         25    2    1    2    0    0  0.14629486019E+03 -0.59824696165E+02  0.38646140485E+03  0.43584177040E+03  0.12499780396E+03 0.  0.
          2    1    1    2  501    0 -0.18282102951E+03  0.30179570852E+02 -0.27095131688E+02  0.18726580438E+03  0.00000000000E+00 0. -1.
          1    1    1    2  502    0  0.36526169320E+02  0.29645125313E+02  0.99479830441E+03  0.99590996629E+03  0.00000000000E+00 0. -1.
         22    1    3    3    0    0  0.62483157980E+02 -0.92412954142E+02  0.21770603509E+03  0.24462260083E+03  0.00000000000E+00 0.  1.
         22    1    3    3    0    0  0.83811702212E+02  0.32588257977E+02  0.16875536977E+03  0.19121916957E+03  0.00000000000E+00 0.  1.
</event>
<event>
 7    1  0.5789396E-006  0.5418336E+02  0.7818608E-02  0.1466505E+00
          2   -1    0    0  502    0  0.00000000000E+00  0.00000000000E+00  0.23741973064E+03  0.23741973064E+03  0.00000000000E+00 0. -1.
          1   -1    0    0  501    0 -0.00000000000E+00 -0.00000000000E+00 -0.53556190796E+03  0.53556190796E+03  0.00000000000E+00 0. -1.
         25    2    1    2    0    0 -0.72004659143E+02 -0.56349000206E+02 -0.12273257419E+03  0.19760693067E+03  0.12500133408E+03 0.  0.
          2    1    1    2  501    0  0.43915075586E+02  0.28536171483E+02 -0.37158436124E+03  0.37525695792E+03  0.00000000000E+00 0. -1.
          1    1    1    2  502    0  0.28089583557E+02  0.27812828723E+02  0.19617475811E+03  0.20011775000E+03  0.00000000000E+00 0. -1.
         22    1    3    3    0    0 -0.79304608226E+02 -0.58928568441E+02 -0.14419144077E+03  0.17479407500E+03  0.00000000000E+00 0.  1.
         22    1    3    3    0    0  0.72999490828E+01  0.25795682350E+01  0.21458866584E+02  0.22812855673E+02  0.00000000000E+00 0.  1.
</event>
<event>
 7    1  0.5789396E-006  0.4383777E+02  0.7818608E-02  0.1554979E+00
          2   -1    0    0  502    0  0.00000000000E+00  0.00000000000E+00  0.24216514307E+03  0.24216514307E+03  0.00000000000E+00 0. -1.
          1   -1    0    0  501    0 -0.00000000000E+00 -0.00000000000E+00 -0.22073185196E+04  0.22073185196E+04  0.00000000000E+00 0. -1.
         25    2    1    2    0    0 -0.97756056416E+01  0.43827991731E+02 -0.21481733011E+03  0.25257684573E+03  0.12502848618E+03 0.  0.
          2    1    1    2  501    0  0.32492801656E+02 -0.29562508729E+02 -0.19725703415E+04  0.19730594204E+04  0.00000000000E+00 0. -1.
          1    1    1    2  502    0 -0.22717196014E+02 -0.14265483002E+02  0.22223429513E+03  0.22384739653E+03  0.00000000000E+00 0. -1.
         22    1    3    3    0    0  0.42310587563E+01  0.86113486236E+02 -0.16173727890E+03  0.18328224616E+03  0.00000000000E+00 0.  1.
         22    1    3    3    0    0 -0.14006664398E+02 -0.42285494505E+02 -0.53080051212E+02  0.69294599571E+02  0.00000000000E+00 0.  1.
</event>
<event>
 7    1  0.5789396E-006  0.4408016E+02  0.7818608E-02  0.1496282E+00
          2   -1    0    0  502    0  0.00000000000E+00  0.00000000000E+00  0.39206761223E+03  0.39206761223E+03  0.00000000000E+00 0. -1.
          1   -1    0    0  501    0 -0.00000000000E+00 -0.00000000000E+00 -0.10836478107E+04  0.10836478107E+04  0.00000000000E+00 0. -1.
         25    2    1    2    0    0  0.52130043184E+01  0.22664336456E+02  0.13265983038E+03  0.18375305617E+03  0.12500282995E+03 0.  0.
          2    1    1    2  501    0  0.38852036962E+02 -0.64772583684E+01 -0.10553742798E+04  0.10561090408E+04  0.00000000000E+00 0. -1.
          1    1    1    2  502    0 -0.44065041280E+02 -0.16187078087E+02  0.23113425099E+03  0.23585332590E+03  0.00000000000E+00 0. -1.
         22    1    3    3    0    0  0.58423926223E+02  0.17566845130E+02  0.29943506304E+02  0.67960008629E+02  0.00000000000E+00 0.  1.
         22    1    3    3    0    0 -0.53210921905E+02  0.50974913257E+01  0.10271632408E+03  0.11579304754E+03  0.00000000000E+00 0.  1.
</event>
<event>
 7    1  0.5789396E-006  0.2632315E+03  0.7818608E-02  0.1213722E+00
          2   -1    0    0  502    0  0.00000000000E+00  0.00000000000E+00  0.19744397346E+04  0.19744397346E+04  0.00000000000E+00 0. -1.
          1   -1    0    0  501    0 -0.00000000000E+00 -0.00000000000E+00 -0.55897297934E+03  0.55897297934E+03  0.00000000000E+00 0. -1.
         25    2    1    2    0    0 -0.26816632725E+03 -0.31312961905E+02  0.50818389282E+03  0.58887096048E+03  0.12499783410E+03 0.  0.
          2    1    1    2  501    0  0.24780363255E+02 -0.69885583427E+02 -0.50371075873E+03  0.50913906709E+03  0.00000000000E+00 0. -1.
          1    1    1    2  502    0  0.24338596399E+03  0.10119854533E+03  0.14109936212E+04  0.14354026864E+04  0.00000000000E+00 0. -1.
         22    1    3    3    0    0  0.13087250718E+02 -0.36938088974E+01  0.13553250650E+02  0.19199243701E+02  0.00000000000E+00 0.  1.
         22    1    3    3    0    0 -0.28125357796E+03 -0.27619153007E+02  0.49463064217E+03  0.56967171678E+03  0.00000000000E+00 0.  1.
</event>
<event>
 7    1  0.5789396E-006  0.9292458E+02  0.7818608E-02  0.1330529E+00
          2   -1    0    0  502    0  0.00000000000E+00  0.00000000000E+00  0.17115242479E+04  0.17115242479E+04  0.00000000000E+00 0. -1.
          1   -1    0    0  501    0 -0.00000000000E+00 -0.00000000000E+00 -0.12528686477E+03  0.12528686477E+03  0.00000000000E+00 0. -1.
         25    2    1    2    0    0  0.26212615316E+01  0.32255603999E+02 -0.29348032536E+02  0.13240868361E+03  0.12499382977E+03 0.  0.
          2    1    1    2  501    0  0.50975932064E+02  0.44979608777E+02 -0.16219913470E+02  0.69891318836E+02  0.00000000000E+00 0. -1.
          1    1    1    2  502    0 -0.53597193596E+02 -0.77235212777E+02  0.16318053291E+04  0.16345111102E+04  0.00000000000E+00 0. -1.
         22    1    3    3    0    0  0.42060193732E+02 -0.30721628985E+02 -0.25524258143E+02  0.58003156276E+02  0.00000000000E+00 0.  1.
         22    1    3    3    0    0 -0.39438932200E+02  0.62977232984E+02 -0.38237743933E+01  0.74405527335E+02  0.00000000000E+00 0.  1.
</event>
<event>
 7    1  0.5789396E-006  0.1645739E+03  0.7818608E-02  0.1366048E+00
          2   -1    0    0  502    0  0.00000000000E+00  0.00000000000E+00  0.15693043267E+04  0.15693043267E+04  0.00000000000E+00 0. -1.
          1   -1    0    0  501    0 -0.00000000000E+00 -0.00000000000E+00 -0.21017987966E+04  0.21017987966E+04  0.00000000000E+00 0. -1.
         25    2    1    2    0    0 -0.44014176117E+02  0.17339035136E+03 -0.88423140846E+03  0.91076451382E+03  0.12500141706E+03 0.  0.
          2    1    1    2  501    0  0.57531757591E+02 -0.14849647168E+03 -0.11989062154E+04  0.12094367361E+04  0.00000000000E+00 0. -1.
          1    1    1    2  502    0 -0.13517581474E+02 -0.24893879679E+02  0.15506431539E+04  0.15509018734E+04  0.00000000000E+00 0. -1.
         22    1    3    3    0    0 -0.31040168343E+02  0.95857809291E+02 -0.22093447024E+03  0.24282555836E+03  0.00000000000E+00 0. -1.
         22    1    3    3    0    0 -0.12974007774E+02  0.77532542066E+02 -0.66329693822E+03  0.66793895546E+03  0.00000000000E+00 0. -1.
</event>
<event>
 7    1  0.5789396E-006  0.1122235E+03  0.7818608E-02  0.1264185E+00
          2   -1    0    0  502    0  0.00000000000E+00  0.00000000000E+00  0.79301836163E+03  0.79301836163E+03  0.00000000000E+00 0. -1.
          1   -1    0    0  501    0 -0.00000000000E+00 -0.00000000000E+00 -0.30132620756E+03  0.30132620756E+03  0.00000000000E+00 0. -1.
         25    2    1    2    0    0 -0.21343720993E+02 -0.14046587647E+02  0.53679026522E+02  0.13841808985E+03  0.12500107463E+03 0.  0.
          2    1    1    2  501    0  0.67751160670E+02  0.10719842085E+03 -0.23921422815E+03  0.27074927175E+03  0.00000000000E+00 0. -1.
          1    1    1    2  502    0 -0.46407439677E+02 -0.93151833202E+02  0.67722735571E+03  0.68517720759E+03  0.00000000000E+00 0. -1.
         22    1    3    3    0    0 -0.68140577651E+02  0.17010086015E+02  0.20399900745E+02  0.73134378368E+02  0.00000000000E+00 0.  1.
         22    1    3    3    0    0  0.46796856658E+02 -0.31056673662E+02  0.33279125777E+02  0.65283711479E+02  0.00000000000E+00 0.  1.
</event>
<event>
 7    1  0.5789396E-006  0.1044202E+03  0.7818608E-02  0.1301952E+00
          2   -1    0    0  502    0  0.00000000000E+00  0.00000000000E+00  0.73454403881E+03  0.73454403881E+03  0.00000000000E+00 0. -1.
          1   -1    0    0  501    0 -0.00000000000E+00 -0.00000000000E+00 -0.97199779860E+02  0.97199779860E+02  0.00000000000E+00 0. -1.
         25    2    1    2    0    0 -0.66438778742E+02 -0.72362312683E+02  0.37586634461E+03  0.40810817341E+03  0.12500542620E+03 0.  0.
          2    1    1    2  501    0 -0.34440675436E+01  0.10749005231E+03 -0.38039365528E+02  0.11407438923E+03  0.00000000000E+00 0. -1.
          1    1    1    2  502    0  0.69882846286E+02 -0.35127739629E+02  0.29951727987E+03  0.30956125603E+03  0.00000000000E+00 0. -1.
         22    1    3    3    0    0 -0.20052938030E+02 -0.10323575267E+02 -0.17560913801E+01  0.22622563667E+02  0.00000000000E+00 0. -1.
         22    1    3    3    0    0 -0.46385840712E+02 -0.62038737417E+02  0.37762243599E+03  0.38548560975E+03  0.00000000000E+00 0. -1.
</event>
<event>
 7    1  0.5789396E-006  0.1490735E+03  0.7818608E-02  0.1308592E+00
          2   -1    0    0  502    0  0.00000000000E+00  0.00000000000E+00  0.95492235621E+03  0.95492235621E+03  0.00000000000E+00 0. -1.
          1   -1    0    0  501    0 -0.00000000000E+00 -0.00000000000E+00 -0.37435705915E+03  0.37435705915E+03  0.00000000000E+00 0. -1.
         25    2    1    2    0    0  0.18301849770E+03  0.12741641909E+02 -0.19548051172E+02  0.22285148595E+03  0.12499015380E+03 0.  0.
          2    1    1    2  501    0 -0.13778784552E+03 -0.37492669748E+02 -0.23215897390E+03  0.27256004810E+03  0.00000000000E+00 0. -1.
          1    1    1    2  502    0 -0.45230652184E+02  0.24751027839E+02  0.83227232214E+03  0.83386788131E+03  0.00000000000E+00 0. -1.
         22    1    3    3    0    0  0.12739501561E+03 -0.38989002211E+02 -0.48182626033E+02  0.14167285466E+03  0.00000000000E+00 0. -1.
         22    1    3    3    0    0  0.55623482089E+02  0.51730644120E+02  0.28634574861E+02  0.81178631291E+02  0.00000000000E+00 0. -1.
</event>
<event>
 7    1  0.5789396E-006  0.9434307E+02  0.7818608E-02  0.1438421E+00
          2   -1    0    0  502    0  0.00000000000E+00  0.00000000000E+00  0.11734105308E+04  0.11734105308E+04  0.00000000000E+00 0. -1.
          1   -1    0    0  501    0 -0.00000000000E+00 -0.00000000000E+00 -0.83890663377E+03  0.83890663377E+03  0.00000000000E+00 0. -1.
         25    2    1    2    0    0  0.86287225841E+01  0.11127239304E+03  0.48983157374E+03  0.51770219354E+03  0.12499836101E+03 0.  0.
          2    1    1    2  501    0  0.14983965339E+02 -0.23536929300E+02 -0.82165154010E+03  0.82212514838E+03  0.00000000000E+00 0. -1.
          1    1    1    2  502    0 -0.23612687923E+02 -0.87735463743E+02  0.66632386342E+03  0.67248982266E+03  0.00000000000E+00 0. -1.
         22    1    3    3    0    0 -0.28174640208E+01  0.23477509175E+02  0.41387300882E+01  0.24005429122E+02  0.00000000000E+00 0.  1.
         22    1    3    3    0    0  0.11446186605E+02  0.87794883868E+02  0.48569284366E+03  0.49369676442E+03  0.00000000000E+00 0.  1.
</event>
<event>
 7    1  0.5789396E-006  0.6109675E+02  0.7818608E-02  0.1421318E+00
          2   -1    0    0  502    0  0.00000000000E+00  0.00000000000E+00  0.78326282284E+03  0.78326282284E+03  0.00000000000E+00 0. -1.
          1   -1    0    0  501    0 -0.00000000000E+00 -0.00000000000E+00 -0.53696829408E+03  0.53696829408E+03  0.00000000000E+00 0. -1.
         25    2    1    2    0    0 -0.51591554108E+02 -0.92643398306E+01  0.10742216479E+03  0.17295051541E+03  0.12499937138E+03 0.  0.
          2    1    1    2  501    0  0.30322856275E+02  0.53463151856E+02 -0.50138944197E+03  0.50514270928E+03  0.00000000000E+00 0. -1.
          1    1    1    2  502    0  0.21268697832E+02 -0.44198812026E+02  0.64026180594E+03  0.64213789223E+03  0.00000000000E+00 0. -1.
         22    1    3    3    0    0  0.24644008728E+00 -0.57559132138E+02  0.76277732441E+02  0.95558395191E+02  0.00000000000E+00 0.  1.
         22    1    3    3    0    0 -0.51837994195E+02  0.48294792308E+02  0.31144432352E+02  0.77392120224E+02  0.00000000000E+00 0.  1.
</event>
<event>
 7    1  0.5789396E-006  0.4896864E+02  0.7818608E-02  0.1467350E+00
          2   -1    0    0  502    0  0.00000000000E+00  0.00000000000E+00  0.36720008949E+03  0.36720008949E+03  0.00000000000E+00 0. -1.
          1   -1    0    0  501    0 -0.00000000000E+00 -0.00000000000E+00 -0.54067258914E+02  0.54067258914E+02  0.00000000000E+00 0. -1.
         25    2    1    2    0    0 -0.22008567137E+02  0.53022249218E+02  0.21746780420E+03  0.25731912979E+03  0.12500061101E+03 0.  0.
          2    1    1    2  501    0  0.46641698019E+02 -0.17200382349E+02 -0.90845038169E+01  0.50535426748E+02  0.00000000000E+00 0. -1.
          1    1    1    2  502    0 -0.24633130882E+02 -0.35821866869E+02  0.10474953020E+03  0.11341279187E+03  0.00000000000E+00 0. -1.
         22    1    3    3    0    0 -0.39475170126E+01  0.23260136422E+02 -0.11129529749E+02  0.26086074242E+02  0.00000000000E+00 0.  1.
         22    1    3    3    0    0 -0.18061050124E+02  0.29762112795E+02  0.22859733395E+03  0.23123305555E+03  0.00000000000E+00 0.  1.
</event>
<event>
 7    1  0.5789396E-006  0.6127539E+02  0.7818608E-02  0.1417722E+00
          2   -1    0    0  502    0  0.00000000000E+00  0.00000000000E+00  0.47452808979E+03  0.47452808979E+03  0.00000000000E+00 0. -1.
          1   -1    0    0  501    0 -0.00000000000E+00 -0.00000000000E+00 -0.35870043635E+03  0.35870043635E+03  0.00000000000E+00 0. -1.
         25    2    1    2    0    0 -0.71853313340E+02 -0.37822657171E+02 -0.61698819773E+02  0.16132407122E+03  0.12500103823E+03 0.  0.
          2    1    1    2  501    0  0.46914515994E+02 -0.18084075944E+02 -0.24238969947E+03  0.24754953448E+03  0.00000000000E+00 0. -1.
          1    1    1    2  502    0  0.24938797346E+02  0.55906733115E+02  0.41991617268E+03  0.42435492044E+03  0.00000000000E+00 0. -1.
         22    1    3    3    0    0 -0.62187483190E+02 -0.35107420944E+02 -0.99352443293E+02  0.12235490206E+03  0.00000000000E+00 0.  1.
         22    1    3    3    0    0 -0.96658301498E+01 -0.27152362269E+01  0.37653623520E+02  0.38969169153E+02  0.00000000000E+00 0.  1.
</event>
<event>
 7    1  0.5789396E-006  0.7218223E+02  0.7818608E-02  0.1364417E+00
          2   -1    0    0  502    0  0.00000000000E+00  0.00000000000E+00  0.84053529472E+03  0.84053529472E+03  0.00000000000E+00 0. -1.
          1   -1    0    0  501    0 -0.00000000000E+00 -0.00000000000E+00 -0.17680022151E+04  0.17680022151E+04  0.00000000000E+00 0. -1.
         25    2    1    2    0    0  0.12827142221E+02 -0.30548956157E+02  0.56927863838E+02  0.14130241326E+03  0.12501126354E+03 0.  0.
          2    1    1    2  501    0 -0.72534135978E+02  0.36909230299E+01 -0.17236034073E+04  0.17251329019E+04  0.00000000000E+00 0. -1.
          1    1    1    2  502    0  0.59706993757E+02  0.26858033127E+02  0.73920862299E+03  0.74210219468E+03  0.00000000000E+00 0. -1.
         22    1    3    3    0    0  0.65839256107E+02  0.40989019756E+01  0.30569978938E+02  0.72705792440E+02  0.00000000000E+00 0. -1.
         22    1    3    3    0    0 -0.53012113886E+02 -0.34647858132E+02  0.26357884900E+02  0.68596620822E+02  0.00000000000E+00 0. -1.
</event>
<event>
 7    1  0.5789396E-006  0.8382629E+02  0.7818608E-02  0.1442914E+00
          2   -1    0    0  502    0  0.00000000000E+00  0.00000000000E+00  0.23385946678E+04  0.23385946678E+04  0.00000000000E+00 0. -1.
          1   -1    0    0  501    0 -0.00000000000E+00 -0.00000000000E+00 -0.11567955149E+03  0.11567955149E+03  0.00000000000E+00 0. -1.
         25    2    1    2    0    0  0.52906602261E+02  0.90716657279E+02  0.19248317772E+03  0.25239618091E+03  0.12500175183E+03 0.  0.
          2    1    1    2  501    0 -0.55595268037E+02 -0.60469639544E+02 -0.65909877675E+02  0.10531630030E+03  0.00000000000E+00 0. -1.
          1    1    1    2  502    0  0.26886657763E+01 -0.30247017736E+02  0.20963418162E+04  0.20965617380E+04  0.00000000000E+00 0. -1.
         22    1    3    3    0    0  0.22550905802E+02  0.11564309895E+03  0.11068928673E+03  0.16166009985E+03  0.00000000000E+00 0.  1.
         22    1    3    3    0    0  0.30355696459E+02 -0.24926441669E+02  0.81793890999E+02  0.90736081062E+02  0.00000000000E+00 0.  1.
</event>
<event>
 7    1  0.5789396E-006  0.4116849E+02  0.7818608E-02  0.1529410E+00
          2   -1    0    0  502    0  0.00000000000E+00  0.00000000000E+00  0.62201551693E+03  0.62201551693E+03  0.00000000000E+00 0. -1.
          1   -1    0    0  501    0 -0.00000000000E+00 -0.00000000000E+00 -0.41272100584E+02  0.41272100584E+02  0.00000000000E+00 0. -1.
         25    2    1    2    0    0  0.13839310492E+02 -0.11726678826E+02  0.10589721447E+03  0.16482714174E+03  0.12499890044E+03 0.  0.
          2    1    1    2  501    0 -0.44739799677E+02  0.25226262484E+02  0.48047999137E+02  0.70332241648E+02  0.00000000000E+00 0. -1.
          1    1    1    2  502    0  0.30900489185E+02 -0.13499583658E+02  0.42679820274E+03  0.42812823412E+03  0.00000000000E+00 0. -1.
         22    1    3    3    0    0  0.19087567038E+02 -0.34219292833E+02 -0.14841238713E+02  0.41899374505E+02  0.00000000000E+00 0.  1.
         22    1    3    3    0    0 -0.52482565459E+01  0.22492614007E+02  0.12073845318E+03  0.12292776724E+03  0.00000000000E+00 0.  1.
</event>
<event>
 7    1  0.5789396E-006  0.1265012E+03  0.7818608E-02  0.1242794E+00
          2   -1    0    0  502    0  0.00000000000E+00  0.00000000000E+00  0.55552645678E+03  0.55552645678E+03  0.00000000000E+00 0. -1.
          1   -1    0    0  501    0 -0.00000000000E+00 -0.00000000000E+00 -0.70525984461E+03  0.70525984461E+03  0.00000000000E+00 0. -1.
         25    2    1    2    0    0  0.28769247951E+02  0.84377275580E+02 -0.32393763288E+02  0.15691231357E+03  0.12499969595E+03 0.  0.
          2    1    1    2  501    0  0.83095245774E+02 -0.10726509066E+03 -0.59627376018E+03  0.61151697983E+03  0.00000000000E+00 0. -1.
          1    1    1    2  502    0 -0.11186449372E+03  0.22887815079E+02  0.47893413564E+03  0.49235700799E+03  0.00000000000E+00 0. -1.
         22    1    3    3    0    0  0.16675027250E+02 -0.52989904534E+01 -0.59846274077E+02  0.62351522472E+02  0.00000000000E+00 0. -1.
         22    1    3    3    0    0  0.12094220702E+02  0.89676266034E+02  0.27452510789E+02  0.94560791096E+02  0.00000000000E+00 0. -1.
</event>
<event>
 7    1  0.5789396E-006  0.5769973E+02  0.7818608E-02  0.1463567E+00
          2   -1    0    0  502    0  0.00000000000E+00  0.00000000000E+00  0.70227685715E+03  0.70227685715E+03  0.00000000000E+00 0. -1.
          1   -1    0    0  501    0 -0.00000000000E+00 -0.00000000000E+00 -0.43833260978E+03  0.43833260978E+03  0.00000000000E+00 0. -1.
         25    2    1    2    0    0  0.18807490717E+02 -0.92895929968E+02 -0.15316888874E+03  0.21924623201E+03  0.12499930504E+03 0.  0.
          2    1    1    2  501    0 -0.12536972114E+02  0.35782960162E+02 -0.24945670610E+03  0.25232170760E+03  0.00000000000E+00 0. -1.
          1    1    1    2  502    0 -0.62705186030E+01  0.57112969806E+02  0.66656984221E+03  0.66904152731E+03  0.00000000000E+00 0. -1.
         22    1    3    3    0    0  0.68585721087E+02 -0.71056722235E+02 -0.74877290089E+02  0.12393412558E+03  0.00000000000E+00 0.  1.
         22    1    3    3    0    0 -0.49778230370E+02 -0.21839207733E+02 -0.78291598652E+02  0.95312106433E+02  0.00000000000E+00 0.  1.
</event>
<event>
 7    1  0.5789396E-006  0.9813157E+02  0.7818608E-02  0.1309772E+00
          2   -1    0    0  502    0  0.00000000000E+00  0.00000000000E+00  0.24799772275E+03  0.24799772275E+03  0.00000000000E+00 0. -1.
          1   -1    0    0  501    0 -0.00000000000E+00 -0.00000000000E+00 -0.27164937456E+03  0.27164937456E+03  0.00000000000E+00 0. -1.
         25    2    1    2    0    0  0.35744490838E+01 -0.17921493679E+02 -0.73661036442E+02  0.14623292666E+03  0.12499665567E+03 0.  0.
          2    1    1    2  501    0  0.28947781324E+02  0.11050717887E+03 -0.12712672662E+03  0.17091230280E+03  0.00000000000E+00 0. -1.
          1    1    1    2  502    0 -0.32522230408E+02 -0.92585685193E+02  0.17713611125E+03  0.20250186785E+03  0.00000000000E+00 0. -1.
         22    1    3    3    0    0  0.22203628459E+02 -0.11150573701E+00 -0.10404646026E+03  0.10638928256E+03  0.00000000000E+00 0. -1.
         22    1    3    3    0    0 -0.18629179375E+02 -0.17809987941E+02  0.30385423818E+02  0.39843644102E+02  0.00000000000E+00 0. -1.
</event>
<event>
 7    1  0.5789396E-006  0.1267687E+03  0.7818608E-02  0.1315846E+00
          2   -1    0    0  502    0  0.00000000000E+00  0.00000000000E+00  0.55340884621E+03  0.55340884621E+03  0.00000000000E+00 0. -1.
          1   -1    0    0  501    0 -0.00000000000E+00 -0.00000000000E+00 -0.54539588767E+03  0.54539588767E+03  0.00000000000E+00 0. -1.
         25    2    1    2    0    0  0.15564293784E+03 -0.83013897913E+02 -0.90325178931E+02  0.23431013573E+03  0.12500628149E+03 0.  0.
          2    1    1    2  501    0 -0.56170092680E+02  0.83147254870E+01 -0.37285666272E+03  0.37715554471E+03  0.00000000000E+00 0. -1.
          1    1    1    2  502    0 -0.99472845158E+02  0.74699172426E+02  0.47119480019E+03  0.48733905345E+03  0.00000000000E+00 0. -1.
         22    1    3    3    0    0 -0.13248364939E+02  0.66246730646E+00  0.13663763948E+02  0.19043541732E+02  0.00000000000E+00 0.  1.
         22    1    3    3    0    0  0.16889130278E+03 -0.83676365219E+02 -0.10398894288E+03  0.21526659400E+03  0.00000000000E+00 0.  1.
</event>
<event>
 7    1  0.5789396E-006  0.5960540E+02  0.7818608E-02  0.1540930E+00
          2   -1    0    0  502    0  0.00000000000E+00  0.00000000000E+00  0.13525289409E+04  0.13525289409E+04  0.00000000000E+00 0. -1.
          1   -1    0    0  501    0 -0.00000000000E+00 -0.00000000000E+00 -0.49065082119E+03  0.49065082119E+03  0.00000000000E+00 0. -1.
         25    2    1    2    0    0 -0.12880550337E+02  0.64150014922E+02 -0.28504807511E+03  0.31805562169E+03  0.12500336145E+03 0.  0.
          2    1    1    2  501    0 -0.78880428685E+01 -0.58225005784E+02 -0.18444503704E+03  0.19357774719E+03  0.00000000000E+00 0. -1.
          1    1    1    2  502    0  0.20768593206E+02 -0.59250091380E+01  0.13313712318E+04  0.13315463932E+04  0.00000000000E+00 0. -1.
         22    1    3    3    0    0  0.39970281285E+02  0.54616611950E+02 -0.23533738619E+03  0.24487605645E+03  0.00000000000E+00 0. -1.
         22    1    3    3    0    0 -0.52850831623E+02  0.95334029716E+01 -0.49710688926E+02  0.73179565241E+02  0.00000000000E+00 0. -1.
</event>
<event>
 7    1  0.5789396E-006  0.1647726E+03  0.7818608E-02  0.1278832E+00
          2   -1    0    0  502    0  0.00000000000E+00  0.00000000000E+00  0.76899170847E+02  0.76899170847E+02  0.00000000000E+00 0. -1.
          1   -1    0    0  501    0 -0.00000000000E+00 -0.00000000000E+00 -0.12252501381E+04  0.12252501381E+04  0.00000000000E+00 0. -1.
         25    2    1    2    0    0  0.18915642673E+03  0.10470544693E+03 -0.66307584930E+03  0.70854740163E+03  0.12500581603E+03 0.  0.
          2    1    1    2  501    0 -0.58321735097E+02 -0.19645316396E+02 -0.41993535555E+03  0.42442085962E+03  0.00000000000E+00 0. -1.
          1    1    1    2  502    0 -0.13083469163E+03 -0.85060130536E+02 -0.65339762363E+02  0.16918104766E+03  0.00000000000E+00 0. -1.
         22    1    3    3    0    0  0.62950899266E+02  0.30952868295E+02 -0.75487444209E+02  0.10304974530E+03  0.00000000000E+00 0. -1.
         22    1    3    3    0    0  0.12620552746E+03  0.73752578637E+02 -0.58758840509E+03  0.60549765632E+03  0.00000000000E+00 0. -1.
</event>
<event>
 7    1  0.5789396E-006  0.5270834E+02  0.7818608E-02  0.1453986E+00
          2   -1    0    0  502    0  0.00000000000E+00  0.00000000000E+00  0.11348621970E+04  0.11348621970E+04  0.00000000000E+00 0. -1.
          1   -1    0    0  501    0 -0.00000000000E+00 -0.00000000000E+00 -0.14201218370E+03  0.14201218370E+03  0.00000000000E+00 0. -1.
         25    2    1    2    0    0  0.25627949404E+02 -0.45746101285E+02  0.96162515382E+02  0.16619705664E+03  0.12499893879E+03 0.  0.
          2    1    1    2  501    0  0.26505467568E+02  0.35748726824E+02 -0.10163148162E+03  0.11094804792E+03  0.00000000000E+00 0. -1.
          1    1    1    2  502    0 -0.52133416972E+02  0.99973744607E+01  0.99831897958E+03  0.99972927618E+03  0.00000000000E+00 0. -1.
         22    1    3    3    0    0  0.15637495816E+02 -0.59105990162E+02  0.12141034044E+03  0.13593572052E+03  0.00000000000E+00 0. -1.
         22    1    3    3    0    0  0.99904535886E+01  0.13359888878E+02 -0.25247825057E+02  0.30261336121E+02  0.00000000000E+00 0. -1.
</event>
<event>
 7    1  0.5789396E-006  0.1510620E+03  0.7818608E-02  0.1277713E+00
          2   -1    0    0  502    0  0.00000000000E+00  0.00000000000E+00  0.42565792763E+03  0.42565792763E+03  0.00000000000E+00 0. -1.
          1   -1    0    0  501    0 -0.00000000000E+00 -0.00000000000E+00 -0.21775200096E+03  0.21775200096E+03  0.00000000000E+00 0. -1.
         25    2    1    2    0    0 -0.17789981033E+03 -0.20851231632E+02  0.10491884488E+03  0.24231497688E+03  0.12500187052E+03 0.  0.
          2    1    1    2  501    0  0.14236162656E+03 -0.36944547214E+02 -0.10604929737E+03  0.18132342859E+03  0.00000000000E+00 0. -1.
          1    1    1    2  502    0  0.35538183775E+02  0.57795778846E+02  0.20903637916E+03  0.21977152311E+03  0.00000000000E+00 0. -1.
         22    1    3    3    0    0 -0.12507364829E+03 -0.45776281896E+02  0.13555450815E+02  0.13387544856E+03  0.00000000000E+00 0.  1.
         22    1    3    3    0    0 -0.52826162038E+02  0.24925050264E+02  0.91363394063E+02  0.10843952831E+03  0.00000000000E+00 0.  1.
</event>
<event>
 7    1  0.5789396E-006  0.1448020E+03  0.7818608E-02  0.1259241E+00
          2   -1    0    0  502    0  0.00000000000E+00  0.00000000000E+00  0.30877329172E+03  0.30877329172E+03  0.00000000000E+00 0. -1.
          1   -1    0    0  501    0 -0.00000000000E+00 -0.00000000000E+00 -0.44465304456E+03  0.44465304456E+03  0.00000000000E+00 0. -1.
         25    2    1    2    0    0 -0.17778385413E+02 -0.10373000554E+03 -0.68459860078E+02  0.17716576227E+03  0.12499987937E+03 0.  0.
          2    1    1    2  501    0  0.97687709420E+02  0.13169282469E+03 -0.29275498777E+03  0.33554637758E+03  0.00000000000E+00 0. -1.
          1    1    1    2  502    0 -0.79909324007E+02 -0.27962819152E+02  0.22533509501E+03  0.24071419642E+03  0.00000000000E+00 0. -1.
         22    1    3    3    0    0 -0.40902380091E+02 -0.10917393122E+03 -0.13589938542E+02  0.11737392549E+03  0.00000000000E+00 0. -1.
         22    1    3    3    0    0  0.23123994678E+02  0.54439256820E+01 -0.54869921536E+02  0.59791836785E+02  0.00000000000E+00 0. -1.
</event>
<event>
 7    1  0.5789396E-006  0.3550234E+02  0.7818608E-02  0.1559991E+00
          2   -1    0    0  502    0  0.00000000000E+00  0.00000000000E+00  0.10322821662E+04  0.10322821662E+04  0.00000000000E+00 0. -1.
          1   -1    0    0  501    0 -0.00000000000E+00 -0.00000000000E+00 -0.36304717907E+03  0.36304717907E+03  0.00000000000E+00 0. -1.
         25    2    1    2    0    0 -0.91446432218E+01 -0.60875049375E+02  0.36433475688E+03  0.39006914412E+03  0.12499890392E+03 0.  0.
          2    1    1    2  501    0  0.17178407387E+02  0.27097461566E+02 -0.34898356835E+03  0.35045527686E+03  0.00000000000E+00 0. -1.
          1    1    1    2  502    0 -0.80337641654E+01  0.33777587810E+02  0.65388379860E+03  0.65480492429E+03  0.00000000000E+00 0. -1.
         22    1    3    3    0    0  0.34821407961E+02 -0.72832942882E+02  0.30356136072E+03  0.31411250810E+03  0.00000000000E+00 0. -1.
         22    1    3    3    0    0 -0.43966051183E+02  0.11957893507E+02  0.60773396160E+02  0.75956636014E+02  0.00000000000E+00 0. -1.
</event>
<event>
 7    1  0.5789396E-006  0.3713776E+02  0.7818608E-02  0.1554311E+00
          2   -1    0    0  502    0  0.00000000000E+00  0.00000000000E+00  0.15675117020E+03  0.15675117020E+03  0.00000000000E+00 0. -1.
          1   -1    0    0  501    0 -0.00000000000E+00 -0.00000000000E+00 -0.29264579592E+03  0.29264579592E+03  0.00000000000E+00 0. -1.
         25    2    1    2    0    0 -0.26787621190E+02  0.48916322951E+02  0.20285201826E+02  0.13837624999E+03  0.12500445531E+03 0.  0.
          2    1    1    2  501    0  0.32474881732E+02 -0.17629394127E+02 -0.22878878962E+03  0.23175358409E+03  0.00000000000E+00 0. -1.
          1    1    1    2  502    0 -0.56872605419E+01 -0.31286928824E+02  0.72608962080E+02  0.79267132041E+02  0.00000000000E+00 0. -1.
         22    1    3    3    0    0  0.28562855619E+02 -0.81692981074E+01 -0.31646565327E+02  0.43405981727E+02  0.00000000000E+00 0. -1.
         22    1    3    3    0    0 -0.55350476809E+02  0.57085621059E+02  0.51931767153E+02  0.94970268265E+02  0.00000000000E+00 0. -1.
</event>
<event>
 7    1  0.5789396E-006  0.4388419E+02  0.7818608E-02  0.1554983E+00
          2   -1    0    0  502    0  0.00000000000E+00  0.00000000000E+00  0.33566540151E+03  0.33566540151E+03  0.00000000000E+00 0. -1.
          1   -1    0    0  501    0 -0.00000000000E+00 -0.00000000000E+00 -0.34599861903E+03  0.34599861903E+03  0.00000000000E+00 0. -1.
         25    2    1    2    0    0  0.49846194634E+01 -0.19104279876E+02 -0.12371651075E+03  0.17697480305E+03  0.12499794375E+03 0.  0.
          2    1    1    2  501    0 -0.75159984087E+01  0.45780335643E+02 -0.19230842611E+03  0.19782532729E+03  0.00000000000E+00 0. -1.
          1    1    1    2  502    0  0.25313789453E+01 -0.26676055767E+02  0.30569171934E+03  0.30686389019E+03  0.00000000000E+00 0. -1.
         22    1    3    3    0    0  0.62731065099E+02 -0.14200483797E+02 -0.42087173024E+02  0.76864623863E+02  0.00000000000E+00 0. -1.
         22    1    3    3    0    0 -0.57746445635E+02 -0.49037960789E+01 -0.81629337722E+02  0.10011017918E+03  0.00000000000E+00 0. -1.
</event>
<event>
 7    1  0.5789396E-006  0.9636560E+02  0.7818608E-02  0.1319406E+00
          2   -1    0    0  502    0  0.00000000000E+00  0.00000000000E+00  0.21236251175E+03  0.21236251175E+03  0.00000000000E+00 0. -1.
          1   -1    0    0  501    0 -0.00000000000E+00 -0.00000000000E+00 -0.88612807124E+03  0.88612807124E+03  0.00000000000E+00 0. -1.
         25    2    1    2    0    0 -0.11939878288E+03 -0.61794725771E+02 -0.35579595659E+03  0.40036297647E+03  0.12500037089E+03 0.  0.
          2    1    1    2  501    0  0.48863524311E+02  0.77897306613E+02 -0.49678833975E+03  0.50522696770E+03  0.00000000000E+00 0. -1.
          1    1    1    2  502    0  0.70535258567E+02 -0.16102580842E+02  0.17881873684E+03  0.19290063882E+03  0.00000000000E+00 0. -1.
         22    1    3    3    0    0 -0.31450412722E+02  0.31566797155E+02 -0.16161350877E+03  0.16764401975E+03  0.00000000000E+00 0.  1.
         22    1    3    3    0    0 -0.87948370156E+02 -0.93361522925E+02 -0.19418244782E+03  0.23271895672E+03  0.00000000000E+00 0.  1.
</event>
<event>
 7    1  0.5789396E-006  0.1584012E+03  0.7818608E-02  0.1295194E+00
          2   -1    0    0  502    0  0.00000000000E+00  0.00000000000E+00  0.48836237450E+02  0.48836237450E+02  0.00000000000E+00 0. -1.
          1   -1    0    0  501    0 -0.00000000000E+00 -0.00000000000E+00 -0.14367851641E+04  0.14367851641E+04  0.00000000000E+00 0. -1.
         25    2    1    2    0    0 -0.11388806236E+03  0.38233518143E+02 -0.68395826963E+03  0.70558901933E+03  0.12499862776E+03 0.  0.
          2    1    1    2  501    0 -0.35711823150E+02  0.41673967544E+02 -0.54436750659E+03  0.54712707492E+03  0.00000000000E+00 0. -1.
          1    1    1    2  502    0  0.14959988551E+03 -0.79907485687E+02 -0.15962315043E+03  0.23290530730E+03  0.00000000000E+00 0. -1.
         22    1    3    3    0    0  0.59660272144E+01  0.48474683221E+02 -0.13384610047E+03  0.14247865456E+03  0.00000000000E+00 0.  1.
         22    1    3    3    0    0 -0.11985408958E+03 -0.10241165078E+02 -0.55011216917E+03  0.56311036477E+03  0.00000000000E+00 0.  1.
</event>
<event>
 7    1  0.5789396E-006  0.1165684E+03  0.7818608E-02  0.1429552E+00
          2   -1    0    0  502    0  0.00000000000E+00  0.00000000000E+00  0.67166750827E+03  0.67166750827E+03  0.00000000000E+00 0. -1.
          1   -1    0    0  501    0 -0.00000000000E+00 -0.00000000000E+00 -0.19429274852E+04  0.19429274852E+04  0.00000000000E+00 0. -1.
         25    2    1    2    0    0 -0.14433259939E+02  0.13559641092E+03 -0.27367117521E+03  0.33032865548E+03  0.12500561125E+03 0.  0.
          2    1    1    2  501    0  0.22739783322E+02 -0.11292731981E+03 -0.16386783944E+04  0.16427223008E+04  0.00000000000E+00 0. -1.
          1    1    1    2  502    0 -0.83065233829E+01 -0.22669091112E+02  0.64108959259E+03  0.64154403726E+03  0.00000000000E+00 0. -1.
         22    1    3    3    0    0 -0.49476929892E+02  0.75125172943E+02 -0.23230449494E+03  0.24911269853E+03  0.00000000000E+00 0. -1.
         22    1    3    3    0    0  0.35043669953E+02  0.60471237980E+02 -0.41366680271E+02  0.81215956950E+02  0.00000000000E+00 0. -1.
</event>
<event>
 7    1  0.5789396E-006  0.8788863E+02  0.7818608E-02  0.1337873E+00
          2   -1    0    0  502    0  0.00000000000E+00  0.00000000000E+00  0.89236641585E+03  0.89236641585E+03  0.00000000000E+00 0. -1.
          1   -1    0    0  501    0 -0.00000000000E+00 -0.00000000000E+00 -0.87256697106E+02  0.87256697106E+02  0.00000000000E+00 0. -1.
         25    2    1    2    0    0 -0.54882031225E+02 -0.10874445228E+03  0.53286830119E+03  0.56072144499E+03  0.12499007645E+03 0.  0.
          2    1    1    2  501    0 -0.12937506208E+02  0.66156777601E+02 -0.51861696341E+02  0.85051359994E+02  0.00000000000E+00 0. -1.
          1    1    1    2  502    0  0.67819537432E+02  0.42587674683E+02  0.32410311390E+03  0.33385030797E+03  0.00000000000E+00 0. -1.
         22    1    3    3    0    0 -0.44300795536E+02 -0.11977734947E+03  0.52999860703E+03  0.54516758651E+03  0.00000000000E+00 0.  1.
         22    1    3    3    0    0 -0.10581235688E+02  0.11032897188E+02  0.28696941578E+01  0.15553858479E+02  0.00000000000E+00 0.  1.
</event>
<event>
 7    1  0.7903093E-006  0.8117133E+02  0.7818608E-02  0.1364962E+00
          2   -1    0    0  502    0  0.00000000000E+00  0.00000000000E+00  0.32947712848E+04  0.32947712848E+04  0.00000000000E+00 0. -1.
          1   -1    0    0  501    0 -0.00000000000E+00 -0.00000000000E+00 -0.10801805081E+04  0.10801805081E+04  0.00000000000E+00 0. -1.
         25    2    1    2    0    0  0.71663680416E+01  0.13819769333E+03 -0.13007539550E+03  0.22736517265E+03  0.12500141578E+03 0.  0.
          2    1    1    2  501    0  0.32745288983E+01 -0.57862683737E+02 -0.90002263644E+03  0.90188666628E+03  0.00000000000E+00 0. -1.
          1    1    1    2  502    0 -0.10440896940E+02 -0.80335009597E+02  0.32446888087E+04  0.32456999540E+04  0.00000000000E+00 0. -1.
         22    1    3    3    0    0  0.19869101046E+02  0.29342958220E+02  0.20645109262E+02  0.41012326317E+02  0.00000000000E+00 0. -1.
         22    1    3    3    0    0 -0.12702733004E+02  0.10885473511E+03 -0.15072050476E+03  0.18635284634E+03  0.00000000000E+00 0. -1.
</event>
<event>
 7    1  0.5789396E-006  0.1370062E+03  0.7818608E-02  0.1254693E+00
          2   -1    0    0  502    0  0.00000000000E+00  0.00000000000E+00  0.15068005648E+03  0.15068005648E+03  0.00000000000E+00 0. -1.
          1   -1    0    0  501    0 -0.00000000000E+00 -0.00000000000E+00 -0.87449689649E+03  0.87449689649E+03  0.00000000000E+00 0. -1.
         25    2    1    2    0    0  0.20790022674E+03  0.59115240559E+01 -0.34201189632E+03  0.41934979935E+03  0.12499866637E+03 0.  0.
          2    1    1    2  501    0 -0.12026832135E+03  0.26944695899E+02 -0.46472369287E+03  0.48078955528E+03  0.00000000000E+00 0. -1.
          1    1    1    2  502    0 -0.87631905390E+02 -0.32856219955E+02  0.82918749174E+02  0.12503759833E+03  0.00000000000E+00 0. -1.
         22    1    3    3    0    0  0.20072560368E+03 -0.28987494092E+02 -0.31499044938E+03  0.37463318858E+03  0.00000000000E+00 0.  1.
         22    1    3    3    0    0  0.71746230590E+01  0.34899018148E+02 -0.27021446935E+02  0.44716610764E+02  0.00000000000E+00 0.  1.
</event>
<event>
 7    1  0.5789396E-006  0.8321615E+02  0.7818608E-02  0.1384108E+00
          2   -1    0    0  502    0  0.00000000000E+00  0.00000000000E+00  0.26125103146E+04  0.26125103146E+04  0.00000000000E+00 0. -1.
          1   -1    0    0  501    0 -0.00000000000E+00 -0.00000000000E+00 -0.21067255399E+02  0.21067255399E+02  0.00000000000E+00 0. -1.
         25    2    1    2    0    0 -0.22121329932E+01  0.11440286854E+03  0.11051909693E+04  0.11181128644E+04  0.12504554787E+03 0.  0.
          2    1    1    2  501    0  0.27602441675E+02 -0.39632133593E+02  0.29541293349E+02  0.56615270134E+02  0.00000000000E+00 0. -1.
          1    1    1    2  502    0 -0.25390308682E+02 -0.74770734942E+02  0.14567107966E+04  0.14588494355E+04  0.00000000000E+00 0. -1.
         22    1    3    3    0    0 -0.38007383278E+02  0.21444094160E+02  0.68042929572E+03  0.68182727785E+03  0.00000000000E+00 0.  1.
         22    1    3    3    0    0  0.35795250285E+02  0.92958774376E+02  0.42476167356E+03  0.43628558651E+03  0.00000000000E+00 0.  1.
</event>
<event>
 7    1  0.5789396E-006  0.7433935E+02  0.7818608E-02  0.1402751E+00
          2   -1    0    0  502    0  0.00000000000E+00  0.00000000000E+00  0.10243045870E+04  0.10243045870E+04  0.00000000000E+00 0. -1.
          1   -1    0    0  501    0 -0.00000000000E+00 -0.00000000000E+00 -0.37156961539E+03  0.37156961539E+03  0.00000000000E+00 0. -1.
         25    2    1    2    0    0  0.31006580250E+02 -0.19783601413E+02  0.14029954187E+03  0.19148119737E+03  0.12501315368E+03 0.  0.
          2    1    1    2  501    0 -0.75208555830E+02  0.50985668500E+01 -0.34123039777E+03  0.34945744607E+03  0.00000000000E+00 0. -1.
          1    1    1    2  502    0  0.44201975580E+02  0.14685034563E+02  0.85366582749E+03  0.85493555892E+03  0.00000000000E+00 0. -1.
         22    1    3    3    0    0 -0.22650856129E+02  0.34627866317E+02  0.92531193534E+02  0.10136159128E+03  0.00000000000E+00 0.  1.
         22    1    3    3    0    0  0.53657436379E+02 -0.54411467731E+02  0.47768348336E+02  0.90119606092E+02  0.00000000000E+00 0.  1.
</event>
<event>
 7    1  0.5789396E-006  0.1052514E+03  0.7818608E-02  0.1326528E+00
          2   -1    0    0  502    0  0.00000000000E+00  0.00000000000E+00  0.13963260018E+04  0.13963260018E+04  0.00000000000E+00 0. -1.
          1   -1    0    0  501    0 -0.00000000000E+00 -0.00000000000E+00 -0.89089910987E+03  0.89089910987E+03  0.00000000000E+00 0. -1.
         25    2    1    2    0    0 -0.39534839445E+02  0.11921940937E+03 -0.59981787884E+02  0.18707502576E+03  0.12499191688E+03 0.  0.
          2    1    1    2  501    0 -0.20476430211E+02 -0.10295531937E+03 -0.76305030314E+03  0.77023687727E+03  0.00000000000E+00 0. -1.
          1    1    1    2  502    0  0.60011269656E+02 -0.16264089997E+02  0.13284589830E+04  0.13299132087E+04  0.00000000000E+00 0. -1.
         22    1    3    3    0    0 -0.47923017383E+02  0.14361304521E+03 -0.50758858245E+02  0.15968025564E+03  0.00000000000E+00 0. -1.
         22    1    3    3    0    0  0.83881779373E+01 -0.24393635846E+02 -0.92229296387E+01  0.27394770121E+02  0.00000000000E+00 0. -1.
</event>
<event>
 7    1  0.5789396E-006  0.7606494E+02  0.7818608E-02  0.1473919E+00
          2   -1    0    0  502    0  0.00000000000E+00  0.00000000000E+00  0.20852895103E+04  0.20852895103E+04  0.00000000000E+00 0. -1.
          1   -1    0    0  501    0 -0.00000000000E+00 -0.00000000000E+00 -0.48662810493E+02  0.48662810493E+02  0.00000000000E+00 0. -1.
         25    2    1    2    0    0  0.65965313682E+02 -0.44987343896E+02  0.10411609696E+04  0.10516729271E+04  0.12499798860E+03 0.  0.
          2    1    1    2  501    0  0.75441361515E+01  0.25614377436E+02 -0.37767396676E+02  0.46253503364E+02  0.00000000000E+00 0. -1.
          1    1    1    2  502    0 -0.73509449833E+02  0.19372966460E+02  0.10332331269E+04  0.10360258904E+04  0.00000000000E+00 0. -1.
         22    1    3    3    0    0  0.93590679758E+02 -0.37597847937E+02  0.96607499886E+03  0.97132575222E+03  0.00000000000E+00 0. -1.
         22    1    3    3    0    0 -0.27625366076E+02 -0.73894959587E+01  0.75085970777E+02  0.80347174866E+02  0.00000000000E+00 0. -1.
</event>
<event>
 7    1  0.5789396E-006  0.5557721E+02  0.7818608E-02  0.1473228E+00
          2   -1    0    0  502    0  0.00000000000E+00  0.00000000000E+00  0.25009009012E+04  0.25009009012E+04  0.00000000000E+00 0. -1.
          1   -1    0    0  501    0 -0.00000000000E+00 -0.00000000000E+00 -0.40194550766E+03  0.40194550766E+03  0.00000000000E+00 0. -1.
         25    2    1    2    0    0  0.74923453797E+02  0.16465576355E+02  0.76052577995E+02  0.16521341154E+03  0.12500735018E+03 0.  0.
          2    1    1    2  501    0 -0.43072070027E+02 -0.34749009568E+02 -0.35507989401E+03  0.35936670410E+03  0.00000000000E+00 0. -1.
          1    1    1    2  502    0 -0.31851383770E+02  0.18283433212E+02  0.23779827095E+04  0.23782662932E+04  0.00000000000E+00 0. -1.
         22    1    3    3    0    0 -0.34594068847E+02  0.13377610265E+02  0.18168440853E+02  0.41301359528E+02  0.00000000000E+00 0. -1.
         22    1    3    3    0    0  0.10951752264E+03  0.30879660901E+01  0.57884137141E+02  0.12391205201E+03  0.00000000000E+00 0. -1.
</event>
<event>
 7    1  0.5789396E-006  0.2125022E+03  0.7818608E-02  0.1160239E+00
          2   -1    0    0  502    0  0.00000000000E+00  0.00000000000E+00  0.40086964883E+03  0.40086964883E+03  0.00000000000E+00 0. -1.
          1   -1    0    0  501    0 -0.00000000000E+00 -0.00000000000E+00 -0.44021247666E+03  0.44021247666E+03  0.00000000000E+00 0. -1.
         25    2    1    2    0    0  0.20919178913E+02  0.28790940194E+03  0.18432680446E+03  0.36459762310E+03  0.12500248060E+03 0.  0.
          2    1    1    2  501    0 -0.93962525099E+02 -0.13732799799E+03 -0.25668157403E+03  0.30589763909E+03  0.00000000000E+00 0. -1.
          1    1    1    2  502    0  0.73043346186E+02 -0.15058140395E+03  0.33011941737E+02  0.17058686331E+03  0.00000000000E+00 0. -1.
         22    1    3    3    0    0  0.23873332555E+02  0.20437336273E+03  0.59182988067E+02  0.21410519255E+03  0.00000000000E+00 0.  1.
         22    1    3    3    0    0 -0.29541536419E+01  0.83536039207E+02  0.12514381639E+03  0.15049243054E+03  0.00000000000E+00 0.  1.
</event>
<event>
 7    1  0.5789396E-006  0.1119853E+03  0.7818608E-02  0.1377813E+00
          2   -1    0    0  502    0  0.00000000000E+00  0.00000000000E+00  0.76066296424E+03  0.76066296424E+03  0.00000000000E+00 0. -1.
          1   -1    0    0  501    0 -0.00000000000E+00 -0.00000000000E+00 -0.39796563731E+02  0.39796563731E+02  0.00000000000E+00 0. -1.
         25    2    1    2    0    0  0.11717582603E+03 -0.38543463748E+02  0.41050197194E+03  0.44648884070E+03  0.12499857239E+03 0.  0.
          2    1    1    2  501    0 -0.10939822403E+03  0.15755437281E+01  0.13103900316E+03  0.17070932636E+03  0.00000000000E+00 0. -1.
          1    1    1    2  502    0 -0.77776020026E+01  0.36967920020E+02  0.17932542541E+03  0.18326136091E+03  0.00000000000E+00 0. -1.
         22    1    3    3    0    0  0.13283874973E+03 -0.19619393139E+02  0.24689896016E+03  0.28105186451E+03  0.00000000000E+00 0.  1.
         22    1    3    3    0    0 -0.15662923701E+02 -0.18924070609E+02  0.16360301178E+03  0.16543697619E+03  0.00000000000E+00 0.  1.
</event>
<event>
 7    1  0.5789396E-006  0.5533512E+02  0.7818608E-02  0.1424472E+00
          2   -1    0    0  502    0  0.00000000000E+00  0.00000000000E+00  0.87828094488E+03  0.87828094488E+03  0.00000000000E+00 0. -1.
          1   -1    0    0  501    0 -0.00000000000E+00 -0.00000000000E+00 -0.22953592981E+03  0.22953592981E+03  0.00000000000E+00 0. -1.
         25    2    1    2    0    0  0.14972514816E+02 -0.91275962685E+02  0.82576727768E+02  0.17606646076E+03  0.12500002029E+03 0.  0.
          2    1    1    2  501    0  0.19282553257E+02  0.51011070854E+02 -0.17776470067E+03  0.18594148277E+03  0.00000000000E+00 0. -1.
          1    1    1    2  502    0 -0.34255068073E+02  0.40264891831E+02  0.74393298797E+03  0.74580893116E+03  0.00000000000E+00 0. -1.
         22    1    3    3    0    0  0.51364720921E+02 -0.85368077963E+02  0.17332744975E+02  0.10112599734E+03  0.00000000000E+00 0.  1.
         22    1    3    3    0    0 -0.36392206105E+02 -0.59078847225E+01  0.65243982793E+02  0.74940463421E+02  0.00000000000E+00 0.  1.
</event>
<event>
 7    1  0.5789396E-006  0.8060968E+02  0.7818608E-02  0.1461469E+00
          2   -1    0    0  502    0  0.00000000000E+00  0.00000000000E+00  0.20136112827E+04  0.20136112827E+04  0.00000000000E+00 0. -1.
          1   -1    0    0  501    0 -0.00000000000E+00 -0.00000000000E+00 -0.75146795665E+02  0.75146795665E+02  0.00000000000E+00 0. -1.
         25    2    1    2    0    0  0.19857311986E+02  0.99083175081E+02  0.55109678279E+03  0.57406029515E+03  0.12500308016E+03 0.  0.
          2    1    1    2  501    0  0.94377141226E+01 -0.25888217943E+02 -0.59559264323E+02  0.65624509467E+02  0.00000000000E+00 0. -1.
          1    1    1    2  502    0 -0.29295026109E+02 -0.73194957139E+02  0.14469269686E+04  0.14490732738E+04  0.00000000000E+00 0. -1.
         22    1    3    3    0    0  0.80541470822E+01  0.12443253682E+03  0.50481579778E+03  0.51998780292E+03  0.00000000000E+00 0. -1.
         22    1    3    3    0    0  0.11803164904E+02 -0.25349361738E+02  0.46280985011E+02  0.54072492229E+02  0.00000000000E+00 0. -1.
</event>
<event>
 7    1  0.5789396E-006  0.9330383E+02  0.7818608E-02  0.1324733E+00
          2   -1    0    0  502    0  0.00000000000E+00  0.00000000000E+00  0.30205433341E+04  0.30205433341E+04  0.00000000000E+00 0. -1.
          1   -1    0    0  501    0 -0.00000000000E+00 -0.00000000000E+00 -0.45416900529E+03  0.45416900529E+03  0.00000000000E+00 0. -1.
         25    2    1    2    0    0 -0.38448179565E+02  0.69527839423E+02  0.78532753525E+02  0.16764594777E+03  0.12500154984E+03 0.  0.
          2    1    1    2  501    0  0.68541086567E+02  0.19502941629E+02 -0.40574433257E+03  0.41195474107E+03  0.00000000000E+00 0. -1.
          1    1    1    2  502    0 -0.30092907002E+02 -0.89030781052E+02  0.28935859078E+04  0.28951116505E+04  0.00000000000E+00 0. -1.
         22    1    3    3    0    0 -0.14860591490E+01  0.27513725908E+02  0.10296351668E+03  0.10658658102E+03  0.00000000000E+00 0.  1.
         22    1    3    3    0    0 -0.36962120416E+02  0.42014113515E+02 -0.24430763160E+02  0.61059366756E+02  0.00000000000E+00 0.  1.
</event>
<event>
 7    1  0.5789396E-006  0.1935076E+03  0.7818608E-02  0.1259560E+00
          2   -1    0    0  502    0  0.00000000000E+00  0.00000000000E+00  0.25185715955E+03  0.25185715955E+03  0.00000000000E+00 0. -1.
          1   -1    0    0  501    0 -0.00000000000E+00 -0.00000000000E+00 -0.27972594143E+03  0.27972594143E+03  0.00000000000E+00 0. -1.
         25    2    1    2    0    0 -0.50211197517E+02  0.16314360211E+03  0.57294828395E+02  0.21919127203E+03  0.12500046843E+03 0.  0.
          2    1    1    2  501    0 -0.24927673239E+02  0.58025731761E+02 -0.39192754357E+02  0.74326619953E+02  0.00000000000E+00 0. -1.
          1    1    1    2  502    0  0.75138870756E+02 -0.22116933387E+03 -0.45970855918E+02  0.23806520900E+03  0.00000000000E+00 0. -1.
         22    1    3    3    0    0 -0.56738168573E+02  0.18024496946E+03  0.64281619235E+02  0.19959858557E+03  0.00000000000E+00 0.  1.
         22    1    3    3    0    0  0.65269710560E+01 -0.17101367352E+02 -0.69867908400E+01  0.19592686460E+02  0.00000000000E+00 0.  1.
</event>
<event>
 7    1  0.5789396E-006  0.7665751E+02  0.7818608E-02  0.1456183E+00
          2   -1    0    0  502    0  0.00000000000E+00  0.00000000000E+00  0.30933508559E+03  0.30933508559E+03  0.00000000000E+00 0. -1.
          1   -1    0    0  501    0 -0.00000000000E+00 -0.00000000000E+00 -0.33615386480E+03  0.33615386480E+03  0.00000000000E+00 0. -1.
         25    2    1    2    0    0  0.77890366066E+02 -0.40464863032E+02 -0.76717037652E+01  0.15292734375E+03  0.12499441252E+03 0.  0.
          2    1    1    2  501    0 -0.24475943017E+01  0.30011944672E+02 -0.24879633858E+03  0.25061190242E+03  0.00000000000E+00 0. -1.
          1    1    1    2  502    0 -0.75442771764E+02  0.10452918360E+02  0.22964926314E+03  0.24194970423E+03  0.00000000000E+00 0. -1.
         22    1    3    3    0    0 -0.17826660508E+02  0.20247546214E+02  0.23057310224E+02  0.35487920583E+02  0.00000000000E+00 0. -1.
         22    1    3    3    0    0  0.95717026573E+02 -0.60712409246E+02 -0.30729013989E+02  0.11743942316E+03  0.00000000000E+00 0. -1.
</event>
<event>
 7    1  0.5789396E-006  0.3032174E+02  0.7818608E-02  0.1595905E+00
          2   -1    0    0  502    0  0.00000000000E+00  0.00000000000E+00  0.78868908574E+02  0.78868908574E+02  0.00000000000E+00 0. -1.
          1   -1    0    0  501    0 -0.00000000000E+00 -0.00000000000E+00 -0.30098588436E+03  0.30098588436E+03  0.00000000000E+00 0. -1.
         25    2    1    2    0    0 -0.28396398675E+01  0.23604616296E+02 -0.50546943211E+02  0.13691250000E+03  0.12499919089E+03 0.  0.
          2    1    1    2  501    0  0.29552143148E+02 -0.67881501736E+01 -0.19889497830E+03  0.20119299326E+03  0.00000000000E+00 0. -1.
          1    1    1    2  502    0 -0.26712503280E+02 -0.16816466122E+02  0.27324945718E+02  0.41749299669E+02  0.00000000000E+00 0. -1.
         22    1    3    3    0    0  0.32827686923E+02  0.64790413471E+02 -0.25878521473E+02  0.77104815544E+02  0.00000000000E+00 0. -1.
         22    1    3    3    0    0 -0.35667326791E+02 -0.41185797175E+02 -0.24668421737E+02  0.59807684459E+02  0.00000000000E+00 0. -1.
</event>
<event>
 7    1  0.5789396E-006  0.5115038E+02  0.7818608E-02  0.1500212E+00
          2   -1    0    0  502    0  0.00000000000E+00  0.00000000000E+00  0.97497157445E+03  0.97497157445E+03  0.00000000000E+00 0. -1.
          1   -1    0    0  501    0 -0.00000000000E+00 -0.00000000000E+00 -0.42802326223E+03  0.42802326223E+03  0.00000000000E+00 0. -1.
         25    2    1    2    0    0 -0.67479526687E+02 -0.49313506631E+02  0.20562700867E+03  0.25473344349E+03  0.12498540746E+03 0.  0.
          2    1    1    2  501    0  0.43307818763E+02  0.26792527810E+02 -0.40149448311E+03  0.40471128805E+03  0.00000000000E+00 0. -1.
          1    1    1    2  502    0  0.24171707924E+02  0.22520978821E+02  0.74281578666E+03  0.74355010514E+03  0.00000000000E+00 0. -1.
         22    1    3    3    0    0  0.27514678558E+02 -0.38863771941E+02  0.34755350498E+02  0.58952393454E+02  0.00000000000E+00 0. -1.
         22    1    3    3    0    0 -0.94994205245E+02 -0.10449734690E+02  0.17087165817E+03  0.19578105003E+03  0.00000000000E+00 0. -1.
</event>
<event>
 7    1  0.5789396E-006  0.1304488E+03  0.7818608E-02  0.1316282E+00
          2   -1    0    0  502    0  0.00000000000E+00  0.00000000000E+00  0.65812467674E+03  0.65812467674E+03  0.00000000000E+00 0. -1.
          1   -1    0    0  501    0 -0.00000000000E+00 -0.00000000000E+00 -0.82151521814E+03  0.82151521814E+03  0.00000000000E+00 0. -1.
         25    2    1    2    0    0  0.10987125934E+03  0.66334645350E+02 -0.31625397228E+03  0.36347395228E+03  0.12499904077E+03 0.  0.
          2    1    1    2  501    0 -0.76941634860E+02 -0.11034276203E+03 -0.47102694671E+03  0.48985908671E+03  0.00000000000E+00 0. -1.
          1    1    1    2  502    0 -0.32929624484E+02  0.44008116678E+02  0.62389037759E+03  0.62630685590E+03  0.00000000000E+00 0. -1.
         22    1    3    3    0    0  0.98895047096E+02  0.25679402612E+02 -0.99327078866E+02  0.14249747596E+03  0.00000000000E+00 0. -1.
         22    1    3    3    0    0  0.10976212249E+02  0.40655242738E+02 -0.21692689342E+03  0.22097647632E+03  0.00000000000E+00 0. -1.
</event>
<event>
 7    1  0.5789396E-006  0.2859518E+02  0.7818608E-02  0.1657681E+00
          2   -1    0    0  502    0  0.00000000000E+00  0.00000000000E+00  0.40692112852E+03  0.40692112852E+03  0.00000000000E+00 0. -1.
          1   -1    0    0  501    0 -0.00000000000E+00 -0.00000000000E+00 -0.84660627210E+02  0.84660627210E+02  0.00000000000E+00 0. -1.
         25    2    1    2    0    0  0.34677009024E+02 -0.32272420190E+02 -0.39885993109E+01  0.13373462983E+03  0.12500015293E+03 0.  0.
          2    1    1    2  501    0 -0.16284138697E+02  0.19723977521E+02 -0.48220696557E+01  0.26028077496E+02  0.00000000000E+00 0. -1.
          1    1    1    2  502    0 -0.18392870327E+02  0.12548442669E+02  0.33107117028E+03  0.33181904840E+03  0.00000000000E+00 0. -1.
         22    1    3    3    0    0 -0.36852265338E+02 -0.39679142582E+02 -0.23787697892E+02  0.59147091117E+02  0.00000000000E+00 0. -1.
         22    1    3    3    0    0  0.71529274362E+02  0.74067223918E+01  0.19799098581E+02  0.74587538718E+02  0.00000000000E+00 0. -1.
</event>
<event>
 7    1  0.5789396E-006  0.1754700E+03  0.7818608E-02  0.1293193E+00
          2   -1    0    0  502    0  0.00000000000E+00  0.00000000000E+00  0.85676468857E+03  0.85676468857E+03  0.00000000000E+00 0. -1.
          1   -1    0    0  501    0 -0.00000000000E+00 -0.00000000000E+00 -0.23148745322E+03  0.23148745322E+03  0.00000000000E+00 0. -1.
         25    2    1    2    0    0 -0.11408136172E+03 -0.15290249604E+03  0.22975880386E+03  0.32374189320E+03  0.12500390022E+03 0.  0.
          2    1    1    2  501    0 -0.21273290559E+02  0.45772042107E+02 -0.16785736455E+03  0.17528185178E+03  0.00000000000E+00 0. -1.
          1    1    1    2  502    0  0.13535465228E+03  0.10713045393E+03  0.56337579604E+03  0.58922839682E+03  0.00000000000E+00 0. -1.
         22    1    3    3    0    0 -0.97168529251E+02 -0.34864443173E+02  0.71449672776E+02  0.12554803150E+03  0.00000000000E+00 0.  1.
         22    1    3    3    0    0 -0.16912832465E+02 -0.11803805287E+03  0.15830913109E+03  0.19819386169E+03  0.00000000000E+00 0.  1.
</event>
<event>
 7    1  0.5789396E-006  0.8528223E+02  0.7818608E-02  0.1318639E+00
          2   -1    0    0  502    0  0.00000000000E+00  0.00000000000E+00  0.21913580991E+04  0.21913580991E+04  0.00000000000E+00 0. -1.
          1   -1    0    0  501    0 -0.00000000000E+00 -0.00000000000E+00 -0.13867454856E+04  0.13867454856E+04  0.00000000000E+00 0. -1.
         25    2    1    2    0    0 -0.10492618793E+03 -0.57434376797E+02  0.16291413513E+03  0.23764296959E+03  0.12499981207E+03 0.  0.
          2    1    1    2  501    0  0.82448881017E+02 -0.21752933211E+02 -0.13471817639E+04  0.13498776660E+04  0.00000000000E+00 0. -1.
          1    1    1    2  502    0  0.22477306912E+02  0.79187310009E+02  0.19888802423E+04  0.19905829492E+04  0.00000000000E+00 0. -1.
         22    1    3    3    0    0 -0.83771451508E+02 -0.90258806332E+02  0.15471649582E+03  0.19774099799E+03  0.00000000000E+00 0.  1.
         22    1    3    3    0    0 -0.21154736421E+02  0.32824429535E+02  0.81976393175E+01  0.39901971602E+02  0.00000000000E+00 0.  1.
</event>
<event>
 7    1  0.5789396E-006  0.1122086E+03  0.7818608E-02  0.1267576E+00
          2   -1    0    0  502    0  0.00000000000E+00  0.00000000000E+00  0.15281280809E+03  0.15281280809E+03  0.00000000000E+00 0. -1.
          1   -1    0    0  501    0 -0.00000000000E+00 -0.00000000000E+00 -0.13915499113E+04  0.13915499113E+04  0.00000000000E+00 0. -1.
         25    2    1    2    0    0  0.15948333617E+03 -0.45068754607E+02 -0.32381750550E+03  0.38464044236E+03  0.12499746346E+03 0.  0.
          2    1    1    2  501    0 -0.55996787966E+02  0.83701390273E+02 -0.10093724758E+04  0.10143837330E+04  0.00000000000E+00 0. -1.
          1    1    1    2  502    0 -0.10348654821E+03 -0.38632635666E+02  0.94452878063E+02  0.14533854400E+03  0.00000000000E+00 0. -1.
         22    1    3    3    0    0  0.17102984977E+03 -0.14031119590E+02 -0.29214547140E+03  0.33881714580E+03  0.00000000000E+00 0.  1.
         22    1    3    3    0    0 -0.11546513590E+02 -0.31037635017E+02 -0.31672034096E+02  0.45823296556E+02  0.00000000000E+00 0.  1.
</event>
<event>
 7    1  0.5789396E-006  0.1473643E+03  0.7818608E-02  0.1413313E+00
          2   -1    0    0  502    0  0.00000000000E+00  0.00000000000E+00  0.16657795836E+04  0.16657795836E+04  0.00000000000E+00 0. -1.
          1   -1    0    0  501    0 -0.00000000000E+00 -0.00000000000E+00 -0.16758405908E+04  0.16758405908E+04  0.00000000000E+00 0. -1.
         25    2    1    2    0    0 -0.14316186413E+03  0.38140799722E+02  0.37063445199E+03  0.41826369314E+03  0.12499832019E+03 0.  0.
          2    1    1    2  501    0  0.14641532038E+03 -0.16754349231E+02 -0.16486469315E+04  0.16552204865E+04  0.00000000000E+00 0. -1.
          1    1    1    2  502    0 -0.32534562461E+01 -0.21386450490E+02  0.12679514723E+04  0.12681359948E+04  0.00000000000E+00 0. -1.
         22    1    3    3    0    0  0.65990778598E+01  0.40296980677E+02  0.11435526822E+03  0.12142702274E+03  0.00000000000E+00 0.  1.
         22    1    3    3    0    0 -0.14976094199E+03 -0.21561809552E+01  0.25627918377E+03  0.29683667040E+03  0.00000000000E+00 0.  1.
</event>
<event>
 7    1  0.6138225E-006  0.7211589E+02  0.7818608E-02  0.1369711E+00
          2   -1    0    0  502    0  0.00000000000E+00  0.00000000000E+00  0.16014865982E+04  0.16014865982E+04  0.00000000000E+00 0. -1.
          1   -1    0    0  501    0 -0.00000000000E+00 -0.00000000000E+00 -0.14826771548E+04  0.14826771548E+04  0.00000000000E+00 0. -1.
         25    2    1    2    0    0 -0.25141910546E+02 -0.13214890669E+03 -0.12220256310E+03  0.22057572041E+03  0.12499893120E+03 0.  0.
          2    1    1    2  501    0  0.12079585015E+02  0.61533531223E+02 -0.13097068690E+04  0.13112072202E+04  0.00000000000E+00 0. -1.
          1    1    1    2  502    0  0.13062325532E+02  0.70615375469E+02  0.15507188755E+04  0.15523808124E+04  0.00000000000E+00 0. -1.
         22    1    3    3    0    0 -0.65974812785E+02 -0.85751278332E+02 -0.35046104906E+02  0.11372856777E+03  0.00000000000E+00 0. -1.
         22    1    3    3    0    0  0.40832902239E+02 -0.46397628360E+02 -0.87156458193E+02  0.10684715264E+03  0.00000000000E+00 0. -1.
</event>
<event>
 7    1  0.5789396E-006  0.1808927E+03  0.7818608E-02  0.1258783E+00
          2   -1    0    0  502    0  0.00000000000E+00  0.00000000000E+00  0.31921186280E+04  0.31921186280E+04  0.00000000000E+00 0. -1.
          1   -1    0    0  501    0 -0.00000000000E+00 -0.00000000000E+00 -0.81054729850E+02  0.81054729850E+02  0.00000000000E+00 0. -1.
         25    2    1    2    0    0 -0.69933371559E+02  0.10568498213E+03  0.66147129378E+03  0.68500310935E+03  0.12499998169E+03 0.  0.
          2    1    1    2  501    0  0.12537057935E+03 -0.14519512949E+03  0.64909721236E+02  0.20251587519E+03  0.00000000000E+00 0. -1.
          1    1    1    2  502    0 -0.55437207791E+02  0.39510147361E+02  0.23846828831E+04  0.23856543733E+04  0.00000000000E+00 0. -1.
         22    1    3    3    0    0 -0.58295347754E+02  0.13467444718E+03  0.54201916560E+03  0.56153390830E+03  0.00000000000E+00 0. -1.
         22    1    3    3    0    0 -0.11638023805E+02 -0.28989465050E+02  0.11945212818E+03  0.12346920105E+03  0.00000000000E+00 0. -1.
</event>
<event>
 7    1  0.5789396E-006  0.7654883E+02  0.7818608E-02  0.1458434E+00
          2   -1    0    0  502    0  0.00000000000E+00  0.00000000000E+00  0.78122148569E+03  0.78122148569E+03  0.00000000000E+00 0. -1.
          1   -1    0    0  501    0 -0.00000000000E+00 -0.00000000000E+00 -0.11589169310E+03  0.11589169310E+03  0.00000000000E+00 0. -1.
         25    2    1    2    0    0  0.86859290774E+02  0.42753372322E+02  0.50899758848E+03  0.53299193332E+03  0.12501787341E+03 0.  0.
          2    1    1    2  501    0 -0.21680109977E+02 -0.20245937054E+02 -0.97071643486E+02  0.10150285269E+03  0.00000000000E+00 0. -1.
          1    1    1    2  502    0 -0.65179180796E+02 -0.22507435268E+02  0.25340384759E+03  0.26261839277E+03  0.00000000000E+00 0. -1.
         22    1    3    3    0    0  0.93843962837E+02  0.50676702299E+02  0.51119597038E+03  0.52220315745E+03  0.00000000000E+00 0.  1.
         22    1    3    3    0    0 -0.69846720636E+01 -0.79233299778E+01 -0.21983819049E+01  0.10788775870E+02  0.00000000000E+00 0.  1.
</event>
<event>
 7    1  0.5789396E-006  0.3959274E+02  0.7818608E-02  0.1579422E+00
          2   -1    0    0  502    0  0.00000000000E+00  0.00000000000E+00  0.23480660301E+02  0.23480660301E+02  0.00000000000E+00 0. -1.
          1   -1    0    0  501    0 -0.00000000000E+00 -0.00000000000E+00 -0.10190279833E+04  0.10190279833E+04  0.00000000000E+00 0. -1.
         25    2    1    2    0    0  0.18319845610E+02  0.47164666857E+00 -0.33276108909E+03  0.35593637520E+03  0.12499968633E+03 0.  0.
          2    1    1    2  501    0  0.21715039755E+02 -0.13320679402E+02 -0.63644840259E+03  0.63695804619E+03  0.00000000000E+00 0. -1.
          1    1    1    2  502    0 -0.40034885365E+02  0.12849032733E+02 -0.26337831347E+02  0.49614222240E+02  0.00000000000E+00 0. -1.
         22    1    3    3    0    0 -0.13191598786E+01  0.56659147255E+02 -0.23277563362E+03  0.23957565560E+03  0.00000000000E+00 0. -1.
         22    1    3    3    0    0  0.19639005488E+02 -0.56187500586E+02 -0.99985455474E+02  0.11636071960E+03  0.00000000000E+00 0. -1.
</event>
<event>
 7    1  0.5789396E-006  0.1455057E+03  0.7818608E-02  0.1275772E+00
          2   -1    0    0  502    0  0.00000000000E+00  0.00000000000E+00  0.20977610820E+04  0.20977610820E+04  0.00000000000E+00 0. -1.
          1   -1    0    0  501    0 -0.00000000000E+00 -0.00000000000E+00 -0.22963218507E+04  0.22963218507E+04  0.00000000000E+00 0. -1.
         25    2    1    2    0    0 -0.20744065941E+03  0.48450531329E+02  0.13577240575E+03  0.28184916444E+03  0.12500289663E+03 0.  0.
          2    1    1    2  501    0  0.14398984441E+03 -0.14935072619E+02 -0.22202439552E+04  0.22249582810E+04  0.00000000000E+00 0. -1.
          1    1    1    2  502    0  0.63450815001E+02 -0.33515458710E+02  0.18859107807E+04  0.18872754872E+04  0.00000000000E+00 0. -1.
         22    1    3    3    0    0 -0.27648682726E+01  0.14916312866E+02  0.58633062009E+02  0.60563824571E+02  0.00000000000E+00 0.  1.
         22    1    3    3    0    0 -0.20467579114E+03  0.33534218463E+02  0.77139343739E+02  0.22128533986E+03  0.00000000000E+00 0.  1.
</event>
<event>
 7    1  0.5789396E-006  0.1035283E+03  0.7818608E-02  0.1421050E+00
          2   -1    0    0  502    0  0.00000000000E+00  0.00000000000E+00  0.29703388397E+03  0.29703388397E+03  0.00000000000E+00 0. -1.
          1   -1    0    0  501    0 -0.00000000000E+00 -0.00000000000E+00 -0.86078827816E+03  0.86078827816E+03  0.00000000000E+00 0. -1.
         25    2    1    2    0    0  0.73375505568E+02  0.79751343348E+02  0.15648718695E+03  0.22772344498E+03  0.12500194450E+03 0.  0.
          2    1    1    2  501    0 -0.26933625684E+02  0.10767955911E+02 -0.80018440945E+03  0.80070997134E+03  0.00000000000E+00 0. -1.
          1    1    1    2  502    0 -0.46441879884E+02 -0.90519299260E+02  0.79942828312E+02  0.12938874582E+03  0.00000000000E+00 0. -1.
         22    1    3    3    0    0  0.15747420272E+02  0.14920342245E+02 -0.20988323308E+02  0.30184558523E+02  0.00000000000E+00 0. -1.
         22    1    3    3    0    0  0.57628085296E+02  0.64831001103E+02  0.17747551026E+03  0.19753888645E+03  0.00000000000E+00 0. -1.
</event>
<event>
 7    1  0.5789396E-006  0.6768898E+02  0.7818608E-02  0.1393122E+00
          2   -1    0    0  502    0  0.00000000000E+00  0.00000000000E+00  0.39779925546E+03  0.39779925546E+03  0.00000000000E+00 0. -1.
          1   -1    0    0  501    0 -0.00000000000E+00 -0.00000000000E+00 -0.26343548656E+03  0.26343548656E+03  0.00000000000E+00 0. -1.
         25    2    1    2    0    0  0.18008908083E+02 -0.41736221267E+02  0.11132654821E+03  0.17345233404E+03  0.12500351560E+03 0.  0.
          2    1    1    2  501    0  0.52138731011E+02  0.18184854360E+02 -0.22358284617E+03  0.23030072797E+03  0.00000000000E+00 0. -1.
          1    1    1    2  502    0 -0.70147639094E+02  0.23551366908E+02  0.24662006687E+03  0.25748168000E+03  0.00000000000E+00 0. -1.
         22    1    3    3    0    0 -0.46814423082E+02 -0.20367551044E+02  0.87225046155E+02  0.10106748251E+03  0.00000000000E+00 0. -1.
         22    1    3    3    0    0  0.64823331166E+02 -0.21368670224E+02  0.24101502053E+02  0.72384851535E+02  0.00000000000E+00 0. -1.
</event>
<event>
 7    1  0.5789396E-006  0.3894753E+02  0.7818608E-02  0.1528375E+00
          2   -1    0    0  502    0  0.00000000000E+00  0.00000000000E+00  0.16757152858E+03  0.16757152858E+03  0.00000000000E+00 0. -1.
          1   -1    0    0  501    0 -0.00000000000E+00 -0.00000000000E+00 -0.37313965596E+03  0.37313965596E+03  0.00000000000E+00 0. -1.
         25    2    1    2    0    0  0.21598306037E+02 -0.70374239838E+02 -0.36545354025E+02  0.14959708327E+03  0.12499881586E+03 0.  0.
          2    1    1    2  501    0 -0.98182666482E+01  0.34518856967E+02 -0.27566462142E+03  0.27799088717E+03  0.00000000000E+00 0. -1.
          1    1    1    2  502    0 -0.11780039388E+02  0.35855382871E+02  0.10664184807E+03  0.11312321410E+03  0.00000000000E+00 0. -1.
         22    1    3    3    0    0  0.14958025150E+02 -0.18609438884E+02  0.46063587138E+02  0.51883598487E+02  0.00000000000E+00 0.  1.
         22    1    3    3    0    0  0.66402808867E+01 -0.51764800955E+02 -0.82608941163E+02  0.97713484782E+02  0.00000000000E+00 0.  1.
</event>
<event>
 7    1  0.5789396E-006  0.1147933E+03  0.7818608E-02  0.1327766E+00
          2   -1    0    0  502    0  0.00000000000E+00  0.00000000000E+00  0.31083336711E+04  0.31083336711E+04  0.00000000000E+00 0. -1.
          1   -1    0    0  501    0 -0.00000000000E+00 -0.00000000000E+00 -0.28083186859E+03  0.28083186859E+03  0.00000000000E+00 0. -1.
         25    2    1    2    0    0  0.14199440026E+03 -0.90176046792E+02  0.30313861175E+03  0.36852732294E+03  0.12500096282E+03 0.  0.
          2    1    1    2  501    0 -0.99449269565E+02  0.53168982481E+02 -0.23502202959E+03  0.26067691172E+03  0.00000000000E+00 0. -1.
          1    1    1    2  502    0 -0.42545130693E+02  0.37007064311E+02  0.27593852203E+04  0.27599613050E+04  0.00000000000E+00 0. -1.
         22    1    3    3    0    0 -0.45133427901E+01 -0.50504300056E+02  0.12253658592E+03  0.13261323266E+03  0.00000000000E+00 0.  1.
         22    1    3    3    0    0  0.14650774305E+03 -0.39671746736E+02  0.18060202582E+03  0.23591409028E+03  0.00000000000E+00 0.  1.
</event>
<event>
 7    1  0.5789396E-006  0.2648387E+02  0.7818608E-02  0.1647073E+00
          2   -1    0    0  502    0  0.00000000000E+00  0.00000000000E+00  0.32729277924E+03  0.32729277924E+03  0.00000000000E+00 0. -1.
          1   -1    0    0  501    0 -0.00000000000E+00 -0.00000000000E+00 -0.75000336876E+03  0.75000336876E+03  0.00000000000E+00 0. -1.
         25    2    1    2    0    0  0.46685389866E+02  0.20459174258E+02 -0.23105449172E+03  0.26759904682E+03  0.12499987310E+03 0.  0.
          2    1    1    2  501    0 -0.24932208830E+02 -0.54470029549E+01 -0.49978528770E+03  0.50043642821E+03  0.00000000000E+00 0. -1.
          1    1    1    2  502    0 -0.21753181035E+02 -0.15012171303E+02  0.30812918991E+03  0.30926067297E+03  0.00000000000E+00 0. -1.
         22    1    3    3    0    0 -0.82770918810E+01 -0.14265585329E+02 -0.18998706128E+03  0.19070160101E+03  0.00000000000E+00 0. -1.
         22    1    3    3    0    0  0.54962481747E+02  0.34724759587E+02 -0.41067430442E+02  0.76897445805E+02  0.00000000000E+00 0. -1.
</event>
<event>
 7    1  0.5789396E-006  0.3458328E+02  0.7818608E-02  0.1585730E+00
          2   -1    0    0  502    0  0.00000000000E+00  0.00000000000E+00  0.10978512307E+04  0.10978512307E+04  0.00000000000E+00 0. -1.
          1   -1    0    0  501    0 -0.00000000000E+00 -0.00000000000E+00 -0.80420246019E+03  0.80420246019E+03  0.00000000000E+00 0. -1.
         25    2    1    2    0    0 -0.28626352239E+02  0.43972812065E+02  0.34105348943E+03  0.36700142356E+03  0.12497794204E+03 0.  0.
          2    1    1    2  501    0 -0.16552330598E+01 -0.28005977120E+02 -0.79058566825E+03  0.79108329106E+03  0.00000000000E+00 0. -1.
          1    1    1    2  502    0  0.30281585299E+02 -0.15966834945E+02  0.74318094935E+03  0.74396897630E+03  0.00000000000E+00 0. -1.
         22    1    3    3    0    0  0.10193235626E+01  0.29692410363E+02  0.33137156990E+03  0.33270075983E+03  0.00000000000E+00 0. -1.
         22    1    3    3    0    0 -0.29645675802E+02  0.14280401702E+02  0.96819195356E+01  0.34300663731E+02  0.00000000000E+00 0. -1.
</event>
<event>
 7    1  0.5789396E-006  0.1077805E+03  0.7818608E-02  0.1281153E+00
          2   -1    0    0  502    0  0.00000000000E+00  0.00000000000E+00  0.13316346376E+04  0.13316346376E+04  0.00000000000E+00 0. -1.
          1   -1    0    0  501    0 -0.00000000000E+00 -0.00000000000E+00 -0.43794074198E+02  0.43794074198E+02  0.00000000000E+00 0. -1.
         25    2    1    2    0    0  0.10044221505E+03  0.41328931595E+02  0.30129422838E+03  0.34380219454E+03  0.12500007107E+03 0.  0.
          2    1    1    2  501    0 -0.10977793606E+03  0.50225015644E+02  0.16238441331E+03  0.20234239577E+03  0.00000000000E+00 0. -1.
          1    1    1    2  502    0  0.93357210098E+01 -0.91553947239E+02  0.82416192169E+03  0.82928412146E+03  0.00000000000E+00 0. -1.
         22    1    3    3    0    0  0.11584813175E+03  0.20818118790E+02  0.29467020533E+03  0.31730854639E+03  0.00000000000E+00 0.  1.
         22    1    3    3    0    0 -0.15405916700E+02  0.20510812805E+02  0.66240230463E+01  0.26493648156E+02  0.00000000000E+00 0.  1.
</event>
<event>
 7    1  0.5789396E-006  0.4095486E+02  0.7818608E-02  0.1514073E+00
          2   -1    0    0  502    0  0.00000000000E+00  0.00000000000E+00  0.47686049527E+04  0.47686049527E+04  0.00000000000E+00 0. -1.
          1   -1    0    0  501    0 -0.00000000000E+00 -0.00000000000E+00 -0.69023156363E+03  0.69023156363E+03  0.00000000000E+00 0. -1.
         25    2    1    2    0    0 -0.46256541140E+02  0.46552330831E+02  0.20499200167E+04  0.20547757638E+04  0.12499830991E+03 0.  0.
          2    1    1    2  501    0  0.74843511098E+01 -0.36794564491E+02 -0.68714398119E+03  0.68816909723E+03  0.00000000000E+00 0. -1.
          1    1    1    2  502    0  0.38772190031E+02 -0.97577663405E+01  0.27155973536E+04  0.27158916553E+04  0.00000000000E+00 0. -1.
         22    1    3    3    0    0 -0.13556516919E+01  0.23545432420E+01 -0.99488149600E+00  0.28933466055E+01  0.00000000000E+00 0. -1.
         22    1    3    3    0    0 -0.44900889448E+02  0.44197787589E+02  0.20509148982E+04  0.20518824172E+04  0.00000000000E+00 0. -1.
</event>
<event>
 7    1  0.5789396E-006  0.9344822E+02  0.7818608E-02  0.1401524E+00
          2   -1    0    0  502    0  0.00000000000E+00  0.00000000000E+00  0.10979333433E+04  0.10979333433E+04  0.00000000000E+00 0. -1.
          1   -1    0    0  501    0 -0.00000000000E+00 -0.00000000000E+00 -0.23609502258E+03  0.23609502258E+03  0.00000000000E+00 0. -1.
         25    2    1    2    0    0 -0.12630273744E+03 -0.21875143417E+02  0.13736509822E+03  0.22566731983E+03  0.12500266255E+03 0.  0.
          2    1    1    2  501    0  0.37410487410E+02 -0.47473360787E+00 -0.18780215971E+03  0.19149261378E+03  0.00000000000E+00 0. -1.
          1    1    1    2  502    0  0.88892250032E+02  0.22349877025E+02  0.91227538217E+03  0.91686843223E+03  0.00000000000E+00 0. -1.
         22    1    3    3    0    0 -0.32247630223E+00 -0.27304902754E+02  0.84737149350E+02  0.89028344842E+02  0.00000000000E+00 0.  1.
         22    1    3    3    0    0 -0.12598026114E+03  0.54297593367E+01  0.52627948873E+02  0.13663897499E+03  0.00000000000E+00 0.  1.
</event>
<event>
 7    1  0.5789396E-006  0.1510373E+03  0.7818608E-02  0.1260760E+00
          2   -1    0    0  502    0  0.00000000000E+00  0.00000000000E+00  0.11639694447E+04  0.11639694447E+04  0.00000000000E+00 0. -1.
          1   -1    0    0  501    0 -0.00000000000E+00 -0.00000000000E+00 -0.93170731512E+03  0.93170731512E+03  0.00000000000E+00 0. -1.
         25    2    1    2    0    0 -0.97111444012E+01  0.14779338177E+03 -0.18806263378E+03  0.27005542850E+03  0.12500076085E+03 0.  0.
          2    1    1    2  501    0  0.87285187177E+02 -0.12839413366E+03 -0.69262025622E+03  0.70980742232E+03  0.00000000000E+00 0. -1.
          1    1    1    2  502    0 -0.77574042776E+02 -0.19399248116E+02  0.11129450195E+04  0.11158139090E+04  0.00000000000E+00 0. -1.
         22    1    3    3    0    0 -0.47620198319E+02  0.59917587045E+02 -0.14737035034E+03  0.16605969012E+03  0.00000000000E+00 0.  1.
         22    1    3    3    0    0  0.37909053918E+02  0.87875794729E+02 -0.40692283446E+02  0.10399573838E+03  0.00000000000E+00 0.  1.
</event>
<event>
 7    1  0.5789396E-006  0.8359102E+02  0.7818608E-02  0.1486899E+00
          2   -1    0    0  502    0  0.00000000000E+00  0.00000000000E+00  0.85569596488E+02  0.85569596488E+02  0.00000000000E+00 0. -1.
          1   -1    0    0  501    0 -0.00000000000E+00 -0.00000000000E+00 -0.86937865951E+03  0.86937865951E+03  0.00000000000E+00 0. -1.
         25    2    1    2    0    0 -0.70102954712E+02 -0.24125143627E+02 -0.47281749238E+03  0.49464877682E+03  0.12499833795E+03 0.  0.
          2    1    1    2  501    0 -0.13791095354E+02  0.17359086907E+02 -0.36147471809E+03  0.36215397834E+03  0.00000000000E+00 0. -1.
          1    1    1    2  502    0  0.83894050067E+02  0.67660567203E+01  0.50483147445E+02  0.98145500845E+02  0.00000000000E+00 0. -1.
         22    1    3    3    0    0 -0.93859419719E+02  0.16545070919E+02 -0.26668022551E+03  0.28319899845E+03  0.00000000000E+00 0.  1.
         22    1    3    3    0    0  0.23756465006E+02 -0.40670214546E+02 -0.20613726687E+03  0.21144977837E+03  0.00000000000E+00 0.  1.
</event>
<event>
 7    1  0.5789396E-006  0.7456944E+02  0.7818608E-02  0.1457048E+00
          2   -1    0    0  502    0  0.00000000000E+00  0.00000000000E+00  0.18362841367E+04  0.18362841367E+04  0.00000000000E+00 0. -1.
          1   -1    0    0  501    0 -0.00000000000E+00 -0.00000000000E+00 -0.72216606012E+03  0.72216606012E+03  0.00000000000E+00 0. -1.
         25    2    1    2    0    0  0.17405060621E+02 -0.42334788844E+02  0.42153387518E+02  0.13963382529E+03  0.12500210640E+03 0.  0.
          2    1    1    2  501    0 -0.17884585435E+02  0.73090972347E+02 -0.67118773555E+03  0.67539257102E+03  0.00000000000E+00 0. -1.
          1    1    1    2  502    0  0.47952481410E+00 -0.30756183502E+02  0.17431524246E+04  0.17434238005E+04  0.00000000000E+00 0. -1.
         22    1    3    3    0    0 -0.13408492598E+02 -0.30667345685E+02 -0.39387325911E+02  0.51687863252E+02  0.00000000000E+00 0. -1.
         22    1    3    3    0    0  0.30813553218E+02 -0.11667443159E+02  0.81540713429E+02  0.87945962035E+02  0.00000000000E+00 0. -1.
</event>
<event>
 7    1  0.5789396E-006  0.1320336E+03  0.7818608E-02  0.1316745E+00
          2   -1    0    0  502    0  0.00000000000E+00  0.00000000000E+00  0.31972701119E+04  0.31972701119E+04  0.00000000000E+00 0. -1.
          1   -1    0    0  501    0 -0.00000000000E+00 -0.00000000000E+00 -0.18912291863E+02  0.18912291863E+02  0.00000000000E+00 0. -1.
         25    2    1    2    0    0 -0.95077884222E+02  0.61619856263E+02  0.19867692322E+04  0.19939194886E+04  0.12500453715E+03 0.  0.
          2    1    1    2  501    0 -0.53469356190E+02  0.80989925463E+01  0.68620681103E+02  0.87369122730E+02  0.00000000000E+00 0. -1.
          1    1    1    2  502    0  0.14854724041E+03 -0.69718848809E+02  0.11229679068E+04  0.11348937924E+04  0.00000000000E+00 0. -1.
         22    1    3    3    0    0 -0.75277500411E+02  0.71305699226E+02  0.19333870092E+04  0.19361654196E+04  0.00000000000E+00 0.  1.
         22    1    3    3    0    0 -0.19800383810E+02 -0.96858429630E+01  0.53382223059E+02  0.57754069048E+02  0.00000000000E+00 0.  1.
</event>
<event>
 7    1  0.5789396E-006  0.1179072E+03  0.7818608E-02  0.1332088E+00
          2   -1    0    0  502    0  0.00000000000E+00  0.00000000000E+00  0.32775154068E+03  0.32775154068E+03  0.00000000000E+00 0. -1.
          1   -1    0    0  501    0 -0.00000000000E+00 -0.00000000000E+00 -0.37998737920E+04  0.37998737920E+04  0.00000000000E+00 0. -1.
         25    2    1    2    0    0  0.44294351424E+02  0.85959251178E+02 -0.54245363741E+03  0.56500571109E+03  0.12499808957E+03 0.  0.
          2    1    1    2  501    0 -0.41647921303E+02  0.32536744916E+02 -0.32348232230E+04  0.32352549317E+04  0.00000000000E+00 0. -1.
          1    1    1    2  502    0 -0.26464301215E+01 -0.11849599609E+03  0.30515460913E+03  0.32736468984E+03  0.00000000000E+00 0. -1.
         22    1    3    3    0    0  0.67009763477E+02  0.72879295404E+02 -0.21722438547E+03  0.23872187529E+03  0.00000000000E+00 0. -1.
         22    1    3    3    0    0 -0.22715412053E+02  0.13079955774E+02 -0.32522925194E+03  0.32628383580E+03  0.00000000000E+00 0. -1.
</event>
<event>
 7    1  0.5789396E-006  0.1179105E+03  0.7818608E-02  0.1292028E+00
          2   -1    0    0  502    0  0.00000000000E+00  0.00000000000E+00  0.41692711229E+03  0.41692711229E+03  0.00000000000E+00 0. -1.
          1   -1    0    0  501    0 -0.00000000000E+00 -0.00000000000E+00 -0.17727637607E+04  0.17727637607E+04  0.00000000000E+00 0. -1.
         25    2    1    2    0    0  0.85323165679E+01  0.18823983978E+03 -0.37084061502E+03  0.43434584204E+03  0.12500604403E+03 0.  0.
          2    1    1    2  501    0  0.15514949418E+02 -0.74332439179E+02 -0.13602906314E+04  0.13624083921E+04  0.00000000000E+00 0. -1.
          1    1    1    2  502    0 -0.24047265985E+02 -0.11390740060E+03  0.37529459794E+03  0.39293663886E+03  0.00000000000E+00 0. -1.
         22    1    3    3    0    0  0.34058776226E+01  0.44123398131E+02 -0.94594144107E+01  0.45254334444E+02  0.00000000000E+00 0. -1.
         22    1    3    3    0    0  0.51264389452E+01  0.14411644165E+03 -0.36138120061E+03  0.38909150759E+03  0.00000000000E+00 0. -1.
</event>
<event>
 7    1  0.5789396E-006  0.8711283E+02  0.7818608E-02  0.1456249E+00
          2   -1    0    0  502    0  0.00000000000E+00  0.00000000000E+00  0.27898871684E+04  0.27898871684E+04  0.00000000000E+00 0. -1.
          1   -1    0    0  501    0 -0.00000000000E+00 -0.00000000000E+00 -0.51757913103E+03  0.51757913103E+03  0.00000000000E+00 0. -1.
         25    2    1    2    0    0 -0.90309565133E+02  0.49121417209E+02  0.93853300537E+03  0.95238603390E+03  0.12500489674E+03 0.  0.
          2    1    1    2  501    0  0.83847476894E+02 -0.23436925489E+02 -0.50684587020E+03  0.51426882561E+03  0.00000000000E+00 0. -1.
          1    1    1    2  502    0  0.64620882381E+01 -0.25684491720E+02  0.18406209022E+04  0.18408114399E+04  0.00000000000E+00 0. -1.
         22    1    3    3    0    0 -0.42454527033E+01 -0.22729136573E+02  0.35153707149E+02  0.42076366815E+02  0.00000000000E+00 0. -1.
         22    1    3    3    0    0 -0.86064112429E+02  0.71850553782E+02  0.90337929822E+03  0.91030966708E+03  0.00000000000E+00 0. -1.
</event>
<event>
 7    1  0.5789396E-006  0.1716770E+03  0.7818608E-02  0.1380244E+00
          2   -1    0    0  502    0  0.00000000000E+00  0.00000000000E+00  0.90145845781E+03  0.90145845781E+03  0.00000000000E+00 0. -1.
          1   -1    0    0  501    0 -0.00000000000E+00 -0.00000000000E+00 -0.29680978870E+04  0.29680978870E+04  0.00000000000E+00 0. -1.
         25    2    1    2    0    0  0.18524506384E+03  0.50676919652E+02 -0.19797691451E+03  0.30282527517E+03  0.12499761892E+03 0.  0.
          2    1    1    2  501    0 -0.16707701939E+03 -0.34754815516E+02 -0.27148452580E+04  0.27202035590E+04  0.00000000000E+00 0. -1.
          1    1    1    2  502    0 -0.18168044453E+02 -0.15922104136E+02  0.84618274330E+03  0.84652751066E+03  0.00000000000E+00 0. -1.
         22    1    3    3    0    0  0.19017111299E+02 -0.34696232311E+02 -0.18320084529E+02  0.43601657719E+02  0.00000000000E+00 0. -1.
         22    1    3    3    0    0  0.16622795254E+03  0.85373151963E+02 -0.17965682998E+03  0.25922361745E+03  0.00000000000E+00 0. -1.
</event>
<event>
 7    1  0.5789396E-006  0.2412525E+02  0.7818608E-02  0.1708827E+00
          2   -1    0    0  502    0  0.00000000000E+00  0.00000000000E+00  0.86842754570E+02  0.86842754570E+02  0.00000000000E+00 0. -1.
          1   -1    0    0  501    0 -0.00000000000E+00 -0.00000000000E+00 -0.25030943561E+03  0.25030943561E+03  0.00000000000E+00 0. -1.
         25    2    1    2    0    0 -0.17710778161E+02  0.18899930532E+02 -0.11503268693E+03  0.17184956211E+03  0.12501549463E+03 0.  0.
          2    1    1    2  501    0 -0.15258407940E+01 -0.24378130195E+02 -0.10369515713E+03  0.10653312646E+03  0.00000000000E+00 0. -1.
          1    1    1    2  502    0  0.19236618955E+02  0.54781996627E+01  0.55261163020E+02  0.58769501603E+02  0.00000000000E+00 0. -1.
         22    1    3    3    0    0 -0.33258362020E+02 -0.72788856462E+01 -0.13246131411E+03  0.13676659152E+03  0.00000000000E+00 0. -1.
         22    1    3    3    0    0  0.15547583859E+02  0.26178816179E+02  0.17428627178E+02  0.35082970594E+02  0.00000000000E+00 0. -1.
</event>
<event>
 7    1  0.5789396E-006  0.1277311E+03  0.7818608E-02  0.1316589E+00
          2   -1    0    0  502    0  0.00000000000E+00  0.00000000000E+00  0.13707462189E+04  0.13707462189E+04  0.00000000000E+00 0. -1.
          1   -1    0    0  501    0 -0.00000000000E+00 -0.00000000000E+00 -0.11935737491E+04  0.11935737491E+04  0.00000000000E+00 0. -1.
         25    2    1    2    0    0  0.17083334336E+03  0.55433970961E+02  0.11604864220E+03  0.24768825919E+03  0.12500092016E+03 0.  0.
          2    1    1    2  501    0 -0.11488678273E+03 -0.53517803924E+02 -0.11235300449E+04  0.11306559557E+04  0.00000000000E+00 0. -1.
          1    1    1    2  502    0 -0.55946560633E+02 -0.19161670371E+01  0.11846538725E+04  0.11859757531E+04  0.00000000000E+00 0. -1.
         22    1    3    3    0    0  0.23164231144E+01  0.23451508179E+02  0.64368713259E+02  0.68546847474E+02  0.00000000000E+00 0.  1.
         22    1    3    3    0    0  0.16851692025E+03  0.31982462782E+02  0.51679928945E+02  0.17914141171E+03  0.00000000000E+00 0.  1.
</event>
<event>
 7    1  0.5789396E-006  0.1080513E+03  0.7818608E-02  0.1293579E+00
          2   -1    0    0  502    0  0.00000000000E+00  0.00000000000E+00  0.20563667937E+04  0.20563667937E+04  0.00000000000E+00 0. -1.
          1   -1    0    0  501    0 -0.00000000000E+00 -0.00000000000E+00 -0.19328148560E+04  0.19328148560E+04  0.00000000000E+00 0. -1.
         25    2    1    2    0    0  0.13331189277E+03  0.11741963682E+03  0.56694709245E+03  0.60713571745E+03  0.12500136760E+03 0.  0.
          2    1    1    2  501    0 -0.98775380120E+02 -0.43407342402E+02 -0.19100619928E+04  0.19131067898E+04  0.00000000000E+00 0. -1.
          1    1    1    2  502    0 -0.34536512648E+02 -0.74012294422E+02  0.14666668381E+04  0.14689391425E+04  0.00000000000E+00 0. -1.
         22    1    3    3    0    0  0.71402888552E+02 -0.31542224943E+01  0.11591614130E+03  0.13617956318E+03  0.00000000000E+00 0. -1.
         22    1    3    3    0    0  0.61909004216E+02  0.12057385932E+03  0.45103095115E+03  0.47095615428E+03  0.00000000000E+00 0. -1.
</event>
<event>
 7    1  0.5789396E-006  0.3126919E+03  0.7818608E-02  0.1221308E+00
          2   -1    0    0  502    0  0.00000000000E+00  0.00000000000E+00  0.23445220081E+04  0.23445220081E+04  0.00000000000E+00 0. -1.
          1   -1    0    0  501    0 -0.00000000000E+00 -0.00000000000E+00 -0.29306623490E+04  0.29306623490E+04  0.00000000000E+00 0. -1.
         25    2    1    2    0    0  0.12117213463E+03  0.26082226110E+03 -0.28320086864E+03  0.42254039291E+03  0.12500685398E+03 0.  0.
          2    1    1    2  501    0 -0.17879218298E+03 -0.26138060674E+03 -0.25676978619E+04  0.25871526388E+04  0.00000000000E+00 0. -1.
          1    1    1    2  502    0  0.57620048342E+02  0.55834564015E+00  0.22647583897E+04  0.22654913254E+04  0.00000000000E+00 0. -1.
         22    1    3    3    0    0  0.11702549105E+03  0.12004003349E+03 -0.11569344543E+03  0.20368983409E+03  0.00000000000E+00 0. -1.
         22    1    3    3    0    0  0.41466435811E+01  0.14078222761E+03 -0.16750742321E+03  0.21885055882E+03  0.00000000000E+00 0. -1.
</event>
<event>
 7    1  0.5789396E-006  0.5218742E+02  0.7818608E-02  0.1471981E+00
          2   -1    0    0  502    0  0.00000000000E+00  0.00000000000E+00  0.15802901402E+04  0.15802901402E+04  0.00000000000E+00 0. -1.
          1   -1    0    0  501    0 -0.00000000000E+00 -0.00000000000E+00 -0.99604043927E+02  0.99604043927E+02  0.00000000000E+00 0. -1.
         25    2    1    2    0    0 -0.12495713144E+02  0.32937534091E+02  0.78323697276E+03  0.79393078421E+03  0.12499964245E+03 0.  0.
          2    1    1    2  501    0  0.34032466658E+02  0.19974505598E+02 -0.89045077595E+02  0.97397204809E+02  0.00000000000E+00 0. -1.
          1    1    1    2  502    0 -0.21536753515E+02 -0.52912039689E+02  0.78649420106E+03  0.78856619507E+03  0.00000000000E+00 0. -1.
         22    1    3    3    0    0  0.26530209363E+02  0.15016203954E+02  0.69628678461E+03  0.69695381828E+03  0.00000000000E+00 0.  1.
         22    1    3    3    0    0 -0.39025922507E+02  0.17921330137E+02  0.86950188151E+02  0.96976965930E+02  0.00000000000E+00 0.  1.
</event>
<event>
 7    1  0.5789396E-006  0.6735401E+02  0.7818608E-02  0.1481812E+00
          2   -1    0    0  502    0  0.00000000000E+00  0.00000000000E+00  0.18211883805E+04  0.18211883805E+04  0.00000000000E+00 0. -1.
          1   -1    0    0  501    0 -0.00000000000E+00 -0.00000000000E+00 -0.42270662498E+03  0.42270662498E+03  0.00000000000E+00 0. -1.
         25    2    1    2    0    0  0.34428152819E+02 -0.28553417799E+02  0.83332824698E+02  0.15676263341E+03  0.12501827141E+03 0.  0.
          2    1    1    2  501    0  0.28362202693E+02  0.29541823970E+01 -0.38478821395E+03  0.38584337669E+03  0.00000000000E+00 0. -1.
          1    1    1    2  502    0 -0.62790355512E+02  0.25599235402E+02  0.16999371448E+04  0.17012889954E+04  0.00000000000E+00 0. -1.
         22    1    3    3    0    0  0.24659120498E+02  0.35543715480E+02 -0.87571026355E+01  0.44137453261E+02  0.00000000000E+00 0. -1.
         22    1    3    3    0    0  0.97690323206E+01 -0.64097133278E+02  0.92089927333E+02  0.11262518015E+03  0.00000000000E+00 0. -1.
</event>
<event>
 7    1  0.5789396E-006  0.5163051E+02  0.7818608E-02  0.1547447E+00
          2   -1    0    0  502    0  0.00000000000E+00  0.00000000000E+00  0.27997582326E+03  0.27997582326E+03  0.00000000000E+00 0. -1.
          1   -1    0    0  501    0 -0.00000000000E+00 -0.00000000000E+00 -0.28833037496E+03  0.28833037496E+03  0.00000000000E+00 0. -1.
         25    2    1    2    0    0  0.49273897306E+02 -0.15349705225E+02 -0.17995695256E+03  0.22510906846E+03  0.12500423002E+03 0.  0.
          2    1    1    2  501    0 -0.12119679194E+02 -0.20602784132E+02 -0.81466589185E+02  0.84900921615E+02  0.00000000000E+00 0. -1.
          1    1    1    2  502    0 -0.37154218112E+02  0.35952489357E+02  0.25306899005E+03  0.25829620814E+03  0.00000000000E+00 0. -1.
         22    1    3    3    0    0  0.47625534989E+02  0.50267788885E+02 -0.10051480501E+03  0.12205846226E+03  0.00000000000E+00 0.  1.
         22    1    3    3    0    0  0.16483623171E+01 -0.65617494110E+02 -0.79442147552E+02  0.10305060621E+03  0.00000000000E+00 0.  1.
</event>
<event>
 7    1  0.5789396E-006  0.1881119E+03  0.7818608E-02  0.1201782E+00
          2   -1    0    0  502    0  0.00000000000E+00  0.00000000000E+00  0.88786080725E+03  0.88786080725E+03  0.00000000000E+00 0. -1.
          1   -1    0    0  501    0 -0.00000000000E+00 -0.00000000000E+00 -0.34468337591E+03  0.34468337591E+03  0.00000000000E+00 0. -1.
         25    2    1    2    0    0  0.91004516593E+02  0.27082623292E+02 -0.66714388464E+02  0.17056004286E+03  0.12499851227E+03 0.  0.
          2    1    1    2  501    0  0.10570485817E+03 -0.52276335549E+02 -0.19780923582E+03  0.23029291364E+03  0.00000000000E+00 0. -1.
          1    1    1    2  502    0 -0.19670937476E+03  0.25193712256E+02  0.80770105562E+03  0.83169122666E+03  0.00000000000E+00 0. -1.
         22    1    3    3    0    0  0.46203181873E+02 -0.39828042504E+02 -0.66220216395E+02  0.90034016040E+02  0.00000000000E+00 0.  1.
         22    1    3    3    0    0  0.44801334720E+02  0.66910665796E+02 -0.49417206884E+00  0.80526026824E+02  0.00000000000E+00 0.  1.
</event>
<event>
 7    1  0.5789396E-006  0.1247705E+03  0.7818608E-02  0.1326114E+00
          2   -1    0    0  502    0  0.00000000000E+00  0.00000000000E+00  0.13511088602E+03  0.13511088602E+03  0.00000000000E+00 0. -1.
          1   -1    0    0  501    0 -0.00000000000E+00 -0.00000000000E+00 -0.62142726172E+03  0.62142726172E+03  0.00000000000E+00 0. -1.
         25    2    1    2    0    0 -0.16682557969E+03  0.39381754914E+02 -0.84369400875E+02  0.22830990069E+03  0.12500207313E+03 0.  0.
          2    1    1    2  501    0  0.11433727019E+03 -0.35360954244E+02 -0.44463054747E+03  0.46045600461E+03  0.00000000000E+00 0. -1.
          1    1    1    2  502    0  0.52488309504E+02 -0.40208006698E+01  0.42683572647E+02  0.67772242449E+02  0.00000000000E+00 0. -1.
         22    1    3    3    0    0 -0.51989005966E+02  0.68465933762E+02 -0.66111247267E+02  0.10844877981E+03  0.00000000000E+00 0. -1.
         22    1    3    3    0    0 -0.11483657373E+03 -0.29084178849E+02 -0.18258153608E+02  0.11986112088E+03  0.00000000000E+00 0. -1.
</event>
<event>
 7    1  0.5789396E-006  0.1120607E+03  0.7818608E-02  0.1405963E+00
          2   -1    0    0  502    0  0.00000000000E+00  0.00000000000E+00  0.91004385125E+03  0.91004385125E+03  0.00000000000E+00 0. -1.
          1   -1    0    0  501    0 -0.00000000000E+00 -0.00000000000E+00 -0.44596076923E+03  0.44596076923E+03  0.00000000000E+00 0. -1.
         25    2    1    2    0    0 -0.36649419875E+02 -0.74481005071E+02  0.17932387738E+03  0.23382370190E+03  0.12500348187E+03 0.  0.
          2    1    1    2  501    0  0.50217924327E+02  0.10138041478E+03 -0.41073637800E+03  0.42603309805E+03  0.00000000000E+00 0. -1.
          1    1    1    2  502    0 -0.13568504452E+02 -0.26899409707E+02  0.69549558264E+03  0.69614782053E+03  0.00000000000E+00 0. -1.
         22    1    3    3    0    0 -0.25384498036E+02  0.29065085175E+02  0.84810433621E+02  0.93177044211E+02  0.00000000000E+00 0.  1.
         22    1    3    3    0    0 -0.11264921838E+02 -0.10354609025E+03  0.94513443760E+02  0.14064665769E+03  0.00000000000E+00 0.  1.
</event>
<event>
 7    1  0.5789396E-006  0.9085928E+02  0.7818608E-02  0.1409757E+00
          2   -1    0    0  502    0  0.00000000000E+00  0.00000000000E+00  0.12359196062E+04  0.12359196062E+04  0.00000000000E+00 0. -1.
          1   -1    0    0  501    0 -0.00000000000E+00 -0.00000000000E+00 -0.52469170235E+03  0.52469170235E+03  0.00000000000E+00 0. -1.
         25    2    1    2    0    0 -0.89584643850E+02  0.40592382068E+02  0.10611416564E+04  0.10729957914E+04  0.12500081372E+03 0.  0.
          2    1    1    2  501    0  0.63242320919E+02 -0.65233149486E+02 -0.51279822204E+03  0.52078495704E+03  0.00000000000E+00 0. -1.
          1    1    1    2  502    0  0.26342322931E+02  0.24640767418E+02  0.16288446949E+03  0.16683056015E+03  0.00000000000E+00 0. -1.
         22    1    3    3    0    0 -0.68581855559E+02  0.18652616474E+02  0.21771177704E+03  0.22901923254E+03  0.00000000000E+00 0.  1.
         22    1    3    3    0    0 -0.21002788291E+02  0.21939765594E+02  0.84342987940E+03  0.84397655885E+03  0.00000000000E+00 0.  1.
</event>
<event>
 7    1  0.5789396E-006  0.8212185E+02  0.7818608E-02  0.1380903E+00
          2   -1    0    0  502    0  0.00000000000E+00  0.00000000000E+00  0.56471077038E+03  0.56471077038E+03  0.00000000000E+00 0. -1.
          1   -1    0    0  501    0 -0.00000000000E+00 -0.00000000000E+00 -0.19664358891E+03  0.19664358891E+03  0.00000000000E+00 0. -1.
         25    2    1    2    0    0 -0.25234371247E+02 -0.51392892902E+02  0.16350360481E+03  0.21362796785E+03  0.12500190771E+03 0.  0.
          2    1    1    2  501    0  0.74090705815E+02  0.39719784680E+02 -0.15945514590E+03  0.18025825234E+03  0.00000000000E+00 0. -1.
          1    1    1    2  502    0 -0.48856334568E+02  0.11673108222E+02  0.36401872256E+03  0.36746813910E+03  0.00000000000E+00 0. -1.
         22    1    3    3    0    0 -0.23700756686E+02 -0.92880788691E+02  0.11807696468E+03  0.15208792313E+03  0.00000000000E+00 0.  1.
         22    1    3    3    0    0 -0.15336145610E+01  0.41487895788E+02  0.45426640131E+02  0.61540044720E+02  0.00000000000E+00 0.  1.
</event>
<event>
 7    1  0.5789396E-006  0.1263235E+03  0.7818608E-02  0.1388841E+00
          2   -1    0    0  502    0  0.00000000000E+00  0.00000000000E+00  0.48702364665E+02  0.48702364665E+02  0.00000000000E+00 0. -1.
          1   -1    0    0  501    0 -0.00000000000E+00 -0.00000000000E+00 -0.59305275450E+03  0.59305275450E+03  0.00000000000E+00 0. -1.
         25    2    1    2    0    0 -0.10751872565E+03  0.67959978901E+02 -0.24878967420E+03  0.30610436316E+03  0.12499897623E+03 0.  0.
          2    1    1    2  501    0  0.19290678589E+02  0.23782274157E+02 -0.74792407587E+02  0.80818507021E+02  0.00000000000E+00 0. -1.
          1    1    1    2  502    0  0.88228047059E+02 -0.91742253059E+02 -0.22076830805E+03  0.25483224898E+03  0.00000000000E+00 0. -1.
         22    1    3    3    0    0 -0.18540307411E+02  0.48002340980E+02 -0.12680662386E+02  0.52997801247E+02  0.00000000000E+00 0. -1.
         22    1    3    3    0    0 -0.88978418237E+02  0.19957637921E+02 -0.23610901181E+03  0.25310656191E+03  0.00000000000E+00 0. -1.
</event>
<event>
 7    1  0.5789396E-006  0.9739916E+02  0.7818608E-02  0.1304692E+00
          2   -1    0    0  502    0  0.00000000000E+00  0.00000000000E+00  0.29176561226E+04  0.29176561226E+04  0.00000000000E+00 0. -1.
          1   -1    0    0  501    0 -0.00000000000E+00 -0.00000000000E+00 -0.82626653704E+03  0.82626653704E+03  0.00000000000E+00 0. -1.
         25    2    1    2    0    0 -0.14089638860E+03  0.29781707136E+00  0.17936684925E+03  0.26009467118E+03  0.12499956141E+03 0.  0.
          2    1    1    2  501    0  0.80085527859E+02 -0.54967126165E+02 -0.78227859977E+03  0.78828604224E+03  0.00000000000E+00 0. -1.
          1    1    1    2  502    0  0.60810860737E+02  0.54669309093E+02  0.26943013361E+04  0.26955419462E+04  0.00000000000E+00 0. -1.
         22    1    3    3    0    0  0.12131135646E+02 -0.28963683995E+02  0.20034241407E+02  0.37248225077E+02  0.00000000000E+00 0.  1.
         22    1    3    3    0    0 -0.15302752424E+03  0.29261501067E+02  0.15933260784E+03  0.22284644611E+03  0.00000000000E+00 0.  1.
</event>
<event>
 7    1  0.5789396E-006  0.1826767E+03  0.7818608E-02  0.1214398E+00
          2   -1    0    0  502    0  0.00000000000E+00  0.00000000000E+00  0.70567022973E+03  0.70567022973E+03  0.00000000000E+00 0. -1.
          1   -1    0    0  501    0 -0.00000000000E+00 -0.00000000000E+00 -0.19769647077E+04  0.19769647077E+04  0.00000000000E+00 0. -1.
         25    2    1    2    0    0  0.99547277060E+02 -0.53937656426E+01 -0.26116048680E+03  0.30621824314E+03  0.12500423789E+03 0.  0.
          2    1    1    2  501    0 -0.20529202735E+03  0.13866308925E+02 -0.16828526889E+04  0.16953849898E+04  0.00000000000E+00 0. -1.
          1    1    1    2  502    0  0.10574475029E+03 -0.84725432826E+01  0.67271869775E+03  0.68103170448E+03  0.00000000000E+00 0. -1.
         22    1    3    3    0    0  0.40528360014E+02  0.14930215152E+02 -0.60864917170E+01  0.43617710524E+02  0.00000000000E+00 0.  1.
         22    1    3    3    0    0  0.59018917046E+02 -0.20323980794E+02 -0.25507399508E+03  0.26260053262E+03  0.00000000000E+00 0.  1.
</event>
<event>
 7    1  0.5789396E-006  0.8883667E+02  0.7818608E-02  0.1336054E+00
          2   -1    0    0  502    0  0.00000000000E+00  0.00000000000E+00  0.10544105706E+04  0.10544105706E+04  0.00000000000E+00 0. -1.
          1   -1    0    0  501    0 -0.00000000000E+00 -0.00000000000E+00 -0.80042192775E+03  0.80042192775E+03  0.00000000000E+00 0. -1.
         25    2    1    2    0    0 -0.79481201226E+02 -0.28964664870E+02 -0.23177687875E+03  0.27659001661E+03  0.12500121042E+03 0.  0.
          2    1    1    2  501    0  0.85037470766E+02 -0.38561907801E+02 -0.54112370143E+03  0.54912043526E+03  0.00000000000E+00 0. -1.
          1    1    1    2  502    0 -0.55562695400E+01  0.67526572671E+02  0.10268892230E+04  0.10291220464E+04  0.00000000000E+00 0. -1.
         22    1    3    3    0    0 -0.39793765561E+02 -0.26330821947E+02 -0.23195781069E+03  0.23681486841E+03  0.00000000000E+00 0.  1.
         22    1    3    3    0    0 -0.39687435665E+02 -0.26338429225E+01  0.18093193262E+00  0.39775148203E+02  0.00000000000E+00 0.  1.
</event>
<event>
 7    1  0.5789396E-006  0.2748460E+03  0.7818608E-02  0.1186289E+00
          2   -1    0    0  502    0  0.00000000000E+00  0.00000000000E+00  0.12287640797E+04  0.12287640797E+04  0.00000000000E+00 0. -1.
          1   -1    0    0  501    0 -0.00000000000E+00 -0.00000000000E+00 -0.33366609615E+04  0.33366609615E+04  0.00000000000E+00 0. -1.
         25    2    1    2    0    0 -0.13169109068E+03  0.25110640406E+03 -0.13419173862E+02  0.31016268913E+03  0.12499539981E+03 0.  0.
          2    1    1    2  501    0  0.38434848375E+02 -0.27243633896E+03 -0.31667758156E+04  0.31787053752E+04  0.00000000000E+00 0. -1.
          1    1    1    2  502    0  0.93256242302E+02  0.21329934891E+02  0.10722981076E+04  0.10765569769E+04  0.00000000000E+00 0. -1.
         22    1    3    3    0    0 -0.11217347850E+03  0.19089033050E+03  0.42792474698E+02  0.22550654857E+03  0.00000000000E+00 0.  1.
         22    1    3    3    0    0 -0.19517612181E+02  0.60216073565E+02 -0.56211648560E+02  0.84656140561E+02  0.00000000000E+00 0.  1.
</event>
<event>
 7    1  0.5789396E-006  0.3732109E+02  0.7818608E-02  0.1563463E+00
          2   -1    0    0  502    0  0.00000000000E+00  0.00000000000E+00  0.94721645961E+03  0.94721645961E+03  0.00000000000E+00 0. -1.
          1   -1    0    0  501    0 -0.00000000000E+00 -0.00000000000E+00 -0.24684351259E+03  0.24684351259E+03  0.00000000000E+00 0. -1.
         25    2    1    2    0    0 -0.49046282611E+02  0.44869400592E+02 -0.14344863295E+03  0.20154552419E+03  0.12499714828E+03 0.  0.
          2    1    1    2  501    0  0.24871751322E+02 -0.16518752795E+02 -0.70954148963E+02  0.76980286196E+02  0.00000000000E+00 0. -1.
          1    1    1    2  502    0  0.24174531290E+02 -0.28350647798E+02  0.91477572894E+03  0.91553416181E+03  0.00000000000E+00 0. -1.
         22    1    3    3    0    0 -0.37640041849E+02 -0.18047663476E+02 -0.12955094351E+03  0.13611002120E+03  0.00000000000E+00 0. -1.
         22    1    3    3    0    0 -0.11406240762E+02  0.62917064068E+02 -0.13897689439E+02  0.65435502986E+02  0.00000000000E+00 0. -1.
</event>
<event>
 7    1  0.5789396E-006  0.3067941E+02  0.7818608E-02  0.1594856E+00
          2   -1    0    0  502    0  0.00000000000E+00  0.00000000000E+00  0.93452337618E+03  0.93452337618E+03  0.00000000000E+00 0. -1.
          1   -1    0    0  501    0 -0.00000000000E+00 -0.00000000000E+00 -0.76818943133E+03  0.76818943133E+03  0.00000000000E+00 0. -1.
         25    2    1    2    0    0 -0.11480557737E+01 -0.10086941098E+02 -0.26814998892E+03  0.29602656522E+03  0.12499698534E+03 0.  0.
          2    1    1    2  501    0  0.29906853052E+02 -0.67088683844E+00 -0.48538452259E+03  0.48630546441E+03  0.00000000000E+00 0. -1.
          1    1    1    2  502    0 -0.28758797278E+02  0.10757827936E+02  0.91986845636E+03  0.92038077788E+03  0.00000000000E+00 0. -1.
         22    1    3    3    0    0  0.30681739115E+02 -0.34127224569E+02 -0.24631392998E+03  0.25055256669E+03  0.00000000000E+00 0. -1.
         22    1    3    3    0    0 -0.31829794889E+02  0.24040283472E+02 -0.21836058933E+02  0.45473998524E+02  0.00000000000E+00 0. -1.
</event>
<event>
 7    1  0.5789396E-006  0.3808464E+02  0.7818608E-02  0.1596448E+00
          2   -1    0    0  502    0  0.00000000000E+00  0.00000000000E+00  0.11364823179E+04  0.11364823179E+04  0.00000000000E+00 0. -1.
          1   -1    0    0  501    0 -0.00000000000E+00 -0.00000000000E+00 -0.31630535379E+02  0.31630535379E+02  0.00000000000E+00 0. -1.
         25    2    1    2    0    0  0.54474492129E+02 -0.17547423654E+02  0.40763919046E+03  0.43019841073E+03  0.12500232248E+03 0.  0.
          2    1    1    2  501    0 -0.37372840084E+02  0.89934699378E+00 -0.28062646781E+01  0.37488839972E+02  0.00000000000E+00 0. -1.
          1    1    1    2  502    0 -0.17101652045E+02  0.16648076661E+02  0.70001885675E+03  0.70042560259E+03  0.00000000000E+00 0. -1.
         22    1    3    3    0    0  0.98646642651E+01 -0.26547305696E+02  0.37016361472E+03  0.37124543458E+03  0.00000000000E+00 0. -1.
         22    1    3    3    0    0  0.44609827864E+02  0.89998820418E+01  0.37475575745E+02  0.58952976144E+02  0.00000000000E+00 0. -1.
</event>
<event>
 7    1  0.5789396E-006  0.1319113E+03  0.7818608E-02  0.1358001E+00
          2   -1    0    0  502    0  0.00000000000E+00  0.00000000000E+00  0.13735173059E+04  0.13735173059E+04  0.00000000000E+00 0. -1.
          1   -1    0    0  501    0 -0.00000000000E+00 -0.00000000000E+00 -0.28041972096E+03  0.28041972096E+03  0.00000000000E+00 0. -1.
         25    2    1    2    0    0 -0.94426302249E+02  0.10546707834E+03  0.88397560726E+03  0.90392265029E+03  0.12499460913E+03 0.  0.
          2    1    1    2  501    0  0.58760373239E+02 -0.11800661197E+03 -0.25356476482E+03  0.28578563975E+03  0.00000000000E+00 0. -1.
          1    1    1    2  502    0  0.35665929010E+02  0.12539533630E+02  0.46268674253E+03  0.46422873684E+03  0.00000000000E+00 0. -1.
         22    1    3    3    0    0 -0.32107017587E+02 -0.22628661994E+02  0.10667980158E+03  0.11368155957E+03  0.00000000000E+00 0. -1.
         22    1    3    3    0    0 -0.62319284662E+02  0.12809574033E+03  0.77729580568E+03  0.79024109072E+03  0.00000000000E+00 0. -1.
</event>
<event>
 7    1  0.5789396E-006  0.8202687E+02  0.7818608E-02  0.1427786E+00
          2   -1    0    0  502    0  0.00000000000E+00  0.00000000000E+00  0.33038899375E+03  0.33038899375E+03  0.00000000000E+00 0. -1.
          1   -1    0    0  501    0 -0.00000000000E+00 -0.00000000000E+00 -0.46616293831E+03  0.46616293831E+03  0.00000000000E+00 0. -1.
         25    2    1    2    0    0 -0.34162602664E+02 -0.99963741439E+02  0.69010372495E+02  0.17761590453E+03  0.12500058003E+03 0.  0.
          2    1    1    2  501    0 -0.89099376360E+01  0.33612025991E+02 -0.40353011445E+03  0.40502556530E+03  0.00000000000E+00 0. -1.
          1    1    1    2  502    0  0.43072540300E+02  0.66351715448E+02  0.19874579739E+03  0.21391046223E+03  0.00000000000E+00 0. -1.
         22    1    3    3    0    0 -0.53503012227E+02 -0.84756029085E+02  0.97598377342E+02  0.13989853482E+03  0.00000000000E+00 0.  1.
         22    1    3    3    0    0  0.19340409563E+02 -0.15207712354E+02 -0.28588004847E+02  0.37717369715E+02  0.00000000000E+00 0.  1.
</event>
<event>
 7    1  0.5789396E-006  0.1730436E+03  0.7818608E-02  0.1334401E+00
          2   -1    0    0  502    0  0.00000000000E+00  0.00000000000E+00  0.69278678429E+03  0.69278678429E+03  0.00000000000E+00 0. -1.
          1   -1    0    0  501    0 -0.00000000000E+00 -0.00000000000E+00 -0.27411768991E+03  0.27411768991E+03  0.00000000000E+00 0. -1.
         25    2    1    2    0    0 -0.12283418936E+03 -0.95571096972E+02 -0.63217175393E+02  0.20938981190E+03  0.12500243761E+03 0.  0.
          2    1    1    2  501    0  0.14021243868E+03  0.12628464574E+03 -0.72395993804E+02  0.20211016706E+03  0.00000000000E+00 0. -1.
          1    1    1    2  502    0 -0.17378249325E+02 -0.30713548767E+02  0.55428226358E+03  0.55540449525E+03  0.00000000000E+00 0. -1.
         22    1    3    3    0    0 -0.13158068610E+03 -0.68017424167E+02 -0.95460049303E+01  0.14842834350E+03  0.00000000000E+00 0.  1.
         22    1    3    3    0    0  0.87464967380E+01 -0.27553672805E+02 -0.53671170462E+02  0.60961468396E+02  0.00000000000E+00 0.  1.
</event>
<event>
 7    1  0.8750208E-006  0.6016824E+02  0.7818608E-02  0.1440588E+00
          2   -1    0    0  502    0  0.00000000000E+00  0.00000000000E+00  0.10112447173E+04  0.10112447173E+04  0.00000000000E+00 0. -1.
          1   -1    0    0  501    0 -0.00000000000E+00 -0.00000000000E+00 -0.88465120067E+03  0.88465120067E+03  0.00000000000E+00 0. -1.
         25    2    1    2    0    0  0.17360896345E+02  0.21740971631E+00 -0.14072007988E+03  0.18901971467E+03  0.12499945465E+03 0.  0.
          2    1    1    2  501    0  0.43045201509E+02  0.30559784806E+00 -0.71821205966E+03  0.71950090021E+03  0.00000000000E+00 0. -1.
          1    1    1    2  502    0 -0.60406097854E+02 -0.52300756437E+00  0.98552565616E+03  0.98737530309E+03  0.00000000000E+00 0. -1.
         22    1    3    3    0    0  0.49885137637E+02  0.41353640217E+02 -0.41948508569E+02  0.77190205904E+02  0.00000000000E+00 0.  1.
         22    1    3    3    0    0 -0.32524241292E+02 -0.41136230500E+02 -0.98771571309E+02  0.11182950876E+03  0.00000000000E+00 0.  1.
</event>
<event>
 7    1  0.5789396E-006  0.2157489E+03  0.7818608E-02  0.1294575E+00
          2   -1    0    0  502    0  0.00000000000E+00  0.00000000000E+00  0.10945951520E+04  0.10945951520E+04  0.00000000000E+00 0. -1.
          1   -1    0    0  501    0 -0.00000000000E+00 -0.00000000000E+00 -0.28526256952E+04  0.28526256952E+04  0.00000000000E+00 0. -1.
         25    2    1    2    0    0 -0.23791384446E+03 -0.62194082550E+02  0.11354323998E+03  0.29830802854E+03  0.12499804500E+03 0.  0.
          2    1    1    2  501    0  0.28856399206E+02  0.28455300019E+02 -0.27474764441E+04  0.27477753196E+04  0.00000000000E+00 0. -1.
          1    1    1    2  502    0  0.20905744526E+03  0.33738782532E+02  0.87590266095E+03  0.90113749913E+03  0.00000000000E+00 0. -1.
         22    1    3    3    0    0 -0.85195789265E+02  0.33685521573E+02  0.62498608177E+02  0.11090136562E+03  0.00000000000E+00 0.  1.
         22    1    3    3    0    0 -0.15271805520E+03 -0.95879604123E+02  0.51044631799E+02  0.18740666292E+03  0.00000000000E+00 0.  1.
</event>
<event>
 7    1  0.5789396E-006  0.5677768E+02  0.7818608E-02  0.1427456E+00
          2   -1    0    0  502    0  0.00000000000E+00  0.00000000000E+00  0.68317873943E+03  0.68317873943E+03  0.00000000000E+00 0. -1.
          1   -1    0    0  501    0 -0.00000000000E+00 -0.00000000000E+00 -0.28757065182E+03  0.28757065182E+03  0.00000000000E+00 0. -1.
         25    2    1    2    0    0  0.17057665237E+02  0.36523860199E+00  0.24805202098E+03  0.27829184480E+03  0.12500179369E+03 0.  0.
          2    1    1    2  501    0  0.36376349433E+02 -0.34830584471E+02 -0.26768240895E+03  0.27237892811E+03  0.00000000000E+00 0. -1.
          1    1    1    2  502    0 -0.53434014670E+02  0.34465345869E+02  0.41523847558E+03  0.42007861834E+03  0.00000000000E+00 0. -1.
         22    1    3    3    0    0 -0.34890806287E+02  0.33003401701E+02  0.18162743716E+03  0.18786995187E+03  0.00000000000E+00 0.  1.
         22    1    3    3    0    0  0.51948471524E+02 -0.32638163099E+02  0.66424583824E+02  0.90421892927E+02  0.00000000000E+00 0.  1.
</event>
<event>
 7    1  0.5789396E-006  0.1171266E+03  0.7818608E-02  0.1441868E+00
          2   -1    0    0  502    0  0.00000000000E+00  0.00000000000E+00  0.14074862571E+04  0.14074862571E+04  0.00000000000E+00 0. -1.
          1   -1    0    0  501    0 -0.00000000000E+00 -0.00000000000E+00 -0.18656929499E+03  0.18656929499E+03  0.00000000000E+00 0. -1.
         25    2    1    2    0    0  0.12162419744E+03  0.37415749349E+02  0.20531681649E+02  0.17955272881E+03  0.12500099509E+03 0.  0.
          2    1    1    2  501    0 -0.59266151317E+01 -0.21085706052E+02 -0.10329764716E+03  0.10559420285E+03  0.00000000000E+00 0. -1.
          1    1    1    2  502    0 -0.11569758230E+03 -0.16330043297E+02  0.13036829276E+04  0.13089086204E+04  0.00000000000E+00 0. -1.
         22    1    3    3    0    0  0.32380411563E+02 -0.26747037760E+02  0.50445064821E+02  0.65639924182E+02  0.00000000000E+00 0. -1.
         22    1    3    3    0    0  0.89243785872E+02  0.64162787109E+02 -0.29913383172E+02  0.11391280463E+03  0.00000000000E+00 0. -1.
</event>
<event>
 7    1  0.5789396E-006  0.1251577E+03  0.7818608E-02  0.1299480E+00
          2   -1    0    0  502    0  0.00000000000E+00  0.00000000000E+00  0.60973263184E+02  0.60973263184E+02  0.00000000000E+00 0. -1.
          1   -1    0    0  501    0 -0.00000000000E+00 -0.00000000000E+00 -0.10511369510E+04  0.10511369510E+04  0.00000000000E+00 0. -1.
         25    2    1    2    0    0  0.12034950698E+03 -0.90547345415E+02 -0.70013069285E+03  0.72697370779E+03  0.12499983663E+03 0.  0.
          2    1    1    2  501    0 -0.53913085752E+02  0.97087147439E+02 -0.29789149239E+03  0.31791803385E+03  0.00000000000E+00 0. -1.
          1    1    1    2  502    0 -0.66436421227E+02 -0.65398020242E+01  0.78584973730E+01  0.67218472587E+02  0.00000000000E+00 0. -1.
         22    1    3    3    0    0  0.72247324249E+02 -0.45021607053E+02 -0.14682279192E+03  0.16971609585E+03  0.00000000000E+00 0.  1.
         22    1    3    3    0    0  0.48102182731E+02 -0.45525738362E+02 -0.55330790093E+03  0.55725761194E+03  0.00000000000E+00 0.  1.
</event>
<event>
 7    1  0.5789396E-006  0.1427514E+03  0.7818608E-02  0.1298178E+00
          2   -1    0    0  502    0  0.00000000000E+00  0.00000000000E+00  0.10112573379E+04  0.10112573379E+04  0.00000000000E+00 0. -1.
          1   -1    0    0  501    0 -0.00000000000E+00 -0.00000000000E+00 -0.84243089163E+03  0.84243089163E+03  0.00000000000E+00 0. -1.
         25    2    1    2    0    0  0.15720121335E+03 -0.34029682056E+02  0.15387446784E+03  0.25528432466E+03  0.12498997491E+03 0.  0.
          2    1    1    2  501    0 -0.17291061807E+02  0.56658286778E+02 -0.78437527809E+03  0.78660900018E+03  0.00000000000E+00 0. -1.
          1    1    1    2  502    0 -0.13991015154E+03 -0.22628604722E+02  0.79932725648E+03  0.81179490465E+03  0.00000000000E+00 0. -1.
         22    1    3    3    0    0 -0.13185844485E+02 -0.30118499643E+02  0.19278980611E+02  0.38113903092E+02  0.00000000000E+00 0. -1.
         22    1    3    3    0    0  0.17038705783E+03 -0.39111824126E+01  0.13459548722E+03  0.21717042157E+03  0.00000000000E+00 0. -1.
</event>
<event>
 7    1  0.5789396E-006  0.3885674E+02  0.7818608E-02  0.1547484E+00
          2   -1    0    0  502    0  0.00000000000E+00  0.00000000000E+00  0.49592384631E+02  0.49592384631E+02  0.00000000000E+00 0. -1.
          1   -1    0    0  501    0 -0.00000000000E+00 -0.00000000000E+00 -0.63122686589E+03  0.63122686589E+03  0.00000000000E+00 0. -1.
         25    2    1    2    0    0 -0.19444526457E+00  0.23535350461E+02 -0.14790552844E+03  0.19508048050E+03  0.12500559186E+03 0.  0.
          2    1    1    2  501    0  0.31947689318E+02 -0.23686777704E+02 -0.44882203147E+03  0.45058066339E+03  0.00000000000E+00 0. -1.
          1    1    1    2  502    0 -0.31753244054E+02  0.15142724312E+00  0.15093078657E+02  0.35158106625E+02  0.00000000000E+00 0. -1.
         22    1    3    3    0    0  0.31898345603E+02  0.66373127478E+02 -0.87927745670E+02  0.11469169526E+03  0.00000000000E+00 0.  1.
         22    1    3    3    0    0 -0.32092790867E+02 -0.42837777017E+02 -0.59977782771E+02  0.80388785235E+02  0.00000000000E+00 0.  1.
</event>
<event>
 7    1  0.5789396E-006  0.1092151E+03  0.7818608E-02  0.1262743E+00
          2   -1    0    0  502    0  0.00000000000E+00  0.00000000000E+00  0.79343998028E+03  0.79343998028E+03  0.00000000000E+00 0. -1.
          1   -1    0    0  501    0 -0.00000000000E+00 -0.00000000000E+00 -0.22141165918E+04  0.22141165918E+04  0.00000000000E+00 0. -1.
         25    2    1    2    0    0 -0.13496714463E+03  0.29495346799E+02  0.33477597788E+03  0.38312556931E+03  0.12499656349E+03 0.  0.
          2    1    1    2  501    0  0.47795259302E+02 -0.98201607214E+02 -0.21814648401E+04  0.21841970586E+04  0.00000000000E+00 0. -1.
          1    1    1    2  502    0  0.87171885331E+02  0.68706260415E+02  0.42601225070E+03  0.44023394412E+03  0.00000000000E+00 0. -1.
         22    1    3    3    0    0 -0.10794403762E+03 -0.14561748571E+02  0.11932664534E+03  0.16156363473E+03  0.00000000000E+00 0.  1.
         22    1    3    3    0    0 -0.27023107011E+02  0.44057095370E+02  0.21544933253E+03  0.22156193458E+03  0.00000000000E+00 0.  1.
</event>
<event>
 7    1  0.5789396E-006  0.3591156E+02  0.7818608E-02  0.1608273E+00
          2   -1    0    0  502    0  0.00000000000E+00  0.00000000000E+00  0.13144267518E+04  0.13144267518E+04  0.00000000000E+00 0. -1.
          1   -1    0    0  501    0 -0.00000000000E+00 -0.00000000000E+00 -0.78871227909E+03  0.78871227909E+03  0.00000000000E+00 0. -1.
         25    2    1    2    0    0  0.31279298445E+02  0.43787599824E+02  0.19542249352E+02  0.13749134264E+03  0.12500488543E+03 0.  0.
          2    1    1    2  501    0 -0.95993776844E+01 -0.34519439784E+02 -0.72918537858E+03  0.73006510402E+03  0.00000000000E+00 0. -1.
          1    1    1    2  502    0 -0.21679920761E+02 -0.92681600405E+01  0.12353576019E+04  0.12355825842E+04  0.00000000000E+00 0. -1.
         22    1    3    3    0    0  0.41575201140E+02  0.26286817077E+01 -0.44317046520E+02  0.60822758320E+02  0.00000000000E+00 0.  1.
         22    1    3    3    0    0 -0.10295902695E+02  0.41158918117E+02  0.63859295872E+02  0.76668584323E+02  0.00000000000E+00 0.  1.
</event>
<event>
 7    1  0.5789396E-006  0.4072001E+02  0.7818608E-02  0.1578698E+00
          2   -1    0    0  502    0  0.00000000000E+00  0.00000000000E+00  0.73430648402E+02  0.73430648402E+02  0.00000000000E+00 0. -1.
          1   -1    0    0  501    0 -0.00000000000E+00 -0.00000000000E+00 -0.52008745873E+03  0.52008745873E+03  0.00000000000E+00 0. -1.
         25    2    1    2    0    0 -0.22202964287E+01 -0.57003262626E+02 -0.31007377588E+03  0.33915356940E+03  0.12500038193E+03 0.  0.
          2    1    1    2  501    0 -0.14546082255E+02  0.20185965463E+02 -0.18760644832E+03  0.18924915102E+03  0.00000000000E+00 0. -1.
          1    1    1    2  502    0  0.16766378684E+02  0.36817297163E+02  0.51023413867E+02  0.65115386716E+02  0.00000000000E+00 0. -1.
         22    1    3    3    0    0  0.36640628899E+02 -0.17779494937E+02 -0.22906688452E+02  0.46726464687E+02  0.00000000000E+00 0. -1.
         22    1    3    3    0    0 -0.38860925328E+02 -0.39223767689E+02 -0.28716708743E+03  0.29242710471E+03  0.00000000000E+00 0. -1.
</event>
<event>
 7    1  0.5789396E-006  0.1522719E+03  0.7818608E-02  0.1216830E+00
          2   -1    0    0  502    0  0.00000000000E+00  0.00000000000E+00  0.10214620794E+04  0.10214620794E+04  0.00000000000E+00 0. -1.
          1   -1    0    0  501    0 -0.00000000000E+00 -0.00000000000E+00 -0.38403234801E+03  0.38403234801E+03  0.00000000000E+00 0. -1.
         25    2    1    2    0    0  0.77223902206E+02 -0.17269384324E+02  0.15031911416E+03  0.21091005695E+03  0.12500181333E+03 0.  0.
          2    1    1    2  501    0  0.43575096913E+02 -0.11612721950E+03 -0.33279663065E+03  0.35515900319E+03  0.00000000000E+00 0. -1.
          1    1    1    2  502    0 -0.12079899912E+03  0.13339660382E+03  0.81990724788E+03  0.83942536728E+03  0.00000000000E+00 0. -1.
         22    1    3    3    0    0  0.77764950543E+02 -0.59773490522E+02  0.13241764995E+03  0.16478680687E+03  0.00000000000E+00 0. -1.
         22    1    3    3    0    0 -0.54104833657E+00  0.42504106197E+02  0.17901464215E+02  0.46123250080E+02  0.00000000000E+00 0. -1.
</event>
<event>
 7    1  0.5789396E-006  0.1070372E+03  0.7818608E-02  0.1385698E+00
          2   -1    0    0  502    0  0.00000000000E+00  0.00000000000E+00  0.78870625375E+03  0.78870625375E+03  0.00000000000E+00 0. -1.
          1   -1    0    0  501    0 -0.00000000000E+00 -0.00000000000E+00 -0.17035778511E+03  0.17035778511E+03  0.00000000000E+00 0. -1.
         25    2    1    2    0    0  0.14253235931E+03 -0.40304010763E+01 -0.14182357137E+02  0.19015255401E+03  0.12500054784E+03 0.  0.
          2    1    1    2  501    0 -0.36890615860E+02  0.36228601257E+01 -0.58825473691E+02  0.69530417868E+02  0.00000000000E+00 0. -1.
          1    1    1    2  502    0 -0.10564174345E+03  0.40754095056E+00  0.69135629947E+03  0.69938106699E+03  0.00000000000E+00 0. -1.
         22    1    3    3    0    0  0.80677538443E+02  0.62902881843E+01 -0.69393336848E+02  0.10660144527E+03  0.00000000000E+00 0.  1.
         22    1    3    3    0    0  0.61854820866E+02 -0.10320689261E+02  0.55210979711E+02  0.83551108740E+02  0.00000000000E+00 0.  1.
</event>
<event>
 7    1  0.5789396E-006  0.8229262E+02  0.7818608E-02  0.1441212E+00
          2   -1    0    0  502    0  0.00000000000E+00  0.00000000000E+00  0.14529851582E+04  0.14529851582E+04  0.00000000000E+00 0. -1.
          1   -1    0    0  501    0 -0.00000000000E+00 -0.00000000000E+00 -0.27765100012E+03  0.27765100012E+03  0.00000000000E+00 0. -1.
         25    2    1    2    0    0  0.34700937065E+02 -0.85607247947E+02  0.33543018133E+03  0.36968997635E+03  0.12499806451E+03 0.  0.
          2    1    1    2  501    0 -0.54622800317E+02  0.61430874822E+02 -0.25380673240E+03  0.26678691892E+03  0.00000000000E+00 0. -1.
          1    1    1    2  502    0  0.19921863252E+02  0.24176373125E+02  0.10937107091E+04  0.10941592630E+04  0.00000000000E+00 0. -1.
         22    1    3    3    0    0 -0.13534221558E+02 -0.52465901233E+02  0.37085679602E+02  0.65659679994E+02  0.00000000000E+00 0. -1.
         22    1    3    3    0    0  0.48235158622E+02 -0.33141346714E+02  0.29834450173E+03  0.30403029636E+03  0.00000000000E+00 0. -1.
</event>
<event>
 7    1  0.5789396E-006  0.7559694E+02  0.7818608E-02  0.1459515E+00
          2   -1    0    0  502    0  0.00000000000E+00  0.00000000000E+00  0.49257791622E+03  0.49257791622E+03  0.00000000000E+00 0. -1.
          1   -1    0    0  501    0 -0.00000000000E+00 -0.00000000000E+00 -0.15332967136E+04  0.15332967136E+04  0.00000000000E+00 0. -1.
         25    2    1    2    0    0  0.49585710741E+02 -0.74437728002E+02 -0.84806126293E+02  0.17554022353E+03  0.12499029147E+03 0.  0.
          2    1    1    2  501    0 -0.59475283761E+02  0.46324615739E+02 -0.14016129458E+04  0.14036388885E+04  0.00000000000E+00 0. -1.
          1    1    1    2  502    0  0.98895730200E+01  0.28113112263E+02  0.44570027472E+03  0.44669551780E+03  0.00000000000E+00 0. -1.
         22    1    3    3    0    0  0.90225755121E+02 -0.37657318708E+02 -0.44040315270E+02  0.10723017257E+03  0.00000000000E+00 0.  1.
         22    1    3    3    0    0 -0.40640044380E+02 -0.36780409294E+02 -0.40765811023E+02  0.68310050969E+02  0.00000000000E+00 0.  1.
</event>
<event>
 7    1  0.5789396E-006  0.5169963E+02  0.7818608E-02  0.1445855E+00
          2   -1    0    0  502    0  0.00000000000E+00  0.00000000000E+00  0.57256348052E+02  0.57256348052E+02  0.00000000000E+00 0. -1.
          1   -1    0    0  501    0 -0.00000000000E+00 -0.00000000000E+00 -0.14058235026E+04  0.14058235026E+04  0.00000000000E+00 0. -1.
         25    2    1    2    0    0 -0.16692391614E+02 -0.25723002618E+01 -0.81534757192E+03  0.82504670057E+03  0.12500056964E+03 0.  0.
          2    1    1    2  501    0  0.64864228927E+02  0.23393199913E+01 -0.57232042981E+03  0.57598916221E+03  0.00000000000E+00 0. -1.
          1    1    1    2  502    0 -0.48171837313E+02  0.23298027053E+00  0.39100847136E+02  0.62043987917E+02  0.00000000000E+00 0. -1.
         22    1    3    3    0    0 -0.35313214673E+02  0.25315220655E+02 -0.10146197215E+03  0.11037397936E+03  0.00000000000E+00 0. -1.
         22    1    3    3    0    0  0.18620823059E+02 -0.27887520917E+02 -0.71388559977E+03  0.71467272120E+03  0.00000000000E+00 0. -1.
</event>
<event>
 7    1  0.5789396E-006  0.4796177E+02  0.7818608E-02  0.1510638E+00
          2   -1    0    0  502    0  0.00000000000E+00  0.00000000000E+00  0.97523545660E+03  0.97523545660E+03  0.00000000000E+00 0. -1.
          1   -1    0    0  501    0 -0.00000000000E+00 -0.00000000000E+00 -0.24533776684E+03  0.24533776684E+03  0.00000000000E+00 0. -1.
         25    2    1    2    0    0 -0.29603329251E+02 -0.54753507377E+02  0.10187351923E+03  0.17284949628E+03  0.12499772307E+03 0.  0.
          2    1    1    2  501    0 -0.11737839859E+02  0.30644199632E+02 -0.20787827271E+03  0.21045241771E+03  0.00000000000E+00 0. -1.
          1    1    1    2  502    0  0.41341169110E+02  0.24109307745E+02  0.83590244325E+03  0.83727130944E+03  0.00000000000E+00 0. -1.
         22    1    3    3    0    0 -0.73819543489E+02 -0.51530607105E+02  0.89215425394E+02  0.12674431189E+03  0.00000000000E+00 0.  1.
         22    1    3    3    0    0  0.44216214238E+02 -0.32229002724E+01  0.12658093834E+02  0.46105184385E+02  0.00000000000E+00 0.  1.
</event>
<event>
 7    1  0.5789396E-006  0.8585086E+02  0.7818608E-02  0.1370153E+00
          2   -1    0    0  502    0  0.00000000000E+00  0.00000000000E+00  0.19722562092E+04  0.19722562092E+04  0.00000000000E+00 0. -1.
          1   -1    0    0  501    0 -0.00000000000E+00 -0.00000000000E+00 -0.59092731471E+02  0.59092731471E+02  0.00000000000E+00 0. -1.
         25    2    1    2    0    0 -0.12896601568E+03 -0.26996370063E+02  0.21162939542E+03  0.27887761921E+03  0.12499875318E+03 0.  0.
          2    1    1    2  501    0  0.51913647441E+02 -0.77097411484E+01  0.37839560438E+01  0.52619247643E+02  0.00000000000E+00 0. -1.
          1    1    1    2  502    0  0.77052368241E+02  0.34706111212E+02  0.16977501262E+04  0.16998520738E+04  0.00000000000E+00 0. -1.
         22    1    3    3    0    0 -0.83540713466E+02  0.28212153613E+02  0.18052821680E+03  0.20091145681E+03  0.00000000000E+00 0. -1.
         22    1    3    3    0    0 -0.45425302216E+02 -0.55208523676E+02  0.31101178616E+02  0.77966162399E+02  0.00000000000E+00 0. -1.
</event>
<event>
 7    1  0.5789396E-006  0.1304733E+03  0.7818608E-02  0.1394489E+00
          2   -1    0    0  502    0  0.00000000000E+00  0.00000000000E+00  0.57869976606E+03  0.57869976606E+03  0.00000000000E+00 0. -1.
          1   -1    0    0  501    0 -0.00000000000E+00 -0.00000000000E+00 -0.23446151113E+03  0.23446151113E+03  0.00000000000E+00 0. -1.
         25    2    1    2    0    0 -0.29601379689E+02 -0.10777722431E+03  0.20054455547E+03  0.26141072502E+03  0.12500110667E+03 0.  0.
          2    1    1    2  501    0  0.14218464861E+02  0.13157437131E+03 -0.18188790481E+03  0.22493819116E+03  0.00000000000E+00 0. -1.
          1    1    1    2  502    0  0.15382914827E+02 -0.23797147003E+02  0.32558160426E+03  0.32681236101E+03  0.00000000000E+00 0. -1.
         22    1    3    3    0    0 -0.51602975359E+02 -0.81253299648E+02  0.52972533890E+02  0.10986835357E+03  0.00000000000E+00 0.  1.
         22    1    3    3    0    0  0.22001595671E+02 -0.26523924659E+02  0.14757202158E+03  0.15154237145E+03  0.00000000000E+00 0.  1.
</event>
<event>
 7    1  0.5789396E-006  0.1375768E+03  0.7818608E-02  0.1268690E+00
          2   -1    0    0  502    0  0.00000000000E+00  0.00000000000E+00  0.57160206672E+03  0.57160206672E+03  0.00000000000E+00 0. -1.
          1   -1    0    0  501    0 -0.00000000000E+00 -0.00000000000E+00 -0.54094425552E+03  0.54094425552E+03  0.00000000000E+00 0. -1.
         25    2    1    2    0    0 -0.16508731698E+03 -0.58769837471E+02  0.70329037934E+02  0.22644788955E+03  0.12499902832E+03 0.  0.
          2    1    1    2  501    0  0.31516341725E+02  0.74892402325E+02 -0.44844827989E+03  0.45574994400E+03  0.00000000000E+00 0. -1.
          1    1    1    2  502    0  0.13357097525E+03 -0.16122564854E+02  0.40877705316E+03  0.43034848869E+03  0.00000000000E+00 0. -1.
         22    1    3    3    0    0 -0.46588325071E+02 -0.81124013849E+02  0.42167239222E+02  0.10261410098E+03  0.00000000000E+00 0.  1.
         22    1    3    3    0    0 -0.11849899191E+03  0.22354176378E+02  0.28161798711E+02  0.12383378857E+03  0.00000000000E+00 0.  1.
</event>
<event>
 7    1  0.5789396E-006  0.7928491E+02  0.7818608E-02  0.1346580E+00
          2   -1    0    0  502    0  0.00000000000E+00  0.00000000000E+00  0.13606271171E+03  0.13606271171E+03  0.00000000000E+00 0. -1.
          1   -1    0    0  501    0 -0.00000000000E+00 -0.00000000000E+00 -0.47043014274E+03  0.47043014274E+03  0.00000000000E+00 0. -1.
         25    2    1    2    0    0  0.25487010038E+02 -0.67364682646E+02 -0.12180640061E+03  0.18880996578E+03  0.12499926320E+03 0.  0.
          2    1    1    2  501    0  0.54030098681E+02  0.43418686221E+02 -0.29358726909E+03  0.30165861242E+03  0.00000000000E+00 0. -1.
          1    1    1    2  502    0 -0.79517108719E+02  0.23945996425E+02  0.81026238673E+02  0.11602427624E+03  0.00000000000E+00 0. -1.
         22    1    3    3    0    0  0.29243990564E+02 -0.22309102850E+02  0.18661589373E+02  0.41245144830E+02  0.00000000000E+00 0. -1.
         22    1    3    3    0    0 -0.37569805264E+01 -0.45055579796E+02 -0.14046798998E+03  0.14756482095E+03  0.00000000000E+00 0. -1.
</event>
<event>
 7    1  0.5789396E-006  0.7285902E+02  0.7818608E-02  0.1394314E+00
          2   -1    0    0  502    0  0.00000000000E+00  0.00000000000E+00  0.17858820915E+04  0.17858820915E+04  0.00000000000E+00 0. -1.
          1   -1    0    0  501    0 -0.00000000000E+00 -0.00000000000E+00 -0.93099017239E+02  0.93099017239E+02  0.00000000000E+00 0. -1.
         25    2    1    2    0    0  0.79931921679E+02  0.90461219077E+02  0.26921179249E+03  0.32042167686E+03  0.12499086976E+03 0.  0.
          2    1    1    2  501    0 -0.46258610014E+02 -0.52406218976E+02 -0.48838612949E+02  0.85272978736E+02  0.00000000000E+00 0. -1.
          1    1    1    2  502    0 -0.33673311665E+02 -0.38055000101E+02  0.14724098947E+04  0.14732864531E+04  0.00000000000E+00 0. -1.
         22    1    3    3    0    0  0.10914886694E+03  0.94356103844E+02  0.22496927480E+03  0.26725965669E+03  0.00000000000E+00 0. -1.
         22    1    3    3    0    0 -0.29216945257E+02 -0.38948847669E+01  0.44242517689E+02  0.53162020174E+02  0.00000000000E+00 0. -1.
</event>
<event>
 7    1  0.5789396E-006  0.6737627E+02  0.7818608E-02  0.1463430E+00
          2   -1    0    0  502    0  0.00000000000E+00  0.00000000000E+00  0.24417210316E+03  0.24417210316E+03  0.00000000000E+00 0. -1.
          1   -1    0    0  501    0 -0.00000000000E+00 -0.00000000000E+00 -0.27108403788E+03  0.27108403788E+03  0.00000000000E+00 0. -1.
         25    2    1    2    0    0  0.68187792643E+02 -0.22779786296E+02 -0.35529461444E+02  0.14851182010E+03  0.12499969740E+03 0.  0.
          2    1    1    2  501    0 -0.13324204069E+01  0.32475031187E+02 -0.17140736879E+03  0.17446171233E+03  0.00000000000E+00 0. -1.
          1    1    1    2  502    0 -0.66855372236E+02 -0.96952448912E+01  0.18002489551E+03  0.19228260861E+03  0.00000000000E+00 0. -1.
         22    1    3    3    0    0  0.46077050721E+02 -0.30074400808E+02 -0.80711994676E+02  0.97683111496E+02  0.00000000000E+00 0. -1.
         22    1    3    3    0    0  0.22110741922E+02  0.72946145117E+01  0.45182533232E+02  0.50828708605E+02  0.00000000000E+00 0. -1.
</event>
<event>
 7    1  0.5789396E-006  0.1228042E+03  0.7818608E-02  0.1386999E+00
          2   -1    0    0  502    0  0.00000000000E+00  0.00000000000E+00  0.27610412408E+04  0.27610412408E+04  0.00000000000E+00 0. -1.
          1   -1    0    0  501    0 -0.00000000000E+00 -0.00000000000E+00 -0.63533801953E+02  0.63533801953E+02  0.00000000000E+00 0. -1.
         25    2    1    2    0    0  0.14522731478E+03 -0.24388048000E+02  0.28826028182E+03  0.34699238612E+03  0.12499590436E+03 0.  0.
          2    1    1    2  501    0 -0.11375134972E+03  0.18783662776E+02  0.63509125591E+02  0.13162676241E+03  0.00000000000E+00 0. -1.
          1    1    1    2  502    0 -0.31475965059E+02  0.56043852242E+01  0.23457380314E+04  0.23459558942E+04  0.00000000000E+00 0. -1.
         22    1    3    3    0    0  0.14830580506E+03  0.80191370174E+00  0.28516691983E+03  0.32142717222E+03  0.00000000000E+00 0.  1.
         22    1    3    3    0    0 -0.30784902841E+01 -0.25189961701E+02  0.30933619928E+01  0.25565213893E+02  0.00000000000E+00 0.  1.
</event>
<event>
 7    1  0.5789396E-006  0.7241207E+02  0.7818608E-02  0.1416416E+00
          2   -1    0    0  502    0  0.00000000000E+00  0.00000000000E+00  0.10516195605E+04  0.10516195605E+04  0.00000000000E+00 0. -1.
          1   -1    0    0  501    0 -0.00000000000E+00 -0.00000000000E+00 -0.44807019999E+03  0.44807019999E+03  0.00000000000E+00 0. -1.
         25    2    1    2    0    0  0.61335177474E+02 -0.96691715284E+02 -0.98249969641E+02  0.19594619901E+03  0.12502225631E+03 0.  0.
          2    1    1    2  501    0 -0.18397265274E+02  0.38841411336E+02 -0.29813520420E+03  0.30121705561E+03  0.00000000000E+00 0. -1.
          1    1    1    2  502    0 -0.42937912200E+02  0.57850303948E+02  0.99993453432E+03  0.10025265058E+04  0.00000000000E+00 0. -1.
         22    1    3    3    0    0  0.13180002943E+02 -0.17299625297E+02 -0.10073712997E+03  0.10305803640E+03  0.00000000000E+00 0.  1.
         22    1    3    3    0    0  0.48155174531E+02 -0.79392089987E+02  0.24871603260E+01  0.92888162610E+02  0.00000000000E+00 0.  1.
</event>
<event>
 7    1  0.5789396E-006  0.2068275E+03  0.7818608E-02  0.1323027E+00
          2   -1    0    0  502    0  0.00000000000E+00  0.00000000000E+00  0.31325540575E+03  0.31325540575E+03  0.00000000000E+00 0. -1.
          1   -1    0    0  501    0 -0.00000000000E+00 -0.00000000000E+00 -0.90722119021E+03  0.90722119021E+03  0.00000000000E+00 0. -1.
         25    2    1    2    0    0 -0.57630089944E+02 -0.21321335714E+03  0.52741410355E+02  0.25920590894E+03  0.12499953574E+03 0.  0.
          2    1    1    2  501    0  0.26286330976E+02  0.20411191006E+03 -0.78894068699E+03  0.81534045074E+03  0.00000000000E+00 0. -1.
          1    1    1    2  502    0  0.31343758969E+02  0.91014470799E+01  0.14223349217E+03  0.14593023628E+03  0.00000000000E+00 0. -1.
         22    1    3    3    0    0  0.33804014165E+02 -0.56294550973E+02 -0.11303618287E+02  0.66630020481E+02  0.00000000000E+00 0. -1.
         22    1    3    3    0    0 -0.91434104110E+02 -0.15691880617E+03  0.64045028642E+02  0.19257588846E+03  0.00000000000E+00 0. -1.
</event>
<event>
 7    1  0.5789396E-006  0.9407722E+02  0.7818608E-02  0.1410810E+00
          2   -1    0    0  502    0  0.00000000000E+00  0.00000000000E+00  0.26229293741E+04  0.26229293741E+04  0.00000000000E+00 0. -1.
          1   -1    0    0  501    0 -0.00000000000E+00 -0.00000000000E+00 -0.78256943353E+02  0.78256943353E+02  0.00000000000E+00 0. -1.
         25    2    1    2    0    0  0.51209716863E+02 -0.80739652530E+02  0.13010188802E+04  0.13105019446E+04  0.12499557394E+03 0.  0.
          2    1    1    2  501    0 -0.18655936604E+02  0.92318911601E+02 -0.43021475584E+02  0.10354551063E+03  0.00000000000E+00 0. -1.
          1    1    1    2  502    0 -0.32553780259E+02 -0.11579259072E+02  0.12866750261E+04  0.12871388622E+04  0.00000000000E+00 0. -1.
         22    1    3    3    0    0 -0.41743571797E+01 -0.45889063648E+02  0.10526338519E+04  0.10536419020E+04  0.00000000000E+00 0. -1.
         22    1    3    3    0    0  0.55384074043E+02 -0.34850588882E+02  0.24838502828E+03  0.25686004259E+03  0.00000000000E+00 0. -1.
</event>
<event>
 7    1  0.5789396E-006  0.9810423E+02  0.7818608E-02  0.1327811E+00
          2   -1    0    0  502    0  0.00000000000E+00  0.00000000000E+00  0.14426930729E+04  0.14426930729E+04  0.00000000000E+00 0. -1.
          1   -1    0    0  501    0 -0.00000000000E+00 -0.00000000000E+00 -0.38991638819E+03  0.38991638819E+03  0.00000000000E+00 0. -1.
         25    2    1    2    0    0  0.78677258678E+02 -0.90635570457E+02 -0.18027586434E+03  0.25005940350E+03  0.12500160139E+03 0.  0.
          2    1    1    2  501    0 -0.12815887516E+02  0.94137776463E+02 -0.16099815601E+03  0.18694002827E+03  0.00000000000E+00 0. -1.
          1    1    1    2  502    0 -0.65861371163E+02 -0.35022060060E+01  0.13940507051E+04  0.13956100294E+04  0.00000000000E+00 0. -1.
         22    1    3    3    0    0 -0.19010153561E+02  0.18004207389E+02 -0.18399831386E+02  0.32001425236E+02  0.00000000000E+00 0. -1.
         22    1    3    3    0    0  0.97687412239E+02 -0.10863977785E+03 -0.16187603295E+03  0.21805797827E+03  0.00000000000E+00 0. -1.
</event>
<event>
 7    1  0.5789396E-006  0.9902452E+02  0.7818608E-02  0.1330125E+00
          2   -1    0    0  502    0  0.00000000000E+00  0.00000000000E+00  0.24705940920E+04  0.24705940920E+04  0.00000000000E+00 0. -1.
          1   -1    0    0  501    0 -0.00000000000E+00 -0.00000000000E+00 -0.58607961448E+02  0.58607961448E+02  0.00000000000E+00 0. -1.
         25    2    1    2    0    0 -0.10082069790E+03  0.12445204517E+03  0.17102431375E+04  0.17222684492E+04  0.12499558805E+03 0.  0.
          2    1    1    2  501    0  0.53375154520E+02 -0.81465712459E+02 -0.47844664732E+01  0.97511335474E+02  0.00000000000E+00 0. -1.
          1    1    1    2  502    0  0.47445543377E+02 -0.42986332708E+02  0.70652745953E+03  0.70942226879E+03  0.00000000000E+00 0. -1.
         22    1    3    3    0    0 -0.69336906634E+02  0.33969817944E+02  0.12380089325E+04  0.12404143147E+04  0.00000000000E+00 0.  1.
         22    1    3    3    0    0 -0.31483791263E+02  0.90482227223E+02  0.47223420502E+03  0.48185413451E+03  0.00000000000E+00 0.  1.
</event>
<event>
 7    1  0.5789396E-006  0.4439519E+02  0.7818608E-02  0.1527247E+00
          2   -1    0    0  502    0  0.00000000000E+00  0.00000000000E+00  0.29797899160E+03  0.29797899160E+03  0.00000000000E+00 0. -1.
          1   -1    0    0  501    0 -0.00000000000E+00 -0.00000000000E+00 -0.92710881088E+02  0.92710881088E+02  0.00000000000E+00 0. -1.
         25    2    1    2    0    0  0.12069374163E+02 -0.20531242329E+02  0.24199886984E+02  0.12953495210E+03  0.12500587019E+03 0.  0.
          2    1    1    2  501    0  0.31151685145E+02  0.59782356841E+01 -0.30931771232E+02  0.44305092944E+02  0.00000000000E+00 0. -1.
          1    1    1    2  502    0 -0.43221059308E+02  0.14553006645E+02  0.21199999476E+03  0.21684982764E+03  0.00000000000E+00 0. -1.
         22    1    3    3    0    0  0.51435060839E+01 -0.18215473968E+02 -0.50783829268E+02  0.54196461709E+02  0.00000000000E+00 0. -1.
         22    1    3    3    0    0  0.69258680795E+01 -0.23157683616E+01  0.74983716252E+02  0.75338490393E+02  0.00000000000E+00 0. -1.
</event>
<event>
 7    1  0.5789396E-006  0.5920368E+02  0.7818608E-02  0.1499727E+00
          2   -1    0    0  502    0  0.00000000000E+00  0.00000000000E+00  0.11622412721E+03  0.11622412721E+03  0.00000000000E+00 0. -1.
          1   -1    0    0  501    0 -0.00000000000E+00 -0.00000000000E+00 -0.15147104085E+04  0.15147104085E+04  0.00000000000E+00 0. -1.
         25    2    1    2    0    0 -0.45068906594E+02  0.33822983998E+02 -0.14489746443E+02  0.13787687650E+03  0.12499951893E+03 0.  0.
          2    1    1    2  501    0  0.24669925493E+02 -0.53924133716E+02 -0.14341114712E+04  0.14353369393E+04  0.00000000000E+00 0. -1.
          1    1    1    2  502    0  0.20398981101E+02  0.20101149718E+02  0.50114936420E+02  0.57720719870E+02  0.00000000000E+00 0. -1.
         22    1    3    3    0    0 -0.25754970320E+02 -0.44287947794E+01 -0.65933732011E+02  0.70923830525E+02  0.00000000000E+00 0.  1.
         22    1    3    3    0    0 -0.19313936274E+02  0.38251778777E+02  0.51443985568E+02  0.66953045973E+02  0.00000000000E+00 0.  1.
</event>
<event>
 7    1  0.5789396E-006  0.7611701E+02  0.7818608E-02  0.1383221E+00
          2   -1    0    0  502    0  0.00000000000E+00  0.00000000000E+00  0.10581115128E+04  0.10581115128E+04  0.00000000000E+00 0. -1.
          1   -1    0    0  501    0 -0.00000000000E+00 -0.00000000000E+00 -0.47150683420E+02  0.47150683420E+02  0.00000000000E+00 0. -1.
         25    2    1    2    0    0  0.82183581348E+02  0.32343821377E+01  0.47451854803E+03  0.49755055010E+03  0.12499638077E+03 0.  0.
          2    1    1    2  501    0 -0.61885408024E+02  0.45922058317E+02  0.89902193203E+01  0.77585199683E+02  0.00000000000E+00 0. -1.
          1    1    1    2  502    0 -0.20298173324E+02 -0.49156440455E+02  0.52745206205E+03  0.53012644646E+03  0.00000000000E+00 0. -1.
         22    1    3    3    0    0  0.66516216381E+02 -0.47399523264E+02  0.17180188501E+03  0.19022883467E+03  0.00000000000E+00 0. -1.
         22    1    3    3    0    0  0.15667364966E+02  0.50633905402E+02  0.30271666303E+03  0.30732171543E+03  0.00000000000E+00 0. -1.
</event>
<event>
 7    1  0.5789396E-006  0.5975751E+02  0.7818608E-02  0.1541382E+00
          2   -1    0    0  502    0  0.00000000000E+00  0.00000000000E+00  0.11753264336E+04  0.11753264336E+04  0.00000000000E+00 0. -1.
          1   -1    0    0  501    0 -0.00000000000E+00 -0.00000000000E+00 -0.36833988280E+03  0.36833988280E+03  0.00000000000E+00 0. -1.
         25    2    1    2    0    0  0.30813733872E+02  0.35694604637E+02  0.54240230261E+02  0.14419258843E+03  0.12500363588E+03 0.  0.
          2    1    1    2  501    0 -0.22888061269E+02 -0.55657879628E+02 -0.32045532168E+03  0.32605716693E+03  0.00000000000E+00 0. -1.
          1    1    1    2  502    0 -0.79256726032E+01  0.19963274991E+02  0.10732016422E+04  0.10734165610E+04  0.00000000000E+00 0. -1.
         22    1    3    3    0    0  0.64138102642E+02  0.60308568727E+02  0.52967157213E+02  0.10274404808E+03  0.00000000000E+00 0. -1.
         22    1    3    3    0    0 -0.33324368770E+02 -0.24613964090E+02  0.12730730487E+01  0.41448540350E+02  0.00000000000E+00 0. -1.
</event>
<event>
 7    1  0.5789396E-006  0.3390641E+03  0.7818608E-02  0.1228878E+00
          2   -1    0    0  502    0  0.00000000000E+00  0.00000000000E+00  0.12056923038E+04  0.12056923038E+04  0.00000000000E+00 0. -1.
          1   -1    0    0  501    0 -0.00000000000E+00 -0.00000000000E+00 -0.10252608190E+04  0.10252608190E+04  0.00000000000E+00 0. -1.
         25    2    1    2    0    0  0.97574870284E+02  0.28151850572E+03  0.49166595501E+03  0.58833111526E+03  0.12499826195E+03 0.  0.
          2    1    1    2  501    0 -0.88324135723E+02 -0.32975377585E+03 -0.94612808406E+03  0.10058315252E+04  0.00000000000E+00 0. -1.
          1    1    1    2  502    0 -0.92507345613E+01  0.48235270132E+02  0.63489361394E+03  0.63679048234E+03  0.00000000000E+00 0. -1.
         22    1    3    3    0    0  0.32019469967E+01  0.18120282783E+03  0.32505184809E+03  0.37216047779E+03  0.00000000000E+00 0. -1.
         22    1    3    3    0    0  0.94372923288E+02  0.10031567789E+03  0.16661410692E+03  0.21617063747E+03  0.00000000000E+00 0. -1.
</event>
<event>
 7    1  0.5789396E-006  0.5858700E+02  0.7818608E-02  0.1427927E+00
          2   -1    0    0  502    0  0.00000000000E+00  0.00000000000E+00  0.18565612025E+04  0.18565612025E+04  0.00000000000E+00 0. -1.
          1   -1    0    0  501    0 -0.00000000000E+00 -0.00000000000E+00 -0.17743167730E+02  0.17743167730E+02  0.00000000000E+00 0. -1.
         25    2    1    2    0    0  0.47164409137E+02 -0.11620227460E+02  0.74621006915E+03  0.75816599085E+03  0.12500676464E+03 0.  0.
          2    1    1    2  501    0  0.34153652449E+01  0.48512758693E+02  0.43756174843E+02  0.65419838831E+02  0.00000000000E+00 0. -1.
          1    1    1    2  502    0 -0.50579774382E+02 -0.36892531233E+02  0.10488517908E+04  0.10507185406E+04  0.00000000000E+00 0. -1.
         22    1    3    3    0    0  0.89503822860E+02 -0.45459618018E+01  0.55565461632E+03  0.56283536911E+03  0.00000000000E+00 0. -1.
         22    1    3    3    0    0 -0.42339413723E+02 -0.70742656585E+01  0.19055545283E+03  0.19533062175E+03  0.00000000000E+00 0. -1.
</event>
<event>
 7    1  0.5789396E-006  0.3311937E+02  0.7818608E-02  0.1590996E+00
          2   -1    0    0  502    0  0.00000000000E+00  0.00000000000E+00  0.17931038000E+04  0.17931038000E+04  0.00000000000E+00 0. -1.
          1   -1    0    0  501    0 -0.00000000000E+00 -0.00000000000E+00 -0.57098273776E+01  0.57098273776E+01  0.00000000000E+00 0. -1.
         25    2    1    2    0    0  0.27091223441E+01 -0.28255709456E+02  0.97405595408E+03  0.98245305700E+03  0.12499313210E+03 0.  0.
          2    1    1    2  501    0  0.28982128713E+02  0.18635056230E+02  0.52436148180E+03  0.52549233363E+03  0.00000000000E+00 0. -1.
          1    1    1    2  502    0 -0.31691251057E+02  0.96206532263E+01  0.28897653675E+03  0.29086823676E+03  0.00000000000E+00 0. -1.
         22    1    3    3    0    0  0.27918224105E+02 -0.70917364335E+02  0.67912295824E+03  0.68338619551E+03  0.00000000000E+00 0. -1.
         22    1    3    3    0    0 -0.25209101761E+02  0.42661654879E+02  0.29493299584E+03  0.29906686149E+03  0.00000000000E+00 0. -1.
</event>
<event>
 7    1  0.5789396E-006  0.6439308E+02  0.7818608E-02  0.1439218E+00
          2   -1    0    0  502    0  0.00000000000E+00  0.00000000000E+00  0.22335707588E+03  0.22335707588E+03  0.00000000000E+00 0. -1.
          1   -1    0    0  501    0 -0.00000000000E+00 -0.00000000000E+00 -0.13948613360E+03  0.13948613360E+03  0.00000000000E+00 0. -1.
         25    2    1    2    0    0 -0.72086913610E+02  0.30154576312E+02  0.13113905499E+03  0.19730480315E+03  0.12500364801E+03 0.  0.
          2    1    1    2  501    0  0.37763110885E+02 -0.51906758497E+02 -0.87390925193E+02  0.10843218124E+03  0.00000000000E+00 0. -1.
          1    1    1    2  502    0  0.34323802726E+02  0.21752182185E+02  0.40122812475E+02  0.57106225092E+02  0.00000000000E+00 0. -1.
         22    1    3    3    0    0 -0.26802461983E+02 -0.44939635396E+02  0.20666659056E+02  0.56258809039E+02  0.00000000000E+00 0.  1.
         22    1    3    3    0    0 -0.45284451627E+02  0.75094211708E+02  0.11047239594E+03  0.14104599411E+03  0.00000000000E+00 0.  1.
</event>
<event>
 7    1  0.5789396E-006  0.1237294E+03  0.7818608E-02  0.1307146E+00
          2   -1    0    0  502    0  0.00000000000E+00  0.00000000000E+00  0.23236800128E+03  0.23236800128E+03  0.00000000000E+00 0. -1.
          1   -1    0    0  501    0 -0.00000000000E+00 -0.00000000000E+00 -0.14325510563E+04  0.14325510563E+04  0.00000000000E+00 0. -1.
         25    2    1    2    0    0 -0.77776358627E+02  0.61652340144E+01  0.40838668433E+02  0.15290738794E+03  0.12500280147E+03 0.  0.
          2    1    1    2  501    0  0.10977962430E+03 -0.60366353200E+02 -0.13661823785E+04  0.13719147036E+04  0.00000000000E+00 0. -1.
          1    1    1    2  502    0 -0.32003265670E+02  0.54201119186E+02  0.12516065505E+03  0.14009696609E+03  0.00000000000E+00 0. -1.
         22    1    3    3    0    0 -0.19355316397E+02  0.58703246507E+02  0.41293305720E+02  0.74335970570E+02  0.00000000000E+00 0.  1.
         22    1    3    3    0    0 -0.58421042230E+02 -0.52538012493E+02 -0.45463728666E+00  0.78571417367E+02  0.00000000000E+00 0.  1.
</event>
<event>
 7    1  0.5789396E-006  0.5312998E+02  0.7818608E-02  0.1460469E+00
          2   -1    0    0  502    0  0.00000000000E+00  0.00000000000E+00  0.31910049866E+04  0.31910049866E+04  0.00000000000E+00 0. -1.
          1   -1    0    0  501    0 -0.00000000000E+00 -0.00000000000E+00 -0.92205091915E+02  0.92205091915E+02  0.00000000000E+00 0. -1.
         25    2    1    2    0    0 -0.86808230927E+01 -0.89141763414E+02  0.12934800146E+04  0.13025889417E+04  0.12500316906E+03 0.  0.
          2    1    1    2  501    0 -0.79216386441E+01  0.41359264319E+02 -0.82234172764E+02  0.92389394814E+02  0.00000000000E+00 0. -1.
          1    1    1    2  502    0  0.16602461737E+02  0.47782499094E+02  0.18875540528E+04  0.18882317420E+04  0.00000000000E+00 0. -1.
         22    1    3    3    0    0 -0.58277504449E+02 -0.71132529049E+02  0.58894441128E+03  0.59608021591E+03  0.00000000000E+00 0.  1.
         22    1    3    3    0    0  0.49596681356E+02 -0.18009234365E+02  0.70453560330E+03  0.70650872581E+03  0.00000000000E+00 0.  1.
</event>
<event>
 7    1  0.5789396E-006  0.2015133E+03  0.7818608E-02  0.1207791E+00
          2   -1    0    0  502    0  0.00000000000E+00  0.00000000000E+00  0.26316123302E+04  0.26316123302E+04  0.00000000000E+00 0. -1.
          1   -1    0    0  501    0 -0.00000000000E+00 -0.00000000000E+00 -0.56605376821E+02  0.56605376821E+02  0.00000000000E+00 0. -1.
         25    2    1    2    0    0 -0.16027970630E+03 -0.30214717557E+02  0.52430086443E+03  0.56313255976E+03  0.12499748002E+03 0.  0.
          2    1    1    2  501    0  0.22988760091E+03 -0.45952422723E+02  0.35004831402E+03  0.42130007875E+03  0.00000000000E+00 0. -1.
          1    1    1    2  502    0 -0.69607894614E+02  0.76167140279E+02  0.17006577750E+04  0.17037850685E+04  0.00000000000E+00 0. -1.
         22    1    3    3    0    0 -0.11366468711E+02 -0.51863762267E+02  0.10527493912E+03  0.11790614595E+03  0.00000000000E+00 0.  1.
         22    1    3    3    0    0 -0.14891323759E+03  0.21649044710E+02  0.41902592531E+03  0.44522641380E+03  0.00000000000E+00 0.  1.
</event>
<event>
 7    1  0.5789396E-006  0.1151727E+03  0.7818608E-02  0.1329759E+00
          2   -1    0    0  502    0  0.00000000000E+00  0.00000000000E+00  0.30052259965E+04  0.30052259965E+04  0.00000000000E+00 0. -1.
          1   -1    0    0  501    0 -0.00000000000E+00 -0.00000000000E+00 -0.16245644956E+04  0.16245644956E+04  0.00000000000E+00 0. -1.
         25    2    1    2    0    0  0.56532856073E+02  0.16058555650E+03  0.74612346193E+03  0.77544499383E+03  0.12502413060E+03 0.  0.
          2    1    1    2  501    0 -0.37890409621E+02 -0.10860402698E+03 -0.16075087475E+04  0.16116187177E+04  0.00000000000E+00 0. -1.
          1    1    1    2  502    0 -0.18642446453E+02 -0.51981529520E+02  0.22420467864E+04  0.22427267807E+04  0.00000000000E+00 0. -1.
         22    1    3    3    0    0  0.69426269117E+02  0.17235625351E+03  0.72285574097E+03  0.74635588509E+03  0.00000000000E+00 0. -1.
         22    1    3    3    0    0 -0.12893413043E+02 -0.11770697007E+02  0.23267720968E+02  0.29089108735E+02  0.00000000000E+00 0. -1.
</event>
<event>
 7    1  0.5789396E-006  0.1085939E+03  0.7818608E-02  0.1266314E+00
          2   -1    0    0  502    0  0.00000000000E+00  0.00000000000E+00  0.95376794495E+03  0.95376794495E+03  0.00000000000E+00 0. -1.
          1   -1    0    0  501    0 -0.00000000000E+00 -0.00000000000E+00 -0.16339970636E+04  0.16339970636E+04  0.00000000000E+00 0. -1.
         25    2    1    2    0    0  0.61017704305E+02 -0.23320456540E+02 -0.13114530640E+03  0.19262867016E+03  0.12505882314E+03 0.  0.
          2    1    1    2  501    0  0.13728783775E+02  0.10444361679E+03 -0.14669188673E+04  0.14706964037E+04  0.00000000000E+00 0. -1.
          1    1    1    2  502    0 -0.74746488080E+02 -0.81123160251E+02  0.91783505505E+03  0.92443993471E+03  0.00000000000E+00 0. -1.
         22    1    3    3    0    0  0.41580711488E+02  0.25463582598E+01  0.13978826467E+02  0.43941405276E+02  0.00000000000E+00 0.  1.
         22    1    3    3    0    0  0.19436992817E+02 -0.25866814799E+02 -0.14512413287E+03  0.14868726488E+03  0.00000000000E+00 0.  1.
</event>
<event>
 7    1  0.5789396E-006  0.8728913E+02  0.7818608E-02  0.1330419E+00
          2   -1    0    0  502    0  0.00000000000E+00  0.00000000000E+00  0.11320944814E+04  0.11320944814E+04  0.00000000000E+00 0. -1.
          1   -1    0    0  501    0 -0.00000000000E+00 -0.00000000000E+00 -0.21740244116E+03  0.21740244116E+03  0.00000000000E+00 0. -1.
         25    2    1    2    0    0  0.15547556604E+03 -0.27226177895E+02  0.70374971882E+03  0.73198534011E+03  0.12499981999E+03 0.  0.
          2    1    1    2  501    0 -0.86162922949E+02  0.61624986227E+01 -0.19071892236E+03  0.20936984747E+03  0.00000000000E+00 0. -1.
          1    1    1    2  502    0 -0.69312643088E+02  0.21063679273E+02  0.40166124376E+03  0.40814173495E+03  0.00000000000E+00 0. -1.
         22    1    3    3    0    0  0.55346543236E+02  0.15963534077E+02  0.47603323264E+03  0.47950569636E+03  0.00000000000E+00 0. -1.
         22    1    3    3    0    0  0.10012902280E+03 -0.43189711972E+02  0.22771648618E+03  0.25247964375E+03  0.00000000000E+00 0. -1.
</event>
<event>
 7    1  0.5789396E-006  0.1698639E+03  0.7818608E-02  0.1260363E+00
          2   -1    0    0  502    0  0.00000000000E+00  0.00000000000E+00  0.21315937219E+04  0.21315937219E+04  0.00000000000E+00 0. -1.
          1   -1    0    0  501    0 -0.00000000000E+00 -0.00000000000E+00 -0.14797141354E+04  0.14797141354E+04  0.00000000000E+00 0. -1.
         25    2    1    2    0    0  0.63189562524E+02  0.14507763188E+03  0.60187211973E+03  0.63475173026E+03  0.12497707981E+03 0.  0.
          2    1    1    2  501    0 -0.12700861551E+03 -0.11310822921E+03 -0.14574852480E+04  0.14673744948E+04  0.00000000000E+00 0. -1.
          1    1    1    2  502    0  0.63819052982E+02 -0.31969402667E+02  0.15074927147E+04  0.15091816323E+04  0.00000000000E+00 0. -1.
         22    1    3    3    0    0 -0.16149120955E+02  0.87310857490E+02  0.16913262525E+03  0.19102310035E+03  0.00000000000E+00 0. -1.
         22    1    3    3    0    0  0.79338683478E+02  0.57766774387E+02  0.43273949448E+03  0.44372862991E+03  0.00000000000E+00 0. -1.
</event>
<event>
 7    1  0.5789396E-006  0.5874525E+02  0.7818608E-02  0.1511168E+00
          2   -1    0    0  502    0  0.00000000000E+00  0.00000000000E+00  0.28655505749E+03  0.28655505749E+03  0.00000000000E+00 0. -1.
          1   -1    0    0  501    0 -0.00000000000E+00 -0.00000000000E+00 -0.11233923887E+04  0.11233923887E+04  0.00000000000E+00 0. -1.
         25    2    1    2    0    0 -0.17973572392E+02  0.75248343888E+02 -0.29018482056E+03  0.32529522806E+03  0.12499757099E+03 0.  0.
          2    1    1    2  501    0 -0.22053784200E+01 -0.57770690847E+02 -0.81396224191E+03  0.81601277421E+03  0.00000000000E+00 0. -1.
          1    1    1    2  502    0  0.20178950811E+02 -0.17477653041E+02  0.26730973126E+03  0.26863944393E+03  0.00000000000E+00 0. -1.
         22    1    3    3    0    0 -0.71427563747E+01 -0.29164234709E+02 -0.21781510766E+02  0.37094551703E+02  0.00000000000E+00 0. -1.
         22    1    3    3    0    0 -0.10830816017E+02  0.10441257860E+03 -0.26840330979E+03  0.28820067636E+03  0.00000000000E+00 0. -1.
</event>
<event>
 7    1  0.5789396E-006  0.5624728E+02  0.7818608E-02  0.1439734E+00
          2   -1    0    0  502    0  0.00000000000E+00  0.00000000000E+00  0.21961892782E+04  0.21961892782E+04  0.00000000000E+00 0. -1.
          1   -1    0    0  501    0 -0.00000000000E+00 -0.00000000000E+00 -0.90422263309E+02  0.90422263309E+02  0.00000000000E+00 0. -1.
         25    2    1    2    0    0  0.57035777753E+02 -0.64156142197E+02  0.91740036160E+03  0.92984781101E+03  0.12499775062E+03 0.  0.
          2    1    1    2  501    0 -0.44977085239E+02  0.11162987139E+02 -0.77194410616E+02  0.90036256635E+02  0.00000000000E+00 0. -1.
          1    1    1    2  502    0 -0.12058692514E+02  0.52993155058E+02  0.12655610639E+04  0.12667274738E+04  0.00000000000E+00 0. -1.
         22    1    3    3    0    0 -0.27704111387E+02 -0.39878504563E+02  0.54491769416E+03  0.54707687424E+03  0.00000000000E+00 0. -1.
         22    1    3    3    0    0  0.84739889140E+02 -0.24277637634E+02  0.37248266744E+03  0.38277093678E+03  0.00000000000E+00 0. -1.
</event>
<event>
 7    1  0.5789396E-006  0.1055157E+03  0.7818608E-02  0.1431836E+00
          2   -1    0    0  502    0  0.00000000000E+00  0.00000000000E+00  0.13899679674E+03  0.13899679674E+03  0.00000000000E+00 0. -1.
          1   -1    0    0  501    0 -0.00000000000E+00 -0.00000000000E+00 -0.12541073673E+04  0.12541073673E+04  0.00000000000E+00 0. -1.
         25    2    1    2    0    0  0.80012859341E+02  0.39468905099E+02 -0.60362562445E+03  0.62285523805E+03  0.12499960377E+03 0.  0.
          2    1    1    2  501    0 -0.10604465618E+03 -0.42559318488E+02 -0.63438012656E+03  0.64458894628E+03  0.00000000000E+00 0. -1.
          1    1    1    2  502    0  0.26031796842E+02  0.30904133888E+01  0.12289518049E+03  0.12565997967E+03  0.00000000000E+00 0. -1.
         22    1    3    3    0    0 -0.18499825377E+02  0.21786312263E+02 -0.33610129057E+02  0.44119470942E+02  0.00000000000E+00 0.  1.
         22    1    3    3    0    0  0.98512684717E+02  0.17682592837E+02 -0.57001549539E+03  0.57873576711E+03  0.00000000000E+00 0.  1.
</event>
<event>
 7    1  0.5789396E-006  0.2548162E+03  0.7818608E-02  0.1241415E+00
          2   -1    0    0  502    0  0.00000000000E+00  0.00000000000E+00  0.88632620642E+03  0.88632620642E+03  0.00000000000E+00 0. -1.
          1   -1    0    0  501    0 -0.00000000000E+00 -0.00000000000E+00 -0.75699014875E+03  0.75699014875E+03  0.00000000000E+00 0. -1.
         25    2    1    2    0    0  0.22914988421E+03 -0.38098581857E+02  0.48699459286E+02  0.26824781144E+03  0.12499631850E+03 0.  0.
          2    1    1    2  501    0 -0.25898919948E+03 -0.11030976275E+02 -0.62003555326E+03  0.67204253972E+03  0.00000000000E+00 0. -1.
          1    1    1    2  502    0  0.29839315275E+02  0.49129558132E+02  0.70067215164E+03  0.70302600400E+03  0.00000000000E+00 0. -1.
         22    1    3    3    0    0  0.97742706770E+02  0.79152848344E+01 -0.36937768001E+02  0.10478877404E+03  0.00000000000E+00 0. -1.
         22    1    3    3    0    0  0.13140717744E+03 -0.46013866691E+02  0.85637227287E+02  0.16345903740E+03  0.00000000000E+00 0. -1.
</event>
<event>
 7    1  0.5789396E-006  0.9704723E+02  0.7818608E-02  0.1380252E+00
          2   -1    0    0  502    0  0.00000000000E+00  0.00000000000E+00  0.88122918008E+03  0.88122918008E+03  0.00000000000E+00 0. -1.
          1   -1    0    0  501    0 -0.00000000000E+00 -0.00000000000E+00 -0.10171892765E+03  0.10171892765E+03  0.00000000000E+00 0. -1.
         25    2    1    2    0    0  0.11121069366E+03 -0.41506690242E+02  0.31967303433E+03  0.36318209216E+03  0.12497903611E+03 0.  0.
          2    1    1    2  501    0 -0.17315940867E+02  0.39066827112E+02 -0.69812433593E+02  0.81852517816E+02  0.00000000000E+00 0. -1.
          1    1    1    2  502    0 -0.93894752792E+02  0.24398631297E+01  0.52964965169E+03  0.53791349776E+03  0.00000000000E+00 0. -1.
         22    1    3    3    0    0  0.18423932903E+02 -0.69520206824E+02  0.10098198816E+03  0.12397524911E+03  0.00000000000E+00 0.  1.
         22    1    3    3    0    0  0.92786760756E+02  0.28013516583E+02  0.21869104617E+03  0.23920684304E+03  0.00000000000E+00 0.  1.
</event>
<event>
 7    1  0.5789396E-006  0.8509052E+02  0.7818608E-02  0.1368271E+00
          2   -1    0    0  502    0  0.00000000000E+00  0.00000000000E+00  0.15200329609E+04  0.15200329609E+04  0.00000000000E+00 0. -1.
          1   -1    0    0  501    0 -0.00000000000E+00 -0.00000000000E+00 -0.77805484059E+03  0.77805484059E+03  0.00000000000E+00 0. -1.
         25    2    1    2    0    0  0.91324128186E+02  0.43546321043E+02  0.99104944820E+02  0.18889794303E+03  0.12499705728E+03 0.  0.
          2    1    1    2  501    0 -0.68322707568E+01 -0.53348701002E+02 -0.73085475774E+03  0.73283111337E+03  0.00000000000E+00 0. -1.
          1    1    1    2  502    0 -0.84491857429E+02  0.98023799591E+01  0.13737279333E+04  0.13763587451E+04  0.00000000000E+00 0. -1.
         22    1    3    3    0    0  0.11362095658E+03  0.51933513015E+02  0.10627966037E+03  0.16401883354E+03  0.00000000000E+00 0. -1.
         22    1    3    3    0    0 -0.22296828399E+02 -0.83871919712E+01 -0.71747155475E+01  0.24879109489E+02  0.00000000000E+00 0. -1.
</event>
<event>
 7    1  0.5789396E-006  0.6295078E+02  0.7818608E-02  0.1470290E+00
          2   -1    0    0  502    0  0.00000000000E+00  0.00000000000E+00  0.14089893833E+04  0.14089893833E+04  0.00000000000E+00 0. -1.
          1   -1    0    0  501    0 -0.00000000000E+00 -0.00000000000E+00 -0.36149392713E+03  0.36149392713E+03  0.00000000000E+00 0. -1.
         25    2    1    2    0    0  0.16824503417E+02  0.46558492851E+02 -0.47204709918E+02  0.14248881041E+03  0.12499607707E+03 0.  0.
          2    1    1    2  501    0  0.11610634575E+02 -0.63524721698E+02 -0.26253243132E+03  0.27035804888E+03  0.00000000000E+00 0. -1.
          1    1    1    2  502    0 -0.28435137992E+02  0.16966228847E+02  0.13572325974E+04  0.13576364511E+04  0.00000000000E+00 0. -1.
         22    1    3    3    0    0 -0.14911978645E+01  0.50196845684E+02 -0.85911811452E+02  0.99512744584E+02  0.00000000000E+00 0. -1.
         22    1    3    3    0    0  0.18315701281E+02 -0.36383528332E+01  0.38707101534E+02  0.42976065827E+02  0.00000000000E+00 0. -1.
</event>
<event>
 7    1  0.5789396E-006  0.7548843E+02  0.7818608E-02  0.1473250E+00
          2   -1    0    0  502    0  0.00000000000E+00  0.00000000000E+00  0.62399369402E+03  0.62399369402E+03  0.00000000000E+00 0. -1.
          1   -1    0    0  501    0 -0.00000000000E+00 -0.00000000000E+00 -0.78804404371E+03  0.78804404371E+03  0.00000000000E+00 0. -1.
         25    2    1    2    0    0  0.54157141171E+02  0.23419750556E+01  0.15986611791E+03  0.21004978500E+03  0.12500102294E+03 0.  0.
          2    1    1    2  501    0 -0.74011401961E+02  0.16006902801E+02 -0.76065435407E+03  0.76441412527E+03  0.00000000000E+00 0. -1.
          1    1    1    2  502    0  0.19854260790E+02 -0.18348877857E+02  0.43673788647E+03  0.43757382745E+03  0.00000000000E+00 0. -1.
         22    1    3    3    0    0  0.85039586406E+02  0.22809359485E+02  0.68808526417E+02  0.11174350739E+03  0.00000000000E+00 0. -1.
         22    1    3    3    0    0 -0.30882445235E+02 -0.20467384429E+02  0.91057591496E+02  0.98306277613E+02  0.00000000000E+00 0. -1.
</event>
<event>
 7    1  0.5789396E-006  0.5431809E+02  0.7818608E-02  0.1505746E+00
          2   -1    0    0  502    0  0.00000000000E+00  0.00000000000E+00  0.54649274531E+03  0.54649274531E+03  0.00000000000E+00 0. -1.
          1   -1    0    0  501    0 -0.00000000000E+00 -0.00000000000E+00 -0.48170561189E+03  0.48170561189E+03  0.00000000000E+00 0. -1.
         25    2    1    2    0    0 -0.22942155642E+01  0.52102612289E+02  0.28096146176E+02  0.13832841870E+03  0.12500164942E+03 0.  0.
          2    1    1    2  501    0  0.31306793721E+02 -0.44649737649E+02 -0.42435873492E+03  0.42784816268E+03  0.00000000000E+00 0. -1.
          1    1    1    2  502    0 -0.29012578157E+02 -0.74528746402E+01  0.46104972217E+03  0.46202177583E+03  0.00000000000E+00 0. -1.
         22    1    3    3    0    0 -0.20887411921E+02  0.67432806028E+02 -0.29028357292E+02  0.76328977673E+02  0.00000000000E+00 0.  1.
         22    1    3    3    0    0  0.18593196357E+02 -0.15330193738E+02  0.57124503468E+02  0.61999441024E+02  0.00000000000E+00 0.  1.
</event>
<event>
 7    1  0.5789396E-006  0.3308963E+02  0.7818608E-02  0.1640561E+00
          2   -1    0    0  502    0  0.00000000000E+00  0.00000000000E+00  0.98347421918E+03  0.98347421918E+03  0.00000000000E+00 0. -1.
          1   -1    0    0  501    0 -0.00000000000E+00 -0.00000000000E+00 -0.69866684130E+03  0.69866684130E+03  0.00000000000E+00 0. -1.
         25    2    1    2    0    0  0.19663376937E+02 -0.16827878985E+02  0.18214423970E+02  0.12893992017E+03  0.12499564740E+03 0.  0.
          2    1    1    2  501    0 -0.14065384305E+02 -0.15857683508E+02 -0.64282720124E+03  0.64317657903E+03  0.00000000000E+00 0. -1.
          1    1    1    2  502    0 -0.55979926315E+01  0.32685562494E+02  0.90942015516E+03  0.91002456127E+03  0.00000000000E+00 0. -1.
         22    1    3    3    0    0  0.50879544809E+02 -0.53210915451E+02 -0.84152827734E+01  0.74100921636E+02  0.00000000000E+00 0.  1.
         22    1    3    3    0    0 -0.31216167873E+02  0.36383036465E+02  0.26629706743E+02  0.54838998535E+02  0.00000000000E+00 0.  1.
</event>
<event>
 7    1  0.5789396E-006  0.9525666E+02  0.7818608E-02  0.1357220E+00
          2   -1    0    0  502    0  0.00000000000E+00  0.00000000000E+00  0.83049266102E+03  0.83049266102E+03  0.00000000000E+00 0. -1.
          1   -1    0    0  501    0 -0.00000000000E+00 -0.00000000000E+00 -0.87009999966E+03  0.87009999966E+03  0.00000000000E+00 0. -1.
         25    2    1    2    0    0  0.36200262503E+02 -0.13521376308E+03 -0.64572951569E+02  0.19846938232E+03  0.12500883533E+03 0.  0.
          2    1    1    2  501    0  0.83251203735E+01  0.52037928673E+02 -0.73471715063E+03  0.73660474142E+03  0.00000000000E+00 0. -1.
          1    1    1    2  502    0 -0.44525382877E+02  0.83175834407E+02  0.75968276356E+03  0.76551853694E+03  0.00000000000E+00 0. -1.
         22    1    3    3    0    0 -0.35261060366E+02 -0.15468090227E+02 -0.42391611202E+02  0.57268253803E+02  0.00000000000E+00 0.  1.
         22    1    3    3    0    0  0.71461322869E+02 -0.11974567285E+03 -0.22181340367E+02  0.14120112851E+03  0.00000000000E+00 0.  1.
</event>
<event>
 7    1  0.5789396E-006  0.1405782E+03  0.7818608E-02  0.1301867E+00
          2   -1    0    0  502    0  0.00000000000E+00  0.00000000000E+00  0.12852368666E+04  0.12852368666E+04  0.00000000000E+00 0. -1.
          1   -1    0    0  501    0 -0.00000000000E+00 -0.00000000000E+00 -0.92043216649E+03  0.92043216649E+03  0.00000000000E+00 0. -1.
         25    2    1    2    0    0 -0.10405933842E+03 -0.63092718713E+02  0.86164567739E+02  0.19456602014E+03  0.12499026519E+03 0.  0.
          2    1    1    2  501    0  0.14064453422E+03  0.17903008717E+02 -0.85968310687E+03  0.87129584354E+03  0.00000000000E+00 0. -1.
          1    1    1    2  502    0 -0.36585195799E+02  0.45189709996E+02  0.11383232392E+04  0.11398071694E+04  0.00000000000E+00 0. -1.
         22    1    3    3    0    0 -0.60709322088E+02 -0.91380834416E+02  0.21603359496E+02  0.11181584784E+03  0.00000000000E+00 0.  1.
         22    1    3    3    0    0 -0.43350016331E+02  0.28288115704E+02  0.64561208243E+02  0.82750172301E+02  0.00000000000E+00 0.  1.
</event>
<event>
 7    1  0.5789396E-006  0.4527323E+02  0.7818608E-02  0.1505292E+00
          2   -1    0    0  502    0  0.00000000000E+00  0.00000000000E+00  0.71818091341E+03  0.71818091341E+03  0.00000000000E+00 0. -1.
          1   -1    0    0  501    0 -0.00000000000E+00 -0.00000000000E+00 -0.17306858805E+03  0.17306858805E+03  0.00000000000E+00 0. -1.
         25    2    1    2    0    0  0.45911319189E+02  0.29683608580E+02 -0.48175049490E+02  0.14468844027E+03  0.12499977403E+03 0.  0.
          2    1    1    2  501    0 -0.10546312384E+01 -0.36035063374E+02 -0.71583306973E+02  0.80148661104E+02  0.00000000000E+00 0. -1.
          1    1    1    2  502    0 -0.44856687951E+02  0.63514547938E+01  0.66487068182E+03  0.66641240008E+03  0.00000000000E+00 0. -1.
         22    1    3    3    0    0 -0.15279451947E+02  0.63011391570E+02 -0.11167277651E+02  0.65792136380E+02  0.00000000000E+00 0. -1.
         22    1    3    3    0    0  0.61190771136E+02 -0.33327782989E+02 -0.37007771838E+02  0.78896303891E+02  0.00000000000E+00 0. -1.
</event>
<event>
 7    1  0.5789396E-006  0.9391515E+02  0.7818608E-02  0.1397210E+00
          2   -1    0    0  502    0  0.00000000000E+00  0.00000000000E+00  0.27131334337E+04  0.27131334337E+04  0.00000000000E+00 0. -1.
          1   -1    0    0  501    0 -0.00000000000E+00 -0.00000000000E+00 -0.84437162729E+03  0.84437162729E+03  0.00000000000E+00 0. -1.
         25    2    1    2    0    0  0.55481169132E+02 -0.67362683231E+00  0.13096338551E+04  0.13167552168E+04  0.12499940965E+03 0.  0.
          2    1    1    2  501    0 -0.93957206301E+02  0.25592347765E+01 -0.83791783241E+03  0.84317305470E+03  0.00000000000E+00 0. -1.
          1    1    1    2  502    0  0.38476037169E+02 -0.18856079442E+01  0.13970457836E+04  0.13975767895E+04  0.00000000000E+00 0. -1.
         22    1    3    3    0    0  0.75417316604E+02 -0.37538746729E+02  0.60005094892E+03  0.60593569828E+03  0.00000000000E+00 0. -1.
         22    1    3    3    0    0 -0.19936147471E+02  0.36865119896E+02  0.70958290623E+03  0.71081951848E+03  0.00000000000E+00 0. -1.
</event>
<event>
 7    1  0.5789396E-006  0.9169556E+02  0.7818608E-02  0.1438346E+00
          2   -1    0    0  502    0  0.00000000000E+00  0.00000000000E+00  0.10559286490E+04  0.10559286490E+04  0.00000000000E+00 0. -1.
          1   -1    0    0  501    0 -0.00000000000E+00 -0.00000000000E+00 -0.35593767016E+03  0.35593767016E+03  0.00000000000E+00 0. -1.
         25    2    1    2    0    0  0.84112566072E+02 -0.54179703094E+01  0.28408847216E+03  0.32161295277E+03  0.12499741278E+03 0.  0.
          2    1    1    2  501    0 -0.89041304091E+02 -0.22879282272E+02 -0.33062747691E+03  0.34317101258E+03  0.00000000000E+00 0. -1.
          1    1    1    2  502    0  0.49287380185E+01  0.28297252581E+02  0.74652998356E+03  0.74708235377E+03  0.00000000000E+00 0. -1.
         22    1    3    3    0    0  0.38280540390E+01  0.69697802602E+01 -0.12104147722E+02  0.14482479991E+02  0.00000000000E+00 0.  1.
         22    1    3    3    0    0  0.80284512033E+02 -0.12387750570E+02  0.29619261988E+03  0.30713047278E+03  0.00000000000E+00 0.  1.
</event>
<event>
 7    1  0.5789396E-006  0.5686823E+02  0.7818608E-02  0.1443257E+00
          2   -1    0    0  502    0  0.00000000000E+00  0.00000000000E+00  0.66354595728E+03  0.66354595728E+03  0.00000000000E+00 0. -1.
          1   -1    0    0  501    0 -0.00000000000E+00 -0.00000000000E+00 -0.17133677627E+04  0.17133677627E+04  0.00000000000E+00 0. -1.
         25    2    1    2    0    0  0.67691364029E+02 -0.69488100679E+02  0.21494872614E+03  0.26689790178E+03  0.12498327171E+03 0.  0.
          2    1    1    2  501    0 -0.27737612123E+02  0.49561154682E+02 -0.16857344194E+04  0.16866909070E+04  0.00000000000E+00 0. -1.
          1    1    1    2  502    0 -0.39953751906E+02  0.19926945997E+02  0.42096388788E+03  0.42332491111E+03  0.00000000000E+00 0. -1.
         22    1    3    3    0    0 -0.28748006002E+02 -0.43992175405E+02  0.11109217523E+03  0.12289520228E+03  0.00000000000E+00 0.  1.
         22    1    3    3    0    0  0.96439370031E+02 -0.25495925274E+02  0.10385655090E+03  0.14400269950E+03  0.00000000000E+00 0.  1.
</event>
<event>
 7    1  0.5789396E-006  0.1359190E+03  0.7818608E-02  0.1255845E+00
          2   -1    0    0  502    0  0.00000000000E+00  0.00000000000E+00  0.72301265023E+03  0.72301265023E+03  0.00000000000E+00 0. -1.
          1   -1    0    0  501    0 -0.00000000000E+00 -0.00000000000E+00 -0.81071688923E+03  0.81071688923E+03  0.00000000000E+00 0. -1.
         25    2    1    2    0    0  0.13799844462E+03 -0.70247224995E+01 -0.33714913084E+02  0.18935792269E+03  0.12500724011E+03 0.  0.
          2    1    1    2  501    0 -0.10221306436E+03  0.93153770253E+02 -0.68890165645E+03  0.70264544949E+03  0.00000000000E+00 0. -1.
          1    1    1    2  502    0 -0.35785380263E+02 -0.86129047754E+02  0.63491233053E+03  0.64172616728E+03  0.00000000000E+00 0. -1.
         22    1    3    3    0    0  0.35293982351E+02  0.21724836664E+02 -0.65993393766E+02  0.77927926567E+02  0.00000000000E+00 0.  1.
         22    1    3    3    0    0  0.10270446227E+03 -0.28749559163E+02  0.32278480682E+02  0.11142999613E+03  0.00000000000E+00 0.  1.
</event>
<event>
 7    1  0.5789396E-006  0.9634637E+02  0.7818608E-02  0.1312758E+00
          2   -1    0    0  502    0  0.00000000000E+00  0.00000000000E+00  0.11556371795E+04  0.11556371795E+04  0.00000000000E+00 0. -1.
          1   -1    0    0  501    0 -0.00000000000E+00 -0.00000000000E+00 -0.48964262855E+02  0.48964262855E+02  0.00000000000E+00 0. -1.
         25    2    1    2    0    0 -0.32788156498E+02 -0.18637518044E+02  0.47259971898E+03  0.49030391022E+03  0.12500003886E+03 0.  0.
          2    1    1    2  501    0  0.10625161490E+03 -0.38235586580E+01  0.37410925791E+02  0.11271025969E+03  0.00000000000E+00 0. -1.
          1    1    1    2  502    0 -0.73463458405E+02  0.22461076702E+02  0.59666227183E+03  0.60158727240E+03  0.00000000000E+00 0. -1.
         22    1    3    3    0    0 -0.17872131670E+01  0.39225258741E+02  0.55011359350E+02  0.67587459723E+02  0.00000000000E+00 0. -1.
         22    1    3    3    0    0 -0.31000943331E+02 -0.57862776786E+02  0.41758835963E+03  0.42271645050E+03  0.00000000000E+00 0. -1.
</event>
<event>
 7    1  0.5789396E-006  0.5903737E+02  0.7818608E-02  0.1410235E+00
          2   -1    0    0  502    0  0.00000000000E+00  0.00000000000E+00  0.18334397927E+04  0.18334397927E+04  0.00000000000E+00 0. -1.
          1   -1    0    0  501    0 -0.00000000000E+00 -0.00000000000E+00 -0.64518073086E+02  0.64518073086E+02  0.00000000000E+00 0. -1.
         25    2    1    2    0    0  0.80720948531E+02 -0.38975199055E+02  0.20494490395E+03  0.25626007346E+03  0.12502749267E+03 0.  0.
          2    1    1    2  501    0 -0.56607094589E+02 -0.10797441381E+02 -0.16743085055E+02  0.60010655682E+02  0.00000000000E+00 0. -1.
          1    1    1    2  502    0 -0.24113853942E+02  0.49772640436E+02  0.15807199007E+04  0.15816871366E+04  0.00000000000E+00 0. -1.
         22    1    3    3    0    0 -0.17838645814E+02 -0.16374051665E+02  0.12509211649E+03  0.12741414545E+03  0.00000000000E+00 0. -1.
         22    1    3    3    0    0  0.98559594346E+02 -0.22601147391E+02  0.79852787465E+02  0.12884592802E+03  0.00000000000E+00 0. -1.
</event>
<event>
 7    1  0.5789396E-006  0.2366716E+03  0.7818608E-02  0.1256178E+00
          2   -1    0    0  502    0  0.00000000000E+00  0.00000000000E+00  0.51375103871E+03  0.51375103871E+03  0.00000000000E+00 0. -1.
          1   -1    0    0  501    0 -0.00000000000E+00 -0.00000000000E+00 -0.18334063184E+04  0.18334063184E+04  0.00000000000E+00 0. -1.
         25    2    1    2    0    0 -0.25909235185E+03 -0.33448434386E+02 -0.22452588893E+03  0.36644855220E+03  0.12500008824E+03 0.  0.
          2    1    1    2  501    0  0.24978992737E+02  0.47182346631E+02 -0.15063612263E+04  0.15073069588E+04  0.00000000000E+00 0. -1.
          1    1    1    2  502    0  0.23411335911E+03 -0.13733912245E+02  0.41123183559E+03  0.47340184607E+03  0.00000000000E+00 0. -1.
         22    1    3    3    0    0 -0.14466244554E+03  0.43655058620E+02 -0.12829893477E+03  0.19822614347E+03  0.00000000000E+00 0. -1.
         22    1    3    3    0    0 -0.11442990631E+03 -0.77103493006E+02 -0.96226954165E+02  0.16822240873E+03  0.00000000000E+00 0. -1.
</event>
<event>
 7    1  0.5789396E-006  0.4900705E+03  0.7818608E-02  0.1243356E+00
          2   -1    0    0  502    0  0.00000000000E+00  0.00000000000E+00  0.26152110174E+04  0.26152110174E+04  0.00000000000E+00 0. -1.
          1   -1    0    0  501    0 -0.00000000000E+00 -0.00000000000E+00 -0.89237691944E+03  0.89237691944E+03  0.00000000000E+00 0. -1.
         25    2    1    2    0    0 -0.34650031665E+03 -0.38341508442E+03 -0.31465785278E+02  0.53262032408E+03  0.12499887033E+03 0.  0.
          2    1    1    2  501    0  0.17005620415E+02  0.23868221438E+02 -0.58481741644E+03  0.58555127333E+03  0.00000000000E+00 0. -1.
          1    1    1    2  502    0  0.32949469623E+03  0.35954686298E+03  0.23391172997E+04  0.23894163395E+04  0.00000000000E+00 0. -1.
         22    1    3    3    0    0 -0.22047875707E+03 -0.21726881329E+03 -0.77433879766E+02  0.31908090712E+03  0.00000000000E+00 0.  1.
         22    1    3    3    0    0 -0.12602155958E+03 -0.16614627113E+03  0.45968094488E+02  0.21353941696E+03  0.00000000000E+00 0.  1.
</event>
<event>
 7    1  0.5789396E-006  0.2662937E+03  0.7818608E-02  0.1210295E+00
          2   -1    0    0  502    0  0.00000000000E+00  0.00000000000E+00  0.59119388501E+03  0.59119388501E+03  0.00000000000E+00 0. -1.
          1   -1    0    0  501    0 -0.00000000000E+00 -0.00000000000E+00 -0.57120362824E+03  0.57120362824E+03  0.00000000000E+00 0. -1.
         25    2    1    2    0    0 -0.98336136990E+02  0.18315604498E+03 -0.19582282261E+03  0.31176523569E+03  0.12503940053E+03 0.  0.
          2    1    1    2  501    0  0.62075644407E+01  0.75765045863E+02 -0.27652524554E+03  0.28678404324E+03  0.00000000000E+00 0. -1.
          1    1    1    2  502    0  0.92128572549E+02 -0.25892109084E+03  0.49233832492E+03  0.56384823433E+03  0.00000000000E+00 0. -1.
         22    1    3    3    0    0 -0.55391252034E+02  0.19100891566E+03 -0.15795022109E+03  0.25397021283E+03  0.00000000000E+00 0.  1.
         22    1    3    3    0    0 -0.42944884956E+02 -0.78528706845E+01 -0.37872601520E+02  0.57795022863E+02  0.00000000000E+00 0.  1.
</event>
<event>
 7    1  0.5789396E-006  0.9198822E+02  0.7818608E-02  0.1357811E+00
          2   -1    0    0  502    0  0.00000000000E+00  0.00000000000E+00  0.10502353853E+04  0.10502353853E+04  0.00000000000E+00 0. -1.
          1   -1    0    0  501    0 -0.00000000000E+00 -0.00000000000E+00 -0.12449084883E+04  0.12449084883E+04  0.00000000000E+00 0. -1.
         25    2    1    2    0    0  0.52431757769E+01  0.38507291512E+02  0.54772759059E+02  0.14189974430E+03  0.12500071962E+03 0.  0.
          2    1    1    2  501    0 -0.19650509310E+02 -0.90861947709E+02 -0.11987695639E+04  0.12023687052E+04  0.00000000000E+00 0. -1.
          1    1    1    2  502    0  0.14407333533E+02  0.52354656197E+02  0.94932370184E+03  0.95087542410E+03  0.00000000000E+00 0. -1.
         22    1    3    3    0    0  0.55117109870E+02 -0.96732087119E+01  0.42871644630E+01  0.56123493712E+02  0.00000000000E+00 0. -1.
         22    1    3    3    0    0 -0.49873934094E+02  0.48180500224E+02  0.50485594596E+02  0.85776250592E+02  0.00000000000E+00 0. -1.
</event>
<event>
 7    1  0.5789396E-006  0.2047693E+03  0.7818608E-02  0.1259636E+00
          2   -1    0    0  502    0  0.00000000000E+00  0.00000000000E+00  0.75109981796E+03  0.75109981796E+03  0.00000000000E+00 0. -1.
          1   -1    0    0  501    0 -0.00000000000E+00 -0.00000000000E+00 -0.31569581825E+04  0.31569581825E+04  0.00000000000E+00 0. -1.
         25    2    1    2    0    0  0.11831121969E+03  0.15861401089E+03 -0.48666495255E+03  0.54002282207E+03  0.12500369257E+03 0.  0.
          2    1    1    2  501    0 -0.70673069738E+02 -0.19448899442E+03 -0.26383287313E+04  0.26464313984E+04  0.00000000000E+00 0. -1.
          1    1    1    2  502    0 -0.47638149954E+02  0.35874983535E+02  0.71913531935E+03  0.72160378000E+03  0.00000000000E+00 0. -1.
         22    1    3    3    0    0  0.97215845903E+01  0.16214774520E+02  0.25357371720E+01  0.19075064422E+02  0.00000000000E+00 0. -1.
         22    1    3    3    0    0  0.10858963510E+03  0.14239923637E+03 -0.48920068972E+03  0.52094775765E+03  0.00000000000E+00 0. -1.
</event>
<event>
 7    1  0.5789396E-006  0.1920638E+03  0.7818608E-02  0.1310533E+00
          2   -1    0    0  502    0  0.00000000000E+00  0.00000000000E+00  0.38964491031E+03  0.38964491031E+03  0.00000000000E+00 0. -1.
          1   -1    0    0  501    0 -0.00000000000E+00 -0.00000000000E+00 -0.27850937331E+04  0.27850937331E+04  0.00000000000E+00 0. -1.
         25    2    1    2    0    0  0.24865714764E+02 -0.20504530902E+03 -0.38034108735E+03  0.45050102087E+03  0.12501977664E+03 0.  0.
          2    1    1    2  501    0  0.32301381884E+02  0.22420229903E+02 -0.23436753862E+04  0.23440051967E+04  0.00000000000E+00 0. -1.
          1    1    1    2  502    0 -0.57167096647E+02  0.18262507912E+03  0.32856765085E+03  0.38023242582E+03  0.00000000000E+00 0. -1.
         22    1    3    3    0    0  0.60119480274E+02 -0.15238913582E+03 -0.19529559891E+03  0.25490620153E+03  0.00000000000E+00 0. -1.
         22    1    3    3    0    0 -0.35253765510E+02 -0.52656173207E+02 -0.18504548844E+03  0.19559481934E+03  0.00000000000E+00 0. -1.
</event>
<event>
 7    1  0.5789396E-006  0.4801826E+02  0.7818608E-02  0.1549393E+00
          2   -1    0    0  502    0  0.00000000000E+00  0.00000000000E+00  0.82781458396E+03  0.82781458396E+03  0.00000000000E+00 0. -1.
          1   -1    0    0  501    0 -0.00000000000E+00 -0.00000000000E+00 -0.48064633768E+03  0.48064633768E+03  0.00000000000E+00 0. -1.
         25    2    1    2    0    0  0.29211342611E+02  0.12061195631E+02  0.14167195736E+02  0.12970913709E+03  0.12499990333E+03 0.  0.
          2    1    1    2  501    0 -0.48165100529E+02  0.48200376021E+01 -0.42127598041E+03  0.42404782908E+03  0.00000000000E+00 0. -1.
          1    1    1    2  502    0  0.18953757918E+02 -0.16881233233E+02  0.75427703096E+03  0.75470395548E+03  0.00000000000E+00 0. -1.
         22    1    3    3    0    0 -0.20306401720E+02  0.17764438754E+02 -0.44923644797E+02  0.52402853900E+02  0.00000000000E+00 0. -1.
         22    1    3    3    0    0  0.49517744331E+02 -0.57032431231E+01  0.59090840533E+02  0.77306283190E+02  0.00000000000E+00 0. -1.
</event>
<event>
 7    1  0.5789396E-006  0.1368272E+03  0.7818608E-02  0.1286758E+00
          2   -1    0    0  502    0  0.00000000000E+00  0.00000000000E+00  0.24726859407E+03  0.24726859407E+03  0.00000000000E+00 0. -1.
          1   -1    0    0  501    0 -0.00000000000E+00 -0.00000000000E+00 -0.44438660128E+03  0.44438660128E+03  0.00000000000E+00 0. -1.
         25    2    1    2    0    0 -0.67455734113E+02  0.16619781010E+03 -0.63181369662E+02  0.22757151268E+03  0.12499967907E+03 0.  0.
          2    1    1    2  501    0 -0.16785512304E+02 -0.66669378179E+02 -0.26823053333E+03  0.27690102640E+03  0.00000000000E+00 0. -1.
          1    1    1    2  502    0  0.84241246417E+02 -0.99528431919E+02  0.13429389578E+03  0.18718265626E+03  0.00000000000E+00 0. -1.
         22    1    3    3    0    0 -0.83521151251E+02  0.10705261789E+03  0.50276230663E+01  0.13587245010E+03  0.00000000000E+00 0. -1.
         22    1    3    3    0    0  0.16065417138E+02  0.59145192207E+02 -0.68208992728E+02  0.91699062580E+02  0.00000000000E+00 0. -1.
</event>
<event>
 7    1  0.5789396E-006  0.1057961E+03  0.7818608E-02  0.1368149E+00
          2   -1    0    0  502    0  0.00000000000E+00  0.00000000000E+00  0.20179428692E+03  0.20179428692E+03  0.00000000000E+00 0. -1.
          1   -1    0    0  501    0 -0.00000000000E+00 -0.00000000000E+00 -0.10450224253E+04  0.10450224253E+04  0.00000000000E+00 0. -1.
         25    2    1    2    0    0  0.76641005508E+02  0.66113621737E+01 -0.99532072698E+02  0.17733945814E+03  0.12500038434E+03 0.  0.
          2    1    1    2  501    0  0.30895941309E+02 -0.30339753420E+02 -0.88738565827E+03  0.88844153794E+03  0.00000000000E+00 0. -1.
          1    1    1    2  502    0 -0.10753694682E+03  0.23728391246E+02  0.14368959261E+03  0.18103571611E+03  0.00000000000E+00 0. -1.
         22    1    3    3    0    0  0.67611918365E+02  0.56288674077E+02 -0.90188390684E+02  0.12599100027E+03  0.00000000000E+00 0.  1.
         22    1    3    3    0    0  0.90290871431E+01 -0.49677311904E+02 -0.93436820143E+01  0.51348457875E+02  0.00000000000E+00 0.  1.
</event>
<event>
 7    1  0.5789396E-006  0.7124992E+02  0.7818608E-02  0.1364322E+00
          2   -1    0    0  502    0  0.00000000000E+00  0.00000000000E+00  0.11797836437E+04  0.11797836437E+04  0.00000000000E+00 0. -1.
          1   -1    0    0  501    0 -0.00000000000E+00 -0.00000000000E+00 -0.40655986329E+02  0.40655986329E+02  0.00000000000E+00 0. -1.
         25    2    1    2    0    0  0.52780383128E+02 -0.27343055720E+02  0.67955026763E+03  0.69350354549E+03  0.12500075930E+03 0.  0.
          2    1    1    2  501    0  0.16940083424E+02  0.69206821700E+02  0.12273076039E+02  0.72299232303E+02  0.00000000000E+00 0. -1.
          1    1    1    2  502    0 -0.69720466552E+02 -0.41863765979E+02  0.44730431366E+03  0.45463685220E+03  0.00000000000E+00 0. -1.
         22    1    3    3    0    0  0.39783452024E+02 -0.76539482929E+02  0.38053065637E+03  0.39018533537E+03  0.00000000000E+00 0. -1.
         22    1    3    3    0    0  0.12996931104E+02  0.49196427209E+02  0.29901961126E+03  0.30331821012E+03  0.00000000000E+00 0. -1.
</event>
<event>
 7    1  0.5789396E-006  0.1732639E+03  0.7818608E-02  0.1269009E+00
          2   -1    0    0  502    0  0.00000000000E+00  0.00000000000E+00  0.10730099881E+04  0.10730099881E+04  0.00000000000E+00 0. -1.
          1   -1    0    0  501    0 -0.00000000000E+00 -0.00000000000E+00 -0.99681153673E+03  0.99681153673E+03  0.00000000000E+00 0. -1.
         25    2    1    2    0    0 -0.10688649547E+03  0.19237591351E+03  0.24825264070E+03  0.35452496333E+03  0.12500144397E+03 0.  0.
          2    1    1    2  501    0  0.11457793983E+03 -0.12851839867E+03 -0.93445632350E+03  0.95018614157E+03  0.00000000000E+00 0. -1.
          1    1    1    2  502    0 -0.76914443578E+01 -0.63857514838E+02  0.76240213417E+03  0.76511041994E+03  0.00000000000E+00 0. -1.
         22    1    3    3    0    0 -0.35253200250E+01  0.12995630217E+03  0.15269387715E+03  0.20054049086E+03  0.00000000000E+00 0. -1.
         22    1    3    3    0    0 -0.10336117545E+03  0.62419611333E+02  0.95558763555E+02  0.15398447247E+03  0.00000000000E+00 0. -1.
</event>
<event>
 7    1  0.5789396E-006  0.6665068E+02  0.7818608E-02  0.1427584E+00
          2   -1    0    0  502    0  0.00000000000E+00  0.00000000000E+00  0.32985095380E+04  0.32985095380E+04  0.00000000000E+00 0. -1.
          1   -1    0    0  501    0 -0.00000000000E+00 -0.00000000000E+00 -0.13132520733E+02  0.13132520733E+02  0.00000000000E+00 0. -1.
         25    2    1    2    0    0  0.33829163554E+02  0.41812514024E+02  0.90530212740E+03  0.91547237576E+03  0.12500012112E+03 0.  0.
          2    1    1    2  501    0 -0.33105058458E+02  0.27222831837E+02  0.53411552339E+02  0.68482270640E+02  0.00000000000E+00 0. -1.
          1    1    1    2  502    0 -0.72410509611E+00 -0.69035345861E+02  0.23266633376E+04  0.23276874124E+04  0.00000000000E+00 0. -1.
         22    1    3    3    0    0  0.28633190912E+02 -0.37725519179E+02  0.51128475259E+03  0.51347363384E+03  0.00000000000E+00 0.  1.
         22    1    3    3    0    0  0.51959726426E+01  0.79538033203E+02  0.39401737481E+03  0.40199874193E+03  0.00000000000E+00 0.  1.
</event>
<event>
 7    1  0.5789396E-006  0.1202888E+03  0.7818608E-02  0.1308673E+00
          2   -1    0    0  502    0  0.00000000000E+00  0.00000000000E+00  0.28519671368E+04  0.28519671368E+04  0.00000000000E+00 0. -1.
          1   -1    0    0  501    0 -0.00000000000E+00 -0.00000000000E+00 -0.18991727222E+03  0.18991727222E+03  0.00000000000E+00 0. -1.
         25    2    1    2    0    0  0.11798172453E+03 -0.12732565715E+03  0.19027000470E+03  0.28628589426E+03  0.12500171309E+03 0.  0.
          2    1    1    2  501    0 -0.92538278452E+02  0.68763202596E+02 -0.11803487203E+03  0.16499679398E+03  0.00000000000E+00 0. -1.
          1    1    1    2  502    0 -0.25443446078E+02  0.58562454558E+02  0.25898147320E+04  0.25906017208E+04  0.00000000000E+00 0. -1.
         22    1    3    3    0    0  0.41122699885E+02 -0.12837157652E+03  0.10071736322E+03  0.16826861073E+03  0.00000000000E+00 0.  1.
         22    1    3    3    0    0  0.76859024646E+02  0.10459193643E+01  0.89552641476E+02  0.11801728353E+03  0.00000000000E+00 0.  1.
</event>
<event>
 7    1  0.5789396E-006  0.6096281E+02  0.7818608E-02  0.1437578E+00
          2   -1    0    0  502    0  0.00000000000E+00  0.00000000000E+00  0.15316684386E+04  0.15316684386E+04  0.00000000000E+00 0. -1.
          1   -1    0    0  501    0 -0.00000000000E+00 -0.00000000000E+00 -0.47626049538E+03  0.47626049538E+03  0.00000000000E+00 0. -1.
         25    2    1    2    0    0 -0.48654948629E+02 -0.54985842272E+02  0.12431645880E+02  0.14550107151E+03  0.12500107645E+03 0.  0.
          2    1    1    2  501    0  0.59613088516E+02  0.12937493551E+02 -0.40712805061E+03  0.41167262315E+03  0.00000000000E+00 0. -1.
          1    1    1    2  502    0 -0.10958139887E+02  0.42048348721E+02  0.14501043479E+04  0.14507552393E+04  0.00000000000E+00 0. -1.
         22    1    3    3    0    0 -0.63726659760E+02  0.61538067600E+01 -0.28831928004E+02  0.70215643372E+02  0.00000000000E+00 0. -1.
         22    1    3    3    0    0  0.15071711131E+02 -0.61139649032E+02  0.41263573884E+02  0.75285428137E+02  0.00000000000E+00 0. -1.
</event>
<event>
 7    1  0.5789396E-006  0.1377695E+03  0.7818608E-02  0.1275126E+00
          2   -1    0    0  502    0  0.00000000000E+00  0.00000000000E+00  0.81956592401E+03  0.81956592401E+03  0.00000000000E+00 0. -1.
          1   -1    0    0  501    0 -0.00000000000E+00 -0.00000000000E+00 -0.15001971253E+03  0.15001971253E+03  0.00000000000E+00 0. -1.
         25    2    1    2    0    0  0.10422196218E+03  0.16340772573E+03  0.33011656883E+03  0.40269832059E+03  0.12499874464E+03 0.  0.
          2    1    1    2  501    0 -0.60429618053E+02 -0.46515522049E+02 -0.90996887041E+02  0.11872601223E+03  0.00000000000E+00 0. -1.
          1    1    1    2  502    0 -0.43792344128E+02 -0.11689220368E+03  0.43042652969E+03  0.44816130372E+03  0.00000000000E+00 0. -1.
         22    1    3    3    0    0 -0.17321388324E+01 -0.47974649543E+01 -0.85739353834E+01  0.99763892707E+01  0.00000000000E+00 0. -1.
         22    1    3    3    0    0  0.10595410101E+03  0.16820519069E+03  0.33869050421E+03  0.39272193132E+03  0.00000000000E+00 0. -1.
</event>
<event>
 7    1  0.5789396E-006  0.8148537E+02  0.7818608E-02  0.1377580E+00
          2   -1    0    0  502    0  0.00000000000E+00  0.00000000000E+00  0.92813466667E+02  0.92813466667E+02  0.00000000000E+00 0. -1.
          1   -1    0    0  501    0 -0.00000000000E+00 -0.00000000000E+00 -0.12887853381E+04  0.12887853381E+04  0.00000000000E+00 0. -1.
         25    2    1    2    0    0  0.10846422974E+03  0.35456108375E+02 -0.22582130225E+03  0.28221108246E+03  0.12500483895E+03 0.  0.
          2    1    1    2  501    0 -0.29662426655E+02 -0.42729657775E+02 -0.10096167251E+04  0.10109557927E+04  0.00000000000E+00 0. -1.
          1    1    1    2  502    0 -0.78801803084E+02  0.72735493991E+01  0.39466155991E+02  0.88431929521E+02  0.00000000000E+00 0. -1.
         22    1    3    3    0    0  0.54895786414E+00 -0.38011392721E+02 -0.40762004186E+02  0.55737853534E+02  0.00000000000E+00 0. -1.
         22    1    3    3    0    0  0.10791527188E+03  0.73467501096E+02 -0.18505929806E+03  0.22647322892E+03  0.00000000000E+00 0. -1.
</event>
<event>
 7    1  0.5789396E-006  0.1961833E+03  0.7818608E-02  0.1240949E+00
          2   -1    0    0  502    0  0.00000000000E+00  0.00000000000E+00  0.20367599227E+03  0.20367599227E+03  0.00000000000E+00 0. -1.
          1   -1    0    0  501    0 -0.00000000000E+00 -0.00000000000E+00 -0.87865670309E+03  0.87865670309E+03  0.00000000000E+00 0. -1.
         25    2    1    2    0    0 -0.42349491211E+02 -0.13904955518E+03 -0.13333502778E+03  0.23352133513E+03  0.12500290448E+03 0.  0.
          2    1    1    2  501    0 -0.41737009549E+02 -0.62330792702E+02 -0.61425504670E+03  0.61881852597E+03  0.00000000000E+00 0. -1.
          1    1    1    2  502    0  0.84086500760E+02  0.20138034788E+03  0.72609363655E+02  0.22999283426E+03  0.00000000000E+00 0. -1.
         22    1    3    3    0    0 -0.75610606461E+01  0.21328462047E+02 -0.36582455129E+02  0.43015682659E+02  0.00000000000E+00 0.  1.
         22    1    3    3    0    0 -0.34788430565E+02 -0.16037801722E+03 -0.96752572648E+02  0.19050565247E+03  0.00000000000E+00 0.  1.
</event>
<event>
 7    1  0.5789396E-006  0.9936349E+02  0.7818608E-02  0.1457505E+00
          2   -1    0    0  502    0  0.00000000000E+00  0.00000000000E+00  0.20303951276E+03  0.20303951276E+03  0.00000000000E+00 0. -1.
          1   -1    0    0  501    0 -0.00000000000E+00 -0.00000000000E+00 -0.12387034250E+04  0.12387034250E+04  0.00000000000E+00 0. -1.
         25    2    1    2    0    0  0.10927669985E+03  0.13322773579E+02  0.65327335372E+02  0.17891461469E+03  0.12499554062E+03 0.  0.
          2    1    1    2  501    0 -0.94313362647E+02 -0.30799898102E+02 -0.11781459739E+04  0.11823161928E+04  0.00000000000E+00 0. -1.
          1    1    1    2  502    0 -0.14963337206E+02  0.17477124523E+02  0.77154726221E+02  0.80512130267E+02  0.00000000000E+00 0. -1.
         22    1    3    3    0    0  0.95271723778E+02 -0.43935646256E+02  0.56953564683E+02  0.11937650897E+03  0.00000000000E+00 0. -1.
         22    1    3    3    0    0  0.14004976075E+02  0.57258419835E+02  0.83737706886E+01  0.59538105718E+02  0.00000000000E+00 0. -1.
</event>
<event>
 7    1  0.5789396E-006  0.1634214E+03  0.7818608E-02  0.1323299E+00
          2   -1    0    0  502    0  0.00000000000E+00  0.00000000000E+00  0.74191757116E+03  0.74191757116E+03  0.00000000000E+00 0. -1.
          1   -1    0    0  501    0 -0.00000000000E+00 -0.00000000000E+00 -0.20200509263E+04  0.20200509263E+04  0.00000000000E+00 0. -1.
         25    2    1    2    0    0  0.15157527833E+03  0.24171484760E+02 -0.10928243943E+03  0.22611083255E+03  0.12499652536E+03 0.  0.
          2    1    1    2  501    0 -0.86679737529E+00  0.41198554700E+02 -0.18422499801E+04  0.18427107915E+04  0.00000000000E+00 0. -1.
          1    1    1    2  502    0 -0.15070848095E+03 -0.65370039460E+02  0.67339906431E+03  0.69314687340E+03  0.00000000000E+00 0. -1.
         22    1    3    3    0    0  0.41130961760E+02  0.47064562779E+02  0.84438896346E+01  0.63072405670E+02  0.00000000000E+00 0.  1.
         22    1    3    3    0    0  0.11044431657E+03 -0.22893078019E+02 -0.11772632907E+03  0.16303842688E+03  0.00000000000E+00 0.  1.
</event>
<event>
 7    1  0.5789396E-006  0.7248478E+02  0.7818608E-02  0.1368879E+00
          2   -1    0    0  502    0  0.00000000000E+00  0.00000000000E+00  0.40675399584E+04  0.40675399584E+04  0.00000000000E+00 0. -1.
          1   -1    0    0  501    0 -0.00000000000E+00 -0.00000000000E+00 -0.65520208528E+03  0.65520208528E+03  0.00000000000E+00 0. -1.
         25    2    1    2    0    0  0.83771269397E+01 -0.97640943099E+02  0.62641731700E+03  0.64624124978E+03  0.12500067140E+03 0.  0.
          2    1    1    2  501    0  0.41484930096E+02  0.59428217135E+02 -0.64296648104E+03  0.64703833592E+03  0.00000000000E+00 0. -1.
          1    1    1    2  502    0 -0.49862057036E+02  0.38212725964E+02  0.34288870371E+04  0.34294624580E+04  0.00000000000E+00 0. -1.
         22    1    3    3    0    0 -0.80226655799E+01  0.11115586534E+02  0.41415702614E+01  0.14320336282E+02  0.00000000000E+00 0.  1.
         22    1    3    3    0    0  0.16399792520E+02 -0.10875652963E+03  0.62227574674E+03  0.63192091349E+03  0.00000000000E+00 0.  1.
</event>
<event>
 7    1  0.5789396E-006  0.1039204E+03  0.7818608E-02  0.1288723E+00
          2   -1    0    0  502    0  0.00000000000E+00  0.00000000000E+00  0.35644316568E+03  0.35644316568E+03  0.00000000000E+00 0. -1.
          1   -1    0    0  501    0 -0.00000000000E+00 -0.00000000000E+00 -0.13040399957E+04  0.13040399957E+04  0.00000000000E+00 0. -1.
         25    2    1    2    0    0  0.98924561753E+01  0.32785413611E+02 -0.71930595303E+03  0.73088901816E+03  0.12499983504E+03 0.  0.
          2    1    1    2  501    0 -0.72631727051E+02  0.51199967739E+02 -0.56757197978E+03  0.57448651569E+03  0.00000000000E+00 0. -1.
          1    1    1    2  502    0  0.62739270876E+02 -0.83985381350E+02  0.33928110281E+03  0.35510762751E+03  0.00000000000E+00 0. -1.
         22    1    3    3    0    0 -0.54742539203E+02  0.20014244689E+02 -0.23491606496E+03  0.24203899100E+03  0.00000000000E+00 0.  1.
         22    1    3    3    0    0  0.64634995378E+02  0.12771168921E+02 -0.48438988807E+03  0.48885002716E+03  0.00000000000E+00 0.  1.
</event>
<event>
 7    1  0.5789396E-006  0.5566426E+02  0.7818608E-02  0.1480588E+00
          2   -1    0    0  502    0  0.00000000000E+00  0.00000000000E+00  0.50369173595E+03  0.50369173595E+03  0.00000000000E+00 0. -1.
          1   -1    0    0  501    0 -0.00000000000E+00 -0.00000000000E+00 -0.27976678749E+03  0.27976678749E+03  0.00000000000E+00 0. -1.
         25    2    1    2    0    0 -0.32961348749E+02  0.63337497394E+02  0.18533517848E+03  0.23467788833E+03  0.12500597506E+03 0.  0.
          2    1    1    2  501    0 -0.12374996280E+02 -0.32528738975E+02 -0.25132816995E+03  0.25372644404E+03  0.00000000000E+00 0. -1.
          1    1    1    2  502    0  0.45336345029E+02 -0.30808758418E+02  0.28991793993E+03  0.29505419107E+03  0.00000000000E+00 0. -1.
         22    1    3    3    0    0  0.80707169307E+01  0.16084330668E+02  0.16905901924E+03  0.17001409986E+03  0.00000000000E+00 0.  1.
         22    1    3    3    0    0 -0.41032065680E+02  0.47253166726E+02  0.16276159239E+02  0.64663788469E+02  0.00000000000E+00 0.  1.
</event>
<event>
 7    1  0.5789396E-006  0.2108447E+03  0.7818608E-02  0.1211575E+00
          2   -1    0    0  502    0  0.00000000000E+00  0.00000000000E+00  0.21530690620E+04  0.21530690620E+04  0.00000000000E+00 0. -1.
          1   -1    0    0  501    0 -0.00000000000E+00 -0.00000000000E+00 -0.71479776580E+03  0.71479776580E+03  0.00000000000E+00 0. -1.
         25    2    1    2    0    0 -0.17487257197E+03  0.22809238851E+03  0.11307032395E+03  0.33319661882E+03  0.12501413725E+03 0.  0.
          2    1    1    2  501    0  0.17649858979E+02 -0.93049976731E+02 -0.59541677905E+03  0.60290211185E+03  0.00000000000E+00 0. -1.
          1    1    1    2  502    0  0.15722271299E+03 -0.13504241178E+03  0.19206177514E+04  0.19317680972E+04  0.00000000000E+00 0. -1.
         22    1    3    3    0    0  0.16425423910E+02  0.34652368689E+02 -0.59129002096E+00  0.38352716074E+02  0.00000000000E+00 0. -1.
         22    1    3    3    0    0 -0.19129799588E+03  0.19344001982E+03  0.11366161397E+03  0.29484390274E+03  0.00000000000E+00 0. -1.
</event>
<event>
 7    1  0.5789396E-006  0.1236850E+03  0.7818608E-02  0.1295502E+00
          2   -1    0    0  502    0  0.00000000000E+00  0.00000000000E+00  0.31564576349E+04  0.31564576349E+04  0.00000000000E+00 0. -1.
          1   -1    0    0  501    0 -0.00000000000E+00 -0.00000000000E+00 -0.17061573331E+04  0.17061573331E+04  0.00000000000E+00 0. -1.
         25    2    1    2    0    0 -0.10797015174E+03 -0.13197982946E+03  0.13188308628E+03  0.24918687701E+03  0.12499888869E+03 0.  0.
          2    1    1    2  501    0  0.68313823201E+02  0.15658756794E+02 -0.16454861131E+04  0.16469779973E+04  0.00000000000E+00 0. -1.
          1    1    1    2  502    0  0.39656328534E+02  0.11632107267E+03  0.29639033287E+04  0.29664500936E+04  0.00000000000E+00 0. -1.
         22    1    3    3    0    0 -0.12899814336E+03 -0.10164442217E+03  0.73076603481E+02  0.17975622249E+03  0.00000000000E+00 0.  1.
         22    1    3    3    0    0  0.21027991621E+02 -0.30335407292E+02  0.58806482798E+02  0.69430654514E+02  0.00000000000E+00 0.  1.
</event>
<event>
 7    1  0.5789396E-006  0.8601444E+02  0.7818608E-02  0.1421317E+00
          2   -1    0    0  502    0  0.00000000000E+00  0.00000000000E+00  0.48477455219E+03  0.48477455219E+03  0.00000000000E+00 0. -1.
          1   -1    0    0  501    0 -0.00000000000E+00 -0.00000000000E+00 -0.61875371377E+03  0.61875371377E+03  0.00000000000E+00 0. -1.
         25    2    1    2    0    0 -0.48607359103E+02  0.60578976643E+02  0.88239206028E+02  0.17159122299E+03  0.12499961022E+03 0.  0.
          2    1    1    2  501    0 -0.28968548609E+02 -0.19357647965E+02 -0.57110185401E+03  0.57216363306E+03  0.00000000000E+00 0. -1.
          1    1    1    2  502    0  0.77575907711E+02 -0.41221328678E+02  0.34888348641E+03  0.35977340991E+03  0.00000000000E+00 0. -1.
         22    1    3    3    0    0 -0.49464929460E+02  0.83141126483E+02  0.18772868812E+02  0.98547687760E+02  0.00000000000E+00 0.  1.
         22    1    3    3    0    0  0.85757035797E+00 -0.22562149840E+02  0.69466337216E+02  0.73043535228E+02  0.00000000000E+00 0.  1.
</event>
<event>
 7    1  0.5789396E-006  0.3717977E+02  0.7818608E-02  0.1577175E+00
          2   -1    0    0  502    0  0.00000000000E+00  0.00000000000E+00  0.28955612617E+04  0.28955612617E+04  0.00000000000E+00 0. -1.
          1   -1    0    0  501    0 -0.00000000000E+00 -0.00000000000E+00 -0.55424212333E+01  0.55424212333E+01  0.00000000000E+00 0. -1.
         25    2    1    2    0    0 -0.38387275240E+02  0.49281500780E+02  0.13445706949E+04  0.13518127640E+04  0.12500058422E+03 0.  0.
          2    1    1    2  501    0  0.12983251297E+02 -0.24251673905E+02  0.10958221407E+03  0.11298216737E+03  0.00000000000E+00 0. -1.
          1    1    1    2  502    0  0.25404023943E+02 -0.25029826875E+02  0.14358659314E+04  0.14363087515E+04  0.00000000000E+00 0. -1.
         22    1    3    3    0    0  0.26547432754E+02 -0.14338114187E+02  0.72303114929E+03  0.72366041107E+03  0.00000000000E+00 0. -1.
         22    1    3    3    0    0 -0.64934707993E+02  0.63619614967E+02  0.62153954565E+03  0.62815235295E+03  0.00000000000E+00 0. -1.
</event>
<event>
 7    1  0.5789396E-006  0.1863581E+03  0.7818608E-02  0.1267905E+00
          2   -1    0    0  502    0  0.00000000000E+00  0.00000000000E+00  0.59764402766E+03  0.59764402766E+03  0.00000000000E+00 0. -1.
          1   -1    0    0  501    0 -0.00000000000E+00 -0.00000000000E+00 -0.48474773730E+03  0.48474773730E+03  0.00000000000E+00 0. -1.
         25    2    1    2    0    0  0.17309089573E+03 -0.13787609026E+03 -0.24806139643E+03  0.35514816436E+03  0.12500195117E+03 0.  0.
          2    1    1    2  501    0 -0.53705079635E+01  0.60203633889E+02 -0.16182711746E+03  0.17274644956E+03  0.00000000000E+00 0. -1.
          1    1    1    2  502    0 -0.16772038777E+03  0.77672456369E+02  0.52278480426E+03  0.55449715104E+03  0.00000000000E+00 0. -1.
         22    1    3    3    0    0  0.10322987530E+02 -0.66869201324E+02 -0.30239583631E+02  0.74111312061E+02  0.00000000000E+00 0. -1.
         22    1    3    3    0    0  0.16276790820E+03 -0.71006888934E+02 -0.21782181280E+03  0.28103685230E+03  0.00000000000E+00 0. -1.
</event>
<event>
 7    1  0.5789396E-006  0.1059175E+03  0.7818608E-02  0.1467714E+00
          2   -1    0    0  502    0  0.00000000000E+00  0.00000000000E+00  0.20992974590E+03  0.20992974590E+03  0.00000000000E+00 0. -1.
          1   -1    0    0  501    0 -0.00000000000E+00 -0.00000000000E+00 -0.84466229916E+03  0.84466229916E+03  0.00000000000E+00 0. -1.
         25    2    1    2    0    0  0.33598724008E+02 -0.84286823998E+02 -0.84965547847E+02  0.17629508876E+03  0.12501068373E+03 0.  0.
          2    1    1    2  501    0 -0.28097258530E+02  0.10356392303E+03 -0.70936974987E+03  0.71744016065E+03  0.00000000000E+00 0. -1.
          1    1    1    2  502    0 -0.55014654779E+01 -0.19277099027E+02  0.15960274445E+03  0.16085679565E+03  0.00000000000E+00 0. -1.
         22    1    3    3    0    0  0.73446620571E+02 -0.63048007060E+02 -0.88296099290E+02  0.13101777901E+03  0.00000000000E+00 0.  1.
         22    1    3    3    0    0 -0.39847896563E+02 -0.21238816938E+02  0.33305514438E+01  0.45277309751E+02  0.00000000000E+00 0.  1.
</event>
<event>
 7    1  0.5789396E-006  0.1191450E+03  0.7818608E-02  0.1327423E+00
          2   -1    0    0  502    0  0.00000000000E+00  0.00000000000E+00  0.30678504832E+04  0.30678504832E+04  0.00000000000E+00 0. -1.
          1   -1    0    0  501    0 -0.00000000000E+00 -0.00000000000E+00 -0.29725641824E+03  0.29725641824E+03  0.00000000000E+00 0. -1.
         25    2    1    2    0    0 -0.66267763873E+02 -0.15754192560E+03  0.24777506420E+03  0.32592625007E+03  0.12499825276E+03 0.  0.
          2    1    1    2  501    0  0.49914676958E+02  0.10556058948E+03 -0.24469639263E+03  0.27112882103E+03  0.00000000000E+00 0. -1.
          1    1    1    2  502    0  0.16353086915E+02  0.51981336115E+02  0.27675153934E+04  0.27680518303E+04  0.00000000000E+00 0. -1.
         22    1    3    3    0    0 -0.71461176975E+02 -0.16593233667E+03  0.25582752358E+03  0.31318997747E+03  0.00000000000E+00 0.  1.
         22    1    3    3    0    0  0.51934131021E+01  0.83904110701E+01 -0.80524593804E+01  0.12736272596E+02  0.00000000000E+00 0.  1.
</event>
<event>
 7    1  0.5789396E-006  0.1012456E+03  0.7818608E-02  0.1320748E+00
          2   -1    0    0  502    0  0.00000000000E+00  0.00000000000E+00  0.15641700305E+03  0.15641700305E+03  0.00000000000E+00 0. -1.
          1   -1    0    0  501    0 -0.00000000000E+00 -0.00000000000E+00 -0.18120612816E+04  0.18120612816E+04  0.00000000000E+00 0. -1.
         25    2    1    2    0    0 -0.37194493346E+02 -0.48200296851E+01 -0.92904647504E+03  0.93816795936E+03  0.12500041664E+03 0.  0.
          2    1    1    2  501    0 -0.63261596081E+02  0.25053139880E+02 -0.85966800071E+03  0.86235651606E+03  0.00000000000E+00 0. -1.
          1    1    1    2  502    0  0.10045608943E+03 -0.20233110195E+02  0.13307019720E+03  0.16795380922E+03  0.00000000000E+00 0. -1.
         22    1    3    3    0    0 -0.54004782593E+02  0.48739740397E+02 -0.59606774153E+03  0.60049049229E+03  0.00000000000E+00 0. -1.
         22    1    3    3    0    0  0.16810289248E+02 -0.53559770082E+02 -0.33297873351E+03  0.33767746707E+03  0.00000000000E+00 0. -1.
</event>
<event>
 7    1  0.5789396E-006  0.6205773E+02  0.7818608E-02  0.1467316E+00
          2   -1    0    0  502    0  0.00000000000E+00  0.00000000000E+00  0.91954165913E+03  0.91954165913E+03  0.00000000000E+00 0. -1.
          1   -1    0    0  501    0 -0.00000000000E+00 -0.00000000000E+00 -0.53653079886E+02  0.53653079886E+02  0.00000000000E+00 0. -1.
         25    2    1    2    0    0  0.69821424562E+02  0.45845487688E+02  0.19983178425E+03  0.25006968755E+03  0.12500106625E+03 0.  0.
          2    1    1    2  501    0 -0.10057657734E+02 -0.32805948059E+02 -0.16330951147E+02  0.38001140410E+02  0.00000000000E+00 0. -1.
          1    1    1    2  502    0 -0.59763766828E+02 -0.13039539629E+02  0.68238774614E+03  0.68512391106E+03  0.00000000000E+00 0. -1.
         22    1    3    3    0    0 -0.20101857179E+01  0.14247037625E+02  0.16255691036E+03  0.16319242639E+03  0.00000000000E+00 0. -1.
         22    1    3    3    0    0  0.71831610280E+02  0.31598450063E+02  0.37274873894E+02  0.86877261154E+02  0.00000000000E+00 0. -1.
</event>
<event>
 7    1  0.5789396E-006  0.1237028E+03  0.7818608E-02  0.1406133E+00
          2   -1    0    0  502    0  0.00000000000E+00  0.00000000000E+00  0.11270607262E+03  0.11270607262E+03  0.00000000000E+00 0. -1.
          1   -1    0    0  501    0 -0.00000000000E+00 -0.00000000000E+00 -0.17605447897E+04  0.17605447897E+04  0.00000000000E+00 0. -1.
         25    2    1    2    0    0 -0.11020500946E+03  0.23154112733E+02  0.43466472111E+02  0.17376662305E+03  0.12499699213E+03 0.  0.
          2    1    1    2  501    0  0.12400439390E+03  0.35040037945E+00 -0.15812236718E+04  0.15860786591E+04  0.00000000000E+00 0. -1.
          1    1    1    2  502    0 -0.13799384448E+02 -0.23504513113E+02 -0.11008151735E+03  0.11340558015E+03  0.00000000000E+00 0. -1.
         22    1    3    3    0    0 -0.71928291384E+02 -0.46374061688E+02  0.39613592735E+02  0.94305193008E+02  0.00000000000E+00 0.  1.
         22    1    3    3    0    0 -0.38276718072E+02  0.69528174421E+02  0.38528793764E+01  0.79461430042E+02  0.00000000000E+00 0.  1.
</event>
<event>
 7    1  0.5789396E-006  0.3587369E+02  0.7818608E-02  0.1606251E+00
          2   -1    0    0  502    0  0.00000000000E+00  0.00000000000E+00  0.17318261992E+03  0.17318261992E+03  0.00000000000E+00 0. -1.
          1   -1    0    0  501    0 -0.00000000000E+00 -0.00000000000E+00 -0.11156663602E+03  0.11156663602E+03  0.00000000000E+00 0. -1.
         25    2    1    2    0    0  0.22703881435E+02  0.21296546870E+02  0.19627216216E+02  0.13030355886E+03  0.12499912277E+03 0.  0.
          2    1    1    2  501    0 -0.18523325995E+02  0.15085503966E+02 -0.50011740656E+02  0.55424365033E+02  0.00000000000E+00 0. -1.
          1    1    1    2  502    0 -0.41805554398E+01 -0.36382050836E+02  0.92000508338E+02  0.99021332051E+02  0.00000000000E+00 0. -1.
         22    1    3    3    0    0 -0.44531276541E+02 -0.14446403970E+02  0.26590538903E+02  0.53840411748E+02  0.00000000000E+00 0. -1.
         22    1    3    3    0    0  0.67235157976E+02  0.35742950839E+02 -0.69633226875E+01  0.76463147108E+02  0.00000000000E+00 0. -1.
</event>
<event>
 7    1  0.5789396E-006  0.7317887E+02  0.7818608E-02  0.1387301E+00
          2   -1    0    0  502    0  0.00000000000E+00  0.00000000000E+00  0.50750028195E+03  0.50750028195E+03  0.00000000000E+00 0. -1.
          1   -1    0    0  501    0 -0.00000000000E+00 -0.00000000000E+00 -0.31682092657E+03  0.31682092657E+03  0.00000000000E+00 0. -1.
         25    2    1    2    0    0 -0.27128579983E+02 -0.10314502640E+03 -0.24278813706E+02  0.16611290549E+03  0.12501671990E+03 0.  0.
          2    1    1    2  501    0  0.47108453335E+02  0.53492679792E+02 -0.21418828720E+03  0.22573722675E+03  0.00000000000E+00 0. -1.
          1    1    1    2  502    0 -0.19979873352E+02  0.49652346606E+02  0.42914645629E+03  0.43247107627E+03  0.00000000000E+00 0. -1.
         22    1    3    3    0    0 -0.22459165332E+01 -0.92565621001E+02 -0.67879626578E+02  0.11480889354E+03  0.00000000000E+00 0. -1.
         22    1    3    3    0    0 -0.24882663450E+02 -0.10579405397E+02  0.43600812872E+02  0.51304011948E+02  0.00000000000E+00 0. -1.
</event>
<event>
 7    1  0.5789396E-006  0.1870193E+03  0.7818608E-02  0.1379271E+00
          2   -1    0    0  502    0  0.00000000000E+00  0.00000000000E+00  0.15556291283E+04  0.15556291283E+04  0.00000000000E+00 0. -1.
          1   -1    0    0  501    0 -0.00000000000E+00 -0.00000000000E+00 -0.94389679874E+03  0.94389679874E+03  0.00000000000E+00 0. -1.
         25    2    1    2    0    0  0.47172251089E+02  0.17940811997E+03  0.12863931726E+03  0.25804014559E+03  0.12499659198E+03 0.  0.
          2    1    1    2  501    0 -0.21500248978E+02  0.61141046626E+01 -0.87261534416E+03  0.87290158772E+03  0.00000000000E+00 0. -1.
          1    1    1    2  502    0 -0.25672002111E+02 -0.18552222464E+03  0.13557083565E+04  0.13685841938E+04  0.00000000000E+00 0. -1.
         22    1    3    3    0    0  0.20799601286E+02  0.16889120360E+03  0.54549907037E+02  0.17869682265E+03  0.00000000000E+00 0.  1.
         22    1    3    3    0    0  0.26372649803E+02  0.10516916369E+02  0.74089410224E+02  0.79343322939E+02  0.00000000000E+00 0.  1.
</event>
<event>
 7    1  0.5789396E-006  0.1225605E+03  0.7818608E-02  0.1403857E+00
          2   -1    0    0  502    0  0.00000000000E+00  0.00000000000E+00  0.17721041117E+04  0.17721041117E+04  0.00000000000E+00 0. -1.
          1   -1    0    0  501    0 -0.00000000000E+00 -0.00000000000E+00 -0.68992158837E+03  0.68992158837E+03  0.00000000000E+00 0. -1.
         25    2    1    2    0    0  0.10007959566E+03  0.18944481425E+02  0.49106616094E+01  0.16131720255E+03  0.12499722556E+03 0.  0.
          2    1    1    2  501    0  0.23074849928E+02 -0.15871665446E+02 -0.60914977209E+03  0.60979324635E+03  0.00000000000E+00 0. -1.
          1    1    1    2  502    0 -0.12315444559E+03 -0.30728159788E+01  0.16864216338E+04  0.16909152512E+04  0.00000000000E+00 0. -1.
         22    1    3    3    0    0  0.80539889796E+02  0.50407623477E+02  0.46369126107E+02  0.10572463388E+03  0.00000000000E+00 0.  1.
         22    1    3    3    0    0  0.19539705865E+02 -0.31463142052E+02 -0.41458464498E+02  0.55592568672E+02  0.00000000000E+00 0.  1.
</event>
<event>
 7    1  0.5789396E-006  0.1639262E+03  0.7818608E-02  0.1320811E+00
          2   -1    0    0  502    0  0.00000000000E+00  0.00000000000E+00  0.35503218810E+03  0.35503218810E+03  0.00000000000E+00 0. -1.
          1   -1    0    0  501    0 -0.00000000000E+00 -0.00000000000E+00 -0.31393389987E+03  0.31393389987E+03  0.00000000000E+00 0. -1.
         25    2    1    2    0    0  0.18289154227E+03 -0.75149259520E+02  0.88701476465E+02  0.25017999776E+03  0.12500140763E+03 0.  0.
          2    1    1    2  501    0 -0.15131350819E+03  0.47455865956E+02 -0.20312261597E+03  0.25769484685E+03  0.00000000000E+00 0. -1.
          1    1    1    2  502    0 -0.31578034081E+02  0.27693393564E+02  0.15551942774E+03  0.16109124336E+03  0.00000000000E+00 0. -1.
         22    1    3    3    0    0  0.12924824305E+03 -0.10958803167E+03  0.73120040025E+02  0.18455672643E+03  0.00000000000E+00 0.  1.
         22    1    3    3    0    0  0.53643299220E+02  0.34438772147E+02  0.15581436440E+02  0.65623271328E+02  0.00000000000E+00 0.  1.
</event>
<event>
 7    1  0.5789396E-006  0.2959559E+03  0.7818608E-02  0.1164765E+00
          2   -1    0    0  502    0  0.00000000000E+00  0.00000000000E+00  0.29415409891E+03  0.29415409891E+03  0.00000000000E+00 0. -1.
          1   -1    0    0  501    0 -0.00000000000E+00 -0.00000000000E+00 -0.13581816419E+04  0.13581816419E+04  0.00000000000E+00 0. -1.
         25    2    1    2    0    0  0.32963016687E+03  0.76918577025E+02 -0.70100768198E+03  0.78841968747E+03  0.12498527510E+03 0.  0.
          2    1    1    2  501    0 -0.27104043951E+03  0.20140125854E+02 -0.56799777126E+03  0.62967452916E+03  0.00000000000E+00 0. -1.
          1    1    1    2  502    0 -0.58589727363E+02 -0.97058702879E+02  0.20497791025E+03  0.23424152417E+03  0.00000000000E+00 0. -1.
         22    1    3    3    0    0  0.25957736073E+03  0.72489961113E+02 -0.64356566372E+03  0.69771911554E+03  0.00000000000E+00 0. -1.
         22    1    3    3    0    0  0.70052806143E+02  0.44286159123E+01 -0.57442018260E+02  0.90700571934E+02  0.00000000000E+00 0. -1.
</event>
<event>
 7    1  0.5789396E-006  0.3323709E+02  0.7818608E-02  0.1605647E+00
          2   -1    0    0  502    0  0.00000000000E+00  0.00000000000E+00  0.67974074315E+03  0.67974074315E+03  0.00000000000E+00 0. -1.
          1   -1    0    0  501    0 -0.00000000000E+00 -0.00000000000E+00 -0.14902625447E+03  0.14902625447E+03  0.00000000000E+00 0. -1.
         25    2    1    2    0    0  0.78053284554E+00 -0.17657760662E+02  0.50024652219E+03  0.51593024485E+03  0.12500011539E+03 0.  0.
          2    1    1    2  501    0  0.22541207297E+02 -0.12709317719E+02 -0.13783000812E+03  0.14023816856E+03  0.00000000000E+00 0. -1.
          1    1    1    2  502    0 -0.23321740142E+02  0.30367078381E+02  0.16829797461E+03  0.17259858421E+03  0.00000000000E+00 0. -1.
         22    1    3    3    0    0 -0.60596955590E+02  0.54033534829E+00  0.20218573409E+03  0.21107191679E+03  0.00000000000E+00 0. -1.
         22    1    3    3    0    0  0.61377488436E+02 -0.18198096010E+02  0.29806078810E+03  0.30485832806E+03  0.00000000000E+00 0. -1.
</event>
<event>
 7    1  0.5789396E-006  0.8303009E+02  0.7818608E-02  0.1336570E+00
          2   -1    0    0  502    0  0.00000000000E+00  0.00000000000E+00  0.16045481357E+04  0.16045481357E+04  0.00000000000E+00 0. -1.
          1   -1    0    0  501    0 -0.00000000000E+00 -0.00000000000E+00 -0.17353649037E+03  0.17353649037E+03  0.00000000000E+00 0. -1.
         25    2    1    2    0    0  0.13013381574E+03 -0.50864169317E+02  0.12719144475E+03  0.22655608349E+03  0.12501208593E+03 0.  0.
          2    1    1    2  501    0 -0.58051704167E+02  0.54391397824E+02 -0.11006428233E+03  0.13580342690E+03  0.00000000000E+00 0. -1.
          1    1    1    2  502    0 -0.72082111577E+02 -0.35272285072E+01  0.14138844830E+04  0.14157251157E+04  0.00000000000E+00 0. -1.
         22    1    3    3    0    0  0.31960531925E+02  0.36415603814E+02  0.65386724046E+02  0.81381788402E+02  0.00000000000E+00 0.  1.
         22    1    3    3    0    0  0.98173283820E+02 -0.87279773131E+02  0.61804720699E+02  0.14517429509E+03  0.00000000000E+00 0.  1.
</event>
<event>
 7    1  0.5789396E-006  0.9767697E+02  0.7818608E-02  0.1362394E+00
          2   -1    0    0  502    0  0.00000000000E+00  0.00000000000E+00  0.23188942804E+04  0.23188942804E+04  0.00000000000E+00 0. -1.
          1   -1    0    0  501    0 -0.00000000000E+00 -0.00000000000E+00 -0.84041156762E+02  0.84041156762E+02  0.00000000000E+00 0. -1.
         25    2    1    2    0    0 -0.13616724378E+03 -0.37833662331E+02  0.17676120309E+04  0.17776540406E+04  0.12501476731E+03 0.  0.
          2    1    1    2  501    0  0.96590750911E+02  0.85937256699E+01 -0.47648211069E+02  0.10804618133E+03  0.00000000000E+00 0. -1.
          1    1    1    2  502    0  0.39576492873E+02  0.29239936661E+02  0.51488930385E+03  0.51723521526E+03  0.00000000000E+00 0. -1.
         22    1    3    3    0    0 -0.96967192015E+02  0.18381123648E+02  0.60265069272E+03  0.61067860571E+03  0.00000000000E+00 0. -1.
         22    1    3    3    0    0 -0.39200051768E+02 -0.56214785979E+02  0.11649613382E+04  0.11669754349E+04  0.00000000000E+00 0. -1.
</event>
<event>
 7    1  0.5789396E-006  0.5147274E+02  0.7818608E-02  0.1503109E+00
          2   -1    0    0  502    0  0.00000000000E+00  0.00000000000E+00  0.76431481671E+03  0.76431481671E+03  0.00000000000E+00 0. -1.
          1   -1    0    0  501    0 -0.00000000000E+00 -0.00000000000E+00 -0.54249540294E+03  0.54249540294E+03  0.00000000000E+00 0. -1.
         25    2    1    2    0    0 -0.73807356566E+02 -0.36467710219E+02  0.17892428121E+03  0.23326519056E+03  0.12498532293E+03 0.  0.
          2    1    1    2  501    0  0.48554409400E+02  0.16513968476E+02 -0.51358280733E+03  0.51613713470E+03  0.00000000000E+00 0. -1.
          1    1    1    2  502    0  0.25252947166E+02  0.19953741743E+02  0.55647793989E+03  0.55740789440E+03  0.00000000000E+00 0. -1.
         22    1    3    3    0    0  0.20799764537E+02 -0.82863378540E+01  0.11148945046E+03  0.11371539545E+03  0.00000000000E+00 0. -1.
         22    1    3    3    0    0 -0.94607121103E+02 -0.28181372365E+02  0.67434830757E+02  0.11954979511E+03  0.00000000000E+00 0. -1.
</event>
<event>
 7    1  0.5789396E-006  0.4639608E+02  0.7818608E-02  0.1554247E+00
          2   -1    0    0  502    0  0.00000000000E+00  0.00000000000E+00  0.79981640850E+03  0.79981640850E+03  0.00000000000E+00 0. -1.
          1   -1    0    0  501    0 -0.00000000000E+00 -0.00000000000E+00 -0.34480925819E+02  0.34480925819E+02  0.00000000000E+00 0. -1.
         25    2    1    2    0    0 -0.13756031277E+02  0.61885139045E+02  0.29047717120E+03  0.32251939704E+03  0.12499110226E+03 0.  0.
          2    1    1    2  501    0 -0.10303125624E+02 -0.23286989155E+02 -0.80699715993E+01  0.26712594467E+02  0.00000000000E+00 0. -1.
          1    1    1    2  502    0  0.24059156901E+02 -0.38598149890E+02  0.48292828308E+03  0.48506534282E+03  0.00000000000E+00 0. -1.
         22    1    3    3    0    0 -0.53628728616E+02  0.33908450931E+02  0.25362377612E+03  0.26143994222E+03  0.00000000000E+00 0. -1.
         22    1    3    3    0    0  0.39872697339E+02  0.27976688114E+02  0.36853395086E+02  0.61079454814E+02  0.00000000000E+00 0. -1.
</event>
<event>
 7    1  0.5789396E-006  0.5016394E+02  0.7818608E-02  0.1497147E+00
          2   -1    0    0  502    0  0.00000000000E+00  0.00000000000E+00  0.21294884791E+03  0.21294884791E+03  0.00000000000E+00 0. -1.
          1   -1    0    0  501    0 -0.00000000000E+00 -0.00000000000E+00 -0.89092624953E+03  0.89092624953E+03  0.00000000000E+00 0. -1.
         25    2    1    2    0    0  0.59896930901E+02  0.99241438775E+01 -0.39240257163E+03  0.41628171559E+03  0.12499823019E+03 0.  0.
          2    1    1    2  501    0 -0.14473819977E+02 -0.31212638179E+02 -0.48283263812E+03  0.48405689405E+03  0.00000000000E+00 0. -1.
          1    1    1    2  502    0 -0.45423110924E+02  0.21288494301E+02  0.19725780813E+03  0.20353648780E+03  0.00000000000E+00 0. -1.
         22    1    3    3    0    0 -0.10523995597E+02 -0.35490731578E+02 -0.23562816845E+03  0.23851830176E+03  0.00000000000E+00 0.  1.
         22    1    3    3    0    0  0.70420926499E+02  0.45414875455E+02 -0.15677440318E+03  0.17776341383E+03  0.00000000000E+00 0.  1.
</event>
<event>
 7    1  0.5789396E-006  0.3921850E+02  0.7818608E-02  0.1514115E+00
          2   -1    0    0  502    0  0.00000000000E+00  0.00000000000E+00  0.81579354028E+03  0.81579354028E+03  0.00000000000E+00 0. -1.
          1   -1    0    0  501    0 -0.00000000000E+00 -0.00000000000E+00 -0.56730769053E+02  0.56730769053E+02  0.00000000000E+00 0. -1.
         25    2    1    2    0    0  0.18032491665E+02 -0.10962020324E+02  0.14168367521E+03  0.19011596101E+03  0.12499791265E+03 0.  0.
          2    1    1    2  501    0 -0.33330496563E+02 -0.25149779874E+02 -0.18251372821E+02  0.45569134715E+02  0.00000000000E+00 0. -1.
          1    1    1    2  502    0  0.15298004898E+02  0.36111800198E+02  0.63563046884E+03  0.63683921360E+03  0.00000000000E+00 0. -1.
         22    1    3    3    0    0 -0.11434868268E+02 -0.64141263525E+02  0.62494473253E+02  0.90279660423E+02  0.00000000000E+00 0. -1.
         22    1    3    3    0    0  0.29467359933E+02  0.53179243201E+02  0.79189201954E+02  0.99836300588E+02  0.00000000000E+00 0. -1.
</event>
<event>
 7    1  0.5789396E-006  0.1698822E+03  0.7818608E-02  0.1313711E+00
          2   -1    0    0  502    0  0.00000000000E+00  0.00000000000E+00  0.11322981919E+04  0.11322981919E+04  0.00000000000E+00 0. -1.
          1   -1    0    0  501    0 -0.00000000000E+00 -0.00000000000E+00 -0.29232592529E+04  0.29232592529E+04  0.00000000000E+00 0. -1.
         25    2    1    2    0    0 -0.15504613618E+03  0.89213721225E+02 -0.24333008779E+03  0.32685310307E+03  0.12500010786E+03 0.  0.
          2    1    1    2  501    0 -0.81694228314E+01 -0.42414707063E+02 -0.26313803269E+04  0.26317348217E+04  0.00000000000E+00 0. -1.
          1    1    1    2  502    0  0.16321555901E+03 -0.46799014163E+02  0.10837493537E+04  0.10969695201E+04  0.00000000000E+00 0. -1.
         22    1    3    3    0    0 -0.17367058176E+03  0.78699979699E+02 -0.23772621126E+03  0.30474400616E+03  0.00000000000E+00 0. -1.
         22    1    3    3    0    0  0.18624445578E+02  0.10513741526E+02 -0.56038765311E+01  0.22109096909E+02  0.00000000000E+00 0. -1.
</event>
<event>
 7    1  0.5789396E-006  0.8193722E+02  0.7818608E-02  0.1372612E+00
          2   -1    0    0  502    0  0.00000000000E+00  0.00000000000E+00  0.73532318079E+03  0.73532318079E+03  0.00000000000E+00 0. -1.
          1   -1    0    0  501    0 -0.00000000000E+00 -0.00000000000E+00 -0.34846553622E+02  0.34846553622E+02  0.00000000000E+00 0. -1.
         25    2    1    2    0    0  0.85230106027E+02 -0.62008519817E+01  0.38188600117E+03  0.41081025318E+03  0.12500209874E+03 0.  0.
          2    1    1    2  501    0 -0.63770079494E+02  0.55627493322E+02  0.86167942811E+02  0.12077232887E+03  0.00000000000E+00 0. -1.
          1    1    1    2  502    0 -0.21460026534E+02 -0.49426641340E+02  0.23242268318E+03  0.23858715236E+03  0.00000000000E+00 0. -1.
         22    1    3    3    0    0 -0.20824140384E+01 -0.40227947702E+02  0.41802244948E+02  0.58052148171E+02  0.00000000000E+00 0. -1.
         22    1    3    3    0    0  0.87312520066E+02  0.34027095720E+02  0.34008375622E+03  0.35275810501E+03  0.00000000000E+00 0. -1.
</event>
<event>
 7    1  0.5789396E-006  0.8123412E+02  0.7818608E-02  0.1372270E+00
          2   -1    0    0  502    0  0.00000000000E+00  0.00000000000E+00  0.16735534764E+04  0.16735534764E+04  0.00000000000E+00 0. -1.
          1   -1    0    0  501    0 -0.00000000000E+00 -0.00000000000E+00 -0.23782245068E+03  0.23782245068E+03  0.00000000000E+00 0. -1.
         25    2    1    2    0    0  0.25129154074E+02  0.26185318132E+02  0.24888091121E+03  0.28086176417E+03  0.12499790933E+03 0.  0.
          2    1    1    2  501    0  0.21156473730E+01  0.54462891560E+02 -0.21717545023E+03  0.22391038097E+03  0.00000000000E+00 0. -1.
          1    1    1    2  502    0 -0.27244801447E+02 -0.80648209692E+02  0.14040255647E+04  0.14066037819E+04  0.00000000000E+00 0. -1.
         22    1    3    3    0    0 -0.27498359762E+02  0.54210089913E+02  0.72141780843E+02  0.94336261221E+02  0.00000000000E+00 0.  1.
         22    1    3    3    0    0  0.52627513837E+02 -0.28024771781E+02  0.17673913037E+03  0.18652550295E+03  0.00000000000E+00 0.  1.
</event>
<event>
 7    1  0.5856889E-006  0.1607055E+03  0.7818608E-02  0.1271667E+00
          2   -1    0    0  502    0  0.00000000000E+00  0.00000000000E+00  0.28895626984E+04  0.28895626984E+04  0.00000000000E+00 0. -1.
          1   -1    0    0  501    0 -0.00000000000E+00 -0.00000000000E+00 -0.82422031072E+03  0.82422031072E+03  0.00000000000E+00 0. -1.
         25    2    1    2    0    0  0.12809471874E+03  0.12755028384E+03 -0.21315603881E+03  0.30616849248E+03  0.12500526801E+03 0.  0.
          2    1    1    2  501    0 -0.62884334074E+02 -0.14531342347E+03 -0.55304506536E+03  0.57526452596E+03  0.00000000000E+00 0. -1.
          1    1    1    2  502    0 -0.65210384668E+02  0.17763139631E+02  0.28315434918E+04  0.28323499907E+04  0.00000000000E+00 0. -1.
         22    1    3    3    0    0  0.18335312919E+02  0.66134453588E+02 -0.15102192607E+03  0.16588421204E+03  0.00000000000E+00 0. -1.
         22    1    3    3    0    0  0.10975940582E+03  0.61415830251E+02 -0.62134112735E+02  0.14028428044E+03  0.00000000000E+00 0. -1.
</event>
<event>
 7    1  0.5789396E-006  0.2933129E+02  0.7818608E-02  0.1635424E+00
          2   -1    0    0  502    0  0.00000000000E+00  0.00000000000E+00  0.18587954322E+02  0.18587954322E+02  0.00000000000E+00 0. -1.
          1   -1    0    0  501    0 -0.00000000000E+00 -0.00000000000E+00 -0.10382479065E+04  0.10382479065E+04  0.00000000000E+00 0. -1.
         25    2    1    2    0    0 -0.77322911437E+01 -0.17256320840E+01 -0.31154107717E+03  0.33577216083E+03  0.12498933989E+03 0.  0.
          2    1    1    2  501    0 -0.20219952342E+02 -0.14059111735E+02 -0.67312839953E+03  0.67357876106E+03  0.00000000000E+00 0. -1.
          1    1    1    2  502    0  0.27952243485E+02  0.15784743819E+02 -0.34990475526E+02  0.47484938989E+02  0.00000000000E+00 0. -1.
         22    1    3    3    0    0 -0.42989981001E+02  0.28987404050E+02 -0.26417179104E+03  0.26921207856E+03  0.00000000000E+00 0. -1.
         22    1    3    3    0    0  0.35257689857E+02 -0.30713036134E+02 -0.47369286136E+02  0.66560082269E+02  0.00000000000E+00 0. -1.
</event>
<event>
 7    1  0.5789396E-006  0.3513268E+03  0.7818608E-02  0.1219111E+00
          2   -1    0    0  502    0  0.00000000000E+00  0.00000000000E+00  0.22569041967E+04  0.22569041967E+04  0.00000000000E+00 0. -1.
          1   -1    0    0  501    0 -0.00000000000E+00 -0.00000000000E+00 -0.35787306937E+03  0.35787306937E+03  0.00000000000E+00 0. -1.
         25    2    1    2    0    0 -0.31280687454E+03  0.18720478273E+03  0.11219433091E+04  0.11862865157E+04  0.12500054829E+03 0.  0.
          2    1    1    2  501    0  0.27235865988E+03 -0.22064647339E+03 -0.23051305764E+03  0.41952398688E+03  0.00000000000E+00 0. -1.
          1    1    1    2  502    0  0.40448214660E+02  0.33441690665E+02  0.10076008758E+04  0.10089667634E+04  0.00000000000E+00 0. -1.
         22    1    3    3    0    0 -0.31937857115E+03  0.17328308482E+03  0.10116864890E+04  0.10749601161E+04  0.00000000000E+00 0. -1.
         22    1    3    3    0    0  0.65716966104E+01  0.13921697909E+02  0.11025682010E+03  0.11132639959E+03  0.00000000000E+00 0. -1.
</event>
<event>
 7    1  0.5789396E-006  0.3723359E+02  0.7818608E-02  0.1582593E+00
          2   -1    0    0  502    0  0.00000000000E+00  0.00000000000E+00  0.17363067119E+04  0.17363067119E+04  0.00000000000E+00 0. -1.
          1   -1    0    0  501    0 -0.00000000000E+00 -0.00000000000E+00 -0.50158511890E+03  0.50158511890E+03  0.00000000000E+00 0. -1.
         25    2    1    2    0    0  0.16965830037E+02 -0.13513061082E+02  0.24755688982E+03  0.27817213325E+03  0.12499951925E+03 0.  0.
          2    1    1    2  501    0 -0.11956048566E+02 -0.23721987086E+02 -0.48567496436E+03  0.48640091568E+03  0.00000000000E+00 0. -1.
          1    1    1    2  502    0 -0.50097814711E+01  0.37235048168E+02  0.14728396675E+04  0.14733187818E+04  0.00000000000E+00 0. -1.
         22    1    3    3    0    0  0.11349038900E+02  0.51571266076E+02  0.16287456386E+03  0.17122067551E+03  0.00000000000E+00 0. -1.
         22    1    3    3    0    0  0.56167911374E+01 -0.65084327158E+02  0.84682325960E+02  0.10695145775E+03  0.00000000000E+00 0. -1.
</event>
<event>
 7    1  0.5789396E-006  0.7008425E+02  0.7818608E-02  0.1448453E+00
          2   -1    0    0  502    0  0.00000000000E+00  0.00000000000E+00  0.12966573809E+04  0.12966573809E+04  0.00000000000E+00 0. -1.
          1   -1    0    0  501    0 -0.00000000000E+00 -0.00000000000E+00 -0.98206105304E+03  0.98206105304E+03  0.00000000000E+00 0. -1.
         25    2    1    2    0    0  0.22484075224E+02 -0.33778682431E+02  0.32483177015E+03  0.35041040603E+03  0.12500096291E+03 0.  0.
          2    1    1    2  501    0 -0.56409817909E+02  0.41792263507E+02 -0.96768290111E+03  0.97022618907E+03  0.00000000000E+00 0. -1.
          1    1    1    2  502    0  0.33925742684E+02 -0.80135810761E+01  0.95744745885E+03  0.95808183886E+03  0.00000000000E+00 0. -1.
         22    1    3    3    0    0  0.46662235389E+02 -0.40597689178E+02  0.66337835385E+02  0.90698649283E+02  0.00000000000E+00 0. -1.
         22    1    3    3    0    0 -0.24178160165E+02  0.68190067469E+01  0.25849393477E+03  0.25971175675E+03  0.00000000000E+00 0. -1.
</event>
<event>
 7    1  0.5789396E-006  0.1119392E+03  0.7818608E-02  0.1402699E+00
          2   -1    0    0  502    0  0.00000000000E+00  0.00000000000E+00  0.19672591447E+04  0.19672591447E+04  0.00000000000E+00 0. -1.
          1   -1    0    0  501    0 -0.00000000000E+00 -0.00000000000E+00 -0.10917618852E+03  0.10917618852E+03  0.00000000000E+00 0. -1.
         25    2    1    2    0    0 -0.90006272268E+02  0.27996970505E+02  0.77524213218E+03  0.79089234796E+03  0.12500153259E+03 0.  0.
          2    1    1    2  501    0  0.96547496141E+02 -0.58242656655E+02 -0.69718656987E+02  0.13256816057E+03  0.00000000000E+00 0. -1.
          1    1    1    2  502    0 -0.65412238724E+01  0.30245686150E+02  0.11525594810E+04  0.11529748247E+04  0.00000000000E+00 0. -1.
         22    1    3    3    0    0 -0.38160915297E+02 -0.19761320662E+02  0.60647747528E+03  0.60799810302E+03  0.00000000000E+00 0. -1.
         22    1    3    3    0    0 -0.51845356971E+02  0.47758291167E+02  0.16876465690E+03  0.18289424494E+03  0.00000000000E+00 0. -1.
</event>
<event>
 7    1  0.5789396E-006  0.5791692E+02  0.7818608E-02  0.1416656E+00
          2   -1    0    0  502    0  0.00000000000E+00  0.00000000000E+00  0.26126726737E+04  0.26126726737E+04  0.00000000000E+00 0. -1.
          1   -1    0    0  501    0 -0.00000000000E+00 -0.00000000000E+00 -0.14141711353E+03  0.14141711353E+03  0.00000000000E+00 0. -1.
         25    2    1    2    0    0 -0.35986829483E+02  0.72958340926E+01  0.18516258507E+02  0.13159203410E+03  0.12500132206E+03 0.  0.
          2    1    1    2  501    0  0.23320922874E+02 -0.59413359812E+02 -0.72555232741E+02  0.96633713403E+02  0.00000000000E+00 0. -1.
          1    1    1    2  502    0  0.12665906609E+02  0.52117525720E+02  0.25252945345E+04  0.25258640398E+04  0.00000000000E+00 0. -1.
         22    1    3    3    0    0 -0.21857680145E+02  0.24514352653E+02 -0.49845473323E+02  0.59693239803E+02  0.00000000000E+00 0.  1.
         22    1    3    3    0    0 -0.14129149338E+02 -0.17218518560E+02  0.68361731830E+02  0.71898794296E+02  0.00000000000E+00 0.  1.
</event>
<event>
 7    1  0.5789396E-006  0.1528619E+03  0.7818608E-02  0.1343435E+00
          2   -1    0    0  502    0  0.00000000000E+00  0.00000000000E+00  0.53975873094E+03  0.53975873094E+03  0.00000000000E+00 0. -1.
          1   -1    0    0  501    0 -0.00000000000E+00 -0.00000000000E+00 -0.11140227917E+04  0.11140227917E+04  0.00000000000E+00 0. -1.
         25    2    1    2    0    0 -0.70609180603E+02 -0.10460253749E+03 -0.18369313204E+02  0.17857791545E+03  0.12500117193E+03 0.  0.
          2    1    1    2  501    0  0.10672714697E+03  0.11233524401E+03 -0.10088825318E+04  0.10207124247E+04  0.00000000000E+00 0. -1.
          1    1    1    2  502    0 -0.36117966364E+02 -0.77327065145E+01  0.45298778427E+03  0.45449118247E+03  0.00000000000E+00 0. -1.
         22    1    3    3    0    0  0.12783962896E+02 -0.24722299326E+02 -0.51414611974E+02  0.58464383309E+02  0.00000000000E+00 0. -1.
         22    1    3    3    0    0 -0.83393143499E+02 -0.79880238166E+02  0.33045298770E+02  0.12011353214E+03  0.00000000000E+00 0. -1.
</event>
<event>
 7    1  0.5789396E-006  0.1405385E+03  0.7818608E-02  0.1332042E+00
          2   -1    0    0  502    0  0.00000000000E+00  0.00000000000E+00  0.19825842816E+04  0.19825842816E+04  0.00000000000E+00 0. -1.
          1   -1    0    0  501    0 -0.00000000000E+00 -0.00000000000E+00 -0.39343513700E+03  0.39343513700E+03  0.00000000000E+00 0. -1.
         25    2    1    2    0    0  0.13030450059E+03 -0.96537974046E+02 -0.45135147231E+02  0.20966802722E+03  0.12499862726E+03 0.  0.
          2    1    1    2  501    0 -0.42484363124E+02 -0.12754459581E+02 -0.26157778294E+03  0.26531214423E+03  0.00000000000E+00 0. -1.
          1    1    1    2  502    0 -0.87820137468E+02  0.10929243363E+03  0.18958620748E+04  0.19010392471E+04  0.00000000000E+00 0. -1.
         22    1    3    3    0    0  0.78452699666E+02 -0.12118427275E+03 -0.15880946691E+02  0.14523311783E+03  0.00000000000E+00 0. -1.
         22    1    3    3    0    0  0.51851800925E+02  0.24646298707E+02 -0.29254200540E+02  0.64434909392E+02  0.00000000000E+00 0. -1.
</event>
<event>
 7    1  0.5789396E-006  0.8717295E+02  0.7818608E-02  0.1444288E+00
          2   -1    0    0  502    0  0.00000000000E+00  0.00000000000E+00  0.93020115248E+03  0.93020115248E+03  0.00000000000E+00 0. -1.
          1   -1    0    0  501    0 -0.00000000000E+00 -0.00000000000E+00 -0.21092745465E+03  0.21092745465E+03  0.00000000000E+00 0. -1.
         25    2    1    2    0    0  0.86935690978E+01  0.77475563187E+02  0.29946984793E+03  0.33374283267E+03  0.12499618995E+03 0.  0.
          2    1    1    2  501    0 -0.37549670322E+02 -0.79133740964E+02 -0.18352986354E+03  0.20336011780E+03  0.00000000000E+00 0. -1.
          1    1    1    2  502    0  0.28856101224E+02  0.16581777769E+01  0.60333371344E+03  0.60402565666E+03  0.00000000000E+00 0. -1.
         22    1    3    3    0    0 -0.14686189732E+02  0.99979419106E+02  0.15049141433E+03  0.18127116208E+03  0.00000000000E+00 0.  1.
         22    1    3    3    0    0  0.23379758830E+02 -0.22503855919E+02  0.14897843360E+03  0.15247167059E+03  0.00000000000E+00 0.  1.
</event>
<event>
 7    1  0.5789396E-006  0.3474829E+02  0.7818608E-02  0.1592394E+00
          2   -1    0    0  502    0  0.00000000000E+00  0.00000000000E+00  0.10161667370E+04  0.10161667370E+04  0.00000000000E+00 0. -1.
          1   -1    0    0  501    0 -0.00000000000E+00 -0.00000000000E+00 -0.19749805755E+04  0.19749805755E+04  0.00000000000E+00 0. -1.
         25    2    1    2    0    0  0.15584948896E+02  0.16582497101E+02 -0.37116522148E+02  0.13236241119E+03  0.12499720732E+03 0.  0.
          2    1    1    2  501    0  0.19171068734E+02 -0.18740194527E+02 -0.18898330001E+04  0.18900231461E+04  0.00000000000E+00 0. -1.
          1    1    1    2  502    0 -0.34756017630E+02  0.21576974269E+01  0.96813568363E+03  0.96876175520E+03  0.00000000000E+00 0. -1.
         22    1    3    3    0    0 -0.21868064618E+02  0.18459990840E+02 -0.74258401937E+02  0.79581994007E+02  0.00000000000E+00 0. -1.
         22    1    3    3    0    0  0.37453013514E+02 -0.18774937398E+01  0.37141879789E+02  0.52780417185E+02  0.00000000000E+00 0. -1.
</event>
<event>
 7    1  0.5789396E-006  0.3463499E+02  0.7818608E-02  0.1577208E+00
          2   -1    0    0  502    0  0.00000000000E+00  0.00000000000E+00  0.13277012322E+04  0.13277012322E+04  0.00000000000E+00 0. -1.
          1   -1    0    0  501    0 -0.00000000000E+00 -0.00000000000E+00 -0.13520210530E+04  0.13520210530E+04  0.00000000000E+00 0. -1.
         25    2    1    2    0    0  0.90661492150E+01 -0.11086056816E+02 -0.22024061281E+02  0.12772892945E+03  0.12499809769E+03 0.  0.
          2    1    1    2  501    0  0.25433196891E+02  0.14992637601E+02 -0.12767374802E+04  0.12770787838E+04  0.00000000000E+00 0. -1.
          1    1    1    2  502    0 -0.34499346106E+02 -0.39065807845E+01  0.12744417207E+04  0.12749145719E+04  0.00000000000E+00 0. -1.
         22    1    3    3    0    0 -0.48368287815E+02 -0.13715412845E+02  0.22431099740E+02  0.55052321034E+02  0.00000000000E+00 0.  1.
         22    1    3    3    0    0  0.57434437030E+02  0.26293560287E+01 -0.44455161021E+02  0.72676608420E+02  0.00000000000E+00 0.  1.
</event>
<event>
 7    1  0.5789396E-006  0.1391084E+03  0.7818608E-02  0.1216289E+00
          2   -1    0    0  502    0  0.00000000000E+00  0.00000000000E+00  0.17372632436E+04  0.17372632436E+04  0.00000000000E+00 0. -1.
          1   -1    0    0  501    0 -0.00000000000E+00 -0.00000000000E+00 -0.24322255362E+03  0.24322255362E+03  0.00000000000E+00 0. -1.
         25    2    1    2    0    0  0.88140394443E+02  0.91155912645E+02  0.52018061621E+03  0.54980876933E+03  0.12499471909E+03 0.  0.
          2    1    1    2  501    0 -0.11984847236E+03  0.65438170405E+02 -0.20210367281E+03  0.24390921474E+03  0.00000000000E+00 0. -1.
          1    1    1    2  502    0  0.31708077917E+02 -0.15659408305E+03  0.11759637466E+04  0.11867678131E+04  0.00000000000E+00 0. -1.
         22    1    3    3    0    0  0.26769699708E+01 -0.29299916146E+02  0.67209812576E+02  0.73367637013E+02  0.00000000000E+00 0.  1.
         22    1    3    3    0    0  0.85463424472E+02  0.12045582879E+03  0.45297080364E+03  0.47644113231E+03  0.00000000000E+00 0.  1.
</event>
<event>
 7    1  0.5789396E-006  0.7109629E+02  0.7818608E-02  0.1513526E+00
          2   -1    0    0  502    0  0.00000000000E+00  0.00000000000E+00  0.28986369116E+02  0.28986369116E+02  0.00000000000E+00 0. -1.
          1   -1    0    0  501    0 -0.00000000000E+00 -0.00000000000E+00 -0.12602920854E+04  0.12602920854E+04  0.00000000000E+00 0. -1.
         25    2    1    2    0    0 -0.79972006350E+02 -0.22286153726E+02 -0.38019404699E+03  0.40873592265E+03  0.12500138661E+03 0.  0.
          2    1    1    2  501    0  0.11109357350E+02  0.18651602487E+02 -0.78405628383E+03  0.78435677871E+03  0.00000000000E+00 0. -1.
          1    1    1    2  502    0  0.68862648999E+02  0.36345512392E+01 -0.67055385478E+02  0.96185753163E+02  0.00000000000E+00 0. -1.
         22    1    3    3    0    0  0.24985611883E+02 -0.31100011863E+02 -0.63553430770E+02  0.75036858287E+02  0.00000000000E+00 0.  1.
         22    1    3    3    0    0 -0.10495761823E+03  0.88138581368E+01 -0.31664061622E+03  0.33369906437E+03  0.00000000000E+00 0.  1.
</event>
<event>
 7    1  0.5789396E-006  0.1235836E+03  0.7818608E-02  0.1272047E+00
          2   -1    0    0  502    0  0.00000000000E+00  0.00000000000E+00  0.18307281689E+04  0.18307281689E+04  0.00000000000E+00 0. -1.
          1   -1    0    0  501    0 -0.00000000000E+00 -0.00000000000E+00 -0.27962504624E+04  0.27962504624E+04  0.00000000000E+00 0. -1.
         25    2    1    2    0    0 -0.98479963098E+02 -0.14566015703E+03 -0.10124802390E+04  0.10352086215E+04  0.12500188443E+03 0.  0.
          2    1    1    2  501    0  0.10169465383E+03  0.58152308270E+02 -0.17694143822E+04  0.17732881180E+04  0.00000000000E+00 0. -1.
          1    1    1    2  502    0 -0.32146907278E+01  0.87507848759E+02  0.18163723278E+04  0.18184818918E+04  0.00000000000E+00 0. -1.
         22    1    3    3    0    0 -0.42273541059E+02 -0.53091455570E+02 -0.13528028805E+03  0.15134897179E+03  0.00000000000E+00 0. -1.
         22    1    3    3    0    0 -0.56206422038E+02 -0.92568701459E+02 -0.87719995094E+03  0.88385964966E+03  0.00000000000E+00 0. -1.
</event>
<event>
 7    1  0.5789396E-006  0.5207216E+02  0.7818608E-02  0.1560049E+00
          2   -1    0    0  502    0  0.00000000000E+00  0.00000000000E+00  0.13018168369E+04  0.13018168369E+04  0.00000000000E+00 0. -1.
          1   -1    0    0  501    0 -0.00000000000E+00 -0.00000000000E+00 -0.20080761473E+03  0.20080761473E+03  0.00000000000E+00 0. -1.
         25    2    1    2    0    0  0.78482092240E+01 -0.71573064515E+02 -0.32855384470E+02  0.14794855503E+03  0.12500000278E+03 0.  0.
          2    1    1    2  501    0 -0.96012110785E+01  0.19645793639E+02 -0.10877474104E+03  0.11095082131E+03  0.00000000000E+00 0. -1.
          1    1    1    2  502    0  0.17530018544E+01  0.51927270876E+02  0.12426393477E+04  0.12437250753E+04  0.00000000000E+00 0. -1.
         22    1    3    3    0    0  0.62468638235E+01 -0.10576872173E+03 -0.92296161880E+01  0.10635427410E+03  0.00000000000E+00 0.  1.
         22    1    3    3    0    0  0.16013454005E+01  0.34195657215E+02 -0.23625768282E+02  0.41594280934E+02  0.00000000000E+00 0.  1.
</event>
<event>
 7    1  0.5789396E-006  0.1442454E+03  0.7818608E-02  0.1264739E+00
          2   -1    0    0  502    0  0.00000000000E+00  0.00000000000E+00  0.16129535962E+04  0.16129535962E+04  0.00000000000E+00 0. -1.
          1   -1    0    0  501    0 -0.00000000000E+00 -0.00000000000E+00 -0.31112072316E+03  0.31112072316E+03  0.00000000000E+00 0. -1.
         25    2    1    2    0    0 -0.37748898562E+02  0.99584609338E+02 -0.10020877712E+02  0.16452016534E+03  0.12499757219E+03 0.  0.
          2    1    1    2  501    0  0.67608694190E+02  0.43754015830E+02 -0.21298531434E+03  0.22770176450E+03  0.00000000000E+00 0. -1.
          1    1    1    2  502    0 -0.29859795628E+02 -0.14333862517E+03  0.15248390651E+04  0.15318523895E+04  0.00000000000E+00 0. -1.
         22    1    3    3    0    0 -0.12113956810E+02 -0.29079227842E+02  0.68775280954E+01  0.32243601446E+02  0.00000000000E+00 0.  1.
         22    1    3    3    0    0 -0.25634941752E+02  0.12866383718E+03 -0.16898405808E+02  0.13227656389E+03  0.00000000000E+00 0.  1.
</event>
<event>
 7    1  0.5789396E-006  0.1049726E+03  0.7818608E-02  0.1366890E+00
          2   -1    0    0  502    0  0.00000000000E+00  0.00000000000E+00  0.16091981134E+04  0.16091981134E+04  0.00000000000E+00 0. -1.
          1   -1    0    0  501    0 -0.00000000000E+00 -0.00000000000E+00 -0.19630575395E+03  0.19630575395E+03  0.00000000000E+00 0. -1.
         25    2    1    2    0    0  0.12883177600E+03  0.42501598736E+02  0.15686807537E+03  0.24214939029E+03  0.12499888698E+03 0.  0.
          2    1    1    2  501    0 -0.10239922972E+03 -0.72002980131E+01 -0.13613336153E+03  0.17049850046E+03  0.00000000000E+00 0. -1.
          1    1    1    2  502    0 -0.26432546273E+02 -0.35301300723E+02  0.13921576456E+04  0.13928559766E+04  0.00000000000E+00 0. -1.
         22    1    3    3    0    0 -0.19141370786E+02  0.21354044635E+02  0.50929783976E+01  0.29126031772E+02  0.00000000000E+00 0. -1.
         22    1    3    3    0    0  0.14797314678E+03  0.21147554101E+02  0.15177509697E+03  0.21302335852E+03  0.00000000000E+00 0. -1.
</event>
<event>
 7    1  0.5789396E-006  0.1075452E+03  0.7818608E-02  0.1380780E+00
          2   -1    0    0  502    0  0.00000000000E+00  0.00000000000E+00  0.11839933128E+04  0.11839933128E+04  0.00000000000E+00 0. -1.
          1   -1    0    0  501    0 -0.00000000000E+00 -0.00000000000E+00 -0.17972107011E+04  0.17972107011E+04  0.00000000000E+00 0. -1.
         25    2    1    2    0    0 -0.13879419476E+03  0.11942063578E+02  0.71155464215E+02  0.20023610459E+03  0.12499982445E+03 0.  0.
          2    1    1    2  501    0  0.10363082720E+03 -0.27360967875E+02 -0.17306603630E+04  0.17339761426E+04  0.00000000000E+00 0. -1.
          1    1    1    2  502    0  0.35163367567E+02  0.15418904297E+02  0.10462875105E+04  0.10469917668E+04  0.00000000000E+00 0. -1.
         22    1    3    3    0    0 -0.13306791698E+03  0.87506685694E+01  0.10251093935E+03  0.16820266768E+03  0.00000000000E+00 0. -1.
         22    1    3    3    0    0 -0.57262777885E+01  0.31913950086E+01 -0.31355475136E+02  0.32033436913E+02  0.00000000000E+00 0. -1.
</event>
<event>
 7    1  0.5789396E-006  0.4431123E+02  0.7818608E-02  0.1491930E+00
          2   -1    0    0  502    0  0.00000000000E+00  0.00000000000E+00  0.88448700023E+02  0.88448700023E+02  0.00000000000E+00 0. -1.
          1   -1    0    0  501    0 -0.00000000000E+00 -0.00000000000E+00 -0.10512931838E+04  0.10512931838E+04  0.00000000000E+00 0. -1.
         25    2    1    2    0    0  0.36478984022E+02  0.19994277745E+02 -0.63756975722E+03  0.65103789918E+03  0.12499865367E+03 0.  0.
          2    1    1    2  501    0 -0.43691386585E+02  0.19738534668E+02 -0.40048169297E+03  0.40334121215E+03  0.00000000000E+00 0. -1.
          1    1    1    2  502    0  0.72124025630E+01 -0.39732812413E+02  0.75206966411E+02  0.85362772505E+02  0.00000000000E+00 0. -1.
         22    1    3    3    0    0  0.72891436601E+02 -0.21286203872E+02 -0.40347665551E+03  0.41056019723E+03  0.00000000000E+00 0.  1.
         22    1    3    3    0    0 -0.36412452579E+02  0.41280481617E+02 -0.23409310171E+03  0.24047770195E+03  0.00000000000E+00 0.  1.
</event>
<event>
 7    1  0.5789396E-006  0.3078246E+02  0.7818608E-02  0.1655478E+00
          2   -1    0    0  502    0  0.00000000000E+00  0.00000000000E+00  0.16051673725E+03  0.16051673725E+03  0.00000000000E+00 0. -1.
          1   -1    0    0  501    0 -0.00000000000E+00 -0.00000000000E+00 -0.12468718539E+03  0.12468718539E+03  0.00000000000E+00 0. -1.
         25    2    1    2    0    0 -0.35035574434E+02 -0.22665925727E+02 -0.18860957629E+02  0.13312563781E+03  0.12500185621E+03 0.  0.
          2    1    1    2  501    0  0.45165155656E+01  0.20447546575E+02 -0.44012900933E+02  0.48740501868E+02  0.00000000000E+00 0. -1.
          1    1    1    2  502    0  0.30519058869E+02  0.22183791516E+01  0.98703410420E+02  0.10333778297E+03  0.00000000000E+00 0. -1.
         22    1    3    3    0    0  0.40298699555E+02 -0.37248809910E+02 -0.11233491022E+02  0.56014733294E+02  0.00000000000E+00 0. -1.
         22    1    3    3    0    0 -0.75334273989E+02  0.14582884183E+02 -0.76274666063E+01  0.77110904517E+02  0.00000000000E+00 0. -1.
</event>
<event>
 7    1  0.5789396E-006  0.5779711E+02  0.7818608E-02  0.1433587E+00
          2   -1    0    0  502    0  0.00000000000E+00  0.00000000000E+00  0.84589274610E+02  0.84589274610E+02  0.00000000000E+00 0. -1.
          1   -1    0    0  501    0 -0.00000000000E+00 -0.00000000000E+00 -0.10621420910E+04  0.10621420910E+04  0.00000000000E+00 0. -1.
         25    2    1    2    0    0  0.46010045999E+02 -0.91276232866E+02 -0.19465241140E+03  0.25290979048E+03  0.12500210334E+03 0.  0.
          2    1    1    2  501    0 -0.22893619182E+02  0.41309654726E+02 -0.82385300692E+03  0.82520566066E+03  0.00000000000E+00 0. -1.
          1    1    1    2  502    0 -0.23116426817E+02  0.49966578140E+02  0.40952601902E+02  0.68615914497E+02  0.00000000000E+00 0. -1.
         22    1    3    3    0    0  0.70556520848E+02 -0.25489221704E+02 -0.44688811583E+02  0.87321320065E+02  0.00000000000E+00 0.  1.
         22    1    3    3    0    0 -0.24546474849E+02 -0.65787011162E+02 -0.14996359982E+03  0.16558847042E+03  0.00000000000E+00 0.  1.
</event>
<event>
 7    1  0.5789396E-006  0.2848033E+03  0.7818608E-02  0.1258783E+00
          2   -1    0    0  502    0  0.00000000000E+00  0.00000000000E+00  0.22084733779E+04  0.22084733779E+04  0.00000000000E+00 0. -1.
          1   -1    0    0  501    0 -0.00000000000E+00 -0.00000000000E+00 -0.50407663661E+03  0.50407663661E+03  0.00000000000E+00 0. -1.
         25    2    1    2    0    0  0.24926277703E+03  0.16025209314E+03  0.12867259489E+03  0.34641136384E+03  0.12502612107E+03 0.  0.
          2    1    1    2  501    0 -0.25719372861E+03 -0.11774733972E+03 -0.34431805173E+03  0.44560966192E+03  0.00000000000E+00 0. -1.
          1    1    1    2  502    0  0.79309515764E+01 -0.42504753418E+02  0.19200421981E+04  0.19205289888E+04  0.00000000000E+00 0. -1.
         22    1    3    3    0    0  0.98396240907E+02  0.12723671045E+03  0.99823059952E+02  0.18930304807E+03  0.00000000000E+00 0.  1.
         22    1    3    3    0    0  0.15086653613E+03  0.33015382690E+02  0.28849534940E+02  0.15710831577E+03  0.00000000000E+00 0.  1.
</event>
<event>
 7    1  0.5789396E-006  0.2355340E+03  0.7818608E-02  0.1197318E+00
          2   -1    0    0  502    0  0.00000000000E+00  0.00000000000E+00  0.11924746522E+04  0.11924746522E+04  0.00000000000E+00 0. -1.
          1   -1    0    0  501    0 -0.00000000000E+00 -0.00000000000E+00 -0.23508688411E+03  0.23508688411E+03  0.00000000000E+00 0. -1.
         25    2    1    2    0    0  0.11846623138E+03  0.16269712271E+03  0.57983243315E+03  0.62636835708E+03  0.12500826574E+03 0.  0.
          2    1    1    2  501    0  0.13472378370E+02  0.97941208076E+02 -0.16075606926E+03  0.18872333989E+03  0.00000000000E+00 0. -1.
          1    1    1    2  502    0 -0.13193860975E+03 -0.26063833079E+03  0.53831140422E+03  0.61246983936E+03  0.00000000000E+00 0. -1.
         22    1    3    3    0    0  0.94796233931E+02  0.59253616832E+02  0.17341205686E+03  0.20632270486E+03  0.00000000000E+00 0. -1.
         22    1    3    3    0    0  0.23669997448E+02  0.10344350588E+03  0.40642037629E+03  0.42004565222E+03  0.00000000000E+00 0. -1.
</event>
<event>
 7    1  0.5789396E-006  0.7369195E+02  0.7818608E-02  0.1431973E+00
          2   -1    0    0  502    0  0.00000000000E+00  0.00000000000E+00  0.19140693596E+04  0.19140693596E+04  0.00000000000E+00 0. -1.
          1   -1    0    0  501    0 -0.00000000000E+00 -0.00000000000E+00 -0.26818693170E+03  0.26818693170E+03  0.00000000000E+00 0. -1.
         25    2    1    2    0    0  0.40040357033E+02  0.39365539027E+02  0.11926672137E+03  0.18167715484E+03  0.12501664654E+03 0.  0.
          2    1    1    2  501    0 -0.20962008572E+02 -0.71645374783E+02 -0.23089819696E+03  0.24266528984E+03  0.00000000000E+00 0. -1.
          1    1    1    2  502    0 -0.19078348461E+02  0.32279835756E+02  0.17575139035E+04  0.17579138466E+04  0.00000000000E+00 0. -1.
         22    1    3    3    0    0 -0.20999807977E+02 -0.26689085367E+02  0.21743313564E+01  0.34029794734E+02  0.00000000000E+00 0. -1.
         22    1    3    3    0    0  0.61040165009E+02  0.66054624395E+02  0.11709239001E+03  0.14764736011E+03  0.00000000000E+00 0. -1.
</event>
<event>
 7    1  0.5789396E-006  0.1085025E+03  0.7818608E-02  0.1353304E+00
          2   -1    0    0  502    0  0.00000000000E+00  0.00000000000E+00  0.76297011794E+02  0.76297011794E+02  0.00000000000E+00 0. -1.
          1   -1    0    0  501    0 -0.00000000000E+00 -0.00000000000E+00 -0.17317760840E+04  0.17317760840E+04  0.00000000000E+00 0. -1.
         25    2    1    2    0    0 -0.91323836531E+02 -0.99942240278E+02 -0.39815023040E+03  0.43872634777E+03  0.12501483013E+03 0.  0.
          2    1    1    2  501    0  0.47706020804E+02  0.33754956533E+01 -0.12623610945E+04  0.12632667142E+04  0.00000000000E+00 0. -1.
          1    1    1    2  502    0  0.43617815727E+02  0.96566744624E+02  0.50322526242E+01  0.10608003385E+03  0.00000000000E+00 0. -1.
         22    1    3    3    0    0 -0.38868326535E+02 -0.39741066604E+02 -0.32358147406E+02  0.64320672306E+02  0.00000000000E+00 0. -1.
         22    1    3    3    0    0 -0.52455509997E+02 -0.60201173674E+02 -0.36579208299E+03  0.37440567547E+03  0.00000000000E+00 0. -1.
</event>
<event>
 7    1  0.5789396E-006  0.4869187E+03  0.7818608E-02  0.1141710E+00
          2   -1    0    0  502    0  0.00000000000E+00  0.00000000000E+00  0.15869039808E+04  0.15869039808E+04  0.00000000000E+00 0. -1.
          1   -1    0    0  501    0 -0.00000000000E+00 -0.00000000000E+00 -0.64536810777E+03  0.64536810777E+03  0.00000000000E+00 0. -1.
         25    2    1    2    0    0 -0.40657246356E+03 -0.63691014207E+02 -0.46243650528E+02  0.43257842374E+03  0.12501161568E+03 0.  0.
          2    1    1    2  501    0 -0.86418289709E+02 -0.26576159627E+02 -0.35505118896E+03  0.36638198624E+03  0.00000000000E+00 0. -1.
          1    1    1    2  502    0  0.49299075327E+03  0.90267173834E+02  0.13428307125E+04  0.14333116786E+04  0.00000000000E+00 0. -1.
         22    1    3    3    0    0 -0.95610947968E+01  0.15960406022E+02  0.13885778672E+02  0.23215596986E+02  0.00000000000E+00 0. -1.
         22    1    3    3    0    0 -0.39701136876E+03 -0.79651420229E+02 -0.60129429200E+02  0.40936282675E+03  0.00000000000E+00 0. -1.
</event>
<event>
 7    1  0.5789396E-006  0.1799810E+03  0.7818608E-02  0.1271198E+00
          2   -1    0    0  502    0  0.00000000000E+00  0.00000000000E+00  0.30264302763E+04  0.30264302763E+04  0.00000000000E+00 0. -1.
          1   -1    0    0  501    0 -0.00000000000E+00 -0.00000000000E+00 -0.66514269639E+03  0.66514269639E+03  0.00000000000E+00 0. -1.
         25    2    1    2    0    0  0.17275771263E+03 -0.14833140911E+03  0.15983878785E+02  0.26024544300E+03  0.12499908807E+03 0.  0.
          2    1    1    2  501    0 -0.59882752234E+02  0.94353738027E+01 -0.53853702904E+03  0.54193828241E+03  0.00000000000E+00 0. -1.
          1    1    1    2  502    0 -0.11287496040E+03  0.13889603530E+03  0.28838407302E+04  0.28893892473E+04  0.00000000000E+00 0. -1.
         22    1    3    3    0    0  0.10682597942E+03 -0.12773605466E+03 -0.40090679671E+02  0.17127624510E+03  0.00000000000E+00 0. -1.
         22    1    3    3    0    0  0.65931733208E+02 -0.20595354449E+02  0.56074558456E+02  0.88969197898E+02  0.00000000000E+00 0. -1.
</event>
<event>
 7    1  0.5789396E-006  0.1490417E+03  0.7818608E-02  0.1359968E+00
          2   -1    0    0  502    0  0.00000000000E+00  0.00000000000E+00  0.27710403320E+03  0.27710403320E+03  0.00000000000E+00 0. -1.
          1   -1    0    0  501    0 -0.00000000000E+00 -0.00000000000E+00 -0.51275270339E+03  0.51275270339E+03  0.00000000000E+00 0. -1.
         25    2    1    2    0    0 -0.16247601861E+03 -0.54863725543E+02 -0.73268420655E+02  0.22450469231E+03  0.12500244157E+03 0.  0.
          2    1    1    2  501    0  0.14199177459E+03  0.29104198419E+02 -0.34792597935E+03  0.37691007618E+03  0.00000000000E+00 0. -1.
          1    1    1    2  502    0  0.20484244027E+02  0.25759527125E+02  0.18554572982E+03  0.18844196811E+03  0.00000000000E+00 0. -1.
         22    1    3    3    0    0 -0.15182171581E+03  0.44943796810E+01 -0.53741243101E+02  0.16111534393E+03  0.00000000000E+00 0. -1.
         22    1    3    3    0    0 -0.10654302799E+02 -0.59358105224E+02 -0.19527177554E+02  0.63389348373E+02  0.00000000000E+00 0. -1.
</event>
<event>
 7    1  0.5789396E-006  0.1012634E+03  0.7818608E-02  0.1390514E+00
          2   -1    0    0  502    0  0.00000000000E+00  0.00000000000E+00  0.20910255961E+04  0.20910255961E+04  0.00000000000E+00 0. -1.
          1   -1    0    0  501    0 -0.00000000000E+00 -0.00000000000E+00 -0.21753612760E+03  0.21753612760E+03  0.00000000000E+00 0. -1.
         25    2    1    2    0    0  0.84694946540E+02  0.80673477193E+02  0.14358278915E+04  0.14459969243E+04  0.12499570859E+03 0.  0.
          2    1    1    2  501    0 -0.91318384367E+02 -0.43569612960E+02 -0.19981665392E+03  0.22397333253E+03  0.00000000000E+00 0. -1.
          1    1    1    2  502    0  0.66234378273E+01 -0.37103864233E+02  0.63747823096E+03  0.63859146691E+03  0.00000000000E+00 0. -1.
         22    1    3    3    0    0  0.20445473998E+02 -0.30931704593E+02  0.49652110423E+03  0.49790359981E+03  0.00000000000E+00 0.  1.
         22    1    3    3    0    0  0.64249472542E+02  0.11160518179E+03  0.93930678727E+03  0.94809332449E+03  0.00000000000E+00 0.  1.
</event>
<event>
 7    1  0.5789396E-006  0.6339160E+02  0.7818608E-02  0.1419267E+00
          2   -1    0    0  502    0  0.00000000000E+00  0.00000000000E+00  0.10359155040E+04  0.10359155040E+04  0.00000000000E+00 0. -1.
          1   -1    0    0  501    0 -0.00000000000E+00 -0.00000000000E+00 -0.99289756313E+02  0.99289756313E+02  0.00000000000E+00 0. -1.
         25    2    1    2    0    0 -0.13806045234E+01 -0.90758942602E+02  0.25896333796E+03  0.30153856541E+03  0.12499761715E+03 0.  0.
          2    1    1    2  501    0  0.32084587763E+02  0.53830312882E+02 -0.64512947251E+02  0.89939111181E+02  0.00000000000E+00 0. -1.
          1    1    1    2  502    0 -0.30703983239E+02  0.36928629719E+02  0.74217535698E+03  0.74372758372E+03  0.00000000000E+00 0. -1.
         22    1    3    3    0    0 -0.42945808704E+02 -0.78375236389E+02  0.88992870810E+02  0.12612196961E+03  0.00000000000E+00 0. -1.
         22    1    3    3    0    0  0.41565204180E+02 -0.12383706213E+02  0.16997046715E+03  0.17541659580E+03  0.00000000000E+00 0. -1.
</event>
<event>
 7    1  0.5789396E-006  0.6201334E+02  0.7818608E-02  0.1392996E+00
          2   -1    0    0  502    0  0.00000000000E+00  0.00000000000E+00  0.22318277449E+03  0.22318277449E+03  0.00000000000E+00 0. -1.
          1   -1    0    0  501    0 -0.00000000000E+00 -0.00000000000E+00 -0.29461404323E+03  0.29461404323E+03  0.00000000000E+00 0. -1.
         25    2    1    2    0    0  0.84860141664E+02  0.42005948984E+02  0.39886751842E+01  0.15686474743E+03  0.12499958425E+03 0.  0.
          2    1    1    2  501    0 -0.59889052071E+02  0.12917409527E+02 -0.20716208548E+03  0.21603168214E+03  0.00000000000E+00 0. -1.
          1    1    1    2  502    0 -0.24971089593E+02 -0.54923358511E+02  0.13174214155E+03  0.14490038815E+03  0.00000000000E+00 0. -1.
         22    1    3    3    0    0  0.66933874755E+02  0.83210198011E+02 -0.15457066614E+02  0.10790274117E+03  0.00000000000E+00 0.  1.
         22    1    3    3    0    0  0.17926266909E+02 -0.41204249027E+02  0.19445741798E+02  0.48962006262E+02  0.00000000000E+00 0.  1.
</event>
<event>
 7    1  0.5789396E-006  0.6914480E+02  0.7818608E-02  0.1408592E+00
          2   -1    0    0  502    0  0.00000000000E+00  0.00000000000E+00  0.86620874207E+03  0.86620874207E+03  0.00000000000E+00 0. -1.
          1   -1    0    0  501    0 -0.00000000000E+00 -0.00000000000E+00 -0.16025570822E+03  0.16025570822E+03  0.00000000000E+00 0. -1.
         25    2    1    2    0    0  0.34182563011E+02  0.14793615938E+02  0.19479547085E+03  0.23441102665E+03  0.12496381583E+03 0.  0.
          2    1    1    2  501    0  0.37412484535E+02 -0.29802141567E+02 -0.13424853516E+03  0.14251501968E+03  0.00000000000E+00 0. -1.
          1    1    1    2  502    0 -0.71595047546E+02  0.15008525628E+02  0.64540609816E+03  0.64953840396E+03  0.00000000000E+00 0. -1.
         22    1    3    3    0    0  0.70728154788E+02 -0.26067613743E+02  0.10636074913E+03  0.13036334347E+03  0.00000000000E+00 0.  1.
         22    1    3    3    0    0 -0.36545591777E+02  0.40861229682E+02  0.88434721720E+02  0.10404768318E+03  0.00000000000E+00 0.  1.
</event>
<event>
 7    1  0.5789396E-006  0.8640261E+02  0.7818608E-02  0.1441912E+00
          2   -1    0    0  502    0  0.00000000000E+00  0.00000000000E+00  0.25402132281E+04  0.25402132281E+04  0.00000000000E+00 0. -1.
          1   -1    0    0  501    0 -0.00000000000E+00 -0.00000000000E+00 -0.19575114881E+03  0.19575114881E+03  0.00000000000E+00 0. -1.
         25    2    1    2    0    0 -0.72472818486E+01 -0.62260824645E+02  0.12284019131E+03  0.18613070404E+03  0.12500397197E+03 0.  0.
          2    1    1    2  501    0  0.17171136778E+02 -0.24210367692E+02 -0.16196294846E+03  0.16466021534E+03  0.00000000000E+00 0. -1.
          1    1    1    2  502    0 -0.99238549296E+01  0.86471192337E+02  0.23835848364E+04  0.23851734575E+04  0.00000000000E+00 0. -1.
         22    1    3    3    0    0  0.44131704758E+02 -0.36896216241E+02  0.83813713454E+01  0.58130762281E+02  0.00000000000E+00 0.  1.
         22    1    3    3    0    0 -0.51378986607E+02 -0.25364608404E+02  0.11445881996E+03  0.12799994176E+03  0.00000000000E+00 0.  1.
</event>
<event>
 7    1  0.5789396E-006  0.1057960E+03  0.7818608E-02  0.1391824E+00
          2   -1    0    0  502    0  0.00000000000E+00  0.00000000000E+00  0.21885744362E+04  0.21885744362E+04  0.00000000000E+00 0. -1.
          1   -1    0    0  501    0 -0.00000000000E+00 -0.00000000000E+00 -0.14980440125E+03  0.14980440125E+03  0.00000000000E+00 0. -1.
         25    2    1    2    0    0 -0.12999291855E+03  0.42132089300E+02  0.98888831640E+03  0.10060848274E+04  0.12503321889E+03 0.  0.
          2    1    1    2  501    0  0.94527367112E+02 -0.46202884511E+02 -0.12129712407E+03  0.16057123646E+03  0.00000000000E+00 0. -1.
          1    1    1    2  502    0  0.35465551442E+02  0.40707952118E+01  0.11711788426E+04  0.11717227736E+04  0.00000000000E+00 0. -1.
         22    1    3    3    0    0 -0.11417275743E+03 -0.10613344819E+02  0.83090241121E+03  0.83877701363E+03  0.00000000000E+00 0.  1.
         22    1    3    3    0    0 -0.15820161125E+02  0.52745434118E+02  0.15798590519E+03  0.16730781379E+03  0.00000000000E+00 0.  1.
</event>
<event>
 7    1  0.5789396E-006  0.4538996E+02  0.7818608E-02  0.1590279E+00
          2   -1    0    0  502    0  0.00000000000E+00  0.00000000000E+00  0.12836209262E+03  0.12836209262E+03  0.00000000000E+00 0. -1.
          1   -1    0    0  501    0 -0.00000000000E+00 -0.00000000000E+00 -0.10371333280E+04  0.10371333280E+04  0.00000000000E+00 0. -1.
         25    2    1    2    0    0  0.36729106487E+02  0.17962012268E+02 -0.61874911783E+03  0.63257163751E+03  0.12499897846E+03 0.  0.
          2    1    1    2  501    0 -0.46969064186E+02  0.13057209516E+00 -0.40923003261E+03  0.41191665374E+03  0.00000000000E+00 0. -1.
          1    1    1    2  502    0  0.10239957699E+02 -0.18092584363E+02  0.11920791506E+03  0.12100712936E+03  0.00000000000E+00 0. -1.
         22    1    3    3    0    0 -0.23265140476E+02  0.44530500747E+02 -0.12886173992E+03  0.13830972588E+03  0.00000000000E+00 0.  1.
         22    1    3    3    0    0  0.59994246962E+02 -0.26568488479E+02 -0.48988737792E+03  0.49426191163E+03  0.00000000000E+00 0.  1.
</event>
<event>
 7    1  0.5789396E-006  0.3161725E+02  0.7818608E-02  0.1612122E+00
          2   -1    0    0  502    0  0.00000000000E+00  0.00000000000E+00  0.14133686597E+04  0.14133686597E+04  0.00000000000E+00 0. -1.
          1   -1    0    0  501    0 -0.00000000000E+00 -0.00000000000E+00 -0.15753748829E+03  0.15753748829E+03  0.00000000000E+00 0. -1.
         25    2    1    2    0    0 -0.23819155530E+02 -0.49168659742E+02  0.37646249310E+03  0.40041686416E+03  0.12499898848E+03 0.  0.
          2    1    1    2  501    0  0.21454289560E+02  0.23100451688E+02 -0.14368388393E+03  0.14710192355E+03  0.00000000000E+00 0. -1.
          1    1    1    2  502    0  0.23648659691E+01  0.26068208054E+02  0.10230525623E+04  0.10233873603E+04  0.00000000000E+00 0. -1.
         22    1    3    3    0    0 -0.59151624006E+02 -0.22129532742E+02  0.86729131269E+02  0.10728733873E+03  0.00000000000E+00 0. -1.
         22    1    3    3    0    0  0.35332468476E+02 -0.27039126999E+02  0.28973336184E+03  0.29312952543E+03  0.00000000000E+00 0. -1.
</event>
<event>
 7    1  0.5789396E-006  0.4719031E+02  0.7818608E-02  0.1463124E+00
          2   -1    0    0  502    0  0.00000000000E+00  0.00000000000E+00  0.13754415556E+04  0.13754415556E+04  0.00000000000E+00 0. -1.
          1   -1    0    0  501    0 -0.00000000000E+00 -0.00000000000E+00 -0.49734325042E+02  0.49734325042E+02  0.00000000000E+00 0. -1.
         25    2    1    2    0    0  0.23034082834E+02  0.17816446895E+02  0.23798918408E+03  0.27039409713E+03  0.12500448502E+03 0.  0.
          2    1    1    2  501    0 -0.36675813408E+02  0.28598634822E+02 -0.16617082493E+02  0.49387494707E+02  0.00000000000E+00 0. -1.
          1    1    1    2  502    0  0.13641730574E+02 -0.46415081718E+02  0.11043351290E+04  0.11053942888E+04  0.00000000000E+00 0. -1.
         22    1    3    3    0    0 -0.50931177501E+02 -0.24235611289E+01  0.81699160159E+02  0.96304783167E+02  0.00000000000E+00 0.  1.
         22    1    3    3    0    0  0.73965260336E+02  0.20240008024E+02  0.15629002392E+03  0.17408931397E+03  0.00000000000E+00 0.  1.
</event>
<event>
 7    1  0.5789396E-006  0.1137526E+03  0.7818608E-02  0.1434161E+00
          2   -1    0    0  502    0  0.00000000000E+00  0.00000000000E+00  0.68762861411E+03  0.68762861411E+03  0.00000000000E+00 0. -1.
          1   -1    0    0  501    0 -0.00000000000E+00 -0.00000000000E+00 -0.62097712813E+03  0.62097712813E+03  0.00000000000E+00 0. -1.
         25    2    1    2    0    0 -0.73225818608E+02  0.64135932424E+02 -0.23247065762E+03  0.28132531965E+03  0.12500356188E+03 0.  0.
          2    1    1    2  501    0  0.63866077592E+00  0.23884858007E+02 -0.35877211304E+03  0.35956685530E+03  0.00000000000E+00 0. -1.
          1    1    1    2  502    0  0.72587157832E+02 -0.88020790431E+02  0.65789425664E+03  0.66771356729E+03  0.00000000000E+00 0. -1.
         22    1    3    3    0    0 -0.68067157913E+02 -0.18735547532E+02 -0.14165837890E+03  0.15827588269E+03  0.00000000000E+00 0.  1.
         22    1    3    3    0    0 -0.51586606952E+01  0.82871479956E+02 -0.90812278714E+02  0.12304943696E+03  0.00000000000E+00 0.  1.
</event>
<event>
 7    1  0.5789396E-006  0.1025162E+03  0.7818608E-02  0.1348919E+00
          2   -1    0    0  502    0  0.00000000000E+00  0.00000000000E+00  0.70772823699E+02  0.70772823699E+02  0.00000000000E+00 0. -1.
          1   -1    0    0  501    0 -0.00000000000E+00 -0.00000000000E+00 -0.64207010259E+03  0.64207010259E+03  0.00000000000E+00 0. -1.
         25    2    1    2    0    0  0.13794264596E+03  0.25653591399E+02 -0.24433365085E+03  0.30823671348E+03  0.12499863307E+03 0.  0.
          2    1    1    2  501    0 -0.95200990554E+02  0.49086041064E+01 -0.33776829378E+03  0.35096259527E+03  0.00000000000E+00 0. -1.
          1    1    1    2  502    0 -0.42741655406E+02 -0.30562195505E+02  0.10804665742E+02  0.53643617540E+02  0.00000000000E+00 0. -1.
         22    1    3    3    0    0  0.70295854180E+02  0.71260955790E+02 -0.17296441428E+03  0.19984073544E+03  0.00000000000E+00 0.  1.
         22    1    3    3    0    0  0.67646791780E+02 -0.45607364392E+02 -0.71369236574E+02  0.10839597803E+03  0.00000000000E+00 0.  1.
</event>
<event>
 7    1  0.5789396E-006  0.7345874E+02  0.7818608E-02  0.1393770E+00
          2   -1    0    0  502    0  0.00000000000E+00  0.00000000000E+00  0.75927771086E+03  0.75927771086E+03  0.00000000000E+00 0. -1.
          1   -1    0    0  501    0 -0.00000000000E+00 -0.00000000000E+00 -0.38987333292E+03  0.38987333292E+03  0.00000000000E+00 0. -1.
         25    2    1    2    0    0  0.29566282914E+02 -0.34200347254E+02 -0.13905602400E+03  0.19237008239E+03  0.12500336775E+03 0.  0.
          2    1    1    2  501    0 -0.13687700955E+02  0.82264337208E+02 -0.21548935750E+03  0.23106370881E+03  0.00000000000E+00 0. -1.
          1    1    1    2  502    0 -0.15878581959E+02 -0.48063989954E+02  0.72394975944E+03  0.72571725258E+03  0.00000000000E+00 0. -1.
         22    1    3    3    0    0 -0.26792618653E+02  0.13393108738E+02  0.51491066364E+01  0.30392977398E+02  0.00000000000E+00 0.  1.
         22    1    3    3    0    0  0.56358901566E+02 -0.47593455992E+02 -0.14420513064E+03  0.16197710499E+03  0.00000000000E+00 0.  1.
</event>
<event>
 7    1  0.5789396E-006  0.2322189E+03  0.7818608E-02  0.1314101E+00
          2   -1    0    0  502    0  0.00000000000E+00  0.00000000000E+00  0.12939971912E+04  0.12939971912E+04  0.00000000000E+00 0. -1.
          1   -1    0    0  501    0 -0.00000000000E+00 -0.00000000000E+00 -0.84490005883E+03  0.84490005883E+03  0.00000000000E+00 0. -1.
         25    2    1    2    0    0 -0.14647130375E+03 -0.21493074051E+03  0.22606595001E+03  0.36657892118E+03  0.12500090266E+03 0.  0.
          2    1    1    2  501    0  0.12112334363E+03  0.19624951100E+03 -0.75722090448E+03  0.79156063136E+03  0.00000000000E+00 0. -1.
          1    1    1    2  502    0  0.25347960123E+02  0.18681229509E+02  0.98025208683E+03  0.98075769747E+03  0.00000000000E+00 0. -1.
         22    1    3    3    0    0 -0.15474500647E+03 -0.22478772925E+03  0.20285028159E+03  0.34003496436E+03  0.00000000000E+00 0.  1.
         22    1    3    3    0    0  0.82737027166E+01  0.98569887420E+01  0.23215668415E+02  0.26543956820E+02  0.00000000000E+00 0.  1.
</event>
<event>
 7    1  0.5789396E-006  0.1013630E+03  0.7818608E-02  0.1371830E+00
          2   -1    0    0  502    0  0.00000000000E+00  0.00000000000E+00  0.17616844956E+04  0.17616844956E+04  0.00000000000E+00 0. -1.
          1   -1    0    0  501    0 -0.00000000000E+00 -0.00000000000E+00 -0.23519210074E+03  0.23519210074E+03  0.00000000000E+00 0. -1.
         25    2    1    2    0    0 -0.69636793558E+02  0.54853988357E+01  0.28749819006E+03  0.32118146756E+03  0.12499181252E+03 0.  0.
          2    1    1    2  501    0  0.99194917761E+02  0.26890731969E+02 -0.20590577033E+03  0.23013024449E+03  0.00000000000E+00 0. -1.
          1    1    1    2  502    0 -0.29558124204E+02 -0.32376130804E+02  0.14448999751E+04  0.14455648843E+04  0.00000000000E+00 0. -1.
         22    1    3    3    0    0  0.28334442877E+02  0.30908867982E+02  0.80823885199E+02  0.91053276667E+02  0.00000000000E+00 0.  1.
         22    1    3    3    0    0 -0.97971236434E+02 -0.25423469147E+02  0.20667430486E+03  0.23012819089E+03  0.00000000000E+00 0.  1.
</event>
<event>
 7    1  0.5789396E-006  0.4936854E+02  0.7818608E-02  0.1452491E+00
          2   -1    0    0  502    0  0.00000000000E+00  0.00000000000E+00  0.15030267537E+04  0.15030267537E+04  0.00000000000E+00 0. -1.
          1   -1    0    0  501    0 -0.00000000000E+00 -0.00000000000E+00 -0.11038170814E+03  0.11038170814E+03  0.00000000000E+00 0. -1.
         25    2    1    2    0    0 -0.93615337865E+02 -0.89619871104E+01  0.31808375161E+03  0.35446656208E+03  0.12500048759E+03 0.  0.
          2    1    1    2  501    0  0.45754682908E+02  0.14631999771E+02 -0.85398076803E+02  0.97981722515E+02  0.00000000000E+00 0. -1.
          1    1    1    2  502    0  0.47860654957E+02 -0.56700126606E+01  0.11599593708E+04  0.11609601773E+04  0.00000000000E+00 0. -1.
         22    1    3    3    0    0 -0.11093306563E+03  0.24472766553E+02  0.19418989790E+03  0.22497728285E+03  0.00000000000E+00 0. -1.
         22    1    3    3    0    0  0.17317727769E+02 -0.33434753664E+02  0.12389385371E+03  0.12948927923E+03  0.00000000000E+00 0. -1.
</event>
<event>
 7    1  0.5789396E-006  0.7125226E+02  0.7818608E-02  0.1384605E+00
          2   -1    0    0  502    0  0.00000000000E+00  0.00000000000E+00  0.31771434801E+04  0.31771434801E+04  0.00000000000E+00 0. -1.
          1   -1    0    0  501    0 -0.00000000000E+00 -0.00000000000E+00 -0.94793211816E+03  0.94793211816E+03  0.00000000000E+00 0. -1.
         25    2    1    2    0    0  0.99931937327E+02 -0.54722439508E+02  0.75223246323E+03  0.77101202126E+03  0.12499968287E+03 0.  0.
          2    1    1    2  501    0 -0.56173103649E+02  0.85725358743E+00 -0.93720253911E+03  0.93888484479E+03  0.00000000000E+00 0. -1.
          1    1    1    2  502    0 -0.43758833678E+02  0.53865185921E+02  0.24141814378E+04  0.24151787322E+04  0.00000000000E+00 0. -1.
         22    1    3    3    0    0  0.10872166922E+03 -0.46500579717E+02  0.36675090031E+03  0.38534261139E+03  0.00000000000E+00 0.  1.
         22    1    3    3    0    0 -0.87897318973E+01 -0.82218597910E+01  0.38548156291E+03  0.38566940987E+03  0.00000000000E+00 0.  1.
</event>
<event>
 7    1  0.5789396E-006  0.8014399E+02  0.7818608E-02  0.1382679E+00
          2   -1    0    0  502    0  0.00000000000E+00  0.00000000000E+00  0.16691307801E+03  0.16691307801E+03  0.00000000000E+00 0. -1.
          1   -1    0    0  501    0 -0.00000000000E+00 -0.00000000000E+00 -0.26534440150E+04  0.26534440150E+04  0.00000000000E+00 0. -1.
         25    2    1    2    0    0  0.64214000383E+02  0.40334718181E+02 -0.20886972838E+03  0.25494774579E+03  0.12498584846E+03 0.  0.
          2    1    1    2  501    0 -0.36033827445E+02  0.35713003734E+02 -0.24098179872E+04  0.24103519633E+04  0.00000000000E+00 0. -1.
          1    1    1    2  502    0 -0.28180172938E+02 -0.76047721915E+02  0.13215677865E+03  0.15505738389E+03  0.00000000000E+00 0. -1.
         22    1    3    3    0    0 -0.24149950864E+01  0.59076582175E+02 -0.37212553844E+02  0.69861641309E+02  0.00000000000E+00 0.  1.
         22    1    3    3    0    0  0.66628995469E+02 -0.18741863994E+02 -0.17165717453E+03  0.18508610448E+03  0.00000000000E+00 0.  1.
</event>
<event>
 7    1  0.5789396E-006  0.3112822E+03  0.7818608E-02  0.1209764E+00
          2   -1    0    0  502    0  0.00000000000E+00  0.00000000000E+00  0.83360104498E+03  0.83360104498E+03  0.00000000000E+00 0. -1.
          1   -1    0    0  501    0 -0.00000000000E+00 -0.00000000000E+00 -0.92522061568E+03  0.92522061568E+03  0.00000000000E+00 0. -1.
         25    2    1    2    0    0 -0.36030277674E+03  0.52585935565E+02  0.98918540705E+02  0.39748377984E+03  0.12500042399E+03 0.  0.
          2    1    1    2  501    0  0.30445655383E+03 -0.18548372326E+02 -0.74396197500E+03  0.80406296740E+03  0.00000000000E+00 0. -1.
          1    1    1    2  502    0  0.55846222910E+02 -0.34037563239E+02  0.55342386360E+03  0.55727491342E+03  0.00000000000E+00 0. -1.
         22    1    3    3    0    0 -0.17331870268E+03  0.49262137768E+02  0.10831572055E+03  0.21023421756E+03  0.00000000000E+00 0.  1.
         22    1    3    3    0    0 -0.18698407406E+03  0.33237977975E+01 -0.93971798481E+01  0.18724956228E+03  0.00000000000E+00 0.  1.
</event>
<event>
 7    1  0.5981968E-006  0.4241535E+02  0.7818608E-02  0.1492546E+00
          2   -1    0    0  502    0  0.00000000000E+00  0.00000000000E+00  0.22864653498E+04  0.22864653498E+04  0.00000000000E+00 0. -1.
          1   -1    0    0  501    0 -0.00000000000E+00 -0.00000000000E+00 -0.44847207747E+03  0.44847207747E+03  0.00000000000E+00 0. -1.
         25    2    1    2    0    0  0.84113418361E+01  0.27333846061E+02 -0.19815928072E+03  0.23602964066E+03  0.12500000369E+03 0.  0.
          2    1    1    2  501    0  0.33953852803E+02 -0.24732846475E+02 -0.22927058300E+03  0.23308706108E+03  0.00000000000E+00 0. -1.
          1    1    1    2  502    0 -0.42365194639E+02 -0.26009995864E+01  0.22654231361E+04  0.22658207256E+04  0.00000000000E+00 0. -1.
         22    1    3    3    0    0  0.43284652670E+02  0.16062328770E+02 -0.13979511113E+02  0.48238846309E+02  0.00000000000E+00 0. -1.
         22    1    3    3    0    0 -0.34873310834E+02  0.11271517291E+02 -0.18417976961E+03  0.18779079435E+03  0.00000000000E+00 0. -1.
</event>
<event>
 7    1  0.5789396E-006  0.8665258E+02  0.7818608E-02  0.1317772E+00
          2   -1    0    0  502    0  0.00000000000E+00  0.00000000000E+00  0.14463232653E+03  0.14463232653E+03  0.00000000000E+00 0. -1.
          1   -1    0    0  501    0 -0.00000000000E+00 -0.00000000000E+00 -0.11546169266E+04  0.11546169266E+04  0.00000000000E+00 0. -1.
         25    2    1    2    0    0  0.13055680401E+03  0.50612514222E+01 -0.18343283703E+03  0.25757235539E+03  0.12500086888E+03 0.  0.
          2    1    1    2  501    0 -0.65811634887E+02 -0.54801105062E+02 -0.91633135475E+03  0.92032466233E+03  0.00000000000E+00 0. -1.
          1    1    1    2  502    0 -0.64745169125E+02  0.49739853640E+02  0.89779591677E+02  0.12135223544E+03  0.00000000000E+00 0. -1.
         22    1    3    3    0    0  0.13606830994E+03  0.39000134391E+02 -0.16856219665E+03  0.22011090294E+03  0.00000000000E+00 0.  1.
         22    1    3    3    0    0 -0.55115059244E+01 -0.33938882969E+02 -0.14870640380E+02  0.37461452455E+02  0.00000000000E+00 0.  1.
</event>
<event>
 7    1  0.5789396E-006  0.1791556E+03  0.7818608E-02  0.1269030E+00
          2   -1    0    0  502    0  0.00000000000E+00  0.00000000000E+00  0.14816879000E+04  0.14816879000E+04  0.00000000000E+00 0. -1.
          1   -1    0    0  501    0 -0.00000000000E+00 -0.00000000000E+00 -0.45136001977E+03  0.45136001977E+03  0.00000000000E+00 0. -1.
         25    2    1    2    0    0 -0.12081217345E+03  0.31108089227E+02  0.31244043287E+03  0.35889697940E+03  0.12499889302E+03 0.  0.
          2    1    1    2  501    0  0.16749633516E+03 -0.72197351262E+02 -0.40780845231E+03  0.44673841742E+03  0.00000000000E+00 0. -1.
          1    1    1    2  502    0 -0.46684161709E+02  0.41089262035E+02  0.11256958996E+04  0.11274125229E+04  0.00000000000E+00 0. -1.
         22    1    3    3    0    0 -0.13968440063E+03  0.21791340115E+02  0.30568356274E+03  0.33679227250E+03  0.00000000000E+00 0.  1.
         22    1    3    3    0    0  0.18872227187E+02  0.93167491122E+01  0.67568701307E+01  0.22104706896E+02  0.00000000000E+00 0.  1.
</event>
<event>
 7    1  0.5789396E-006  0.1047824E+03  0.7818608E-02  0.1441892E+00
          2   -1    0    0  502    0  0.00000000000E+00  0.00000000000E+00  0.57627787483E+02  0.57627787483E+02  0.00000000000E+00 0. -1.
          1   -1    0    0  501    0 -0.00000000000E+00 -0.00000000000E+00 -0.67585090193E+03  0.67585090193E+03  0.00000000000E+00 0. -1.
         25    2    1    2    0    0 -0.78860457388E+02 -0.90215487458E+02 -0.34157211774E+03  0.38295463073E+03  0.12499972666E+03 0.  0.
          2    1    1    2  501    0  0.55785768230E+02  0.82044323934E+02 -0.30043538371E+03  0.31639333560E+03  0.00000000000E+00 0. -1.
          1    1    1    2  502    0  0.23074689158E+02  0.81711635239E+01  0.23784387003E+02  0.34130723083E+02  0.00000000000E+00 0. -1.
         22    1    3    3    0    0 -0.51785284416E+02  0.22392722535E+02 -0.94011457491E+02  0.10964170668E+03  0.00000000000E+00 0. -1.
         22    1    3    3    0    0 -0.27075172972E+02 -0.11260820999E+03 -0.24756066025E+03  0.27331292405E+03  0.00000000000E+00 0. -1.
</event>
<event>
 7    1  0.5789396E-006  0.6435819E+02  0.7818608E-02  0.1419814E+00
          2   -1    0    0  502    0  0.00000000000E+00  0.00000000000E+00  0.31965052323E+04  0.31965052323E+04  0.00000000000E+00 0. -1.
          1   -1    0    0  501    0 -0.00000000000E+00 -0.00000000000E+00 -0.27303080773E+03  0.27303080773E+03  0.00000000000E+00 0. -1.
         25    2    1    2    0    0 -0.16708987415E+01 -0.22126464473E+02  0.86298208082E+03  0.87227055517E+03  0.12500190906E+03 0.  0.
          2    1    1    2  501    0 -0.12312767809E+02 -0.45468093468E+02 -0.26580376329E+03  0.26994553590E+03  0.00000000000E+00 0. -1.
          1    1    1    2  502    0  0.13983666550E+02  0.67594557941E+02  0.23262961070E+04  0.23273199489E+04  0.00000000000E+00 0. -1.
         22    1    3    3    0    0 -0.46512665714E+02 -0.37762313221E+02  0.23576491440E+03  0.24325812470E+03  0.00000000000E+00 0. -1.
         22    1    3    3    0    0  0.44841766972E+02  0.15635848748E+02  0.62721716642E+03  0.62901243047E+03  0.00000000000E+00 0. -1.
</event>
<event>
 7    1  0.5789396E-006  0.1194835E+03  0.7818608E-02  0.1326054E+00
          2   -1    0    0  502    0  0.00000000000E+00  0.00000000000E+00  0.41833295872E+03  0.41833295872E+03  0.00000000000E+00 0. -1.
          1   -1    0    0  501    0 -0.00000000000E+00 -0.00000000000E+00 -0.73306060926E+03  0.73306060926E+03  0.00000000000E+00 0. -1.
         25    2    1    2    0    0  0.38812347214E+02 -0.61911372113E+02 -0.69828988884E+02  0.16074970406E+03  0.12499985350E+03 0.  0.
          2    1    1    2  501    0  0.19747821134E+01 -0.54965013331E+02 -0.60621781904E+03  0.60870772673E+03  0.00000000000E+00 0. -1.
          1    1    1    2  502    0 -0.40787129328E+02  0.11687638544E+03  0.36131915739E+03  0.38193613719E+03  0.00000000000E+00 0. -1.
         22    1    3    3    0    0 -0.14982729046E+00 -0.91046919936E+02 -0.64981339573E+02  0.11185767104E+03  0.00000000000E+00 0.  1.
         22    1    3    3    0    0  0.38962174505E+02  0.29135547823E+02 -0.48476493108E+01  0.48892033021E+02  0.00000000000E+00 0.  1.
</event>
<event>
 7    1  0.5789396E-006  0.1042903E+03  0.7818608E-02  0.1299193E+00
          2   -1    0    0  502    0  0.00000000000E+00  0.00000000000E+00  0.16981466128E+03  0.16981466128E+03  0.00000000000E+00 0. -1.
          1   -1    0    0  501    0 -0.00000000000E+00 -0.00000000000E+00 -0.45893659351E+03  0.45893659351E+03  0.00000000000E+00 0. -1.
         25    2    1    2    0    0  0.80871953860E+02 -0.14160279342E+03 -0.65592685362E+01  0.20557365474E+03  0.12500351792E+03 0.  0.
          2    1    1    2  501    0 -0.57428005414E+02  0.56165392682E+02 -0.31782763644E+03  0.32782149659E+03  0.00000000000E+00 0. -1.
          1    1    1    2  502    0 -0.23443948446E+02  0.85437400737E+02  0.35264972749E+02  0.95356103457E+02  0.00000000000E+00 0. -1.
         22    1    3    3    0    0 -0.30086396553E+02 -0.46678148925E+02 -0.19786409572E+02  0.58953734813E+02  0.00000000000E+00 0. -1.
         22    1    3    3    0    0  0.11095835041E+03 -0.94924644494E+02  0.13227141036E+02  0.14661991992E+03  0.00000000000E+00 0. -1.
</event>
<event>
 7    1  0.5789396E-006  0.2368018E+03  0.7818608E-02  0.1155431E+00
          2   -1    0    0  502    0  0.00000000000E+00  0.00000000000E+00  0.16448310880E+04  0.16448310880E+04  0.00000000000E+00 0. -1.
          1   -1    0    0  501    0 -0.00000000000E+00 -0.00000000000E+00 -0.18806978327E+04  0.18806978327E+04  0.00000000000E+00 0. -1.
         25    2    1    2    0    0 -0.18978205920E+03 -0.16422497183E+03  0.40308588348E+03  0.49100936215E+03  0.12499957154E+03 0.  0.
          2    1    1    2  501    0  0.47424265664E+02  0.23265699559E+03 -0.18237994888E+04  0.18391908313E+04  0.00000000000E+00 0. -1.
          1    1    1    2  502    0  0.14235779353E+03 -0.68432023758E+02  0.11848468605E+04  0.11953287273E+04  0.00000000000E+00 0. -1.
         22    1    3    3    0    0 -0.11236426953E+02 -0.41594674161E+02  0.13314008899E+02  0.45095865023E+02  0.00000000000E+00 0. -1.
         22    1    3    3    0    0 -0.17854563224E+03 -0.12263029767E+03  0.38977187458E+03  0.44591349712E+03  0.00000000000E+00 0. -1.
</event>
<event>
 7    1  0.5789396E-006  0.1145018E+03  0.7818608E-02  0.1441136E+00
          2   -1    0    0  502    0  0.00000000000E+00  0.00000000000E+00  0.72098602175E+03  0.72098602175E+03  0.00000000000E+00 0. -1.
          1   -1    0    0  501    0 -0.00000000000E+00 -0.00000000000E+00 -0.56894209706E+03  0.56894209706E+03  0.00000000000E+00 0. -1.
         25    2    1    2    0    0  0.11900138129E+03 -0.10538372568E+01  0.46541977864E+03  0.49638998139E+03  0.12500001583E+03 0.  0.
          2    1    1    2  501    0 -0.11223117710E+03  0.22540007754E+02 -0.54699025660E+03  0.55884007541E+03  0.00000000000E+00 0. -1.
          1    1    1    2  502    0 -0.67702041923E+01 -0.21486170497E+02  0.23361440265E+03  0.23469806202E+03  0.00000000000E+00 0. -1.
         22    1    3    3    0    0  0.11516591381E+03 -0.43354035674E+02  0.39905260574E+03  0.41759518946E+03  0.00000000000E+00 0.  1.
         22    1    3    3    0    0  0.38354674796E+01  0.42300198417E+02  0.66367172896E+02  0.78794791929E+02  0.00000000000E+00 0.  1.
</event>
<event>
 7    1  0.7655863E-006  0.5607412E+02  0.7818608E-02  0.1493182E+00
          2   -1    0    0  502    0  0.00000000000E+00  0.00000000000E+00  0.25887546232E+04  0.25887546232E+04  0.00000000000E+00 0. -1.
          1   -1    0    0  501    0 -0.00000000000E+00 -0.00000000000E+00 -0.94069379302E+03  0.94069379302E+03  0.00000000000E+00 0. -1.
         25    2    1    2    0    0 -0.62665568001E+02 -0.14053555342E+01 -0.17567935344E+02  0.14093548198E+03  0.12500091716E+03 0.  0.
          2    1    1    2  501    0  0.14865133485E+02 -0.27924816768E+02 -0.86084036496E+03  0.86142144246E+03  0.00000000000E+00 0. -1.
          1    1    1    2  502    0  0.47800434517E+02  0.29330172302E+02  0.25264691305E+04  0.25270914918E+04  0.00000000000E+00 0. -1.
         22    1    3    3    0    0 -0.76776558316E+02  0.24450850199E+02  0.29166799835E+02  0.85692392865E+02  0.00000000000E+00 0.  1.
         22    1    3    3    0    0  0.14110990315E+02 -0.25856205733E+02 -0.46734735179E+02  0.55243089113E+02  0.00000000000E+00 0.  1.
</event>
<event>
 7    1  0.5789396E-006  0.3196949E+02  0.7818608E-02  0.1626860E+00
          2   -1    0    0  502    0  0.00000000000E+00  0.00000000000E+00  0.33766619483E+03  0.33766619483E+03  0.00000000000E+00 0. -1.
          1   -1    0    0  501    0 -0.00000000000E+00 -0.00000000000E+00 -0.40637261178E+03  0.40637261178E+03  0.00000000000E+00 0. -1.
         25    2    1    2    0    0 -0.14644597550E+02  0.16279359427E+02  0.39844203311E+02  0.13301297488E+03  0.12500163666E+03 0.  0.
          2    1    1    2  501    0  0.32111619330E+02 -0.19870634655E+00 -0.35850806010E+03  0.35994336324E+03  0.00000000000E+00 0. -1.
          1    1    1    2  502    0 -0.17467021781E+02 -0.16080653080E+02  0.24995743984E+03  0.25108246849E+03  0.00000000000E+00 0. -1.
         22    1    3    3    0    0 -0.32500618783E+02  0.22163733897E+02 -0.36938108247E+02  0.53962442147E+02  0.00000000000E+00 0. -1.
         22    1    3    3    0    0  0.17856021234E+02 -0.58843744700E+01  0.76782311558E+02  0.79050532733E+02  0.00000000000E+00 0. -1.
</event>
<event>
 7    1  0.5789396E-006  0.3980346E+02  0.7818608E-02  0.1591432E+00
          2   -1    0    0  502    0  0.00000000000E+00  0.00000000000E+00  0.79401587303E+03  0.79401587303E+03  0.00000000000E+00 0. -1.
          1   -1    0    0  501    0 -0.00000000000E+00 -0.00000000000E+00 -0.12276405007E+04  0.12276405007E+04  0.00000000000E+00 0. -1.
         25    2    1    2    0    0  0.23189398443E+02  0.19738736359E+02 -0.15051107926E+03  0.19800465428E+03  0.12499956890E+03 0.  0.
          2    1    1    2  501    0 -0.39918711456E+02 -0.31757907221E+01 -0.10528220265E+04  0.10535833183E+04  0.00000000000E+00 0. -1.
          1    1    1    2  502    0  0.16729313012E+02 -0.16562945637E+02  0.76970847812E+03  0.77006840110E+03  0.00000000000E+00 0. -1.
         22    1    3    3    0    0  0.31391125599E+02  0.23237262624E+02 -0.17113532947E+03  0.17553539282E+03  0.00000000000E+00 0. -1.
         22    1    3    3    0    0 -0.82017271551E+01 -0.34985262649E+01  0.20624250203E+02  0.22469261465E+02  0.00000000000E+00 0. -1.
</event>
<event>
 7    1  0.5789396E-006  0.4820181E+02  0.7818608E-02  0.1575899E+00
          2   -1    0    0  502    0  0.00000000000E+00  0.00000000000E+00  0.33057482860E+03  0.33057482860E+03  0.00000000000E+00 0. -1.
          1   -1    0    0  501    0 -0.00000000000E+00 -0.00000000000E+00 -0.15384106094E+03  0.15384106094E+03  0.00000000000E+00 0. -1.
         25    2    1    2    0    0 -0.57722287983E+02  0.15745039469E+02  0.28369158375E+03  0.31573024266E+03  0.12499961057E+03 0.  0.
          2    1    1    2  501    0  0.21332796928E+02 -0.15168849931E+01 -0.12416420277E+03  0.12599261254E+03  0.00000000000E+00 0. -1.
          1    1    1    2  502    0  0.36389491055E+02 -0.14228154475E+02  0.17206386674E+02  0.42693034343E+02  0.00000000000E+00 0. -1.
         22    1    3    3    0    0 -0.80896120024E+02  0.29410373449E+02  0.10855802901E+03  0.13854240493E+03  0.00000000000E+00 0. -1.
         22    1    3    3    0    0  0.23173832042E+02 -0.13665333981E+02  0.17513355474E+03  0.17718783773E+03  0.00000000000E+00 0. -1.
</event>
<event>
 7    1  0.5789396E-006  0.5668549E+02  0.7818608E-02  0.1460161E+00
          2   -1    0    0  502    0  0.00000000000E+00  0.00000000000E+00  0.19969751139E+04  0.19969751139E+04  0.00000000000E+00 0. -1.
          1   -1    0    0  501    0 -0.00000000000E+00 -0.00000000000E+00 -0.82519901346E+02  0.82519901346E+02  0.00000000000E+00 0. -1.
         25    2    1    2    0    0  0.66084106573E+02  0.16154829526E+02  0.46593823530E+03  0.48718538813E+03  0.12499230232E+03 0.  0.
          2    1    1    2  501    0 -0.52655892784E+02  0.21054375165E+02 -0.60414117363E+02  0.82860094950E+02  0.00000000000E+00 0. -1.
          1    1    1    2  502    0 -0.13428213789E+02 -0.37209204691E+02  0.15089310946E+04  0.15094495321E+04  0.00000000000E+00 0. -1.
         22    1    3    3    0    0 -0.19674982836E+02 -0.20843510621E+02  0.25358346292E+03  0.25519821620E+03  0.00000000000E+00 0.  1.
         22    1    3    3    0    0  0.85759089409E+02  0.36998340147E+02  0.21235477238E+03  0.23198717194E+03  0.00000000000E+00 0.  1.
</event>
<event>
 7    1  0.5789396E-006  0.8740733E+02  0.7818608E-02  0.1329785E+00
          2   -1    0    0  502    0  0.00000000000E+00  0.00000000000E+00  0.85675085105E+03  0.85675085105E+03  0.00000000000E+00 0. -1.
          1   -1    0    0  501    0 -0.00000000000E+00 -0.00000000000E+00 -0.80629128243E+03  0.80629128243E+03  0.00000000000E+00 0. -1.
         25    2    1    2    0    0  0.28686550081E+02 -0.32642311512E+02  0.36642099806E+03  0.38958621998E+03  0.12499854527E+03 0.  0.
          2    1    1    2  501    0  0.60170674053E+02  0.63399770407E+02 -0.78765064806E+03  0.79248569974E+03  0.00000000000E+00 0. -1.
          1    1    1    2  502    0 -0.88857224134E+02 -0.30757458895E+02  0.47168921863E+03  0.48097021376E+03  0.00000000000E+00 0. -1.
         22    1    3    3    0    0  0.35686270594E+02 -0.77787372230E+02  0.21443097555E+03  0.23087881770E+03  0.00000000000E+00 0.  1.
         22    1    3    3    0    0 -0.69997205127E+01  0.45145060718E+02  0.15199002251E+03  0.15870740228E+03  0.00000000000E+00 0.  1.
</event>
<event>
 7    1  0.5789396E-006  0.1490029E+03  0.7818608E-02  0.1285998E+00
          2   -1    0    0  502    0  0.00000000000E+00  0.00000000000E+00  0.17546106983E+04  0.17546106983E+04  0.00000000000E+00 0. -1.
          1   -1    0    0  501    0 -0.00000000000E+00 -0.00000000000E+00 -0.41749718563E+03  0.41749718563E+03  0.00000000000E+00 0. -1.
         25    2    1    2    0    0  0.46353760900E+02  0.11630721547E+03  0.89298466691E+03  0.91033709412E+03  0.12496387509E+03 0.  0.
          2    1    1    2  501    0  0.57970465445E+02  0.26126425059E+02 -0.39712845635E+03  0.40218674244E+03  0.00000000000E+00 0. -1.
          1    1    1    2  502    0 -0.10432422635E+03 -0.14243364053E+03  0.84125730214E+03  0.85958404741E+03  0.00000000000E+00 0. -1.
         22    1    3    3    0    0  0.61862114243E+02  0.15206146850E+02  0.20154319940E+03  0.21137125941E+03  0.00000000000E+00 0.  1.
         22    1    3    3    0    0 -0.15508353343E+02  0.10110106862E+03  0.69144146751E+03  0.69896583471E+03  0.00000000000E+00 0.  1.
</event>
<event>
 7    1  0.5789396E-006  0.8518729E+02  0.7818608E-02  0.1324530E+00
          2   -1    0    0  502    0  0.00000000000E+00  0.00000000000E+00  0.24593614510E+03  0.24593614510E+03  0.00000000000E+00 0. -1.
          1   -1    0    0  501    0 -0.00000000000E+00 -0.00000000000E+00 -0.32866604389E+03  0.32866604389E+03  0.00000000000E+00 0. -1.
         25    2    1    2    0    0 -0.64917774677E+02  0.10762566915E+03  0.11949745620E+01  0.17726769978E+03  0.12499922917E+03 0.  0.
          2    1    1    2  501    0  0.73968917047E+02 -0.25350102608E+02 -0.22254531500E+03  0.23588227068E+03  0.00000000000E+00 0. -1.
          1    1    1    2  502    0 -0.90511423707E+01 -0.82275566544E+02  0.13862044164E+03  0.16145221853E+03  0.00000000000E+00 0. -1.
         22    1    3    3    0    0 -0.78586131515E+01  0.89505205174E+02  0.47453510001E+02  0.10161090082E+03  0.00000000000E+00 0.  1.
         22    1    3    3    0    0 -0.57059161525E+02  0.18120463978E+02 -0.46258535439E+02  0.75656798965E+02  0.00000000000E+00 0.  1.
</event>
<event>
 7    1  0.5789396E-006  0.5199325E+02  0.7818608E-02  0.1469301E+00
          2   -1    0    0  502    0  0.00000000000E+00  0.00000000000E+00  0.21048342325E+04  0.21048342325E+04  0.00000000000E+00 0. -1.
          1   -1    0    0  501    0 -0.00000000000E+00 -0.00000000000E+00 -0.80514063189E+02  0.80514063189E+02  0.00000000000E+00 0. -1.
         25    2    1    2    0    0 -0.63593643419E+02 -0.52802795735E+02  0.48035138313E+03  0.50318524438E+03  0.12500260864E+03 0.  0.
          2    1    1    2  501    0  0.23855339879E+02  0.45657857382E+02 -0.59206111148E+02  0.78479811281E+02  0.00000000000E+00 0. -1.
          1    1    1    2  502    0  0.39738303540E+02  0.71449383530E+01  0.16031748973E+04  0.16036832400E+04  0.00000000000E+00 0. -1.
         22    1    3    3    0    0 -0.17728228811E+02 -0.55969658932E+02  0.75055769524E+02  0.95290405375E+02  0.00000000000E+00 0.  1.
         22    1    3    3    0    0 -0.45865414608E+02  0.31668631976E+01  0.40529561360E+03  0.40789483900E+03  0.00000000000E+00 0.  1.
</event>
<event>
 7    1  0.5789396E-006  0.5778003E+02  0.7818608E-02  0.1537033E+00
          2   -1    0    0  502    0  0.00000000000E+00  0.00000000000E+00  0.86258985736E+03  0.86258985736E+03  0.00000000000E+00 0. -1.
          1   -1    0    0  501    0 -0.00000000000E+00 -0.00000000000E+00 -0.39988701132E+03  0.39988701132E+03  0.00000000000E+00 0. -1.
         25    2    1    2    0    0  0.33992104961E+02  0.12376271712E+02  0.16280962895E+03  0.20842435084E+03  0.12500039776E+03 0.  0.
          2    1    1    2  501    0  0.21929681993E+02  0.64287696685E+01 -0.37544610931E+03  0.37614095899E+03  0.00000000000E+00 0. -1.
          1    1    1    2  502    0 -0.55921786954E+02 -0.18805041380E+02  0.67533932640E+03  0.67791155885E+03  0.00000000000E+00 0. -1.
         22    1    3    3    0    0 -0.12236693114E+02  0.59172877501E+02  0.10353511995E+03  0.11987780092E+03  0.00000000000E+00 0. -1.
         22    1    3    3    0    0  0.46228798075E+02 -0.46796605789E+02  0.59274508999E+02  0.88546549915E+02  0.00000000000E+00 0. -1.
</event>
<event>
 7    1  0.5789396E-006  0.1853935E+03  0.7818608E-02  0.1380990E+00
          2   -1    0    0  502    0  0.00000000000E+00  0.00000000000E+00  0.20635670488E+04  0.20635670488E+04  0.00000000000E+00 0. -1.
          1   -1    0    0  501    0 -0.00000000000E+00 -0.00000000000E+00 -0.39288478852E+03  0.39288478852E+03  0.00000000000E+00 0. -1.
         25    2    1    2    0    0 -0.47904518365E+02  0.19775964864E+03  0.21853070553E+03  0.32370394289E+03  0.12499940750E+03 0.  0.
          2    1    1    2  501    0  0.14246443138E+02 -0.17071250016E+02 -0.33521730706E+03  0.33595391302E+03  0.00000000000E+00 0. -1.
          1    1    1    2  502    0  0.33658075227E+02 -0.18068839862E+03  0.17873688619E+04  0.17967939814E+04  0.00000000000E+00 0. -1.
         22    1    3    3    0    0 -0.45736676224E+02  0.48139522443E+02  0.13945968199E+03  0.15446119278E+03  0.00000000000E+00 0.  1.
         22    1    3    3    0    0 -0.21678421410E+01  0.14962012620E+03  0.79071023534E+02  0.16924275011E+03  0.00000000000E+00 0.  1.
</event>
<event>
 7    1  0.5789396E-006  0.6397358E+02  0.7818608E-02  0.1427485E+00
          2   -1    0    0  502    0  0.00000000000E+00  0.00000000000E+00  0.44805697685E+04  0.44805697685E+04  0.00000000000E+00 0. -1.
          1   -1    0    0  501    0 -0.00000000000E+00 -0.00000000000E+00 -0.24671234564E+02  0.24671234564E+02  0.00000000000E+00 0. -1.
         25    2    1    2    0    0 -0.11035459789E+02 -0.68615286184E+02  0.16604381877E+04  0.16665863772E+04  0.12500135512E+03 0.  0.
          2    1    1    2  501    0 -0.31785086302E+02  0.55831766799E+02  0.26763476872E+02  0.69597137796E+02  0.00000000000E+00 0. -1.
          1    1    1    2  502    0  0.42820546091E+02  0.12783519386E+02  0.27686968694E+04  0.27690574881E+04  0.00000000000E+00 0. -1.
         22    1    3    3    0    0 -0.63865044974E+02 -0.33776889636E+02  0.61388873003E+03  0.61812538785E+03  0.00000000000E+00 0.  1.
         22    1    3    3    0    0  0.52829585186E+02 -0.34838396548E+02  0.10465494576E+04  0.10484609894E+04  0.00000000000E+00 0.  1.
</event>
<event>
 7    1  0.5789396E-006  0.7798758E+02  0.7818608E-02  0.1363967E+00
          2   -1    0    0  502    0  0.00000000000E+00  0.00000000000E+00  0.27034795507E+04  0.27034795507E+04  0.00000000000E+00 0. -1.
          1   -1    0    0  501    0 -0.00000000000E+00 -0.00000000000E+00 -0.17489276212E+04  0.17489276212E+04  0.00000000000E+00 0. -1.
         25    2    1    2    0    0 -0.86737655758E+02  0.10823405806E+03  0.46597476096E+03  0.50198811126E+03  0.12498621423E+03 0.  0.
          2    1    1    2  501    0  0.48871046233E+02 -0.60634575329E+02 -0.17296278869E+04  0.17313802465E+04  0.00000000000E+00 0. -1.
          1    1    1    2  502    0  0.37866609525E+02 -0.47599482731E+02  0.22182050554E+04  0.22190388141E+04  0.00000000000E+00 0. -1.
         22    1    3    3    0    0 -0.48151013742E+02  0.12557770290E+03  0.41208199025E+03  0.43347415872E+03  0.00000000000E+00 0.  1.
         22    1    3    3    0    0 -0.38586642016E+02 -0.17343644836E+02  0.53892770709E+02  0.68513952542E+02  0.00000000000E+00 0.  1.
</event>
<event>
 7    1  0.5789396E-006  0.4846898E+02  0.7818608E-02  0.1491924E+00
          2   -1    0    0  502    0  0.00000000000E+00  0.00000000000E+00  0.16050982692E+04  0.16050982692E+04  0.00000000000E+00 0. -1.
          1   -1    0    0  501    0 -0.00000000000E+00 -0.00000000000E+00 -0.16435140960E+02  0.16435140960E+02  0.00000000000E+00 0. -1.
         25    2    1    2    0    0 -0.54337211025E+02  0.43145927498E+02  0.62863127444E+03  0.64468394316E+03  0.12500401516E+03 0.  0.
          2    1    1    2  501    0  0.73302638078E+01 -0.36184601448E+02  0.35898743812E+02  0.51495416852E+02  0.00000000000E+00 0. -1.
          1    1    1    2  502    0  0.47006947218E+02 -0.69613260494E+01  0.92413310996E+03  0.92535405012E+03  0.00000000000E+00 0. -1.
         22    1    3    3    0    0 -0.65270354779E+02 -0.13166262567E+02  0.49220336226E+03  0.49668674183E+03  0.00000000000E+00 0. -1.
         22    1    3    3    0    0  0.10933143753E+02  0.56312190065E+02  0.13642791217E+03  0.14799720133E+03  0.00000000000E+00 0. -1.
</event>
<event>
 7    1  0.5789396E-006  0.5117719E+02  0.7818608E-02  0.1475718E+00
          2   -1    0    0  502    0  0.00000000000E+00  0.00000000000E+00  0.62720469662E+03  0.62720469662E+03  0.00000000000E+00 0. -1.
          1   -1    0    0  501    0 -0.00000000000E+00 -0.00000000000E+00 -0.17129520417E+04  0.17129520417E+04  0.00000000000E+00 0. -1.
         25    2    1    2    0    0 -0.44273010045E+02 -0.41799716832E+02 -0.25149330063E+01  0.13906398828E+03  0.12500060881E+03 0.  0.
          2    1    1    2  501    0  0.61452974786E+01  0.50832098644E+02 -0.16410760884E+04  0.16418746587E+04  0.00000000000E+00 0. -1.
          1    1    1    2  502    0  0.38127712567E+02 -0.90323818128E+01  0.55784367636E+03  0.55921809130E+03  0.00000000000E+00 0. -1.
         22    1    3    3    0    0 -0.58974957474E+02 -0.24838915398E+02  0.50483548672E+02  0.81508318678E+02  0.00000000000E+00 0.  1.
         22    1    3    3    0    0  0.14701947429E+02 -0.16960801434E+02 -0.52998481678E+02  0.57555669605E+02  0.00000000000E+00 0.  1.
</event>
<event>
 7    1  0.5789396E-006  0.5795066E+02  0.7818608E-02  0.1429599E+00
          2   -1    0    0  502    0  0.00000000000E+00  0.00000000000E+00  0.24042314306E+03  0.24042314306E+03  0.00000000000E+00 0. -1.
          1   -1    0    0  501    0 -0.00000000000E+00 -0.00000000000E+00 -0.50674507563E+03  0.50674507563E+03  0.00000000000E+00 0. -1.
         25    2    1    2    0    0  0.65272543697E+01 -0.16559165029E+02  0.14290096801E+02  0.12706867746E+03  0.12500172370E+03 0.  0.
          2    1    1    2  501    0  0.24468318016E+02  0.53922564673E+02 -0.44488243696E+03  0.44880588709E+03  0.00000000000E+00 0. -1.
          1    1    1    2  502    0 -0.30995572386E+02 -0.37363399644E+02  0.16427040759E+03  0.17129365414E+03  0.00000000000E+00 0. -1.
         22    1    3    3    0    0  0.62680122837E+02  0.76149007431E+01  0.18480423200E+02  0.65789897050E+02  0.00000000000E+00 0.  1.
         22    1    3    3    0    0 -0.56152868467E+02 -0.24174065772E+02 -0.41903263990E+01  0.61278780408E+02  0.00000000000E+00 0.  1.
</event>
<event>
 7    1  0.5789396E-006  0.1444935E+03  0.7818608E-02  0.1304456E+00
          2   -1    0    0  502    0  0.00000000000E+00  0.00000000000E+00  0.69781898964E+03  0.69781898964E+03  0.00000000000E+00 0. -1.
          1   -1    0    0  501    0 -0.00000000000E+00 -0.00000000000E+00 -0.39095562975E+03  0.39095562975E+03  0.00000000000E+00 0. -1.
         25    2    1    2    0    0 -0.81805050303E+02  0.41290396964E+02 -0.18152704542E+03  0.23869466234E+03  0.12500444183E+03 0.  0.
          2    1    1    2  501    0 -0.45309835281E+02  0.31598077650E+02 -0.16835539620E+03  0.17718622721E+03  0.00000000000E+00 0. -1.
          1    1    1    2  502    0  0.12711488558E+03 -0.72888474614E+02  0.65674580150E+03  0.67289372984E+03  0.00000000000E+00 0. -1.
         22    1    3    3    0    0 -0.20490747984E+02  0.73782387664E+02 -0.54632067942E+02  0.94065797875E+02  0.00000000000E+00 0. -1.
         22    1    3    3    0    0 -0.61314302320E+02 -0.32491990700E+02 -0.12689497747E+03  0.14462886447E+03  0.00000000000E+00 0. -1.
</event>
<event>
 7    1  0.5789396E-006  0.5295618E+02  0.7818608E-02  0.1452632E+00
          2   -1    0    0  502    0  0.00000000000E+00  0.00000000000E+00  0.28826818115E+04  0.28826818115E+04  0.00000000000E+00 0. -1.
          1   -1    0    0  501    0 -0.00000000000E+00 -0.00000000000E+00 -0.76886614856E+02  0.76886614856E+02  0.00000000000E+00 0. -1.
         25    2    1    2    0    0  0.65162824806E+01 -0.17789088049E+02  0.15793539437E+04  0.15844060134E+04  0.12499848947E+03 0.  0.
          2    1    1    2  501    0  0.78432211469E+01 -0.44043888324E+02 -0.66782259976E+02  0.80381903836E+02  0.00000000000E+00 0. -1.
          1    1    1    2  502    0 -0.14359503627E+02  0.61832976373E+02  0.12932235129E+04  0.12947805091E+04  0.00000000000E+00 0. -1.
         22    1    3    3    0    0 -0.70374373728E+01 -0.64481731342E+02  0.12270150020E+04  0.12287282996E+04  0.00000000000E+00 0.  1.
         22    1    3    3    0    0  0.13553719853E+02  0.46692643293E+02  0.35233894168E+03  0.35567771378E+03  0.00000000000E+00 0.  1.
</event>
<event>
 7    1  0.5789396E-006  0.5122195E+02  0.7818608E-02  0.1484693E+00
          2   -1    0    0  502    0  0.00000000000E+00  0.00000000000E+00  0.20242483899E+04  0.20242483899E+04  0.00000000000E+00 0. -1.
          1   -1    0    0  501    0 -0.00000000000E+00 -0.00000000000E+00 -0.14596804495E+03  0.14596804495E+03  0.00000000000E+00 0. -1.
         25    2    1    2    0    0 -0.24146347355E+02 -0.44037282575E+02  0.47273784753E+03  0.49155696230E+03  0.12499938540E+03 0.  0.
          2    1    1    2  501    0 -0.24847063084E+02  0.27069872798E+02 -0.13364229868E+03  0.13860165422E+03  0.00000000000E+00 0. -1.
          1    1    1    2  502    0  0.48993410439E+02  0.16967409777E+02  0.15391847961E+04  0.15400578184E+04  0.00000000000E+00 0. -1.
         22    1    3    3    0    0  0.13547923604E+02 -0.35767837802E+02  0.34150602481E+02  0.51275219208E+02  0.00000000000E+00 0.  1.
         22    1    3    3    0    0 -0.37694270960E+02 -0.82694447727E+01  0.43858724505E+03  0.44028174309E+03  0.00000000000E+00 0.  1.
</event>
<event>
 7    1  0.5789396E-006  0.3571354E+03  0.7818608E-02  0.1236225E+00
          2   -1    0    0  502    0  0.00000000000E+00  0.00000000000E+00  0.13349204441E+04  0.13349204441E+04  0.00000000000E+00 0. -1.
          1   -1    0    0  501    0 -0.00000000000E+00 -0.00000000000E+00 -0.45592080158E+03  0.45592080158E+03  0.00000000000E+00 0. -1.
         25    2    1    2    0    0 -0.31794770731E+03 -0.24952089584E+02  0.69264221835E+03  0.77271706180E+03  0.12500025438E+03 0.  0.
          2    1    1    2  501    0  0.36075325328E+03  0.18860821231E+02 -0.33637547054E+03  0.49360621705E+03  0.00000000000E+00 0. -1.
          1    1    1    2  502    0 -0.42805545975E+02  0.60912683530E+01  0.52273289467E+03  0.52451796679E+03  0.00000000000E+00 0. -1.
         22    1    3    3    0    0 -0.25300719854E+03 -0.46173137261E+02  0.42736931727E+03  0.49878766470E+03  0.00000000000E+00 0. -1.
         22    1    3    3    0    0 -0.64940508766E+02  0.21221047676E+02  0.26527290108E+03  0.27392939710E+03  0.00000000000E+00 0. -1.
</event>
<event>
 7    1  0.5789396E-006  0.9154762E+02  0.7818608E-02  0.1303587E+00
          2   -1    0    0  502    0  0.00000000000E+00  0.00000000000E+00  0.22712007447E+03  0.22712007447E+03  0.00000000000E+00 0. -1.
          1   -1    0    0  501    0 -0.00000000000E+00 -0.00000000000E+00 -0.34666512159E+04  0.34666512159E+04  0.00000000000E+00 0. -1.
         25    2    1    2    0    0 -0.58635344291E+00  0.10876394746E+02 -0.38321233806E+03  0.40323071298E+03  0.12499868830E+03 0.  0.
          2    1    1    2  501    0 -0.88704369024E+02 -0.31078706516E+02 -0.30630261028E+04  0.30644678587E+04  0.00000000000E+00 0. -1.
          1    1    1    2  502    0  0.89290722467E+02  0.20202311770E+02  0.20670729936E+03  0.22607271867E+03  0.00000000000E+00 0. -1.
         22    1    3    3    0    0  0.54803943017E+02  0.24721404416E+02 -0.12401890984E+03  0.13782347407E+03  0.00000000000E+00 0. -1.
         22    1    3    3    0    0 -0.55390296460E+02 -0.13845009670E+02 -0.25919342822E+03  0.26540723891E+03  0.00000000000E+00 0. -1.
</event>
<event>
 7    1  0.5789396E-006  0.1209592E+03  0.7818608E-02  0.1375364E+00
          2   -1    0    0  502    0  0.00000000000E+00  0.00000000000E+00  0.12854227072E+03  0.12854227072E+03  0.00000000000E+00 0. -1.
          1   -1    0    0  501    0 -0.00000000000E+00 -0.00000000000E+00 -0.28148163540E+04  0.28148163540E+04  0.00000000000E+00 0. -1.
         25    2    1    2    0    0 -0.54396442831E+02  0.89280837343E+02 -0.21299315742E+04  0.21361563073E+04  0.12500087019E+03 0.  0.
          2    1    1    2  501    0 -0.34928485047E+02 -0.73018882841E+01 -0.65187180403E+03  0.65284773533E+03  0.00000000000E+00 0. -1.
          1    1    1    2  502    0  0.89324927878E+02 -0.81978949059E+02  0.95529294926E+02  0.15435458211E+03  0.00000000000E+00 0. -1.
         22    1    3    3    0    0  0.23610666385E+02  0.70723225729E+02 -0.13646769332E+04  0.13667122485E+04  0.00000000000E+00 0. -1.
         22    1    3    3    0    0 -0.78007109216E+02  0.18557611615E+02 -0.76525464103E+03  0.76944405882E+03  0.00000000000E+00 0. -1.
</event>
<event>
 7    1  0.5789396E-006  0.8803149E+02  0.7818608E-02  0.1369067E+00
          2   -1    0    0  502    0  0.00000000000E+00  0.00000000000E+00  0.21810963635E+04  0.21810963635E+04  0.00000000000E+00 0. -1.
          1   -1    0    0  501    0 -0.00000000000E+00 -0.00000000000E+00 -0.15491427005E+03  0.15491427005E+03  0.00000000000E+00 0. -1.
         25    2    1    2    0    0  0.11502444020E+03 -0.67375915026E+02  0.11837025041E+03  0.21773782223E+03  0.12501242851E+03 0.  0.
          2    1    1    2  501    0 -0.77184881411E+02  0.32226972073E+02 -0.88222684851E+02  0.12157025035E+03  0.00000000000E+00 0. -1.
          1    1    1    2  502    0 -0.37839558785E+02  0.35148942953E+02  0.19960345279E+04  0.19967025609E+04  0.00000000000E+00 0. -1.
         22    1    3    3    0    0  0.13919733970E+03 -0.74055854874E+02  0.10178418957E+03  0.18767042992E+03  0.00000000000E+00 0.  1.
         22    1    3    3    0    0 -0.24172899500E+02  0.66799398475E+01  0.16586060834E+02  0.30067392315E+02  0.00000000000E+00 0.  1.
</event>
<event>
 7    1  0.5789396E-006  0.6635063E+02  0.7818608E-02  0.1409308E+00
          2   -1    0    0  502    0  0.00000000000E+00  0.00000000000E+00  0.25673077796E+02  0.25673077796E+02  0.00000000000E+00 0. -1.
          1   -1    0    0  501    0 -0.00000000000E+00 -0.00000000000E+00 -0.91179212542E+03  0.91179212542E+03  0.00000000000E+00 0. -1.
         25    2    1    2    0    0  0.85786405181E+02 -0.46669848503E+02 -0.37153383454E+03  0.40397698857E+03  0.12499053970E+03 0.  0.
          2    1    1    2  501    0 -0.26902083669E+02  0.41632043603E+02 -0.41298910727E+03  0.41595306452E+03  0.00000000000E+00 0. -1.
          1    1    1    2  502    0 -0.58884321512E+02  0.50378048994E+01 -0.10159610582E+03  0.11753515013E+03  0.00000000000E+00 0. -1.
         22    1    3    3    0    0  0.28366871959E+02 -0.35198335890E+02 -0.32777625410E+03  0.33087894316E+03  0.00000000000E+00 0.  1.
         22    1    3    3    0    0  0.57419533222E+02 -0.11471512612E+02 -0.43757580434E+02  0.73098045408E+02  0.00000000000E+00 0.  1.
</event>
<event>
 7    1  0.5789396E-006  0.4881076E+02  0.7818608E-02  0.1499617E+00
          2   -1    0    0  502    0  0.00000000000E+00  0.00000000000E+00  0.75878918858E+03  0.75878918858E+03  0.00000000000E+00 0. -1.
          1   -1    0    0  501    0 -0.00000000000E+00 -0.00000000000E+00 -0.18560283048E+04  0.18560283048E+04  0.00000000000E+00 0. -1.
         25    2    1    2    0    0  0.39290806815E+02  0.58958899759E+02 -0.21066749764E+02  0.14521992002E+03  0.12500039146E+03 0.  0.
          2    1    1    2  501    0 -0.61908079916E+01 -0.48336514254E+02 -0.17721161853E+04  0.17727860895E+04  0.00000000000E+00 0. -1.
          1    1    1    2  502    0 -0.33099998824E+02 -0.10622385505E+02  0.69594381889E+03  0.69681148387E+03  0.00000000000E+00 0. -1.
         22    1    3    3    0    0  0.74016916949E+02  0.22018152030E+01 -0.26044409200E+02  0.78496262557E+02  0.00000000000E+00 0.  1.
         22    1    3    3    0    0 -0.34726110134E+02  0.56757084556E+02  0.49776594358E+01  0.66723657467E+02  0.00000000000E+00 0.  1.
</event>
<event>
 7    1  0.5789396E-006  0.1789986E+03  0.7818608E-02  0.1276941E+00
          2   -1    0    0  502    0  0.00000000000E+00  0.00000000000E+00  0.20926130033E+03  0.20926130033E+03  0.00000000000E+00 0. -1.
          1   -1    0    0  501    0 -0.00000000000E+00 -0.00000000000E+00 -0.12769748427E+04  0.12769748427E+04  0.00000000000E+00 0. -1.
         25    2    1    2    0    0 -0.13085995059E+03  0.15308886140E+03  0.74203435549E+02  0.24837424016E+03  0.12499234846E+03 0.  0.
          2    1    1    2  501    0  0.51241468552E+02 -0.26488125422E+02 -0.10706347303E+04  0.10721874997E+04  0.00000000000E+00 0. -1.
          1    1    1    2  502    0  0.79618482041E+02 -0.12660073598E+03 -0.71282247640E+02  0.16567440315E+03  0.00000000000E+00 0. -1.
         22    1    3    3    0    0 -0.67551581425E+01 -0.21306571047E+02  0.18423522071E+01  0.22427581077E+02  0.00000000000E+00 0.  1.
         22    1    3    3    0    0 -0.12410479245E+03  0.17439543245E+03  0.72361083342E+02  0.22594665908E+03  0.00000000000E+00 0.  1.
</event>
<event>
 7    1  0.5789396E-006  0.4145465E+02  0.7818608E-02  0.1508547E+00
          2   -1    0    0  502    0  0.00000000000E+00  0.00000000000E+00  0.10777687858E+02  0.10777687858E+02  0.00000000000E+00 0. -1.
          1   -1    0    0  501    0 -0.00000000000E+00 -0.00000000000E+00 -0.25467732190E+04  0.25467732190E+04  0.00000000000E+00 0. -1.
         25    2    1    2    0    0 -0.65112466922E+02  0.11966150338E+02 -0.12668806726E+04  0.12747526917E+04  0.12499985703E+03 0.  0.
          2    1    1    2  501    0  0.35197120655E+02  0.15622995721E+02 -0.12123054360E+04  0.12129168914E+04  0.00000000000E+00 0. -1.
          1    1    1    2  502    0  0.29915346267E+02 -0.27589146059E+02 -0.56809422575E+02  0.69881323799E+02  0.00000000000E+00 0. -1.
         22    1    3    3    0    0  0.39792867809E+01 -0.45231197831E+02 -0.26469927705E+03  0.26856545432E+03  0.00000000000E+00 0.  1.
         22    1    3    3    0    0 -0.69091753703E+02  0.57197348169E+02 -0.10021813956E+04  0.10061872374E+04  0.00000000000E+00 0.  1.
</event>
<event>
 7    1  0.7082058E-006  0.1214683E+03  0.7818608E-02  0.1311429E+00
          2   -1    0    0  502    0  0.00000000000E+00  0.00000000000E+00  0.23061568502E+04  0.23061568502E+04  0.00000000000E+00 0. -1.
          1   -1    0    0  501    0 -0.00000000000E+00 -0.00000000000E+00 -0.50201758556E+03  0.50201758556E+03  0.00000000000E+00 0. -1.
         25    2    1    2    0    0  0.70967427142E+02 -0.54112498866E+02 -0.11265791769E+03  0.19047189958E+03  0.12499279924E+03 0.  0.
          2    1    1    2  501    0 -0.22061232510E+02 -0.57588018640E+02 -0.34608543926E+03  0.35153692429E+03  0.00000000000E+00 0. -1.
          1    1    1    2  502    0 -0.48906194633E+02  0.11170051751E+03  0.22628826216E+04  0.22661656119E+04  0.00000000000E+00 0. -1.
         22    1    3    3    0    0  0.34112435845E+02  0.25348656338E+01 -0.11782845028E+03  0.12269322524E+03  0.00000000000E+00 0.  1.
         22    1    3    3    0    0  0.36854991297E+02 -0.56647364500E+02  0.51705325896E+01  0.67778674342E+02  0.00000000000E+00 0.  1.
</event>
<event>
 7    1  0.5789396E-006  0.1138040E+03  0.7818608E-02  0.1260945E+00
          2   -1    0    0  502    0  0.00000000000E+00  0.00000000000E+00  0.72531466010E+03  0.72531466010E+03  0.00000000000E+00 0. -1.
          1   -1    0    0  501    0 -0.00000000000E+00 -0.00000000000E+00 -0.24367541887E+03  0.24367541887E+03  0.00000000000E+00 0. -1.
         25    2    1    2    0    0  0.78316763856E+01  0.64311242098E+02  0.23245072106E+03  0.27176301708E+03  0.12499811485E+03 0.  0.
          2    1    1    2  501    0 -0.81682116339E+02  0.67450764069E+02 -0.19836158170E+03  0.22487527832E+03  0.00000000000E+00 0. -1.
          1    1    1    2  502    0  0.73850439953E+02 -0.13176200617E+03  0.44755010187E+03  0.47235178356E+03  0.00000000000E+00 0. -1.
         22    1    3    3    0    0 -0.42517557204E+02  0.68524869423E+02  0.18761546788E+03  0.20421303628E+03  0.00000000000E+00 0. -1.
         22    1    3    3    0    0  0.50349233589E+02 -0.42136273249E+01  0.44835253183E+02  0.67549980801E+02  0.00000000000E+00 0. -1.
</event>
<event>
 7    1  0.5789396E-006  0.1872929E+03  0.7818608E-02  0.1227997E+00
          2   -1    0    0  502    0  0.00000000000E+00  0.00000000000E+00  0.21746972129E+04  0.21746972129E+04  0.00000000000E+00 0. -1.
          1   -1    0    0  501    0 -0.00000000000E+00 -0.00000000000E+00 -0.19450414799E+03  0.19450414799E+03  0.00000000000E+00 0. -1.
         25    2    1    2    0    0  0.13243023677E+03  0.23070751848E+03  0.10816531473E+04  0.11208761650E+04  0.12500447810E+03 0.  0.
          2    1    1    2  501    0 -0.11641584059E+03 -0.14241950518E+03 -0.12401173624E+03  0.22184425646E+03  0.00000000000E+00 0. -1.
          1    1    1    2  502    0 -0.16014396175E+02 -0.88288013296E+02  0.10225516539E+04  0.10264809395E+04  0.00000000000E+00 0. -1.
         22    1    3    3    0    0  0.56404833646E+02  0.98000060844E+02  0.23828200582E+03  0.26374956205E+03  0.00000000000E+00 0. -1.
         22    1    3    3    0    0  0.76025403121E+02  0.13270745763E+03  0.84337114144E+03  0.85712660293E+03  0.00000000000E+00 0. -1.
</event>
<event>
 7    1  0.5789396E-006  0.2802536E+03  0.7818608E-02  0.1201831E+00
          2   -1    0    0  502    0  0.00000000000E+00  0.00000000000E+00  0.22368655790E+04  0.22368655790E+04  0.00000000000E+00 0. -1.
          1   -1    0    0  501    0 -0.00000000000E+00 -0.00000000000E+00 -0.11925046227E+04  0.11925046227E+04  0.00000000000E+00 0. -1.
         25    2    1    2    0    0 -0.11695393354E+03 -0.25486078628E+03  0.70975443333E+03  0.77331034564E+03  0.12500116838E+03 0.  0.
          2    1    1    2  501    0  0.74892648428E+02 -0.25488656356E+02 -0.11459146506E+04  0.11486422275E+04  0.00000000000E+00 0. -1.
          1    1    1    2  502    0  0.42061285113E+02  0.28034944263E+03  0.14805211736E+04  0.15074176286E+04  0.00000000000E+00 0. -1.
         22    1    3    3    0    0 -0.13261406620E+03 -0.20911162419E+03  0.65509845596E+03  0.70033431226E+03  0.00000000000E+00 0. -1.
         22    1    3    3    0    0  0.15660132655E+02 -0.45749162087E+02  0.54655977366E+02  0.72976033383E+02  0.00000000000E+00 0. -1.
</event>
<event>
 7    1  0.5789396E-006  0.7430579E+02  0.7818608E-02  0.1399871E+00
          2   -1    0    0  502    0  0.00000000000E+00  0.00000000000E+00  0.11329006454E+04  0.11329006454E+04  0.00000000000E+00 0. -1.
          1   -1    0    0  501    0 -0.00000000000E+00 -0.00000000000E+00 -0.53673269340E+03  0.53673269340E+03  0.00000000000E+00 0. -1.
         25    2    1    2    0    0  0.36246705266E+02  0.72392839672E+01  0.87054964486E+02  0.15674689275E+03  0.12499916268E+03 0.  0.
          2    1    1    2  501    0  0.21014226752E+02  0.42789398032E+02 -0.49932019636E+03  0.50159065860E+03  0.00000000000E+00 0. -1.
          1    1    1    2  502    0 -0.57260932018E+02 -0.50028681999E+02  0.10084331839E+04  0.10112957875E+04  0.00000000000E+00 0. -1.
         22    1    3    3    0    0 -0.41006233799E+02 -0.17634626123E+02  0.12046088772E+02  0.46234181118E+02  0.00000000000E+00 0.  1.
         22    1    3    3    0    0  0.77252939066E+02  0.24873910090E+02  0.75008875714E+02  0.11051271164E+03  0.00000000000E+00 0.  1.
</event>
<event>
 7    1  0.6048342E-006  0.8343517E+02  0.7818608E-02  0.1395708E+00
          2   -1    0    0  502    0  0.00000000000E+00  0.00000000000E+00  0.16868848352E+04  0.16868848352E+04  0.00000000000E+00 0. -1.
          1   -1    0    0  501    0 -0.00000000000E+00 -0.00000000000E+00 -0.16626197255E+04  0.16626197255E+04  0.00000000000E+00 0. -1.
         25    2    1    2    0    0 -0.11194919090E+03  0.45228078049E+02 -0.80582927854E+02  0.19156331818E+03  0.12499878488E+03 0.  0.
          2    1    1    2  501    0  0.43813341952E+02  0.24633976505E+01 -0.15251708351E+04  0.15258020033E+04  0.00000000000E+00 0. -1.
          1    1    1    2  502    0  0.68135848944E+02 -0.47691475699E+02  0.16300188726E+04  0.16321392391E+04  0.00000000000E+00 0. -1.
         22    1    3    3    0    0 -0.12497856007E+03  0.58416819186E+02 -0.95484104061E+02  0.16777776781E+03  0.00000000000E+00 0.  1.
         22    1    3    3    0    0  0.13029369177E+02 -0.13188741138E+02  0.14901176208E+02  0.23785550368E+02  0.00000000000E+00 0.  1.
</event>
<event>
 7    1  0.5789396E-006  0.3545114E+02  0.7818608E-02  0.1629771E+00
          2   -1    0    0  502    0  0.00000000000E+00  0.00000000000E+00  0.14530016931E+04  0.14530016931E+04  0.00000000000E+00 0. -1.
          1   -1    0    0  501    0 -0.00000000000E+00 -0.00000000000E+00 -0.21497594752E+02  0.21497594752E+02  0.00000000000E+00 0. -1.
         25    2    1    2    0    0 -0.70458615226E+01 -0.29437020533E+02  0.10853469400E+04  0.10929401119E+04  0.12499570308E+03 0.  0.
          2    1    1    2  501    0 -0.20742969913E+02  0.35921795020E+01 -0.10056017974E+02  0.23330196139E+02  0.00000000000E+00 0. -1.
          1    1    1    2  502    0  0.27788831436E+02  0.25844841031E+02  0.35621317636E+03  0.35822897981E+03  0.00000000000E+00 0. -1.
         22    1    3    3    0    0  0.12161473922E+02 -0.63633680503E+02  0.94493098183E+03  0.94714925284E+03  0.00000000000E+00 0.  1.
         22    1    3    3    0    0 -0.19207335444E+02  0.34196659971E+02  0.14041595813E+03  0.14579085906E+03  0.00000000000E+00 0.  1.
</event>
<event>
 7    1  0.5789396E-006  0.8581772E+02  0.7818608E-02  0.1391096E+00
          2   -1    0    0  502    0  0.00000000000E+00  0.00000000000E+00  0.35008030140E+03  0.35008030140E+03  0.00000000000E+00 0. -1.
          1   -1    0    0  501    0 -0.00000000000E+00 -0.00000000000E+00 -0.10554228597E+04  0.10554228597E+04  0.00000000000E+00 0. -1.
         25    2    1    2    0    0 -0.11530018504E+03  0.37369157807E+02 -0.69064222383E+03  0.71225135422E+03  0.12499889447E+03 0.  0.
          2    1    1    2  501    0  0.29853287593E+02 -0.32685351981E+02 -0.34715201720E+03  0.34996296098E+03  0.00000000000E+00 0. -1.
          1    1    1    2  502    0  0.85446897448E+02 -0.46838058255E+01  0.33245168277E+03  0.34328884587E+03  0.00000000000E+00 0. -1.
         22    1    3    3    0    0 -0.13668893939E+03  0.69799066882E+01 -0.53389018034E+03  0.55115452453E+03  0.00000000000E+00 0. -1.
         22    1    3    3    0    0  0.21388754345E+02  0.30389251118E+02 -0.15675204349E+03  0.16109682969E+03  0.00000000000E+00 0. -1.
</event>
<event>
 7    1  0.5789396E-006  0.3828497E+02  0.7818608E-02  0.1543436E+00
          2   -1    0    0  502    0  0.00000000000E+00  0.00000000000E+00  0.26514285200E+03  0.26514285200E+03  0.00000000000E+00 0. -1.
          1   -1    0    0  501    0 -0.00000000000E+00 -0.00000000000E+00 -0.90187015402E+02  0.90187015402E+02  0.00000000000E+00 0. -1.
         25    2    1    2    0    0  0.10878614218E+02  0.83783644066E+01  0.10409519914E+03  0.16324656071E+03  0.12500035145E+03 0.  0.
          2    1    1    2  501    0 -0.38593760005E+02  0.96850618226E+01 -0.51641426794E+02  0.65192911387E+02  0.00000000000E+00 0. -1.
          1    1    1    2  502    0  0.27715145787E+02 -0.18063426229E+02  0.12250206425E+03  0.12689039530E+03  0.00000000000E+00 0. -1.
         22    1    3    3    0    0  0.56710056635E+02  0.38830658057E+02  0.43230964602E+02  0.81195854753E+02  0.00000000000E+00 0. -1.
         22    1    3    3    0    0 -0.45831442418E+02 -0.30452293650E+02  0.60864234535E+02  0.82050705958E+02  0.00000000000E+00 0. -1.
</event>
<event>
 7    1  0.5789396E-006  0.1202883E+03  0.7818608E-02  0.1319667E+00
          2   -1    0    0  502    0  0.00000000000E+00  0.00000000000E+00  0.29060149314E+03  0.29060149314E+03  0.00000000000E+00 0. -1.
          1   -1    0    0  501    0 -0.00000000000E+00 -0.00000000000E+00 -0.19422271691E+04  0.19422271691E+04  0.00000000000E+00 0. -1.
         25    2    1    2    0    0  0.63810332018E+02  0.15742857619E+03 -0.59269521039E+03  0.62910104295E+03  0.12499997900E+03 0.  0.
          2    1    1    2  501    0 -0.31951232437E+02 -0.10917057237E+03 -0.13257970773E+04  0.13306678719E+04  0.00000000000E+00 0. -1.
          1    1    1    2  502    0 -0.31859099580E+02 -0.48258003818E+02  0.26686661175E+03  0.27305974736E+03  0.00000000000E+00 0. -1.
         22    1    3    3    0    0  0.86334113114E+02  0.49239386288E+02 -0.25014560484E+03  0.26916708541E+03  0.00000000000E+00 0.  1.
         22    1    3    3    0    0 -0.22523781096E+02  0.10818918991E+03 -0.34254960555E+03  0.35993395754E+03  0.00000000000E+00 0.  1.
</event>
<event>
 7    1  0.5789396E-006  0.1437167E+03  0.7818608E-02  0.1345761E+00
          2   -1    0    0  502    0  0.00000000000E+00  0.00000000000E+00  0.45511578303E+03  0.45511578303E+03  0.00000000000E+00 0. -1.
          1   -1    0    0  501    0 -0.00000000000E+00 -0.00000000000E+00 -0.55429289153E+03  0.55429289153E+03  0.00000000000E+00 0. -1.
         25    2    1    2    0    0  0.15792973618E+03  0.28095848079E+02  0.38886558756E+02  0.20704572000E+03  0.12499834986E+03 0.  0.
          2    1    1    2  501    0 -0.16767107228E+02 -0.34666659946E+02 -0.45433090963E+03  0.45595996385E+03  0.00000000000E+00 0. -1.
          1    1    1    2  502    0 -0.14116262895E+03  0.65708118669E+01  0.31626724237E+03  0.34640299072E+03  0.00000000000E+00 0. -1.
         22    1    3    3    0    0  0.16065195885E+03  0.44696097871E+02  0.22914705556E+01  0.16676943330E+03  0.00000000000E+00 0. -1.
         22    1    3    3    0    0 -0.27222226726E+01 -0.16600249792E+02  0.36595088200E+02  0.40276286693E+02  0.00000000000E+00 0. -1.
</event>
<event>
 7    1  0.5789396E-006  0.7593771E+02  0.7818608E-02  0.1468945E+00
          2   -1    0    0  502    0  0.00000000000E+00  0.00000000000E+00  0.54679596315E+03  0.54679596315E+03  0.00000000000E+00 0. -1.
          1   -1    0    0  501    0 -0.00000000000E+00 -0.00000000000E+00 -0.28347722792E+04  0.28347722792E+04  0.00000000000E+00 0. -1.
         25    2    1    2    0    0  0.35727276493E+02 -0.91820757717E+02 -0.78889539320E+03  0.80479119004E+03  0.12500171329E+03 0.  0.
          2    1    1    2  501    0 -0.15988365612E+02  0.72365712992E+02 -0.20368982753E+04  0.20382460617E+04  0.00000000000E+00 0. -1.
          1    1    1    2  502    0 -0.19738910881E+02  0.19455044725E+02  0.53781735238E+03  0.53853099064E+03  0.00000000000E+00 0. -1.
         22    1    3    3    0    0  0.11456641348E+02 -0.11816462925E+03 -0.51172033402E+03  0.52531117872E+03  0.00000000000E+00 0.  1.
         22    1    3    3    0    0  0.24270635145E+02  0.26343871537E+02 -0.27717505918E+03  0.27948001132E+03  0.00000000000E+00 0.  1.
</event>
<event>
 7    1  0.5789396E-006  0.1702011E+03  0.7818608E-02  0.1198074E+00
          2   -1    0    0  502    0  0.00000000000E+00  0.00000000000E+00  0.31747739296E+04  0.31747739296E+04  0.00000000000E+00 0. -1.
          1   -1    0    0  501    0 -0.00000000000E+00 -0.00000000000E+00 -0.33542512048E+03  0.33542512048E+03  0.00000000000E+00 0. -1.
         25    2    1    2    0    0  0.63079549067E+02 -0.26679708187E+03  0.84033593637E+03  0.89272027403E+03  0.12500115720E+03 0.  0.
          2    1    1    2  501    0 -0.82903844786E+02  0.10741906882E+03 -0.29139919200E+03  0.32144267440E+03  0.00000000000E+00 0. -1.
          1    1    1    2  502    0  0.19824295719E+02  0.15937801305E+03  0.22904120648E+04  0.22960361017E+04  0.00000000000E+00 0. -1.
         22    1    3    3    0    0  0.90053842119E+02 -0.18935355381E+03  0.49116048165E+03  0.53404408203E+03  0.00000000000E+00 0.  1.
         22    1    3    3    0    0 -0.26974293052E+02 -0.77443528056E+02  0.34917545472E+03  0.35867619200E+03  0.00000000000E+00 0.  1.
</event>
<event>
 7    1  0.5789396E-006  0.4446694E+02  0.7818608E-02  0.1588555E+00
          2   -1    0    0  502    0  0.00000000000E+00  0.00000000000E+00  0.94656435731E+02  0.94656435731E+02  0.00000000000E+00 0. -1.
          1   -1    0    0  501    0 -0.00000000000E+00 -0.00000000000E+00 -0.99585646214E+03  0.99585646214E+03  0.00000000000E+00 0. -1.
         25    2    1    2    0    0 -0.16357933771E+02  0.28539273876E+02 -0.46368338576E+03  0.48136280990E+03  0.12500320145E+03 0.  0.
          2    1    1    2  501    0  0.14208866449E+02  0.16062551826E+02 -0.51728739846E+03  0.51773173561E+03  0.00000000000E+00 0. -1.
          1    1    1    2  502    0  0.21490673217E+01 -0.44601825703E+02  0.79770757810E+02  0.91418352358E+02  0.00000000000E+00 0. -1.
         22    1    3    3    0    0 -0.26368919094E+01  0.77506829220E+02 -0.30643171494E+03  0.31609279919E+03  0.00000000000E+00 0.  1.
         22    1    3    3    0    0 -0.13721041862E+02 -0.48967555344E+02 -0.15725167082E+03  0.16527001071E+03  0.00000000000E+00 0.  1.
</event>
<event>
 7    1  0.5789396E-006  0.1178102E+03  0.7818608E-02  0.1388012E+00
          2   -1    0    0  502    0  0.00000000000E+00  0.00000000000E+00  0.18300949410E+03  0.18300949410E+03  0.00000000000E+00 0. -1.
          1   -1    0    0  501    0 -0.00000000000E+00 -0.00000000000E+00 -0.50941223536E+03  0.50941223536E+03  0.00000000000E+00 0. -1.
         25    2    1    2    0    0  0.90673095283E+02 -0.11845574608E+03 -0.37848434180E+03  0.42559247494E+03  0.12500073500E+03 0.  0.
          2    1    1    2  501    0 -0.19616605815E+02  0.26605367909E+02 -0.82616263699E+02  0.88983728023E+02  0.00000000000E+00 0. -1.
          1    1    1    2  502    0 -0.71056489468E+02  0.91850378172E+02  0.13469786424E+03  0.17784552650E+03  0.00000000000E+00 0. -1.
         22    1    3    3    0    0  0.11178613658E+03 -0.60846338194E+02 -0.20205126575E+03  0.23879516577E+03  0.00000000000E+00 0. -1.
         22    1    3    3    0    0 -0.21113041293E+02 -0.57609407887E+02 -0.17643307605E+03  0.18679730917E+03  0.00000000000E+00 0. -1.
</event>
<event>
 7    1  0.5789396E-006  0.9821640E+02  0.7818608E-02  0.1356833E+00
          2   -1    0    0  502    0  0.00000000000E+00  0.00000000000E+00  0.12393951815E+04  0.12393951815E+04  0.00000000000E+00 0. -1.
          1   -1    0    0  501    0 -0.00000000000E+00 -0.00000000000E+00 -0.10292848662E+04  0.10292848662E+04  0.00000000000E+00 0. -1.
         25    2    1    2    0    0  0.57821065623E+02 -0.65847936624E+01 -0.23798008791E+02  0.13992237822E+03  0.12500116627E+03 0.  0.
          2    1    1    2  501    0  0.37343117139E+02  0.35142849553E+02 -0.94463892606E+03  0.94602971882E+03  0.00000000000E+00 0. -1.
          1    1    1    2  502    0 -0.95164182762E+02 -0.28558055891E+02  0.11785472502E+04  0.11827279506E+04  0.00000000000E+00 0. -1.
         22    1    3    3    0    0  0.54152267691E+02  0.18534390545E+02 -0.68041320950E+02  0.88913514639E+02  0.00000000000E+00 0. -1.
         22    1    3    3    0    0  0.36687979324E+01 -0.25119184207E+02  0.44243312158E+02  0.51008863585E+02  0.00000000000E+00 0. -1.
</event>
<event>
 7    1  0.5789396E-006  0.1010744E+03  0.7818608E-02  0.1360211E+00
          2   -1    0    0  502    0  0.00000000000E+00  0.00000000000E+00  0.13577780052E+04  0.13577780052E+04  0.00000000000E+00 0. -1.
          1   -1    0    0  501    0 -0.00000000000E+00 -0.00000000000E+00 -0.96236628268E+02  0.96236628268E+02  0.00000000000E+00 0. -1.
         25    2    1    2    0    0  0.12300204170E+03 -0.13253894151E+02  0.36260120195E+02  0.17956454978E+03  0.12499385284E+03 0.  0.
          2    1    1    2  501    0 -0.85062313566E+02 -0.16848392514E+02  0.53970584222E+02  0.10213857979E+03  0.00000000000E+00 0. -1.
          1    1    1    2  502    0 -0.37939728133E+02  0.30102286665E+02  0.11713106726E+04  0.11723115039E+04  0.00000000000E+00 0. -1.
         22    1    3    3    0    0  0.83782573102E+02  0.21153753812E+02  0.75128496576E+02  0.11450454949E+03  0.00000000000E+00 0.  1.
         22    1    3    3    0    0  0.39219468597E+02 -0.34407647963E+02 -0.38868376381E+02  0.65060000291E+02  0.00000000000E+00 0.  1.
</event>
<event>
 7    1  0.5789396E-006  0.1483343E+03  0.7818608E-02  0.1251421E+00
          2   -1    0    0  502    0  0.00000000000E+00  0.00000000000E+00  0.51527688330E+03  0.51527688330E+03  0.00000000000E+00 0. -1.
          1   -1    0    0  501    0 -0.00000000000E+00 -0.00000000000E+00 -0.95690096123E+03  0.95690096123E+03  0.00000000000E+00 0. -1.
         25    2    1    2    0    0  0.40599282927E+02  0.13948684448E+03  0.33168487629E+03  0.38307541268E+03  0.12500813205E+03 0.  0.
          2    1    1    2  501    0  0.48691988556E+02 -0.14064018153E+03 -0.91204669462E+03  0.92411024427E+03  0.00000000000E+00 0. -1.
          1    1    1    2  502    0 -0.89291271484E+02  0.11533370443E+01  0.13873774040E+03  0.16499218758E+03  0.00000000000E+00 0. -1.
         22    1    3    3    0    0  0.61375667277E+02  0.15179890860E+03  0.31015181724E+03  0.35071930504E+03  0.00000000000E+00 0.  1.
         22    1    3    3    0    0 -0.20776384350E+02 -0.12312064119E+02  0.21533059051E+02  0.32356107640E+02  0.00000000000E+00 0.  1.
</event>
<event>
 7    1  0.5789396E-006  0.3319464E+02  0.7818608E-02  0.1578638E+00
          2   -1    0    0  502    0  0.00000000000E+00  0.00000000000E+00  0.92963105123E+03  0.92963105123E+03  0.00000000000E+00 0. -1.
          1   -1    0    0  501    0 -0.00000000000E+00 -0.00000000000E+00 -0.19383502325E+02  0.19383502325E+02  0.00000000000E+00 0. -1.
         25    2    1    2    0    0  0.31004901113E+02  0.71678576701E+01  0.78540920237E+03  0.79593068971E+03  0.12500146231E+03 0.  0.
          2    1    1    2  501    0 -0.13368488522E+02  0.27450720188E+02  0.10440688330E+02  0.32268661220E+02  0.00000000000E+00 0. -1.
          1    1    1    2  502    0 -0.17636412591E+02 -0.34618577858E+02  0.11439765821E+03  0.12081520263E+03  0.00000000000E+00 0. -1.
         22    1    3    3    0    0  0.63254074985E+02 -0.36157506079E+02  0.37807375065E+03  0.38503013411E+03  0.00000000000E+00 0. -1.
         22    1    3    3    0    0 -0.32249173872E+02  0.43325363749E+02  0.40733545172E+03  0.41090055559E+03  0.00000000000E+00 0. -1.
</event>
<event>
 7    1  0.5789396E-006  0.1549917E+03  0.7818608E-02  0.1349077E+00
          2   -1    0    0  502    0  0.00000000000E+00  0.00000000000E+00  0.20020018065E+04  0.20020018065E+04  0.00000000000E+00 0. -1.
          1   -1    0    0  501    0 -0.00000000000E+00 -0.00000000000E+00 -0.33914376557E+02  0.33914376557E+02  0.00000000000E+00 0. -1.
         25    2    1    2    0    0 -0.25508165108E+02 -0.14667594578E+03  0.76832809189E+03  0.79253886472E+03  0.12500118299E+03 0.  0.
          2    1    1    2  501    0  0.60214061545E+02  0.14634863051E+03  0.26992027836E+03  0.31289073417E+03  0.00000000000E+00 0. -1.
          1    1    1    2  502    0 -0.34705896438E+02  0.32731527201E+00  0.92983905974E+03  0.93048658421E+03  0.00000000000E+00 0. -1.
         22    1    3    3    0    0  0.14088953997E+01  0.97064196747E+01  0.20718410238E+01  0.10024574523E+02  0.00000000000E+00 0. -1.
         22    1    3    3    0    0 -0.26917060507E+02 -0.15638236546E+03  0.76625625086E+03  0.78251429019E+03  0.00000000000E+00 0. -1.
</event>
<event>
 7    1  0.5789396E-006  0.8002984E+02  0.7818608E-02  0.1471338E+00
          2   -1    0    0  502    0  0.00000000000E+00  0.00000000000E+00  0.19230010774E+03  0.19230010774E+03  0.00000000000E+00 0. -1.
          1   -1    0    0  501    0 -0.00000000000E+00 -0.00000000000E+00 -0.39150404646E+03  0.39150404646E+03  0.00000000000E+00 0. -1.
         25    2    1    2    0    0  0.67149579032E+02 -0.65358130529E+02 -0.52937750231E+02  0.16494841965E+03  0.12499929822E+03 0.  0.
          2    1    1    2  501    0 -0.68316251096E+02  0.39533329444E+02 -0.27574613341E+03  0.28682036955E+03  0.00000000000E+00 0. -1.
          1    1    1    2  502    0  0.11666720644E+01  0.25824801085E+02  0.12947994492E+03  0.13203536500E+03  0.00000000000E+00 0. -1.
         22    1    3    3    0    0  0.29878228727E+02  0.31551724970E+02  0.85370493723E+01  0.44284321294E+02  0.00000000000E+00 0.  1.
         22    1    3    3    0    0  0.37271350305E+02 -0.96909855499E+02 -0.61474799603E+02  0.12066409836E+03  0.00000000000E+00 0.  1.
</event>
<event>
 7    1  0.5789396E-006  0.9512180E+02  0.7818608E-02  0.1322965E+00
          2   -1    0    0  502    0  0.00000000000E+00  0.00000000000E+00  0.60983729556E+03  0.60983729556E+03  0.00000000000E+00 0. -1.
          1   -1    0    0  501    0 -0.00000000000E+00 -0.00000000000E+00 -0.15544761694E+04  0.15544761694E+04  0.00000000000E+00 0. -1.
         25    2    1    2    0    0 -0.14380496050E+02 -0.55049252836E+02 -0.33529277757E+03  0.36233069717E+03  0.12500027405E+03 0.  0.
          2    1    1    2  501    0 -0.45698916325E+02  0.92895885671E+02 -0.12013163959E+04  0.12057690988E+04  0.00000000000E+00 0. -1.
          1    1    1    2  502    0  0.60079412374E+02 -0.37846632835E+02  0.59197029965E+03  0.59621366898E+03  0.00000000000E+00 0. -1.
         22    1    3    3    0    0  0.51772812246E+02 -0.37179351083E+02 -0.21079041442E+03  0.22021654580E+03  0.00000000000E+00 0. -1.
         22    1    3    3    0    0 -0.66153308296E+02 -0.17869901753E+02 -0.12450236315E+03  0.14211415136E+03  0.00000000000E+00 0. -1.
</event>
<event>
 7    1  0.5789396E-006  0.1935871E+03  0.7818608E-02  0.1186690E+00
          2   -1    0    0  502    0  0.00000000000E+00  0.00000000000E+00  0.13745484184E+04  0.13745484184E+04  0.00000000000E+00 0. -1.
          1   -1    0    0  501    0 -0.00000000000E+00 -0.00000000000E+00 -0.59378415193E+03  0.59378415193E+03  0.00000000000E+00 0. -1.
         25    2    1    2    0    0 -0.67874374216E+02 -0.31299899667E+02 -0.31028791093E+03  0.34276723422E+03  0.12499669912E+03 0.  0.
          2    1    1    2  501    0 -0.12817077151E+03  0.43079305688E+02 -0.24248813728E+03  0.27764018076E+03  0.00000000000E+00 0. -1.
          1    1    1    2  502    0  0.19604514573E+03 -0.11779406021E+02  0.13335403147E+04  0.13479251554E+04  0.00000000000E+00 0. -1.
         22    1    3    3    0    0 -0.29922491146E+02 -0.70748310868E+02 -0.10371153222E+03  0.12906107423E+03  0.00000000000E+00 0.  1.
         22    1    3    3    0    0 -0.37951883070E+02  0.39448411201E+02 -0.20657637871E+03  0.21370615998E+03  0.00000000000E+00 0.  1.
</event>
<event>
 7    1  0.5789396E-006  0.1152391E+03  0.7818608E-02  0.1397091E+00
          2   -1    0    0  502    0  0.00000000000E+00  0.00000000000E+00  0.10903120144E+04  0.10903120144E+04  0.00000000000E+00 0. -1.
          1   -1    0    0  501    0 -0.00000000000E+00 -0.00000000000E+00 -0.15052908008E+03  0.15052908008E+03  0.00000000000E+00 0. -1.
         25    2    1    2    0    0  0.98115609140E+02  0.22332194291E+02  0.11803516657E+02  0.16089596557E+03  0.12499115598E+03 0.  0.
          2    1    1    2  501    0 -0.12446867588E+03 -0.52157396389E+01 -0.24485996050E+02  0.12696148715E+03  0.00000000000E+00 0. -1.
          1    1    1    2  502    0  0.26353066742E+02 -0.17116454652E+02  0.95246541374E+03  0.95298364179E+03  0.00000000000E+00 0. -1.
         22    1    3    3    0    0  0.68893668916E+02  0.44063157851E+02 -0.45059382700E+02  0.93371555978E+02  0.00000000000E+00 0. -1.
         22    1    3    3    0    0  0.29221940224E+02 -0.21730963560E+02  0.56862899356E+02  0.67524409593E+02  0.00000000000E+00 0. -1.
</event>
<event>
 7    1  0.5789396E-006  0.1074494E+03  0.7818608E-02  0.1300537E+00
          2   -1    0    0  502    0  0.00000000000E+00  0.00000000000E+00  0.15204291317E+04  0.15204291317E+04  0.00000000000E+00 0. -1.
          1   -1    0    0  501    0 -0.00000000000E+00 -0.00000000000E+00 -0.16496256688E+03  0.16496256688E+03  0.00000000000E+00 0. -1.
         25    2    1    2    0    0 -0.17157479826E+03 -0.42779782158E+01  0.68280532217E+03  0.71505527191E+03  0.12499888563E+03 0.  0.
          2    1    1    2  501    0  0.10195387973E+03 -0.28627347171E+02 -0.12791720958E+03  0.16606303353E+03  0.00000000000E+00 0. -1.
          1    1    1    2  502    0  0.69620918531E+02  0.32905325387E+02  0.80057845223E+03  0.80427339314E+03  0.00000000000E+00 0. -1.
         22    1    3    3    0    0 -0.85652639328E+02 -0.59775424288E+01  0.55138746336E+03  0.55803247253E+03  0.00000000000E+00 0.  1.
         22    1    3    3    0    0 -0.85922158928E+02  0.16995642130E+01  0.13141785881E+03  0.15702279939E+03  0.00000000000E+00 0.  1.
</event>
<event>
 7    1  0.5789396E-006  0.9353960E+02  0.7818608E-02  0.1361394E+00
          2   -1    0    0  502    0  0.00000000000E+00  0.00000000000E+00  0.71222147793E+03  0.71222147793E+03  0.00000000000E+00 0. -1.
          1   -1    0    0  501    0 -0.00000000000E+00 -0.00000000000E+00 -0.63223407547E+03  0.63223407547E+03  0.00000000000E+00 0. -1.
         25    2    1    2    0    0  0.49188345176E+02 -0.11004935988E+03 -0.26864855557E+03  0.31988912381E+03  0.12500660066E+03 0.  0.
          2    1    1    2  501    0 -0.65083615797E+02  0.60732286932E+02 -0.33110029767E+03  0.34285812640E+03  0.00000000000E+00 0. -1.
          1    1    1    2  502    0  0.15895270622E+02  0.49317072950E+02  0.67973625571E+03  0.68170830319E+03  0.00000000000E+00 0. -1.
         22    1    3    3    0    0  0.81190954261E+02 -0.77303528691E+02 -0.11942532317E+03  0.16379931140E+03  0.00000000000E+00 0. -1.
         22    1    3    3    0    0 -0.32002609085E+02 -0.32745831192E+02 -0.14922323240E+03  0.15608981241E+03  0.00000000000E+00 0. -1.
</event>
<event>
 7    1  0.5789396E-006  0.8268371E+02  0.7818608E-02  0.1335373E+00
          2   -1    0    0  502    0  0.00000000000E+00  0.00000000000E+00  0.38060167542E+03  0.38060167542E+03  0.00000000000E+00 0. -1.
          1   -1    0    0  501    0 -0.00000000000E+00 -0.00000000000E+00 -0.12896750127E+03  0.12896750127E+03  0.00000000000E+00 0. -1.
         25    2    1    2    0    0 -0.71454308874E+02  0.12505332314E+03  0.14381676313E+03  0.23885639830E+03  0.12500026307E+03 0.  0.
          2    1    1    2  501    0  0.54776185585E+02 -0.53747124993E+02 -0.53501767555E+02  0.93550110015E+02  0.00000000000E+00 0. -1.
          1    1    1    2  502    0  0.16678123289E+02 -0.71306198149E+02  0.16131917858E+03  0.17716266838E+03  0.00000000000E+00 0. -1.
         22    1    3    3    0    0 -0.69842393562E+02  0.97807065729E+01  0.29319852076E+02  0.76375885496E+02  0.00000000000E+00 0.  1.
         22    1    3    3    0    0 -0.16119153121E+01  0.11527261657E+03  0.11449691105E+03  0.16248051281E+03  0.00000000000E+00 0.  1.
</event>
<event>
 7    1  0.5789396E-006  0.7543748E+02  0.7818608E-02  0.1397597E+00
          2   -1    0    0  502    0  0.00000000000E+00  0.00000000000E+00  0.99654594079E+02  0.99654594079E+02  0.00000000000E+00 0. -1.
          1   -1    0    0  501    0 -0.00000000000E+00 -0.00000000000E+00 -0.82204052613E+03  0.82204052613E+03  0.00000000000E+00 0. -1.
         25    2    1    2    0    0 -0.30252195327E+02 -0.75091764353E+00 -0.40249800525E+03  0.42254713651E+03  0.12500271655E+03 0.  0.
          2    1    1    2  501    0 -0.45510255710E+02 -0.14651389581E+02 -0.39111521389E+03  0.39402659444E+03  0.00000000000E+00 0. -1.
          1    1    1    2  502    0  0.75762451036E+02  0.15402307225E+02  0.71227287083E+02  0.10512138926E+03  0.00000000000E+00 0. -1.
         22    1    3    3    0    0  0.34303881749E+02 -0.24096781128E+02 -0.59734117010E+02  0.72976543483E+02  0.00000000000E+00 0.  1.
         22    1    3    3    0    0 -0.64556077076E+02  0.23345863484E+02 -0.34276388824E+03  0.34957059302E+03  0.00000000000E+00 0.  1.
</event>
<event>
 7    1  0.5789396E-006  0.1052187E+03  0.7818608E-02  0.1391372E+00
          2   -1    0    0  502    0  0.00000000000E+00  0.00000000000E+00  0.10116140238E+04  0.10116140238E+04  0.00000000000E+00 0. -1.
          1   -1    0    0  501    0 -0.00000000000E+00 -0.00000000000E+00 -0.78441926200E+03  0.78441926200E+03  0.00000000000E+00 0. -1.
         25    2    1    2    0    0 -0.37922671007E+02 -0.59004132119E+02 -0.44272113260E+03  0.46534602953E+03  0.12500123745E+03 0.  0.
          2    1    1    2  501    0 -0.26315482215E+02 -0.24602125088E+02 -0.32661428169E+03  0.32859497587E+03  0.00000000000E+00 0. -1.
          1    1    1    2  502    0  0.64238153222E+02  0.83606257207E+02  0.99653017607E+03  0.10020922804E+04  0.00000000000E+00 0. -1.
         22    1    3    3    0    0  0.37307057761E+02 -0.47637964699E+01 -0.54614186011E+02  0.66311534662E+02  0.00000000000E+00 0. -1.
         22    1    3    3    0    0 -0.75229728768E+02 -0.54240335649E+02 -0.38810694659E+03  0.39903449487E+03  0.00000000000E+00 0. -1.
</event>
<event>
 7    1  0.5789396E-006  0.1000080E+03  0.7818608E-02  0.1422923E+00
          2   -1    0    0  502    0  0.00000000000E+00  0.00000000000E+00  0.13208607239E+04  0.13208607239E+04  0.00000000000E+00 0. -1.
          1   -1    0    0  501    0 -0.00000000000E+00 -0.00000000000E+00 -0.23586740158E+02  0.23586740158E+02  0.00000000000E+00 0. -1.
         25    2    1    2    0    0 -0.77634694914E+02  0.42265215164E+02  0.92744393947E+03  0.93999515948E+03  0.12500057892E+03 0.  0.
          2    1    1    2  501    0  0.73391049199E+02 -0.71558645124E+02  0.14437294870E+03  0.17706053798E+03  0.00000000000E+00 0. -1.
          1    1    1    2  502    0  0.42436457152E+01  0.29293429960E+02  0.22545709554E+03  0.22739176656E+03  0.00000000000E+00 0. -1.
         22    1    3    3    0    0 -0.93422437153E+02  0.72897048011E+02  0.73471196160E+03  0.74420655593E+03  0.00000000000E+00 0.  1.
         22    1    3    3    0    0  0.15787742239E+02 -0.30631832847E+02  0.19273197787E+03  0.19578860356E+03  0.00000000000E+00 0.  1.
</event>
<event>
 7    1  0.5789396E-006  0.9254455E+03  0.7818608E-02  0.1104200E+00
          2   -1    0    0  502    0  0.00000000000E+00  0.00000000000E+00  0.17438572656E+04  0.17438572656E+04  0.00000000000E+00 0. -1.
          1   -1    0    0  501    0 -0.00000000000E+00 -0.00000000000E+00 -0.11332387059E+04  0.11332387059E+04  0.00000000000E+00 0. -1.
         25    2    1    2    0    0  0.86987853532E+03 -0.28491902037E+03  0.12072686962E+03  0.93170141440E+03  0.12500013668E+03 0.  0.
          2    1    1    2  501    0 -0.85989290844E+03  0.36011813559E+03 -0.42698411475E+03  0.10253859370E+04  0.00000000000E+00 0. -1.
          1    1    1    2  502    0 -0.99856268736E+01 -0.75199115222E+02  0.91687580483E+03  0.92000862015E+03  0.00000000000E+00 0. -1.
         22    1    3    3    0    0  0.43780733840E+03 -0.13342826077E+03 -0.19505292179E+01  0.45769222289E+03  0.00000000000E+00 0. -1.
         22    1    3    3    0    0  0.43207119691E+03 -0.15149075960E+03  0.12267739884E+03  0.47400919150E+03  0.00000000000E+00 0. -1.
</event>
<event>
 7    1  0.5789396E-006  0.2707825E+02  0.7818608E-02  0.1635063E+00
          2   -1    0    0  502    0  0.00000000000E+00  0.00000000000E+00  0.37493997768E+02  0.37493997768E+02  0.00000000000E+00 0. -1.
          1   -1    0    0  501    0 -0.00000000000E+00 -0.00000000000E+00 -0.52168003038E+03  0.52168003038E+03  0.00000000000E+00 0. -1.
         25    2    1    2    0    0  0.18834102964E+01 -0.25404669225E+02 -0.36418989684E+03  0.38589195506E+03  0.12501750105E+03 0.  0.
          2    1    1    2  501    0  0.22895250529E+02  0.13798656606E+02 -0.13797574418E+03  0.14054145795E+03  0.00000000000E+00 0. -1.
          1    1    1    2  502    0 -0.24778660825E+02  0.11606012620E+02  0.17979608405E+02  0.32740615138E+02  0.00000000000E+00 0. -1.
         22    1    3    3    0    0  0.50944246849E+02 -0.43679005730E+00 -0.28457227832E+03  0.28909667702E+03  0.00000000000E+00 0. -1.
         22    1    3    3    0    0 -0.49060836552E+02 -0.24967879168E+02 -0.79617618512E+02  0.96795278040E+02  0.00000000000E+00 0. -1.
</event>
<event>
 7    1  0.5789396E-006  0.8329779E+02  0.7818608E-02  0.1440414E+00
          2   -1    0    0  502    0  0.00000000000E+00  0.00000000000E+00  0.60386171767E+03  0.60386171767E+03  0.00000000000E+00 0. -1.
          1   -1    0    0  501    0 -0.00000000000E+00 -0.00000000000E+00 -0.16880284446E+04  0.16880284446E+04  0.00000000000E+00 0. -1.
         25    2    1    2    0    0 -0.95109970046E+02 -0.29293618695E+02  0.50517997128E+03  0.52984608154E+03  0.12500417691E+03 0.  0.
          2    1    1    2  501    0  0.83272278924E+02  0.49802571502E+00 -0.16718185649E+04  0.16738912254E+04  0.00000000000E+00 0. -1.
          1    1    1    2  502    0  0.11837691122E+02  0.28795592980E+02  0.82471866710E+02  0.88152855341E+02  0.00000000000E+00 0. -1.
         22    1    3    3    0    0 -0.85551678867E+02  0.17791048800E+02  0.44155722956E+03  0.45012042628E+03  0.00000000000E+00 0. -1.
         22    1    3    3    0    0 -0.95582911791E+01 -0.47084667495E+02  0.63622741714E+02  0.79725655260E+02  0.00000000000E+00 0. -1.
</event>
<event>
 7    1  0.5789396E-006  0.1258181E+03  0.7818608E-02  0.1263119E+00
          2   -1    0    0  502    0  0.00000000000E+00  0.00000000000E+00  0.24618077696E+04  0.24618077696E+04  0.00000000000E+00 0. -1.
          1   -1    0    0  501    0 -0.00000000000E+00 -0.00000000000E+00 -0.31229499003E+03  0.31229499003E+03  0.00000000000E+00 0. -1.
         25    2    1    2    0    0  0.46322194947E+02  0.32717955570E+02  0.14274063493E+03  0.19802953371E+03  0.12499838799E+03 0.  0.
          2    1    1    2  501    0 -0.93558644816E+01  0.93330972369E+02 -0.27498276409E+03  0.29054039848E+03  0.00000000000E+00 0. -1.
          1    1    1    2  502    0 -0.36966330465E+02 -0.12604892794E+03  0.22817549087E+04  0.22855328274E+04  0.00000000000E+00 0. -1.
         22    1    3    3    0    0  0.79697479906E+02  0.28939919010E+02  0.47827065753E+02  0.97348011969E+02  0.00000000000E+00 0. -1.
         22    1    3    3    0    0 -0.33375284959E+02  0.37780365593E+01  0.94913569180E+02  0.10068152174E+03  0.00000000000E+00 0. -1.
</event>
<event>
 7    1  0.5789396E-006  0.4631881E+02  0.7818608E-02  0.1560712E+00
          2   -1    0    0  502    0  0.00000000000E+00  0.00000000000E+00  0.95529252119E+03  0.95529252119E+03  0.00000000000E+00 0. -1.
          1   -1    0    0  501    0 -0.00000000000E+00 -0.00000000000E+00 -0.93511460900E+02  0.93511460900E+02  0.00000000000E+00 0. -1.
         25    2    1    2    0    0  0.20313617236E+02  0.16472720693E+02  0.25872453579E+02  0.13027115036E+03  0.12496877685E+03 0.  0.
          2    1    1    2  501    0  0.24289783110E+02 -0.30414044986E+01 -0.37009452747E+02  0.44372776536E+02  0.00000000000E+00 0. -1.
          1    1    1    2  502    0 -0.44603400347E+02 -0.13431316194E+02  0.87291805946E+03  0.87416005520E+03  0.00000000000E+00 0. -1.
         22    1    3    3    0    0  0.11886648748E+02  0.37409250984E+02 -0.42747382822E+02  0.58035189461E+02  0.00000000000E+00 0. -1.
         22    1    3    3    0    0  0.84269684887E+01 -0.20936530291E+02  0.68619836402E+02  0.72235960894E+02  0.00000000000E+00 0. -1.
</event>
<event>
 7    1  0.5789396E-006  0.1465628E+03  0.7818608E-02  0.1242450E+00
          2   -1    0    0  502    0  0.00000000000E+00  0.00000000000E+00  0.20554186905E+03  0.20554186905E+03  0.00000000000E+00 0. -1.
          1   -1    0    0  501    0 -0.00000000000E+00 -0.00000000000E+00 -0.32168278568E+04  0.32168278568E+04  0.00000000000E+00 0. -1.
         25    2    1    2    0    0 -0.95225814352E+02  0.43712003029E+02 -0.50123133004E+02  0.17063537222E+03  0.12500162744E+03 0.  0.
          2    1    1    2  501    0 -0.75002178376E+02 -0.64459698493E+02 -0.30547643457E+04  0.30563647668E+04  0.00000000000E+00 0. -1.
          1    1    1    2  502    0  0.17022799273E+03  0.20747695464E+02  0.93601490956E+02  0.19536958690E+03  0.00000000000E+00 0. -1.
         22    1    3    3    0    0 -0.28689309830E+02 -0.35892248627E+01  0.39793222579E+02  0.49188002570E+02  0.00000000000E+00 0. -1.
         22    1    3    3    0    0 -0.66536504523E+02  0.47301227892E+02 -0.89916355582E+02  0.12144736965E+03  0.00000000000E+00 0. -1.
</event>
<event>
 7    1  0.5789396E-006  0.1711772E+03  0.7818608E-02  0.1229780E+00
          2   -1    0    0  502    0  0.00000000000E+00  0.00000000000E+00  0.92387682235E+03  0.92387682235E+03  0.00000000000E+00 0. -1.
          1   -1    0    0  501    0 -0.00000000000E+00 -0.00000000000E+00 -0.13336068086E+03  0.13336068086E+03  0.00000000000E+00 0. -1.
         25    2    1    2    0    0 -0.11435469550E+03  0.87562232370E+02  0.82971196867E+02  0.20797507286E+03  0.12500108201E+03 0.  0.
          2    1    1    2  501    0  0.52543785649E+02  0.80800370263E+02 -0.21272309930E+02  0.98701876450E+02  0.00000000000E+00 0. -1.
          1    1    1    2  502    0  0.61810909847E+02 -0.16836260263E+03  0.72881725455E+03  0.75056055390E+03  0.00000000000E+00 0. -1.
         22    1    3    3    0    0 -0.15493653954E+02  0.82920002596E+01 -0.32236257604E+02  0.36714940902E+02  0.00000000000E+00 0. -1.
         22    1    3    3    0    0 -0.98861041542E+02  0.79270232110E+02  0.11520745447E+03  0.17126013196E+03  0.00000000000E+00 0. -1.
</event>
<event>
 7    1  0.5789396E-006  0.2008681E+03  0.7818608E-02  0.1262477E+00
          2   -1    0    0  502    0  0.00000000000E+00  0.00000000000E+00  0.63021011521E+02  0.63021011521E+02  0.00000000000E+00 0. -1.
          1   -1    0    0  501    0 -0.00000000000E+00 -0.00000000000E+00 -0.12863119617E+04  0.12863119617E+04  0.00000000000E+00 0. -1.
         25    2    1    2    0    0 -0.17600412600E+03  0.85436436861E-01 -0.45468523712E+03  0.50333154299E+03  0.12500607043E+03 0.  0.
          2    1    1    2  501    0  0.21352681390E+03  0.45604152099E+02 -0.75417176170E+03  0.78514233429E+03  0.00000000000E+00 0. -1.
          1    1    1    2  502    0 -0.37522687896E+02 -0.45689588536E+02 -0.14433951357E+02  0.60859095946E+02  0.00000000000E+00 0. -1.
         22    1    3    3    0    0 -0.31993844265E+02 -0.22289027746E+02 -0.17957446389E+02  0.42928739902E+02  0.00000000000E+00 0.  1.
         22    1    3    3    0    0 -0.14401028174E+03  0.22374464183E+02 -0.43672779073E+03  0.46040280308E+03  0.00000000000E+00 0.  1.
</event>
<event>
 7    1  0.5789396E-006  0.1393842E+03  0.7818608E-02  0.1268172E+00
          2   -1    0    0  502    0  0.00000000000E+00  0.00000000000E+00  0.26856879485E+03  0.26856879485E+03  0.00000000000E+00 0. -1.
          1   -1    0    0  501    0 -0.00000000000E+00 -0.00000000000E+00 -0.22667655890E+04  0.22667655890E+04  0.00000000000E+00 0. -1.
         25    2    1    2    0    0  0.13572355944E+03 -0.11943560869E+03 -0.26484458869E+03  0.34416959606E+03  0.12499722191E+03 0.  0.
          2    1    1    2  501    0 -0.13220129240E+03  0.38908742935E+02 -0.19526583156E+04  0.19575151518E+04  0.00000000000E+00 0. -1.
          1    1    1    2  502    0 -0.35222670374E+01  0.80526865750E+02  0.21930611012E+03  0.23364963601E+03  0.00000000000E+00 0. -1.
         22    1    3    3    0    0  0.11950123357E+03 -0.76314775435E+02 -0.26212652468E+03  0.29801812817E+03  0.00000000000E+00 0.  1.
         22    1    3    3    0    0  0.16222325870E+02 -0.43120833251E+02 -0.27180640079E+01  0.46151467894E+02  0.00000000000E+00 0.  1.
</event>
<event>
 7    1  0.5789396E-006  0.1641852E+03  0.7818608E-02  0.1217538E+00
          2   -1    0    0  502    0  0.00000000000E+00  0.00000000000E+00  0.17159219877E+03  0.17159219877E+03  0.00000000000E+00 0. -1.
          1   -1    0    0  501    0 -0.00000000000E+00 -0.00000000000E+00 -0.10106668465E+04  0.10106668465E+04  0.00000000000E+00 0. -1.
         25    2    1    2    0    0  0.20055768288E+03 -0.16863240089E+03 -0.17451540505E+03  0.33873466364E+03  0.12500109983E+03 0.  0.
          2    1    1    2  501    0 -0.97090572342E+02  0.12034825560E+03 -0.70548522373E+03  0.72223242987E+03  0.00000000000E+00 0. -1.
          1    1    1    2  502    0 -0.10346711053E+03  0.48284145293E+02  0.40925981011E+02  0.12129195180E+03  0.00000000000E+00 0. -1.
         22    1    3    3    0    0  0.11841130883E+03 -0.10074828556E+03 -0.17239820052E+03  0.23214778621E+03  0.00000000000E+00 0. -1.
         22    1    3    3    0    0  0.82146374047E+02 -0.67884115334E+02 -0.21172045273E+01  0.10658687742E+03  0.00000000000E+00 0. -1.
</event>
<event>
 7    1  0.5789396E-006  0.3757957E+03  0.7818608E-02  0.1254517E+00
          2   -1    0    0  502    0  0.00000000000E+00  0.00000000000E+00  0.19519564970E+04  0.19519564970E+04  0.00000000000E+00 0. -1.
          1   -1    0    0  501    0 -0.00000000000E+00 -0.00000000000E+00 -0.30121661694E+03  0.30121661694E+03  0.00000000000E+00 0. -1.
         25    2    1    2    0    0 -0.47205059100E+02 -0.40353973466E+03  0.10654922198E+04  0.11471579757E+04  0.12500046268E+03 0.  0.
          2    1    1    2  501    0  0.44161892881E+02  0.36949544842E+03 -0.12680926520E+03  0.39313833307E+03  0.00000000000E+00 0. -1.
          1    1    1    2  502    0  0.30431662185E+01  0.34044286241E+02  0.71205692544E+03  0.71287680518E+03  0.00000000000E+00 0. -1.
         22    1    3    3    0    0 -0.49225223628E+01 -0.20041642885E+02  0.91751208717E+01  0.22584984369E+02  0.00000000000E+00 0. -1.
         22    1    3    3    0    0 -0.42282536737E+02 -0.38349809178E+03  0.10563170990E+04  0.11245729914E+04  0.00000000000E+00 0. -1.
</event>
<event>
 7    1  0.5789396E-006  0.4225768E+02  0.7818608E-02  0.1502144E+00
          2   -1    0    0  502    0  0.00000000000E+00  0.00000000000E+00  0.23099570293E+02  0.23099570293E+02  0.00000000000E+00 0. -1.
          1   -1    0    0  501    0 -0.00000000000E+00 -0.00000000000E+00 -0.83421734161E+03  0.83421734161E+03  0.00000000000E+00 0. -1.
         25    2    1    2    0    0 -0.10963037848E+02  0.17103574889E+02 -0.41948840984E+03  0.43818875732E+03  0.12500456220E+03 0.  0.
          2    1    1    2  501    0  0.47067501609E+02 -0.11721278936E+01 -0.37215500104E+03  0.37512140487E+03  0.00000000000E+00 0. -1.
          1    1    1    2  502    0 -0.36104463761E+02 -0.15931446996E+02 -0.19474360436E+02  0.44006749724E+02  0.00000000000E+00 0. -1.
         22    1    3    3    0    0 -0.17811863788E+01 -0.29080686237E+01 -0.41586030925E+03  0.41587429146E+03  0.00000000000E+00 0. -1.
         22    1    3    3    0    0 -0.91818514696E+01  0.20011643513E+02 -0.36281005951E+01  0.22314465856E+02  0.00000000000E+00 0. -1.
</event>
<event>
 7    1  0.5789396E-006  0.8276198E+02  0.7818608E-02  0.1389285E+00
          2   -1    0    0  502    0  0.00000000000E+00  0.00000000000E+00  0.13770096425E+04  0.13770096425E+04  0.00000000000E+00 0. -1.
          1   -1    0    0  501    0 -0.00000000000E+00 -0.00000000000E+00 -0.34255701032E+03  0.34255701032E+03  0.00000000000E+00 0. -1.
         25    2    1    2    0    0  0.68944602283E+02  0.22431300027E+02  0.48573521886E+03  0.50677465954E+03  0.12500132522E+03 0.  0.
          2    1    1    2  501    0 -0.79787177665E+02  0.22862879707E+02 -0.32622154722E+03  0.33661432361E+03  0.00000000000E+00 0. -1.
          1    1    1    2  502    0  0.10842575381E+02 -0.45294179734E+02  0.87493896059E+03  0.87617766972E+03  0.00000000000E+00 0. -1.
         22    1    3    3    0    0  0.33490677586E+02  0.40305564842E+02  0.61985021752E+02  0.81168386481E+02  0.00000000000E+00 0. -1.
         22    1    3    3    0    0  0.35453924697E+02 -0.17874264815E+02  0.42375019711E+03  0.42560627306E+03  0.00000000000E+00 0. -1.
</event>
<event>
 7    1  0.5789396E-006  0.2565670E+03  0.7818608E-02  0.1217686E+00
          2   -1    0    0  502    0  0.00000000000E+00  0.00000000000E+00  0.97467662571E+03  0.97467662571E+03  0.00000000000E+00 0. -1.
          1   -1    0    0  501    0 -0.00000000000E+00 -0.00000000000E+00 -0.67690409575E+03  0.67690409575E+03  0.00000000000E+00 0. -1.
         25    2    1    2    0    0 -0.21757385557E+03 -0.10965417896E+03 -0.37672081560E+03  0.46573293679E+03  0.12500469558E+03 0.  0.
          2    1    1    2  501    0 -0.35793906219E+02  0.63567977508E+02 -0.23214843452E+03  0.24334129764E+03  0.00000000000E+00 0. -1.
          1    1    1    2  502    0  0.25336776178E+03  0.46086201455E+02  0.90664178009E+03  0.94250648702E+03  0.00000000000E+00 0. -1.
         22    1    3    3    0    0 -0.15715832731E+03 -0.10480233414E+03 -0.18398092467E+03  0.26368778835E+03  0.00000000000E+00 0.  1.
         22    1    3    3    0    0 -0.60415528260E+02 -0.48518448229E+01 -0.19273989093E+03  0.20204514844E+03  0.00000000000E+00 0.  1.
</event>
<event>
 7    1  0.5789396E-006  0.8575643E+02  0.7818608E-02  0.1362285E+00
          2   -1    0    0  502    0  0.00000000000E+00  0.00000000000E+00  0.21812974253E+04  0.21812974253E+04  0.00000000000E+00 0. -1.
          1   -1    0    0  501    0 -0.00000000000E+00 -0.00000000000E+00 -0.31674902122E+03  0.31674902122E+03  0.00000000000E+00 0. -1.
         25    2    1    2    0    0 -0.19394467832E+01 -0.48470747384E+02  0.23885369851E+03  0.27391453787E+03  0.12499963983E+03 0.  0.
          2    1    1    2  501    0 -0.49126534058E+02  0.71691800863E+02 -0.29248916880E+03  0.30512791502E+03  0.00000000000E+00 0. -1.
          1    1    1    2  502    0  0.51065980841E+02 -0.23221053479E+02  0.19181838743E+04  0.19190039936E+04  0.00000000000E+00 0. -1.
         22    1    3    3    0    0 -0.25974866357E+02  0.36656415106E+02  0.94083984546E+02  0.10426016784E+03  0.00000000000E+00 0.  1.
         22    1    3    3    0    0  0.24035419574E+02 -0.85127162490E+02  0.14476971397E+03  0.16965437003E+03  0.00000000000E+00 0.  1.
</event>
<event>
 7    1  0.6151684E-006  0.3680463E+02  0.7818608E-02  0.1536079E+00
          2   -1    0    0  502    0  0.00000000000E+00  0.00000000000E+00  0.14526166766E+04  0.14526166766E+04  0.00000000000E+00 0. -1.
          1   -1    0    0  501    0 -0.00000000000E+00 -0.00000000000E+00 -0.85856349770E+03  0.85856349770E+03  0.00000000000E+00 0. -1.
         25    2    1    2    0    0  0.14344645194E+01  0.44132520739E+01 -0.34579924786E+03  0.36773451644E+03  0.12502007951E+03 0.  0.
          2    1    1    2  501    0  0.35230056439E+02 -0.78819848057E+01 -0.50091169400E+03  0.50221091958E+03  0.00000000000E+00 0. -1.
          1    1    1    2  502    0 -0.36664520958E+02  0.34687327318E+01  0.14407641207E+04  0.14412347383E+04  0.00000000000E+00 0. -1.
         22    1    3    3    0    0  0.45198883379E+02 -0.27155732036E+02 -0.75430936381E+02  0.92033684075E+02  0.00000000000E+00 0.  1.
         22    1    3    3    0    0 -0.43764418860E+02  0.31568984109E+02 -0.27036831148E+03  0.27570083236E+03  0.00000000000E+00 0.  1.
</event>
<event>
 7    1  0.5789396E-006  0.2619641E+03  0.7818608E-02  0.1197483E+00
          2   -1    0    0  502    0  0.00000000000E+00  0.00000000000E+00  0.70884843818E+03  0.70884843818E+03  0.00000000000E+00 0. -1.
          1   -1    0    0  501    0 -0.00000000000E+00 -0.00000000000E+00 -0.47403483950E+03  0.47403483950E+03  0.00000000000E+00 0. -1.
         25    2    1    2    0    0  0.62152357849E+02  0.26701524266E+03  0.15853820982E+03  0.34046969881E+03  0.12500078574E+03 0.  0.
          2    1    1    2  501    0 -0.88441218245E+02 -0.71394591420E+01 -0.33977303465E+03  0.35116739034E+03  0.00000000000E+00 0. -1.
          1    1    1    2  502    0  0.26288860397E+02 -0.25987578352E+03  0.41604842351E+03  0.49124618853E+03  0.00000000000E+00 0. -1.
         22    1    3    3    0    0 -0.18590934771E+02  0.86175331876E+02  0.10135984576E+03  0.13433402030E+03  0.00000000000E+00 0. -1.
         22    1    3    3    0    0  0.80743292620E+02  0.18083991079E+03  0.57178364064E+02  0.20613567851E+03  0.00000000000E+00 0. -1.
</event>
<event>
 7    1  0.5789396E-006  0.7585164E+02  0.7818608E-02  0.1383806E+00
          2   -1    0    0  502    0  0.00000000000E+00  0.00000000000E+00  0.31783879834E+03  0.31783879834E+03  0.00000000000E+00 0. -1.
          1   -1    0    0  501    0 -0.00000000000E+00 -0.00000000000E+00 -0.12795435954E+03  0.12795435954E+03  0.00000000000E+00 0. -1.
         25    2    1    2    0    0  0.54980708567E+02  0.69150745649E+02  0.23231254507E+00  0.15305811414E+03  0.12498811302E+03 0.  0.
          2    1    1    2  501    0 -0.22783801839E+01 -0.75766769603E+02 -0.18406124381E+02  0.78003716623E+02  0.00000000000E+00 0. -1.
          1    1    1    2  502    0 -0.52702328384E+02  0.66160239537E+01  0.20805825063E+03  0.21473132712E+03  0.00000000000E+00 0. -1.
         22    1    3    3    0    0 -0.22000390891E+02 -0.22638897311E+02 -0.92241358541E+01  0.32888015341E+02  0.00000000000E+00 0. -1.
         22    1    3    3    0    0  0.76981099458E+02  0.91789642960E+02  0.94564483992E+01  0.12017009880E+03  0.00000000000E+00 0. -1.
</event>
<event>
 7    1  0.5789396E-006  0.6819861E+02  0.7818608E-02  0.1499968E+00
          2   -1    0    0  502    0  0.00000000000E+00  0.00000000000E+00  0.62124376583E+03  0.62124376583E+03  0.00000000000E+00 0. -1.
          1   -1    0    0  501    0 -0.00000000000E+00 -0.00000000000E+00 -0.40077890758E+03  0.40077890758E+03  0.00000000000E+00 0. -1.
         25    2    1    2    0    0  0.81866675636E+02 -0.23040251577E+02 -0.30933438211E+03  0.34430643226E+03  0.12500461419E+03 0.  0.
          2    1    1    2  501    0 -0.13795843251E+02  0.20633061123E+02 -0.69892459029E+02  0.74168755763E+02  0.00000000000E+00 0. -1.
          1    1    1    2  502    0 -0.68070832384E+02  0.24071904546E+01  0.59969169939E+03  0.60354748538E+03  0.00000000000E+00 0. -1.
         22    1    3    3    0    0  0.74096626847E+02 -0.53595116790E+02 -0.29647354123E+03  0.31025684086E+03  0.00000000000E+00 0. -1.
         22    1    3    3    0    0  0.77700487885E+01  0.30554865213E+02 -0.12860840885E+02  0.34049591402E+02  0.00000000000E+00 0. -1.
</event>
<event>
 7    1  0.5789396E-006  0.8236494E+02  0.7818608E-02  0.1416596E+00
          2   -1    0    0  502    0  0.00000000000E+00  0.00000000000E+00  0.71525206506E+03  0.71525206506E+03  0.00000000000E+00 0. -1.
          1   -1    0    0  501    0 -0.00000000000E+00 -0.00000000000E+00 -0.78672553209E+03  0.78672553209E+03  0.00000000000E+00 0. -1.
         25    2    1    2    0    0 -0.19348850906E+02 -0.10270331376E+03 -0.10214953886E+03  0.19230764164E+03  0.12500140822E+03 0.  0.
          2    1    1    2  501    0  0.39795569731E+02  0.70991462254E+02 -0.63637229148E+03  0.64155527310E+03  0.00000000000E+00 0. -1.
          1    1    1    2  502    0 -0.20446718825E+02  0.31711851508E+02  0.66704836331E+03  0.66811468240E+03  0.00000000000E+00 0. -1.
         22    1    3    3    0    0  0.32836292109E+02  0.14850334883E+00  0.69324815447E+01  0.33560444471E+02  0.00000000000E+00 0. -1.
         22    1    3    3    0    0 -0.52185143015E+02 -0.10285181711E+03 -0.10908202041E+03  0.15874719717E+03  0.00000000000E+00 0. -1.
</event>
<event>
 7    1  0.5789396E-006  0.4583752E+02  0.7818608E-02  0.1515324E+00
          2   -1    0    0  502    0  0.00000000000E+00  0.00000000000E+00  0.27238106060E+03  0.27238106060E+03  0.00000000000E+00 0. -1.
          1   -1    0    0  501    0 -0.00000000000E+00 -0.00000000000E+00 -0.11397065382E+04  0.11397065382E+04  0.00000000000E+00 0. -1.
         25    2    1    2    0    0 -0.18709049425E+01  0.56576109116E+02  0.23407012818E+02  0.13920472961E+03  0.12500284832E+03 0.  0.
          2    1    1    2  501    0 -0.25697268015E+02 -0.37956676576E+02 -0.10798698163E+04  0.10808422082E+04  0.00000000000E+00 0. -1.
          1    1    1    2  502    0  0.27568172957E+02 -0.18619432540E+02  0.18913732588E+03  0.19204066098E+03  0.00000000000E+00 0. -1.
         22    1    3    3    0    0 -0.49986670198E+02 -0.50287658036E+01  0.33505387429E+02  0.60386808740E+02  0.00000000000E+00 0.  1.
         22    1    3    3    0    0  0.48115765255E+02  0.61604874919E+02 -0.10098374612E+02  0.78817920867E+02  0.00000000000E+00 0.  1.
</event>
<event>
 7    1  0.5789396E-006  0.1806288E+03  0.7818608E-02  0.1315124E+00
          2   -1    0    0  502    0  0.00000000000E+00  0.00000000000E+00  0.30386665637E+04  0.30386665637E+04  0.00000000000E+00 0. -1.
          1   -1    0    0  501    0 -0.00000000000E+00 -0.00000000000E+00 -0.55642060586E+03  0.55642060586E+03  0.00000000000E+00 0. -1.
         25    2    1    2    0    0  0.12739237684E+03 -0.72244874017E+02  0.11232596411E+04  0.11396426769E+04  0.12500028122E+03 0.  0.
          2    1    1    2  501    0 -0.16738178082E+03  0.69129726873E+02 -0.53305549395E+03  0.56297756556E+03  0.00000000000E+00 0. -1.
          1    1    1    2  502    0  0.39989403979E+02  0.31151471443E+01  0.18920418107E+04  0.18924669271E+04  0.00000000000E+00 0. -1.
         22    1    3    3    0    0  0.54334894247E+02  0.30684170891E+02  0.48722760582E+03  0.49120722607E+03  0.00000000000E+00 0. -1.
         22    1    3    3    0    0  0.73057482595E+02 -0.10292904491E+03  0.63603203524E+03  0.64843545083E+03  0.00000000000E+00 0. -1.
</event>
<event>
 7    1  0.5789396E-006  0.5228780E+02  0.7818608E-02  0.1437539E+00
          2   -1    0    0  502    0  0.00000000000E+00  0.00000000000E+00  0.77877236087E+03  0.77877236087E+03  0.00000000000E+00 0. -1.
          1   -1    0    0  501    0 -0.00000000000E+00 -0.00000000000E+00 -0.26296810719E+03  0.26296810719E+03  0.00000000000E+00 0. -1.
         25    2    1    2    0    0 -0.39097062728E+02  0.24508989594E+02 -0.13532574379E+03  0.18991385931E+03  0.12499978456E+03 0.  0.
          2    1    1    2  501    0  0.42338532833E+02  0.27849788406E+02 -0.92967313421E+02  0.10588240383E+03  0.00000000000E+00 0. -1.
          1    1    1    2  502    0 -0.32414701054E+01 -0.52358778000E+02  0.74409731090E+03  0.74594420491E+03  0.00000000000E+00 0. -1.
         22    1    3    3    0    0 -0.44972770631E+02 -0.25251435143E+02 -0.12959465956E+03  0.13948104123E+03  0.00000000000E+00 0.  1.
         22    1    3    3    0    0  0.58757079033E+01  0.49760424737E+02 -0.57310842285E+01  0.50432818083E+02  0.00000000000E+00 0.  1.
</event>
<event>
 7    1  0.5789396E-006  0.9770243E+02  0.7818608E-02  0.1335406E+00
          2   -1    0    0  502    0  0.00000000000E+00  0.00000000000E+00  0.10466914574E+04  0.10466914574E+04  0.00000000000E+00 0. -1.
          1   -1    0    0  501    0 -0.00000000000E+00 -0.00000000000E+00 -0.87475613909E+03  0.87475613909E+03  0.00000000000E+00 0. -1.
         25    2    1    2    0    0 -0.66866224851E+02 -0.27476951485E+02  0.98768720786E+02  0.17494634759E+03  0.12499955776E+03 0.  0.
          2    1    1    2  501    0  0.47556839929E+02  0.86346516301E+02 -0.83270195303E+03  0.83851649744E+03  0.00000000000E+00 0. -1.
          1    1    1    2  502    0  0.19309384922E+02 -0.58869564817E+02  0.90586855051E+03  0.90798475142E+03  0.00000000000E+00 0. -1.
         22    1    3    3    0    0 -0.36322415624E+02  0.37893818967E+02  0.87329693873E+02  0.10189079853E+03  0.00000000000E+00 0.  1.
         22    1    3    3    0    0 -0.30543809227E+02 -0.65370770452E+02  0.11439026913E+02  0.73055549059E+02  0.00000000000E+00 0.  1.
</event>
<event>
 7    1  0.5789396E-006  0.7706293E+02  0.7818608E-02  0.1383768E+00
          2   -1    0    0  502    0  0.00000000000E+00  0.00000000000E+00  0.12931573697E+03  0.12931573697E+03  0.00000000000E+00 0. -1.
          1   -1    0    0  501    0 -0.00000000000E+00 -0.00000000000E+00 -0.72507007223E+03  0.72507007223E+03  0.00000000000E+00 0. -1.
         25    2    1    2    0    0  0.48470598045E+02  0.10861305933E+03 -0.63320150373E+02  0.18379448290E+03  0.12499909987E+03 0.  0.
          2    1    1    2  501    0 -0.53796002530E+01 -0.52019715491E+02 -0.58171221719E+03  0.58405829720E+03  0.00000000000E+00 0. -1.
          1    1    1    2  502    0 -0.43090997792E+02 -0.56593343844E+02  0.49278032309E+02  0.86533029107E+02  0.00000000000E+00 0. -1.
         22    1    3    3    0    0  0.62029786141E+02  0.70368652939E+02  0.15562337669E+02  0.95087475720E+02  0.00000000000E+00 0.  1.
         22    1    3    3    0    0 -0.13559188096E+02  0.38244406396E+02 -0.78882488042E+02  0.88707007176E+02  0.00000000000E+00 0.  1.
</event>
<event>
 7    1  0.5789396E-006  0.2038347E+03  0.7818608E-02  0.1183334E+00
          2   -1    0    0  502    0  0.00000000000E+00  0.00000000000E+00  0.22186597406E+04  0.22186597406E+04  0.00000000000E+00 0. -1.
          1   -1    0    0  501    0 -0.00000000000E+00 -0.00000000000E+00 -0.51489243976E+03  0.51489243976E+03  0.00000000000E+00 0. -1.
         25    2    1    2    0    0  0.10196601977E+03  0.38851673979E+02  0.15559446369E+01  0.16593598715E+03  0.12500323639E+03 0.  0.
          2    1    1    2  501    0 -0.22644023107E+03 -0.86580208655E+02 -0.39646477565E+03  0.46471026362E+03  0.00000000000E+00 0. -1.
          1    1    1    2  502    0  0.12447421130E+03  0.47728534676E+02  0.20986761318E+04  0.21029059296E+04  0.00000000000E+00 0. -1.
         22    1    3    3    0    0  0.12322743248E+03  0.42596833912E+02  0.26394170546E+02  0.13302684922E+03  0.00000000000E+00 0. -1.
         22    1    3    3    0    0 -0.21261412704E+02 -0.37451599331E+01 -0.24838225909E+02  0.32909137931E+02  0.00000000000E+00 0. -1.
</event>
<event>
 7    1  0.5789396E-006  0.7323295E+02  0.7818608E-02  0.1409270E+00
          2   -1    0    0  502    0  0.00000000000E+00  0.00000000000E+00  0.25918945190E+03  0.25918945190E+03  0.00000000000E+00 0. -1.
          1   -1    0    0  501    0 -0.00000000000E+00 -0.00000000000E+00 -0.16424909373E+03  0.16424909373E+03  0.00000000000E+00 0. -1.
         25    2    1    2    0    0  0.37223673869E+01  0.87899401367E+02 -0.38865303619E+01  0.15292880094E+03  0.12502780594E+03 0.  0.
          2    1    1    2  501    0 -0.39349816109E+02 -0.60536226355E+02 -0.67125650458E+02  0.98584459620E+02  0.00000000000E+00 0. -1.
          1    1    1    2  502    0  0.35627448722E+02 -0.27363175012E+02  0.16595253899E+03  0.17192528507E+03  0.00000000000E+00 0. -1.
         22    1    3    3    0    0 -0.34829679941E+02  0.32138387465E+02  0.48080944732E+02  0.67511182777E+02  0.00000000000E+00 0. -1.
         22    1    3    3    0    0  0.38552047328E+02  0.55761013902E+02 -0.51967475094E+02  0.85417618161E+02  0.00000000000E+00 0. -1.
</event>
<event>
 7    1  0.5789396E-006  0.1097158E+03  0.7818608E-02  0.1312759E+00
          2   -1    0    0  502    0  0.00000000000E+00  0.00000000000E+00  0.19241966754E+04  0.19241966754E+04  0.00000000000E+00 0. -1.
          1   -1    0    0  501    0 -0.00000000000E+00 -0.00000000000E+00 -0.27119066577E+03  0.27119066577E+03  0.00000000000E+00 0. -1.
         25    2    1    2    0    0 -0.13215561321E+03 -0.10839553210E+03  0.48893252313E+03  0.53281929592E+03  0.12500676962E+03 0.  0.
          2    1    1    2  501    0  0.57183276709E+02  0.35787479002E+02 -0.24271409052E+03  0.25191427218E+03  0.00000000000E+00 0. -1.
          1    1    1    2  502    0  0.74972336503E+02  0.72608053094E+02  0.14067875771E+04  0.14106537731E+04  0.00000000000E+00 0. -1.
         22    1    3    3    0    0 -0.49797499540E+02 -0.99324921300E+02  0.38027906992E+03  0.39617849761E+03  0.00000000000E+00 0. -1.
         22    1    3    3    0    0 -0.82358113672E+02 -0.90706107964E+01  0.10865345321E+03  0.13664079831E+03  0.00000000000E+00 0. -1.
</event>
<event>
 7    1  0.5789396E-006  0.5680964E+02  0.7818608E-02  0.1467390E+00
          2   -1    0    0  502    0  0.00000000000E+00  0.00000000000E+00  0.41862839131E+03  0.41862839131E+03  0.00000000000E+00 0. -1.
          1   -1    0    0  501    0 -0.00000000000E+00 -0.00000000000E+00 -0.11963129594E+04  0.11963129594E+04  0.00000000000E+00 0. -1.
         25    2    1    2    0    0  0.24973346681E+02  0.85973631885E+02  0.82406042536E+02  0.17444650202E+03  0.12500277116E+03 0.  0.
          2    1    1    2  501    0 -0.28905004210E+02 -0.48717524519E+02 -0.11483826198E+04  0.11497789083E+04  0.00000000000E+00 0. -1.
          1    1    1    2  502    0  0.39316575293E+01 -0.37256107366E+02  0.28829200916E+03  0.29071594042E+03  0.00000000000E+00 0. -1.
         22    1    3    3    0    0  0.40021325511E+02  0.11457183208E+03  0.62766983033E+02  0.13663127520E+03  0.00000000000E+00 0. -1.
         22    1    3    3    0    0 -0.15047978830E+02 -0.28598200200E+02  0.19639059504E+02  0.37815226823E+02  0.00000000000E+00 0. -1.
</event>
<event>
 7    1  0.5789396E-006  0.1245711E+03  0.7818608E-02  0.1299872E+00
          2   -1    0    0  502    0  0.00000000000E+00  0.00000000000E+00  0.18488261258E+04  0.18488261258E+04  0.00000000000E+00 0. -1.
          1   -1    0    0  501    0 -0.00000000000E+00 -0.00000000000E+00 -0.62440196725E+03  0.62440196725E+03  0.00000000000E+00 0. -1.
         25    2    1    2    0    0  0.58852426774E+02 -0.77800755885E+02  0.97998226541E+03  0.99272686067E+03  0.12499925453E+03 0.  0.
          2    1    1    2  501    0  0.63734703036E+02 -0.20103636444E+02 -0.60905231537E+03  0.61270791690E+03  0.00000000000E+00 0. -1.
          1    1    1    2  502    0 -0.12258712981E+03  0.97904392329E+02  0.85349420851E+03  0.86779331548E+03  0.00000000000E+00 0. -1.
         22    1    3    3    0    0  0.18659715758E+02  0.10306796545E+02  0.60710345104E+03  0.60747758420E+03  0.00000000000E+00 0.  1.
         22    1    3    3    0    0  0.40192711016E+02 -0.88107552431E+02  0.37287881437E+03  0.38524927647E+03  0.00000000000E+00 0.  1.
</event>
<event>
 7    1  0.5789396E-006  0.7030033E+02  0.7818608E-02  0.1398114E+00
          2   -1    0    0  502    0  0.00000000000E+00  0.00000000000E+00  0.30539413348E+04  0.30539413348E+04  0.00000000000E+00 0. -1.
          1   -1    0    0  501    0 -0.00000000000E+00 -0.00000000000E+00 -0.74227400300E+02  0.74227400300E+02  0.00000000000E+00 0. -1.
         25    2    1    2    0    0 -0.14868663234E+02 -0.42294037884E+02  0.48446007903E+03  0.50233106208E+03  0.12500025988E+03 0.  0.
          2    1    1    2  501    0 -0.30997996885E+02  0.64808019290E+02 -0.45195892189E+02  0.84874164773E+02  0.00000000000E+00 0. -1.
          1    1    1    2  502    0  0.45866660119E+02 -0.22513981406E+02  0.25404497476E+04  0.25409635082E+04  0.00000000000E+00 0. -1.
         22    1    3    3    0    0 -0.77361583076E+01  0.38133619546E+02  0.27687387861E+03  0.27959464541E+03  0.00000000000E+00 0.  1.
         22    1    3    3    0    0 -0.71325049263E+01 -0.80427657430E+02  0.20758620042E+03  0.22273641667E+03  0.00000000000E+00 0.  1.
</event>
<event>
 7    1  0.5789396E-006  0.6933318E+02  0.7818608E-02  0.1483947E+00
          2   -1    0    0  502    0  0.00000000000E+00  0.00000000000E+00  0.84606242222E+03  0.84606242222E+03  0.00000000000E+00 0. -1.
          1   -1    0    0  501    0 -0.00000000000E+00 -0.00000000000E+00 -0.88288204982E+03  0.88288204982E+03  0.00000000000E+00 0. -1.
         25    2    1    2    0    0 -0.93877987470E+01  0.57272297882E+02 -0.44742125502E+03  0.46816327643E+03  0.12499130803E+03 0.  0.
          2    1    1    2  501    0  0.25284630591E+02  0.10264693058E+02 -0.42320947320E+03  0.42408835716E+03  0.00000000000E+00 0. -1.
          1    1    1    2  502    0 -0.15896831844E+02 -0.67536990940E+02  0.83381110062E+03  0.83669283846E+03  0.00000000000E+00 0. -1.
         22    1    3    3    0    0 -0.55738758218E+02  0.67626452044E+02 -0.24367652346E+03  0.25895635591E+03  0.00000000000E+00 0.  1.
         22    1    3    3    0    0  0.46350959471E+02 -0.10354154162E+02 -0.20374473156E+03  0.20920692051E+03  0.00000000000E+00 0.  1.
</event>
<event>
 7    1  0.5789396E-006  0.4099512E+02  0.7818608E-02  0.1528948E+00
          2   -1    0    0  502    0  0.00000000000E+00  0.00000000000E+00  0.19718032649E+04  0.19718032649E+04  0.00000000000E+00 0. -1.
          1   -1    0    0  501    0 -0.00000000000E+00 -0.00000000000E+00 -0.50345807853E+03  0.50345807853E+03  0.00000000000E+00 0. -1.
         25    2    1    2    0    0 -0.21690445274E+02 -0.31531941826E+02  0.21126930213E+03  0.24843920775E+03  0.12499033224E+03 0.  0.
          2    1    1    2  501    0  0.40906594640E+02  0.35234772777E+01 -0.48383798690E+03  0.48557693721E+03  0.00000000000E+00 0. -1.
          1    1    1    2  502    0 -0.19216149366E+02  0.28008464549E+02  0.17409138712E+04  0.17412451985E+04  0.00000000000E+00 0. -1.
         22    1    3    3    0    0 -0.53450994562E+02 -0.64951532285E+02  0.14659058961E+03  0.16901038822E+03  0.00000000000E+00 0.  1.
         22    1    3    3    0    0  0.31760549288E+02  0.33419590458E+02  0.64678712521E+02  0.79428819523E+02  0.00000000000E+00 0.  1.
</event>
<event>
 7    1  0.5789396E-006  0.8802943E+02  0.7818608E-02  0.1404824E+00
          2   -1    0    0  502    0  0.00000000000E+00  0.00000000000E+00  0.42255173106E+04  0.42255173106E+04  0.00000000000E+00 0. -1.
          1   -1    0    0  501    0 -0.00000000000E+00 -0.00000000000E+00 -0.32440783943E+03  0.32440783943E+03  0.00000000000E+00 0. -1.
         25    2    1    2    0    0  0.38458753879E+02  0.32807439387E+02  0.27398377052E+02  0.13760842694E+03  0.12502001548E+03 0.  0.
          2    1    1    2  501    0  0.21159219118E+02  0.32399826387E+02 -0.26743904027E+03  0.27022416910E+03  0.00000000000E+00 0. -1.
          1    1    1    2  502    0 -0.59617972997E+02 -0.65207265773E+02  0.41411501343E+04  0.41420925539E+04  0.00000000000E+00 0. -1.
         22    1    3    3    0    0 -0.22302619400E+02  0.33352390837E+02  0.57248658473E+02  0.69908495217E+02  0.00000000000E+00 0. -1.
         22    1    3    3    0    0  0.60761373278E+02 -0.54495145060E+00 -0.29850281421E+02  0.67699931725E+02  0.00000000000E+00 0. -1.
</event>
<event>
 7    1  0.5789396E-006  0.7800689E+02  0.7818608E-02  0.1473022E+00
          2   -1    0    0  502    0  0.00000000000E+00  0.00000000000E+00  0.87674164418E+02  0.87674164418E+02  0.00000000000E+00 0. -1.
          1   -1    0    0  501    0 -0.00000000000E+00 -0.00000000000E+00 -0.12057907312E+04  0.12057907312E+04  0.00000000000E+00 0. -1.
         25    2    1    2    0    0 -0.80426639287E+02 -0.44330379249E+01 -0.48745376075E+03  0.50963798243E+03  0.12502642974E+03 0.  0.
          2    1    1    2  501    0  0.52958802688E+01  0.25663761201E+02 -0.68703178615E+03  0.68753134486E+03  0.00000000000E+00 0. -1.
          1    1    1    2  502    0  0.75130759019E+02 -0.21230723276E+02  0.56368980112E+02  0.96295568332E+02  0.00000000000E+00 0. -1.
         22    1    3    3    0    0 -0.58363437911E+01  0.39991152331E+02 -0.30404514373E+03  0.30671942325E+03  0.00000000000E+00 0. -1.
         22    1    3    3    0    0 -0.74590295496E+02 -0.44424190256E+02 -0.18340861702E+03  0.20291855918E+03  0.00000000000E+00 0. -1.
</event>
<event>
 7    1  0.5789396E-006  0.5586675E+02  0.7818608E-02  0.1416838E+00
          2   -1    0    0  502    0  0.00000000000E+00  0.00000000000E+00  0.35459272921E+04  0.35459272921E+04  0.00000000000E+00 0. -1.
          1   -1    0    0  501    0 -0.00000000000E+00 -0.00000000000E+00 -0.10541815428E+03  0.10541815428E+03  0.00000000000E+00 0. -1.
         25    2    1    2    0    0  0.33666748216E+02  0.33914470818E+02  0.17379915921E+04  0.17431364105E+04  0.12500452071E+03 0.  0.
          2    1    1    2  501    0  0.25744540421E+02 -0.49581367787E+02 -0.94695000347E+02  0.10994651647E+03  0.00000000000E+00 0. -1.
          1    1    1    2  502    0 -0.59411288637E+02  0.15666896969E+02  0.17972125460E+04  0.17982625194E+04  0.00000000000E+00 0. -1.
         22    1    3    3    0    0  0.53633092849E+02 -0.23308293493E+02  0.12543265140E+04  0.12556889698E+04  0.00000000000E+00 0.  1.
         22    1    3    3    0    0 -0.19966344633E+02  0.57222764311E+02  0.48366507809E+03  0.48744744069E+03  0.00000000000E+00 0.  1.
</event>
<event>
 7    1  0.5789396E-006  0.1249401E+03  0.7818608E-02  0.1336438E+00
          2   -1    0    0  502    0  0.00000000000E+00  0.00000000000E+00  0.28596352375E+04  0.28596352375E+04  0.00000000000E+00 0. -1.
          1   -1    0    0  501    0 -0.00000000000E+00 -0.00000000000E+00 -0.46412757147E+03  0.46412757147E+03  0.00000000000E+00 0. -1.
         25    2    1    2    0    0 -0.32972563265E+02  0.91433042441E+02  0.71878568606E+01  0.15850547203E+03  0.12500051280E+03 0.  0.
          2    1    1    2  501    0  0.33766586028E+02  0.34136021732E+02 -0.38555923385E+03  0.38853747968E+03  0.00000000000E+00 0. -1.
          1    1    1    2  502    0 -0.79402276290E+00 -0.12556906417E+03  0.27738790430E+04  0.27767198572E+04  0.00000000000E+00 0. -1.
         22    1    3    3    0    0 -0.29182712041E+02  0.10128378203E+03 -0.38043072538E+02  0.11205940635E+03  0.00000000000E+00 0.  1.
         22    1    3    3    0    0 -0.37898512241E+01 -0.98507395889E+01  0.45230929398E+02  0.46446065678E+02  0.00000000000E+00 0.  1.
</event>
<event>
 7    1  0.5789396E-006  0.4506417E+02  0.7818608E-02  0.1566113E+00
          2   -1    0    0  502    0  0.00000000000E+00  0.00000000000E+00  0.61104928023E+03  0.61104928023E+03  0.00000000000E+00 0. -1.
          1   -1    0    0  501    0 -0.00000000000E+00 -0.00000000000E+00 -0.12214294433E+04  0.12214294433E+04  0.00000000000E+00 0. -1.
         25    2    1    2    0    0  0.27932481897E+02  0.40762787327E+02 -0.61989729592E+02  0.14802084830E+03  0.12500246630E+03 0.  0.
          2    1    1    2  501    0 -0.23962486502E+02  0.41428074117E+01 -0.11153969824E+04  0.11156620420E+04  0.00000000000E+00 0. -1.
          1    1    1    2  502    0 -0.39699953952E+01 -0.44905594738E+02  0.56700654895E+03  0.56879583319E+03  0.00000000000E+00 0. -1.
         22    1    3    3    0    0 -0.50379662174E+01 -0.94374292480E+01 -0.83532585853E+02  0.84214838797E+02  0.00000000000E+00 0.  1.
         22    1    3    3    0    0  0.32970448115E+02  0.50200216575E+02  0.21542856261E+02  0.63806009504E+02  0.00000000000E+00 0.  1.
</event>
<event>
 7    1  0.5789396E-006  0.8717327E+02  0.7818608E-02  0.1319433E+00
          2   -1    0    0  502    0  0.00000000000E+00  0.00000000000E+00  0.18270966171E+04  0.18270966171E+04  0.00000000000E+00 0. -1.
          1   -1    0    0  501    0 -0.00000000000E+00 -0.00000000000E+00 -0.28353171188E+03  0.28353171188E+03  0.00000000000E+00 0. -1.
         25    2    1    2    0    0 -0.14057231352E+03 -0.54776719896E+02  0.85238360124E+02  0.21366278583E+03  0.12500057456E+03 0.  0.
          2    1    1    2  501    0  0.54373114837E+02  0.58626432714E+02 -0.21088007927E+03  0.22553026862E+03  0.00000000000E+00 0. -1.
          1    1    1    2  502    0  0.86199198681E+02 -0.38497128180E+01  0.16692066243E+04  0.16714352745E+04  0.00000000000E+00 0. -1.
         22    1    3    3    0    0 -0.33867391145E+02 -0.13504641783E+02 -0.32969255836E+02  0.49156356283E+02  0.00000000000E+00 0.  1.
         22    1    3    3    0    0 -0.10670492237E+03 -0.41272078113E+02  0.11820761596E+03  0.16450642954E+03  0.00000000000E+00 0.  1.
</event>
<event>
 7    1  0.5789396E-006  0.9287013E+02  0.7818608E-02  0.1340994E+00
          2   -1    0    0  502    0  0.00000000000E+00  0.00000000000E+00  0.11341976520E+04  0.11341976520E+04  0.00000000000E+00 0. -1.
          1   -1    0    0  501    0 -0.00000000000E+00 -0.00000000000E+00 -0.14070775338E+03  0.14070775338E+03  0.00000000000E+00 0. -1.
         25    2    1    2    0    0 -0.10791405230E+03  0.72583867280E+02  0.59407228767E+02  0.18991207274E+03  0.12499406414E+03 0.  0.
          2    1    1    2  501    0  0.16739705326E+02 -0.59792171678E+02 -0.60184568796E+02  0.86472561252E+02  0.00000000000E+00 0. -1.
          1    1    1    2  502    0  0.91174346973E+02 -0.12791695602E+02  0.99426723865E+03  0.99852077138E+03  0.00000000000E+00 0. -1.
         22    1    3    3    0    0 -0.11473679587E+02  0.47814015391E+02 -0.28719048238E+02  0.56943912078E+02  0.00000000000E+00 0.  1.
         22    1    3    3    0    0 -0.96440372712E+02  0.24769851889E+02  0.88126277005E+02  0.13296816066E+03  0.00000000000E+00 0.  1.
</event>
<event>
 7    1  0.5789396E-006  0.4583688E+02  0.7818608E-02  0.1501494E+00
          2   -1    0    0  502    0  0.00000000000E+00  0.00000000000E+00  0.71084543185E+03  0.71084543185E+03  0.00000000000E+00 0. -1.
          1   -1    0    0  501    0 -0.00000000000E+00 -0.00000000000E+00 -0.20328696584E+03  0.20328696584E+03  0.00000000000E+00 0. -1.
         25    2    1    2    0    0 -0.93722494533E+01 -0.43484234069E+02  0.35518337140E+03  0.37915465700E+03  0.12499723570E+03 0.  0.
          2    1    1    2  501    0 -0.26666693205E+02  0.37427875767E+02 -0.18754775587E+03  0.19309613964E+03  0.00000000000E+00 0. -1.
          1    1    1    2  502    0  0.36038942659E+02  0.60563583023E+01  0.33992285048E+03  0.34188160106E+03  0.00000000000E+00 0. -1.
         22    1    3    3    0    0 -0.46618820265E+02  0.26295611034E+02  0.14870771061E+03  0.15804669170E+03  0.00000000000E+00 0.  1.
         22    1    3    3    0    0  0.37246570812E+02 -0.69779845103E+02  0.20647566079E+03  0.22110796530E+03  0.00000000000E+00 0.  1.
</event>
<event>
 7    1  0.5789396E-006  0.1166424E+03  0.7818608E-02  0.1327425E+00
          2   -1    0    0  502    0  0.00000000000E+00  0.00000000000E+00  0.74160875847E+03  0.74160875847E+03  0.00000000000E+00 0. -1.
          1   -1    0    0  501    0 -0.00000000000E+00 -0.00000000000E+00 -0.38476425689E+03  0.38476425689E+03  0.00000000000E+00 0. -1.
         25    2    1    2    0    0  0.78166720871E+02 -0.70040482088E+02 -0.27861152984E+02  0.16557944137E+03  0.12499840869E+03 0.  0.
          2    1    1    2  501    0 -0.42650133489E+02  0.11289823090E+03 -0.27417744560E+03  0.29956354268E+03  0.00000000000E+00 0. -1.
          1    1    1    2  502    0 -0.35516587383E+02 -0.42857748811E+02  0.65888310017E+03  0.66123003131E+03  0.00000000000E+00 0. -1.
         22    1    3    3    0    0  0.10978715423E+03 -0.33516084056E+02 -0.16711607045E+02  0.11599924540E+03  0.00000000000E+00 0.  1.
         22    1    3    3    0    0 -0.31620433358E+02 -0.36524398032E+02 -0.11149545939E+02  0.49580195965E+02  0.00000000000E+00 0.  1.
</event>
<event>
 7    1  0.5789396E-006  0.6408764E+02  0.7818608E-02  0.1502193E+00
          2   -1    0    0  502    0  0.00000000000E+00  0.00000000000E+00  0.32452509229E+04  0.32452509229E+04  0.00000000000E+00 0. -1.
          1   -1    0    0  501    0 -0.00000000000E+00 -0.00000000000E+00 -0.58525700845E+03  0.58525700845E+03  0.00000000000E+00 0. -1.
         25    2    1    2    0    0 -0.44955318756E+02 -0.57120627622E+02  0.13816407095E+03  0.19999414366E+03  0.12499840084E+03 0.  0.
          2    1    1    2  501    0 -0.98948290024E+01  0.24056783272E+02 -0.55370325327E+03  0.55431392653E+03  0.00000000000E+00 0. -1.
          1    1    1    2  502    0  0.54850147759E+02  0.33063844351E+02  0.30755330967E+04  0.30761998611E+04  0.00000000000E+00 0. -1.
         22    1    3    3    0    0 -0.88001268354E+02 -0.33273154801E+02  0.77581472152E+02  0.12194347413E+03  0.00000000000E+00 0.  1.
         22    1    3    3    0    0  0.43045949598E+02 -0.23847472822E+02  0.60582598796E+02  0.78050669527E+02  0.00000000000E+00 0.  1.
</event>
<event>
 7    1  0.5789396E-006  0.6861136E+02  0.7818608E-02  0.1445057E+00
          2   -1    0    0  502    0  0.00000000000E+00  0.00000000000E+00  0.67145980038E+03  0.67145980038E+03  0.00000000000E+00 0. -1.
          1   -1    0    0  501    0 -0.00000000000E+00 -0.00000000000E+00 -0.15673046774E+04  0.15673046774E+04  0.00000000000E+00 0. -1.
         25    2    1    2    0    0  0.22555303630E+02 -0.28388371910E+02 -0.16705730418E+03  0.21177328420E+03  0.12500055855E+03 0.  0.
          2    1    1    2  501    0 -0.26663233742E+02  0.64670775454E+02 -0.13764870217E+04  0.13782633124E+04  0.00000000000E+00 0. -1.
          1    1    1    2  502    0  0.41079301116E+01 -0.36282403544E+02  0.64769944884E+03  0.64872788126E+03  0.00000000000E+00 0. -1.
         22    1    3    3    0    0  0.97481778032E+00  0.31389338601E+02 -0.13864556355E+03  0.14215777552E+03  0.00000000000E+00 0.  1.
         22    1    3    3    0    0  0.21580485850E+02 -0.59777710511E+02 -0.28411740631E+02  0.69615508683E+02  0.00000000000E+00 0.  1.
</event>
<event>
 7    1  0.5789396E-006  0.7246380E+02  0.7818608E-02  0.1384612E+00
          2   -1    0    0  502    0  0.00000000000E+00  0.00000000000E+00  0.14394456810E+04  0.14394456810E+04  0.00000000000E+00 0. -1.
          1   -1    0    0  501    0 -0.00000000000E+00 -0.00000000000E+00 -0.15762002732E+03  0.15762002732E+03  0.00000000000E+00 0. -1.
         25    2    1    2    0    0 -0.71956301075E+02  0.89320492263E+02  0.22224719268E+03  0.27959783946E+03  0.12500111030E+03 0.  0.
          2    1    1    2  501    0  0.21031530301E+02 -0.67923351916E+02 -0.11844562368E+03  0.13814945809E+03  0.00000000000E+00 0. -1.
          1    1    1    2  502    0  0.50924770774E+02 -0.21397140347E+02  0.11780240847E+04  0.11793184108E+04  0.00000000000E+00 0. -1.
         22    1    3    3    0    0  0.12299262284E+02  0.56275710037E+02  0.15919337848E+03  0.16929488813E+03  0.00000000000E+00 0. -1.
         22    1    3    3    0    0 -0.84255563359E+02  0.33044782226E+02  0.63053814196E+02  0.11030295134E+03  0.00000000000E+00 0. -1.
</event>
<event>
 7    1  0.5789396E-006  0.8119510E+02  0.7818608E-02  0.1433563E+00
          2   -1    0    0  502    0  0.00000000000E+00  0.00000000000E+00  0.46898912357E+03  0.46898912357E+03  0.00000000000E+00 0. -1.
          1   -1    0    0  501    0 -0.00000000000E+00 -0.00000000000E+00 -0.73585730695E+03  0.73585730695E+03  0.00000000000E+00 0. -1.
         25    2    1    2    0    0  0.27335481748E+02  0.99454541727E+02 -0.62155824269E+03  0.64233834807E+03  0.12500187962E+03 0.  0.
          2    1    1    2  501    0 -0.28166229275E+02 -0.18366453130E+02 -0.97483886973E+02  0.10312017888E+03  0.00000000000E+00 0. -1.
          1    1    1    2  502    0  0.83074752662E+00 -0.81088088597E+02  0.45217394628E+03  0.45938790357E+03  0.00000000000E+00 0. -1.
         22    1    3    3    0    0  0.71531754087E+02  0.92554416558E+02 -0.42999733503E+03  0.44562407925E+03  0.00000000000E+00 0. -1.
         22    1    3    3    0    0 -0.44196272339E+02  0.69001251689E+01 -0.19156090765E+03  0.19671426882E+03  0.00000000000E+00 0. -1.
</event>
<event>
 7    1  0.5789396E-006  0.8406355E+02  0.7818608E-02  0.1387965E+00
          2   -1    0    0  502    0  0.00000000000E+00  0.00000000000E+00  0.10822926356E+04  0.10822926356E+04  0.00000000000E+00 0. -1.
          1   -1    0    0  501    0 -0.00000000000E+00 -0.00000000000E+00 -0.28801332993E+03  0.28801332993E+03  0.00000000000E+00 0. -1.
         25    2    1    2    0    0  0.62782418919E+02 -0.91385621244E+01 -0.32279593746E+01  0.14021679502E+03  0.12500073776E+03 0.  0.
          2    1    1    2  501    0 -0.81223609098E+02 -0.33376731535E+02 -0.20682148380E+03  0.22469180458E+03  0.00000000000E+00 0. -1.
          1    1    1    2  502    0  0.18441190179E+02  0.42515293660E+02  0.10043287489E+04  0.10053973660E+04  0.00000000000E+00 0. -1.
         22    1    3    3    0    0 -0.17562184491E+02 -0.45258191224E+02 -0.16197251027E+02  0.51176998132E+02  0.00000000000E+00 0. -1.
         22    1    3    3    0    0  0.80344603411E+02  0.36119629100E+02  0.12969291652E+02  0.89039796886E+02  0.00000000000E+00 0. -1.
</event>
<event>
 7    1  0.5789396E-006  0.6618685E+02  0.7818608E-02  0.1427426E+00
          2   -1    0    0  502    0  0.00000000000E+00  0.00000000000E+00  0.31592670041E+04  0.31592670041E+04  0.00000000000E+00 0. -1.
          1   -1    0    0  501    0 -0.00000000000E+00 -0.00000000000E+00 -0.33828862914E+02  0.33828862914E+02  0.00000000000E+00 0. -1.
         25    2    1    2    0    0 -0.39050240352E+02  0.23645359876E+02  0.29372352924E+03  0.32246547112E+03  0.12500577633E+03 0.  0.
          2    1    1    2  501    0  0.29758188457E+02 -0.65847303129E+02  0.48379203172E+02  0.86959556169E+02  0.00000000000E+00 0. -1.
          1    1    1    2  502    0  0.92920518957E+01  0.42201943253E+02  0.27833354087E+04  0.27836708397E+04  0.00000000000E+00 0. -1.
         22    1    3    3    0    0 -0.83224961876E+02  0.29956420120E+02  0.19387126408E+03  0.21309586674E+03  0.00000000000E+00 0. -1.
         22    1    3    3    0    0  0.44174721524E+02 -0.63110602444E+01  0.99852265161E+02  0.10936960437E+03  0.00000000000E+00 0. -1.
</event>
<event>
 7    1  0.5789396E-006  0.7926952E+02  0.7818608E-02  0.1369825E+00
          2   -1    0    0  502    0  0.00000000000E+00  0.00000000000E+00  0.16713875762E+03  0.16713875762E+03  0.00000000000E+00 0. -1.
          1   -1    0    0  501    0 -0.00000000000E+00 -0.00000000000E+00 -0.17233158001E+03  0.17233158001E+03  0.00000000000E+00 0. -1.
         25    2    1    2    0    0  0.39237126983E+02  0.18064693445E+01 -0.31651843333E+01  0.13105677266E+03  0.12499217497E+03 0.  0.
          2    1    1    2  501    0 -0.92366504555E+02  0.18826180697E+02 -0.71673572094E+02  0.11841915884E+03  0.00000000000E+00 0. -1.
          1    1    1    2  502    0  0.53129377572E+02 -0.20632650041E+02  0.69645934035E+02  0.89994406140E+02  0.00000000000E+00 0. -1.
         22    1    3    3    0    0  0.54214151315E+02 -0.49454315449E+02 -0.18144490278E+02  0.75591838493E+02  0.00000000000E+00 0.  1.
         22    1    3    3    0    0 -0.14977024333E+02  0.51260784793E+02  0.14979305944E+02  0.55464934166E+02  0.00000000000E+00 0.  1.
</event>
<event>
 7    1  0.5789396E-006  0.6677657E+02  0.7818608E-02  0.1437098E+00
          2   -1    0    0  502    0  0.00000000000E+00  0.00000000000E+00  0.91940928791E+02  0.91940928791E+02  0.00000000000E+00 0. -1.
          1   -1    0    0  501    0 -0.00000000000E+00 -0.00000000000E+00 -0.18633841148E+04  0.18633841148E+04  0.00000000000E+00 0. -1.
         25    2    1    2    0    0 -0.38886543616E+02  0.74240507733E+02 -0.88358421635E+03  0.89630879107E+03  0.12499826117E+03 0.  0.
          2    1    1    2  501    0  0.39085586760E+02 -0.75743715536E+01 -0.95997868491E+03  0.96080389762E+03  0.00000000000E+00 0. -1.
          1    1    1    2  502    0 -0.19904314481E+00 -0.66666136180E+02  0.72119715243E+02  0.98212354916E+02  0.00000000000E+00 0. -1.
         22    1    3    3    0    0 -0.35720529831E+02 -0.26754858224E+02 -0.38578338700E+03  0.38835628020E+03  0.00000000000E+00 0.  1.
         22    1    3    3    0    0 -0.31660137851E+01  0.10099536596E+03 -0.49780082936E+03  0.50795251087E+03  0.00000000000E+00 0.  1.
</event>
<event>
 7    1  0.5789396E-006  0.3682469E+03  0.7818608E-02  0.1131142E+00
          2   -1    0    0  502    0  0.00000000000E+00  0.00000000000E+00  0.48251194206E+03  0.48251194206E+03  0.00000000000E+00 0. -1.
          1   -1    0    0  501    0 -0.00000000000E+00 -0.00000000000E+00 -0.81003342218E+03  0.81003342218E+03  0.00000000000E+00 0. -1.
         25    2    1    2    0    0  0.56991412173E+02 -0.41204644289E+03 -0.26258829294E+01  0.43435372903E+03  0.12500389796E+03 0.  0.
          2    1    1    2  501    0  0.65863220200E+02  0.35391795465E+03 -0.51264040152E+03  0.62641524859E+03  0.00000000000E+00 0. -1.
          1    1    1    2  502    0 -0.12285463237E+03  0.58128488241E+02  0.18774480433E+03  0.23177638662E+03  0.00000000000E+00 0. -1.
         22    1    3    3    0    0  0.51661431388E+02 -0.27792903907E+03 -0.58985468721E+02  0.28877801123E+03  0.00000000000E+00 0. -1.
         22    1    3    3    0    0  0.53299807845E+01 -0.13411740382E+03  0.56359585791E+02  0.14557571780E+03  0.00000000000E+00 0. -1.
</event>
<event>
 7    1  0.5789396E-006  0.2143487E+03  0.7818608E-02  0.1312871E+00
          2   -1    0    0  502    0  0.00000000000E+00  0.00000000000E+00  0.30988507977E+03  0.30988507977E+03  0.00000000000E+00 0. -1.
          1   -1    0    0  501    0 -0.00000000000E+00 -0.00000000000E+00 -0.79010648581E+03  0.79010648581E+03  0.00000000000E+00 0. -1.
         25    2    1    2    0    0 -0.23032467834E+03 -0.15503959196E+02 -0.62732068405E+03  0.68003349125E+03  0.12499791349E+03 0.  0.
          2    1    1    2  501    0  0.17359795704E+02  0.29807534450E+02 -0.92708960407E+02  0.98918162926E+02  0.00000000000E+00 0. -1.
          1    1    1    2  502    0  0.21296488264E+03 -0.14303575254E+02  0.23980823842E+03  0.32103991141E+03  0.00000000000E+00 0. -1.
         22    1    3    3    0    0 -0.17349029274E+02 -0.97058374822E+01 -0.21503449144E+03  0.21595144039E+03  0.00000000000E+00 0. -1.
         22    1    3    3    0    0 -0.21297564907E+03 -0.57981217139E+01 -0.41228619262E+03  0.46408205086E+03  0.00000000000E+00 0. -1.
</event>
<event>
 7    1  0.5789396E-006  0.2951436E+02  0.7818608E-02  0.1607259E+00
          2   -1    0    0  502    0  0.00000000000E+00  0.00000000000E+00  0.80179321761E+03  0.80179321761E+03  0.00000000000E+00 0. -1.
          1   -1    0    0  501    0 -0.00000000000E+00 -0.00000000000E+00 -0.59021952974E+02  0.59021952974E+02  0.00000000000E+00 0. -1.
         25    2    1    2    0    0 -0.24559657449E+02 -0.27287058620E+02  0.51168495467E+03  0.52800915328E+03  0.12499765109E+03 0.  0.
          2    1    1    2  501    0  0.28762309723E+02 -0.23998512442E+01 -0.45889876589E+02  0.54211719397E+02  0.00000000000E+00 0. -1.
          1    1    1    2  502    0 -0.42026522734E+01  0.29686909864E+02  0.27697618656E+03  0.27859429790E+03  0.00000000000E+00 0. -1.
         22    1    3    3    0    0 -0.27914825590E+02 -0.75034892728E+02  0.26952768347E+03  0.28116657834E+03  0.00000000000E+00 0. -1.
         22    1    3    3    0    0  0.33551681411E+01  0.47747834108E+02  0.24215727119E+03  0.24684257495E+03  0.00000000000E+00 0. -1.
</event>
<event>
 7    1  0.5789396E-006  0.3732626E+02  0.7818608E-02  0.1546622E+00
          2   -1    0    0  502    0  0.00000000000E+00  0.00000000000E+00  0.12945942231E+04  0.12945942231E+04  0.00000000000E+00 0. -1.
          1   -1    0    0  501    0 -0.00000000000E+00 -0.00000000000E+00 -0.67559291078E+02  0.67559291078E+02  0.00000000000E+00 0. -1.
         25    2    1    2    0    0  0.50907960925E+01  0.30178688204E+02  0.72578581089E+02  0.14774170818E+03  0.12499316972E+03 0.  0.
          2    1    1    2  501    0 -0.32862709606E+02 -0.49928698681E+01 -0.20371627880E+02  0.38985762204E+02  0.00000000000E+00 0. -1.
          1    1    1    2  502    0  0.27771913513E+02 -0.25185818336E+02  0.11748279788E+04  0.11754260438E+04  0.00000000000E+00 0. -1.
         22    1    3    3    0    0 -0.10867431152E+02  0.64584193708E+02  0.85476566233E+02  0.10768222932E+03  0.00000000000E+00 0.  1.
         22    1    3    3    0    0  0.15958227244E+02 -0.34405505504E+02 -0.12897985144E+02  0.40059478860E+02  0.00000000000E+00 0.  1.
</event>
<event>
 7    1  0.5789396E-006  0.6303035E+02  0.7818608E-02  0.1443293E+00
          2   -1    0    0  502    0  0.00000000000E+00  0.00000000000E+00  0.31113637182E+03  0.31113637182E+03  0.00000000000E+00 0. -1.
          1   -1    0    0  501    0 -0.00000000000E+00 -0.00000000000E+00 -0.13853759868E+04  0.13853759868E+04  0.00000000000E+00 0. -1.
         25    2    1    2    0    0  0.17187966790E+02  0.97241485817E+02  0.47176781885E+02  0.16614021783E+03  0.12500236183E+03 0.  0.
          2    1    1    2  501    0 -0.16317351201E+02 -0.36817468506E+02 -0.13211159237E+04  0.13217295736E+04  0.00000000000E+00 0. -1.
          1    1    1    2  502    0 -0.87061558912E+00 -0.60424017311E+02  0.19969952681E+03  0.20864256720E+03  0.00000000000E+00 0. -1.
         22    1    3    3    0    0 -0.16509140145E+02  0.39004873995E+02  0.80571343507E+02  0.91025673841E+02  0.00000000000E+00 0.  1.
         22    1    3    3    0    0  0.33697106934E+02  0.58236611822E+02 -0.33394561622E+02  0.75114543986E+02  0.00000000000E+00 0.  1.
</event>
<event>
 7    1  0.5789396E-006  0.1124479E+03  0.7818608E-02  0.1353623E+00
          2   -1    0    0  502    0  0.00000000000E+00  0.00000000000E+00  0.79733536112E+03  0.79733536112E+03  0.00000000000E+00 0. -1.
          1   -1    0    0  501    0 -0.00000000000E+00 -0.00000000000E+00 -0.12620076072E+04  0.12620076072E+04  0.00000000000E+00 0. -1.
         25    2    1    2    0    0  0.56514129902E+02  0.13120283949E+03 -0.18010156058E+02  0.19066270377E+03  0.12497947400E+03 0.  0.
          2    1    1    2  501    0  0.12968831895E+02 -0.44157282087E+02 -0.11528475400E+04  0.11537657937E+04  0.00000000000E+00 0. -1.
          1    1    1    2  502    0 -0.69482961797E+02 -0.87045557404E+02  0.70618544993E+03  0.71491447093E+03  0.00000000000E+00 0. -1.
         22    1    3    3    0    0  0.75760041507E+01  0.11279160271E+03 -0.55879567150E+02  0.12610260706E+03  0.00000000000E+00 0.  1.
         22    1    3    3    0    0  0.48938125751E+02  0.18411236777E+02  0.37869411092E+02  0.64560096717E+02  0.00000000000E+00 0.  1.
</event>
<event>
 7    1  0.5789396E-006  0.1213021E+03  0.7818608E-02  0.1296093E+00
          2   -1    0    0  502    0  0.00000000000E+00  0.00000000000E+00  0.13093477283E+04  0.13093477283E+04  0.00000000000E+00 0. -1.
          1   -1    0    0  501    0 -0.00000000000E+00 -0.00000000000E+00 -0.12342361428E+04  0.12342361428E+04  0.00000000000E+00 0. -1.
         25    2    1    2    0    0 -0.98053394510E+02  0.45139316499E+02 -0.41073811358E+02  0.17019058626E+03  0.12500300637E+03 0.  0.
          2    1    1    2  501    0  0.36938099254E+02  0.60718270678E+02 -0.11244786723E+04  0.11267224219E+04  0.00000000000E+00 0. -1.
          1    1    1    2  502    0  0.61115295256E+02 -0.10585758718E+03  0.12406640692E+04  0.12466708630E+04  0.00000000000E+00 0. -1.
         22    1    3    3    0    0 -0.98504623694E+02  0.21500224899E+01  0.14861322054E+02  0.99642573125E+02  0.00000000000E+00 0. -1.
         22    1    3    3    0    0  0.45122918369E+00  0.42989294009E+02 -0.55935133412E+02  0.70548013133E+02  0.00000000000E+00 0. -1.
</event>
<event>
 7    1  0.5789396E-006  0.7106719E+02  0.7818608E-02  0.1473431E+00
          2   -1    0    0  502    0  0.00000000000E+00  0.00000000000E+00  0.95073845789E+03  0.95073845789E+03  0.00000000000E+00 0. -1.
          1   -1    0    0  501    0 -0.00000000000E+00 -0.00000000000E+00 -0.93310152762E+02  0.93310152762E+02  0.00000000000E+00 0. -1.
         25    2    1    2    0    0  0.23109967431E+02 -0.74133428451E+02  0.39235652119E+02  0.15230220541E+03  0.12500675809E+03 0.  0.
          2    1    1    2  501    0  0.21565154896E+02  0.18906574767E+02 -0.29464688529E+02  0.41117907841E+02  0.00000000000E+00 0. -1.
          1    1    1    2  502    0 -0.44675122327E+02  0.55226853684E+02  0.84765734154E+03  0.85062849740E+03  0.00000000000E+00 0. -1.
         22    1    3    3    0    0 -0.50373747298E+02 -0.14202776378E+02  0.14057901787E+02  0.54192784356E+02  0.00000000000E+00 0. -1.
         22    1    3    3    0    0  0.73483714729E+02 -0.59930652073E+02  0.25177750332E+02  0.98109421057E+02  0.00000000000E+00 0. -1.
</event>
<event>
 7    1  0.5789396E-006  0.6948086E+02  0.7818608E-02  0.1436772E+00
          2   -1    0    0  502    0  0.00000000000E+00  0.00000000000E+00  0.96786211190E+02  0.96786211190E+02  0.00000000000E+00 0. -1.
          1   -1    0    0  501    0 -0.00000000000E+00 -0.00000000000E+00 -0.75494688458E+03  0.75494688458E+03  0.00000000000E+00 0. -1.
         25    2    1    2    0    0 -0.37378230049E+02 -0.10063464951E+02 -0.17813599184E+03  0.22103296066E+03  0.12499893079E+03 0.  0.
          2    1    1    2  501    0 -0.34737377864E+02  0.16265755479E+02 -0.53713376010E+03  0.53850156589E+03  0.00000000000E+00 0. -1.
          1    1    1    2  502    0  0.72115607913E+02 -0.62022905277E+01  0.57109078559E+02  0.92198569220E+02  0.00000000000E+00 0. -1.
         22    1    3    3    0    0 -0.37021143547E+02 -0.22562337025E+02 -0.19515590797E+03  0.19991361269E+03  0.00000000000E+00 0.  1.
         22    1    3    3    0    0 -0.35708650220E+00  0.12498872074E+02  0.17019916126E+02  0.21119347973E+02  0.00000000000E+00 0.  1.
</event>
<event>
 7    1  0.5789396E-006  0.9991264E+02  0.7818608E-02  0.1367976E+00
          2   -1    0    0  502    0  0.00000000000E+00  0.00000000000E+00  0.17263117333E+04  0.17263117333E+04  0.00000000000E+00 0. -1.
          1   -1    0    0  501    0 -0.00000000000E+00 -0.00000000000E+00 -0.18294756399E+03  0.18294756399E+03  0.00000000000E+00 0. -1.
         25    2    1    2    0    0  0.82964154648E+01  0.11931280362E+03  0.10321645151E+03  0.20145233762E+03  0.12500013141E+03 0.  0.
          2    1    1    2  501    0  0.29883414098E+02 -0.93803174778E+02 -0.11533966174E+03  0.15164198497E+03  0.00000000000E+00 0. -1.
          1    1    1    2  502    0 -0.38179829563E+02 -0.25509628842E+02  0.15554873795E+04  0.15561649747E+04  0.00000000000E+00 0. -1.
         22    1    3    3    0    0  0.65127673551E+02  0.44903090383E+02  0.52827068338E+02  0.95124132255E+02  0.00000000000E+00 0.  1.
         22    1    3    3    0    0 -0.56831258086E+02  0.74409713237E+02  0.50389383177E+02  0.10632820537E+03  0.00000000000E+00 0.  1.
</event>
<event>
 7    1  0.5789396E-006  0.1340164E+03  0.7818608E-02  0.1391926E+00
          2   -1    0    0  502    0  0.00000000000E+00  0.00000000000E+00  0.33307746334E+02  0.33307746334E+02  0.00000000000E+00 0. -1.
          1   -1    0    0  501    0 -0.00000000000E+00 -0.00000000000E+00 -0.24630567214E+04  0.24630567214E+04  0.00000000000E+00 0. -1.
         25    2    1    2    0    0 -0.12819271526E+03  0.15124824176E+02 -0.10032255192E+04  0.10191901588E+04  0.12500001939E+03 0.  0.
          2    1    1    2  501    0  0.13629619398E+03  0.11842343065E+02 -0.14396293613E+04  0.14461153451E+04  0.00000000000E+00 0. -1.
          1    1    1    2  502    0 -0.81034787183E+01 -0.26967167240E+02  0.13105905410E+02  0.31058963810E+02  0.00000000000E+00 0. -1.
         22    1    3    3    0    0 -0.13735945611E+03  0.38542000706E+02 -0.67017946997E+03  0.68519605076E+03  0.00000000000E+00 0.  1.
         22    1    3    3    0    0  0.91667408457E+01 -0.23417176530E+02 -0.33304604923E+03  0.33399410804E+03  0.00000000000E+00 0.  1.
</event>
<event>
 7    1  0.5789396E-006  0.6099649E+02  0.7818608E-02  0.1448096E+00
          2   -1    0    0  502    0  0.00000000000E+00  0.00000000000E+00  0.30838520467E+03  0.30838520467E+03  0.00000000000E+00 0. -1.
          1   -1    0    0  501    0 -0.00000000000E+00 -0.00000000000E+00 -0.74023255724E+03  0.74023255724E+03  0.00000000000E+00 0. -1.
         25    2    1    2    0    0 -0.68787055857E+02 -0.10273693410E+01 -0.28807016183E+02  0.14555966684E+03  0.12500023155E+03 0.  0.
          2    1    1    2  501    0  0.50340336817E+02 -0.34644169646E+02 -0.64999408649E+03  0.65286038360E+03  0.00000000000E+00 0. -1.
          1    1    1    2  502    0  0.18446719040E+02  0.35671538987E+02  0.24695375010E+03  0.25019771147E+03  0.00000000000E+00 0. -1.
         22    1    3    3    0    0 -0.96821548554E+02 -0.12563394706E+02 -0.48895563877E+02  0.10919261567E+03  0.00000000000E+00 0.  1.
         22    1    3    3    0    0  0.28034492698E+02  0.11536025365E+02  0.20088547694E+02  0.36367051166E+02  0.00000000000E+00 0.  1.
</event>
<event>
 7    1  0.5789396E-006  0.8337648E+02  0.7818608E-02  0.1363722E+00
          2   -1    0    0  502    0  0.00000000000E+00  0.00000000000E+00  0.80075165741E+03  0.80075165741E+03  0.00000000000E+00 0. -1.
          1   -1    0    0  501    0 -0.00000000000E+00 -0.00000000000E+00 -0.71259250027E+03  0.71259250027E+03  0.00000000000E+00 0. -1.
         25    2    1    2    0    0 -0.88736035545E+02  0.45558108210E+02  0.23439130156E+03  0.28374994455E+03  0.12500049423E+03 0.  0.
          2    1    1    2  501    0  0.49665473865E+02  0.27989831027E+02 -0.68351841832E+03  0.68589176852E+03  0.00000000000E+00 0. -1.
          1    1    1    2  502    0  0.39070561679E+02 -0.73547939237E+02  0.53728627389E+03  0.54370244461E+03  0.00000000000E+00 0. -1.
         22    1    3    3    0    0 -0.48043895799E+02 -0.19201169490E+02  0.18642289587E+03  0.19346936951E+03  0.00000000000E+00 0.  1.
         22    1    3    3    0    0 -0.40692139746E+02  0.64759277700E+02  0.47968405691E+02  0.90280575041E+02  0.00000000000E+00 0.  1.
</event>
<event>
 7    1  0.5789396E-006  0.5442030E+02  0.7818608E-02  0.1515442E+00
          2   -1    0    0  502    0  0.00000000000E+00  0.00000000000E+00  0.65910526054E+03  0.65910526054E+03  0.00000000000E+00 0. -1.
          1   -1    0    0  501    0 -0.00000000000E+00 -0.00000000000E+00 -0.56412888179E+03  0.56412888179E+03  0.00000000000E+00 0. -1.
         25    2    1    2    0    0  0.49681340210E+02  0.61971172529E+02 -0.20112070229E+03  0.24976638430E+03  0.12500019218E+03 0.  0.
          2    1    1    2  501    0 -0.37115775524E+02 -0.36951305093E+02 -0.33634904795E+03  0.34040220593E+03  0.00000000000E+00 0. -1.
          1    1    1    2  502    0 -0.12565564685E+02 -0.25019867436E+02  0.63244612899E+03  0.63306555211E+03  0.00000000000E+00 0. -1.
         22    1    3    3    0    0 -0.41312549705E+02  0.73351301819E+01 -0.56058050067E+02  0.70021681465E+02  0.00000000000E+00 0. -1.
         22    1    3    3    0    0  0.90993889914E+02  0.54636042347E+02 -0.14506265223E+03  0.17974470283E+03  0.00000000000E+00 0. -1.
</event>
<event>
 7    1  0.5789396E-006  0.9082934E+02  0.7818608E-02  0.1483706E+00
          2   -1    0    0  502    0  0.00000000000E+00  0.00000000000E+00  0.26257310900E+03  0.26257310900E+03  0.00000000000E+00 0. -1.
          1   -1    0    0  501    0 -0.00000000000E+00 -0.00000000000E+00 -0.12824514007E+03  0.12824514007E+03  0.00000000000E+00 0. -1.
         25    2    1    2    0    0 -0.87290072330E+02  0.49091676421E+02 -0.76143307028E+01  0.16035025710E+03  0.12499870999E+03 0.  0.
          2    1    1    2  501    0  0.80998139796E+02 -0.29197263619E+02 -0.90523898350E+00  0.86104577758E+02  0.00000000000E+00 0. -1.
          1    1    1    2  502    0  0.62919325337E+01 -0.19894412802E+02  0.14284753861E+03  0.14436341421E+03  0.00000000000E+00 0. -1.
         22    1    3    3    0    0  0.14265837579E+02  0.91581009056E+01  0.38357757584E+02  0.41936887115E+02  0.00000000000E+00 0.  1.
         22    1    3    3    0    0 -0.10155590991E+03  0.39933575516E+02 -0.45972088287E+02  0.11841336999E+03  0.00000000000E+00 0.  1.
</event>
<event>
 7    1  0.5789396E-006  0.9000780E+02  0.7818608E-02  0.1311340E+00
          2   -1    0    0  502    0  0.00000000000E+00  0.00000000000E+00  0.17485297826E+03  0.17485297826E+03  0.00000000000E+00 0. -1.
          1   -1    0    0  501    0 -0.00000000000E+00 -0.00000000000E+00 -0.21237308147E+03  0.21237308147E+03  0.00000000000E+00 0. -1.
         25    2    1    2    0    0 -0.10530187792E+03 -0.25359347286E+02 -0.72143728859E+02  0.18045038905E+03  0.12500417316E+03 0.  0.
          2    1    1    2  501    0  0.75939082818E+02 -0.52584536221E+02 -0.34435899039E+02  0.98578440297E+02  0.00000000000E+00 0. -1.
          1    1    1    2  502    0  0.29362795098E+02  0.77943883507E+02  0.69059524686E+02  0.10819723038E+03  0.00000000000E+00 0. -1.
         22    1    3    3    0    0  0.14638151043E+02 -0.40592028822E+02 -0.91099176147E+01  0.44101914570E+02  0.00000000000E+00 0.  1.
         22    1    3    3    0    0 -0.11994002896E+03  0.15232681536E+02 -0.63033811245E+02  0.13634847448E+03  0.00000000000E+00 0.  1.
</event>
<event>
 7    1  0.5789396E-006  0.8588028E+02  0.7818608E-02  0.1450261E+00
          2   -1    0    0  502    0  0.00000000000E+00  0.00000000000E+00  0.11984902911E+04  0.11984902911E+04  0.00000000000E+00 0. -1.
          1   -1    0    0  501    0 -0.00000000000E+00 -0.00000000000E+00 -0.49295934421E+03  0.49295934421E+03  0.00000000000E+00 0. -1.
         25    2    1    2    0    0  0.30110095764E+02  0.10893961740E+03 -0.28215448190E+03  0.32864978786E+03  0.12500029318E+03 0.  0.
          2    1    1    2  501    0 -0.17738641425E+01 -0.28014795515E+02 -0.18493276276E+03  0.18705106817E+03  0.00000000000E+00 0. -1.
          1    1    1    2  502    0 -0.28336231622E+02 -0.80924821889E+02  0.11726181915E+04  0.11757487792E+04  0.00000000000E+00 0. -1.
         22    1    3    3    0    0 -0.34719261698E+02 -0.64738821228E+01 -0.73534012389E+02  0.81575665860E+02  0.00000000000E+00 0.  1.
         22    1    3    3    0    0  0.64829357462E+02  0.11541349953E+03 -0.20862046951E+03  0.24707412200E+03  0.00000000000E+00 0.  1.
</event>
<event>
 7    1  0.5789396E-006  0.3120054E+02  0.7818608E-02  0.1634770E+00
          2   -1    0    0  502    0  0.00000000000E+00  0.00000000000E+00  0.19301699221E+04  0.19301699221E+04  0.00000000000E+00 0. -1.
          1   -1    0    0  501    0 -0.00000000000E+00 -0.00000000000E+00 -0.49965338977E+02  0.49965338977E+02  0.00000000000E+00 0. -1.
         25    2    1    2    0    0 -0.98330918941E+01  0.10540809130E+02  0.12747165655E+03  0.17911395838E+03  0.12499995404E+03 0.  0.
          2    1    1    2  501    0  0.10432795415E+02  0.20765687083E+02 -0.18381569944E+02  0.29630037020E+02  0.00000000000E+00 0. -1.
          1    1    1    2  502    0 -0.59970352116E+00 -0.31306496213E+02  0.17711144965E+04  0.17713912656E+04  0.00000000000E+00 0. -1.
         22    1    3    3    0    0 -0.17450258445E+02 -0.40410810005E+02  0.11903114848E+03  0.12690925653E+03  0.00000000000E+00 0.  1.
         22    1    3    3    0    0  0.76171665511E+01  0.50951619135E+02  0.84405080734E+01  0.52204701850E+02  0.00000000000E+00 0.  1.
</event>
<event>
 7    1  0.5789396E-006  0.5564689E+02  0.7818608E-02  0.1502602E+00
          2   -1    0    0  502    0  0.00000000000E+00  0.00000000000E+00  0.26835049486E+03  0.26835049486E+03  0.00000000000E+00 0. -1.
          1   -1    0    0  501    0 -0.00000000000E+00 -0.00000000000E+00 -0.95292531944E+03  0.95292531944E+03  0.00000000000E+00 0. -1.
         25    2    1    2    0    0 -0.20869246070E+02 -0.25335054621E+02  0.90454755768E+02  0.15774159632E+03  0.12499183152E+03 0.  0.
          2    1    1    2  501    0 -0.33346498031E+01 -0.29687388379E+02 -0.91276478531E+03  0.91325353228E+03  0.00000000000E+00 0. -1.
          1    1    1    2  502    0  0.24203895873E+02  0.55022443000E+02  0.13773520496E+03  0.15028068570E+03  0.00000000000E+00 0. -1.
         22    1    3    3    0    0 -0.33062805302E+02  0.45568021940E+02  0.49450325176E+02  0.74932825770E+02  0.00000000000E+00 0.  1.
         22    1    3    3    0    0  0.12193559232E+02 -0.70903076561E+02  0.41004430592E+02  0.82808770554E+02  0.00000000000E+00 0.  1.
</event>
<event>
 7    1  0.1173669E-005  0.1171837E+03  0.7818608E-02  0.1377902E+00
          2   -1    0    0  502    0  0.00000000000E+00  0.00000000000E+00  0.29597691825E+04  0.29597691825E+04  0.00000000000E+00 0. -1.
          1   -1    0    0  501    0 -0.00000000000E+00 -0.00000000000E+00 -0.11581256805E+04  0.11581256805E+04  0.00000000000E+00 0. -1.
         25    2    1    2    0    0  0.36434436036E+02 -0.12401365005E+03 -0.24716051481E+03  0.30564688513E+03  0.12499937910E+03 0.  0.
          2    1    1    2  501    0 -0.35415909160E+02  0.68647016647E+01 -0.88018148780E+03  0.88092046304E+03  0.00000000000E+00 0. -1.
          1    1    1    2  502    0 -0.10185268755E+01  0.11714894839E+03  0.29289855046E+04  0.29313275149E+04  0.00000000000E+00 0. -1.
         22    1    3    3    0    0  0.64593617693E+02 -0.51593013278E+02 -0.19571180848E+03  0.21245537518E+03  0.00000000000E+00 0. -1.
         22    1    3    3    0    0 -0.28159181657E+02 -0.72420636774E+02 -0.51448706338E+02  0.93191509947E+02  0.00000000000E+00 0. -1.
</event>
<event>
 7    1  0.5789396E-006  0.1007638E+03  0.7818608E-02  0.1372678E+00
          2   -1    0    0  502    0  0.00000000000E+00  0.00000000000E+00  0.76381380032E+03  0.76381380032E+03  0.00000000000E+00 0. -1.
          1   -1    0    0  501    0 -0.00000000000E+00 -0.00000000000E+00 -0.34007014247E+03  0.34007014247E+03  0.00000000000E+00 0. -1.
         25    2    1    2    0    0  0.14845509597E+02 -0.84288305659E+02  0.75838238568E+02  0.16941541793E+03  0.12500095110E+03 0.  0.
          2    1    1    2  501    0  0.26416651880E+02  0.98959416745E+02 -0.28355740214E+03  0.30148898150E+03  0.00000000000E+00 0. -1.
          1    1    1    2  502    0 -0.41262161477E+02 -0.14671111086E+02  0.63146282143E+03  0.63297954336E+03  0.00000000000E+00 0. -1.
         22    1    3    3    0    0 -0.39588041949E+00 -0.76878233402E+01  0.89753829906E+02  0.90083346584E+02  0.00000000000E+00 0. -1.
         22    1    3    3    0    0  0.15241390016E+02 -0.76600482319E+02 -0.13915591338E+02  0.79332071342E+02  0.00000000000E+00 0. -1.
</event>
<event>
 7    1  0.5789396E-006  0.4724979E+02  0.7818608E-02  0.1571047E+00
          2   -1    0    0  502    0  0.00000000000E+00  0.00000000000E+00  0.51651808057E+03  0.51651808057E+03  0.00000000000E+00 0. -1.
          1   -1    0    0  501    0 -0.00000000000E+00 -0.00000000000E+00 -0.31600681637E+02  0.31600681637E+02  0.00000000000E+00 0. -1.
         25    2    1    2    0    0 -0.14196870804E+01  0.30802174520E+02  0.12482024043E+03  0.17932649597E+03  0.12500844080E+03 0.  0.
          2    1    1    2  501    0  0.16460872120E+02  0.15319914163E+02  0.48726011932E+02  0.53664553662E+02  0.00000000000E+00 0. -1.
          1    1    1    2  502    0 -0.15041185040E+02 -0.46122088683E+02  0.31137114657E+03  0.31512771257E+03  0.00000000000E+00 0. -1.
         22    1    3    3    0    0  0.13019991366E+02 -0.22882992524E+02 -0.13978314968E+02  0.29808468786E+02  0.00000000000E+00 0.  1.
         22    1    3    3    0    0 -0.14439678446E+02  0.53685167044E+02  0.13879855539E+03  0.14951802719E+03  0.00000000000E+00 0.  1.
</event>
<event>
 7    1  0.5789396E-006  0.3135887E+02  0.7818608E-02  0.1607285E+00
          2   -1    0    0  502    0  0.00000000000E+00  0.00000000000E+00  0.72714927657E+03  0.72714927657E+03  0.00000000000E+00 0. -1.
          1   -1    0    0  501    0 -0.00000000000E+00 -0.00000000000E+00 -0.30657229647E+03  0.30657229647E+03  0.00000000000E+00 0. -1.
         25    2    1    2    0    0 -0.39507059271E+01  0.27036916363E+01  0.68641429585E+00  0.12514731886E+03  0.12505383732E+03 0.  0.
          2    1    1    2  501    0 -0.13263820282E+02  0.23701388177E+02 -0.24321153930E+03  0.24472338993E+03  0.00000000000E+00 0. -1.
          1    1    1    2  502    0  0.17214526209E+02 -0.26405079813E+02  0.66310210511E+03  0.66385086424E+03  0.00000000000E+00 0. -1.
         22    1    3    3    0    0  0.14229551428E+02 -0.83723673813E+01  0.59946999970E+02  0.62178931117E+02  0.00000000000E+00 0. -1.
         22    1    3    3    0    0 -0.18180257355E+02  0.11076059018E+02 -0.59260585674E+02  0.62968387746E+02  0.00000000000E+00 0. -1.
</event>
<event>
 7    1  0.5789396E-006  0.7929670E+02  0.7818608E-02  0.1425974E+00
          2   -1    0    0  502    0  0.00000000000E+00  0.00000000000E+00  0.10313823187E+03  0.10313823187E+03  0.00000000000E+00 0. -1.
          1   -1    0    0  501    0 -0.00000000000E+00 -0.00000000000E+00 -0.22940408494E+03  0.22940408494E+03  0.00000000000E+00 0. -1.
         25    2    1    2    0    0  0.80696786186E+02 -0.28147564825E+02 -0.45410191838E+02  0.15808577048E+03  0.12499907439E+03 0.  0.
          2    1    1    2  501    0 -0.19150247314E+01  0.36419480713E+02 -0.87666172811E+02  0.94949479991E+02  0.00000000000E+00 0. -1.
          1    1    1    2  502    0 -0.78781761454E+02 -0.82719158876E+01  0.68105115769E+01  0.79507066341E+02  0.00000000000E+00 0. -1.
         22    1    3    3    0    0  0.88114334113E+02 -0.28515471739E+02 -0.80199765814E+02  0.12251232771E+03  0.00000000000E+00 0.  1.
         22    1    3    3    0    0 -0.74175479272E+01  0.36790691328E+00  0.34789573976E+02  0.35573442765E+02  0.00000000000E+00 0.  1.
</event>
<event>
 7    1  0.5789396E-006  0.1969450E+03  0.7818608E-02  0.1240468E+00
          2   -1    0    0  502    0  0.00000000000E+00  0.00000000000E+00  0.37901282350E+03  0.37901282350E+03  0.00000000000E+00 0. -1.
          1   -1    0    0  501    0 -0.00000000000E+00 -0.00000000000E+00 -0.93402569984E+03  0.93402569984E+03  0.00000000000E+00 0. -1.
         25    2    1    2    0    0 -0.12614938390E+03 -0.69709682591E+02 -0.16995202140E+03  0.25550851880E+03  0.12501122628E+03 0.  0.
          2    1    1    2  501    0  0.18008533907E+03  0.12195232683E+03 -0.70039082945E+03  0.73338285591E+03  0.00000000000E+00 0. -1.
          1    1    1    2  502    0 -0.53935955168E+02 -0.52242644239E+02  0.31532997452E+03  0.32414714863E+03  0.00000000000E+00 0. -1.
         22    1    3    3    0    0 -0.40849850168E+02 -0.68460532671E+02 -0.14690323749E+03  0.16714100627E+03  0.00000000000E+00 0.  1.
         22    1    3    3    0    0 -0.85299533731E+02 -0.12491499208E+01 -0.23048783907E+02  0.88367512525E+02  0.00000000000E+00 0.  1.
</event>
<event>
 7    1  0.5789396E-006  0.1314429E+03  0.7818608E-02  0.1437881E+00
          2   -1    0    0  502    0  0.00000000000E+00  0.00000000000E+00  0.24615049659E+03  0.24615049659E+03  0.00000000000E+00 0. -1.
          1   -1    0    0  501    0 -0.00000000000E+00 -0.00000000000E+00 -0.74695499809E+03  0.74695499809E+03  0.00000000000E+00 0. -1.
         25    2    1    2    0    0 -0.10660312456E+03 -0.10143351710E+03 -0.26145919895E+03  0.32502099721E+03  0.12499900540E+03 0.  0.
          2    1    1    2  501    0  0.91906574190E+02  0.87710322672E+02 -0.44432009502E+03  0.46212581179E+03  0.00000000000E+00 0. -1.
          1    1    1    2  502    0  0.14696550370E+02  0.13723194429E+02  0.20497479247E+03  0.20595868568E+03  0.00000000000E+00 0. -1.
         22    1    3    3    0    0 -0.12459367751E+03 -0.10288226300E+03 -0.26099803509E+03  0.30696631548E+03  0.00000000000E+00 0. -1.
         22    1    3    3    0    0  0.17990552952E+02  0.14487458981E+01 -0.46116386055E+00  0.18054681729E+02  0.00000000000E+00 0. -1.
</event>
<event>
 7    1  0.5789396E-006  0.1043340E+03  0.7818608E-02  0.1404092E+00
          2   -1    0    0  502    0  0.00000000000E+00  0.00000000000E+00  0.81131417399E+03  0.81131417399E+03  0.00000000000E+00 0. -1.
          1   -1    0    0  501    0 -0.00000000000E+00 -0.00000000000E+00 -0.71925618049E+02  0.71925618049E+02  0.00000000000E+00 0. -1.
         25    2    1    2    0    0  0.57111015818E+02  0.87290732100E+02  0.42814148242E+03  0.45805327471E+03  0.12500533374E+03 0.  0.
          2    1    1    2  501    0  0.25487706713E+02 -0.20705906615E+02 -0.43733887470E+02  0.54690133255E+02  0.00000000000E+00 0. -1.
          1    1    1    2  502    0 -0.82598722530E+02 -0.66584825485E+02  0.35498096099E+03  0.37049638407E+03  0.00000000000E+00 0. -1.
         22    1    3    3    0    0  0.19357876701E+02  0.11075280801E+03  0.35585546780E+03  0.37319435397E+03  0.00000000000E+00 0. -1.
         22    1    3    3    0    0  0.37753139117E+02 -0.23462075906E+02  0.72286014619E+02  0.84858920736E+02  0.00000000000E+00 0. -1.
</event>
<event>
 7    1  0.5789396E-006  0.6461562E+02  0.7818608E-02  0.1467517E+00
          2   -1    0    0  502    0  0.00000000000E+00  0.00000000000E+00  0.34508927579E+03  0.34508927579E+03  0.00000000000E+00 0. -1.
          1   -1    0    0  501    0 -0.00000000000E+00 -0.00000000000E+00 -0.47743949408E+03  0.47743949408E+03  0.00000000000E+00 0. -1.
         25    2    1    2    0    0  0.37021030715E+02 -0.24596489558E+02 -0.60738524119E+02  0.14590834368E+03  0.12499812971E+03 0.  0.
          2    1    1    2  501    0  0.28036472187E+02  0.17228664230E+02 -0.36983420079E+03  0.37129530932E+03  0.00000000000E+00 0. -1.
          1    1    1    2  502    0 -0.65057502902E+02  0.73678253274E+01  0.29822250662E+03  0.30532511687E+03  0.00000000000E+00 0. -1.
         22    1    3    3    0    0 -0.37858921727E+02  0.18967349236E+02 -0.36621019223E+02  0.55983545264E+02  0.00000000000E+00 0. -1.
         22    1    3    3    0    0  0.74879952442E+02 -0.43563838793E+02 -0.24117504895E+02  0.89924798418E+02  0.00000000000E+00 0. -1.
</event>
<event>
 7    1  0.5789396E-006  0.6289606E+02  0.7818608E-02  0.1444735E+00
          2   -1    0    0  502    0  0.00000000000E+00  0.00000000000E+00  0.83325038890E+03  0.83325038890E+03  0.00000000000E+00 0. -1.
          1   -1    0    0  501    0 -0.00000000000E+00 -0.00000000000E+00 -0.82704832547E+03  0.82704832547E+03  0.00000000000E+00 0. -1.
         25    2    1    2    0    0 -0.95717066511E+02  0.18873248807E+02  0.23240847579E+03  0.28135130263E+03  0.12500759789E+03 0.  0.
          2    1    1    2  501    0  0.34974726579E+02 -0.19260754207E+02 -0.80047750719E+03  0.80147267431E+03  0.00000000000E+00 0. -1.
          1    1    1    2  502    0  0.60742339932E+02  0.38750540043E+00  0.57427109482E+03  0.57747473743E+03  0.00000000000E+00 0. -1.
         22    1    3    3    0    0 -0.80468701266E+02 -0.82636557849E+01  0.23650418781E+03  0.24995545752E+03  0.00000000000E+00 0. -1.
         22    1    3    3    0    0 -0.15248365246E+02  0.27136904591E+02 -0.40957120196E+01  0.31395845114E+02  0.00000000000E+00 0. -1.
</event>
<event>
 7    1  0.5789396E-006  0.4917081E+02  0.7818608E-02  0.1511547E+00
          2   -1    0    0  502    0  0.00000000000E+00  0.00000000000E+00  0.75301718626E+03  0.75301718626E+03  0.00000000000E+00 0. -1.
          1   -1    0    0  501    0 -0.00000000000E+00 -0.00000000000E+00 -0.79530481521E+03  0.79530481521E+03  0.00000000000E+00 0. -1.
         25    2    1    2    0    0 -0.36856847172E+02  0.25774225162E+02 -0.21015925264E+03  0.24862509913E+03  0.12499916233E+03 0.  0.
          2    1    1    2  501    0  0.14038302875E+02 -0.47939963392E+02 -0.56446431657E+03  0.56667034395E+03  0.00000000000E+00 0. -1.
          1    1    1    2  502    0  0.22818544297E+02  0.22165738230E+02  0.73233594025E+03  0.73302655839E+03  0.00000000000E+00 0. -1.
         22    1    3    3    0    0  0.18877302520E+02  0.62962710163E+02 -0.99012762008E+02  0.11884520378E+03  0.00000000000E+00 0. -1.
         22    1    3    3    0    0 -0.55734149691E+02 -0.37188485001E+02 -0.11114649063E+03  0.12977989535E+03  0.00000000000E+00 0. -1.
</event>
<event>
 7    1  0.5789396E-006  0.3099416E+02  0.7818608E-02  0.1589968E+00
          2   -1    0    0  502    0  0.00000000000E+00  0.00000000000E+00  0.47183968032E+03  0.47183968032E+03  0.00000000000E+00 0. -1.
          1   -1    0    0  501    0 -0.00000000000E+00 -0.00000000000E+00 -0.58405029153E+03  0.58405029153E+03  0.00000000000E+00 0. -1.
         25    2    1    2    0    0 -0.46849217543E+01  0.26993704800E+01 -0.19244403348E+01  0.12512715463E+03  0.12499546497E+03 0.  0.
          2    1    1    2  501    0 -0.93205446593E+01 -0.29797266674E+02 -0.51948815957E+03  0.52042549668E+03  0.00000000000E+00 0. -1.
          1    1    1    2  502    0  0.14005466414E+02  0.27097896194E+02  0.40920198870E+03  0.41033732054E+03  0.00000000000E+00 0. -1.
         22    1    3    3    0    0  0.26053513066E+02 -0.14523190229E+02  0.52447954931E+02  0.60336527692E+02  0.00000000000E+00 0.  1.
         22    1    3    3    0    0 -0.30738434820E+02  0.17222560709E+02 -0.54372395266E+02  0.64790626942E+02  0.00000000000E+00 0.  1.
</event>
<event>
 7    1  0.5789396E-006  0.8011520E+02  0.7818608E-02  0.1385776E+00
          2   -1    0    0  502    0  0.00000000000E+00  0.00000000000E+00  0.53982274350E+03  0.53982274350E+03  0.00000000000E+00 0. -1.
          1   -1    0    0  501    0 -0.00000000000E+00 -0.00000000000E+00 -0.51289222802E+03  0.51289222802E+03  0.00000000000E+00 0. -1.
         25    2    1    2    0    0 -0.28690681317E+02  0.11711438843E+03 -0.15857437522E+03  0.23517288643E+03  0.12498607468E+03 0.  0.
          2    1    1    2  501    0  0.17735338467E+01 -0.75580548930E+02 -0.31024712764E+03  0.31932560969E+03  0.00000000000E+00 0. -1.
          1    1    1    2  502    0  0.26917147470E+02 -0.41533839499E+02  0.49575201835E+03  0.49821647539E+03  0.00000000000E+00 0. -1.
         22    1    3    3    0    0  0.33179499953E+02 -0.64190395579E+01 -0.45273384496E+02  0.56495686824E+02  0.00000000000E+00 0.  1.
         22    1    3    3    0    0 -0.61870181270E+02  0.12353342799E+03 -0.11330099073E+03  0.17867719961E+03  0.00000000000E+00 0.  1.
</event>
<event>
 7    1  0.5789396E-006  0.5319464E+02  0.7818608E-02  0.1535908E+00
          2   -1    0    0  502    0  0.00000000000E+00  0.00000000000E+00  0.57291691311E+02  0.57291691311E+02  0.00000000000E+00 0. -1.
          1   -1    0    0  501    0 -0.00000000000E+00 -0.00000000000E+00 -0.69643976566E+03  0.69643976566E+03  0.00000000000E+00 0. -1.
         25    2    1    2    0    0  0.54624364731E+02 -0.13307937523E+02 -0.56646155353E+03  0.58280653986E+03  0.12499539532E+03 0.  0.
          2    1    1    2  501    0 -0.52123022850E+02 -0.11572520558E+02 -0.11214716109E+03  0.12420836720E+03  0.00000000000E+00 0. -1.
          1    1    1    2  502    0 -0.25013418812E+01  0.24880458082E+02  0.39460640266E+02  0.46716549912E+02  0.00000000000E+00 0. -1.
         22    1    3    3    0    0  0.50546304594E+02 -0.92420122927E+01 -0.57230221955E+03  0.57460436319E+03  0.00000000000E+00 0. -1.
         22    1    3    3    0    0  0.40780601372E+01 -0.40659252304E+01  0.58406660208E+01  0.82021766640E+01  0.00000000000E+00 0. -1.
</event>
<event>
 7    1  0.5789396E-006  0.5893609E+02  0.7818608E-02  0.1469558E+00
          2   -1    0    0  502    0  0.00000000000E+00  0.00000000000E+00  0.13789505796E+04  0.13789505796E+04  0.00000000000E+00 0. -1.
          1   -1    0    0  501    0 -0.00000000000E+00 -0.00000000000E+00 -0.65692933700E+03  0.65692933700E+03  0.00000000000E+00 0. -1.
         25    2    1    2    0    0 -0.36399583560E+02 -0.10028267752E+02  0.10016270419E+03  0.16457526959E+03  0.12500782460E+03 0.  0.
          2    1    1    2  501    0  0.55848274116E+02 -0.19734134451E+02 -0.62306468561E+03  0.62587384370E+03  0.00000000000E+00 0. -1.
          1    1    1    2  502    0 -0.19448690557E+02  0.29762402203E+02  0.12449232240E+04  0.12454308033E+04  0.00000000000E+00 0. -1.
         22    1    3    3    0    0 -0.33261671585E+02  0.50714344268E+02  0.80219299101E+02  0.10056549835E+03  0.00000000000E+00 0. -1.
         22    1    3    3    0    0 -0.31379119747E+01 -0.60742612020E+02  0.19943405087E+02  0.64009771231E+02  0.00000000000E+00 0. -1.
</event>
<event>
 7    1  0.5789396E-006  0.6181513E+02  0.7818608E-02  0.1454674E+00
          2   -1    0    0  502    0  0.00000000000E+00  0.00000000000E+00  0.16329747496E+04  0.16329747496E+04  0.00000000000E+00 0. -1.
          1   -1    0    0  501    0 -0.00000000000E+00 -0.00000000000E+00 -0.15983540258E+03  0.15983540258E+03  0.00000000000E+00 0. -1.
         25    2    1    2    0    0  0.57315969118E+02  0.16343323151E+02  0.18079823888E+03  0.22773894705E+03  0.12499920117E+03 0.  0.
          2    1    1    2  501    0  0.10885881500E+01 -0.37740188232E+02 -0.13306033934E+03  0.13831327029E+03  0.00000000000E+00 0. -1.
          1    1    1    2  502    0 -0.58404557268E+02  0.21396865081E+02  0.14254014474E+04  0.14267579348E+04  0.00000000000E+00 0. -1.
         22    1    3    3    0    0  0.46287862378E+02  0.59806369630E+02  0.16263690886E+03  0.17936034170E+03  0.00000000000E+00 0. -1.
         22    1    3    3    0    0  0.11028106740E+02 -0.43463046479E+02  0.18161330027E+02  0.48378605352E+02  0.00000000000E+00 0. -1.
</event>
<event>
 7    1  0.5789396E-006  0.1411230E+03  0.7818608E-02  0.1419566E+00
          2   -1    0    0  502    0  0.00000000000E+00  0.00000000000E+00  0.92152778399E+03  0.92152778399E+03  0.00000000000E+00 0. -1.
          1   -1    0    0  501    0 -0.00000000000E+00 -0.00000000000E+00 -0.11026477046E+03  0.11026477046E+03  0.00000000000E+00 0. -1.
         25    2    1    2    0    0  0.11785489683E+03  0.87163652825E+02  0.30219099965E+03  0.35837394502E+03  0.12500082049E+03 0.  0.
          2    1    1    2  501    0 -0.12364322644E+03 -0.66433394940E+02 -0.21858308306E+02  0.14205220537E+03  0.00000000000E+00 0. -1.
          1    1    1    2  502    0  0.57883296133E+01 -0.20730257885E+02  0.53093032218E+03  0.53136640406E+03  0.00000000000E+00 0. -1.
         22    1    3    3    0    0  0.99697165973E+01  0.25430825694E+02 -0.42865422370E+01  0.27649531440E+02  0.00000000000E+00 0. -1.
         22    1    3    3    0    0  0.10788518023E+03  0.61732827131E+02  0.30647754189E+03  0.33072441358E+03  0.00000000000E+00 0. -1.
</event>
<event>
 7    1  0.5789396E-006  0.8069330E+02  0.7818608E-02  0.1458674E+00
          2   -1    0    0  502    0  0.00000000000E+00  0.00000000000E+00  0.14979957817E+04  0.14979957817E+04  0.00000000000E+00 0. -1.
          1   -1    0    0  501    0 -0.00000000000E+00 -0.00000000000E+00 -0.15700681521E+04  0.15700681521E+04  0.00000000000E+00 0. -1.
         25    2    1    2    0    0 -0.75963680636E+01 -0.62246498069E+02  0.29711506258E+02  0.14296713867E+03  0.12499799121E+03 0.  0.
          2    1    1    2  501    0  0.33183153984E+02  0.73840362340E+02 -0.15122178276E+04  0.15143831348E+04  0.00000000000E+00 0. -1.
          1    1    1    2  502    0 -0.25586785921E+02 -0.11593864272E+02  0.14104339510E+04  0.14107136603E+04  0.00000000000E+00 0. -1.
         22    1    3    3    0    0 -0.43075874951E+01  0.16112663773E+02 -0.36626804571E+02  0.40245447655E+02  0.00000000000E+00 0. -1.
         22    1    3    3    0    0 -0.32887805685E+01 -0.78359161841E+02  0.66338310829E+02  0.10272169102E+03  0.00000000000E+00 0. -1.
</event>
<event>
 7    1  0.5789396E-006  0.1150779E+03  0.7818608E-02  0.1348871E+00
          2   -1    0    0  502    0  0.00000000000E+00  0.00000000000E+00  0.42070684184E+03  0.42070684184E+03  0.00000000000E+00 0. -1.
          1   -1    0    0  501    0 -0.00000000000E+00 -0.00000000000E+00 -0.30076464241E+04  0.30076464241E+04  0.00000000000E+00 0. -1.
         25    2    1    2    0    0  0.91350235632E+02 -0.11231232184E+03  0.21082444692E+02  0.19242240421E+03  0.12499195566E+03 0.  0.
          2    1    1    2  501    0 -0.45774428458E+02  0.98758879824E+01 -0.29117724626E+04  0.29121489841E+04  0.00000000000E+00 0. -1.
          1    1    1    2  502    0 -0.45575807173E+02  0.10243643386E+03  0.30375043562E+03  0.32378187769E+03  0.00000000000E+00 0. -1.
         22    1    3    3    0    0  0.59293200233E+02  0.10173875431E+02 -0.12474059263E+02  0.61439348056E+02  0.00000000000E+00 0.  1.
         22    1    3    3    0    0  0.32057035399E+02 -0.12248619727E+03  0.33556503955E+02  0.13098305615E+03  0.00000000000E+00 0.  1.
</event>
<event>
 7    1  0.5789396E-006  0.1136102E+03  0.7818608E-02  0.1263617E+00
          2   -1    0    0  502    0  0.00000000000E+00  0.00000000000E+00  0.25009916799E+03  0.25009916799E+03  0.00000000000E+00 0. -1.
          1   -1    0    0  501    0 -0.00000000000E+00 -0.00000000000E+00 -0.18983874545E+04  0.18983874545E+04  0.00000000000E+00 0. -1.
         25    2    1    2    0    0 -0.18698399422E+03 -0.64408303728E+02 -0.30146782374E+03  0.38160012073E+03  0.12499743880E+03 0.  0.
          2    1    1    2  501    0  0.76547456870E+02  0.69473363391E+02 -0.15404526337E+04  0.15439172186E+04  0.00000000000E+00 0. -1.
          1    1    1    2  502    0  0.11043653735E+03 -0.50650596629E+01  0.19363217090E+03  0.22296928313E+03  0.00000000000E+00 0. -1.
         22    1    3    3    0    0 -0.17719791566E+03 -0.58911375782E+02 -0.31365420127E+03  0.36503234033E+03  0.00000000000E+00 0. -1.
         22    1    3    3    0    0 -0.97860785582E+01 -0.54969279464E+01  0.12186377525E+02  0.16567780406E+02  0.00000000000E+00 0. -1.
</event>
<event>
 7    1  0.5789396E-006  0.5954971E+02  0.7818608E-02  0.1489840E+00
          2   -1    0    0  502    0  0.00000000000E+00  0.00000000000E+00  0.18710743695E+04  0.18710743695E+04  0.00000000000E+00 0. -1.
          1   -1    0    0  501    0 -0.00000000000E+00 -0.00000000000E+00 -0.10998281130E+03  0.10998281130E+03  0.00000000000E+00 0. -1.
         25    2    1    2    0    0 -0.24601811106E+02  0.47441946008E+02  0.26114677099E+02  0.13842666342E+03  0.12499590967E+03 0.  0.
          2    1    1    2  501    0  0.27970695969E+02  0.12132664624E+02 -0.48970241054E+02  0.57685751211E+02  0.00000000000E+00 0. -1.
          1    1    1    2  502    0 -0.33688848630E+01 -0.59574610632E+02  0.17839471221E+04  0.17849447661E+04  0.00000000000E+00 0. -1.
         22    1    3    3    0    0 -0.36129323973E+02 -0.36407062535E+02  0.10745820005E+02  0.52404912945E+02  0.00000000000E+00 0. -1.
         22    1    3    3    0    0  0.11527512867E+02  0.83849008543E+02  0.15368857095E+02  0.86021750476E+02  0.00000000000E+00 0. -1.
</event>
<event>
 7    1  0.5789396E-006  0.5696604E+02  0.7818608E-02  0.1536995E+00
          2   -1    0    0  502    0  0.00000000000E+00  0.00000000000E+00  0.26618305210E+03  0.26618305210E+03  0.00000000000E+00 0. -1.
          1   -1    0    0  501    0 -0.00000000000E+00 -0.00000000000E+00 -0.87261658966E+03  0.87261658966E+03  0.00000000000E+00 0. -1.
         25    2    1    2    0    0  0.83929951182E+01  0.60833991813E+02 -0.38475849001E+03  0.40918885756E+03  0.12500083436E+03 0.  0.
          2    1    1    2  501    0 -0.28481246866E+02 -0.49258195120E+02 -0.47340662473E+03  0.47681378288E+03  0.00000000000E+00 0. -1.
          1    1    1    2  502    0  0.20088251747E+02 -0.11575796693E+02  0.25173157717E+03  0.25279700131E+03  0.00000000000E+00 0. -1.
         22    1    3    3    0    0 -0.45833304178E+02  0.39706077024E+02 -0.30192893204E+03  0.30795834836E+03  0.00000000000E+00 0. -1.
         22    1    3    3    0    0  0.54226299296E+02  0.21127914789E+02 -0.82829557969E+02  0.10123050920E+03  0.00000000000E+00 0. -1.
</event>
<event>
 7    1  0.5789396E-006  0.5689207E+02  0.7818608E-02  0.1482754E+00
          2   -1    0    0  502    0  0.00000000000E+00  0.00000000000E+00  0.61629517568E+03  0.61629517568E+03  0.00000000000E+00 0. -1.
          1   -1    0    0  501    0 -0.00000000000E+00 -0.00000000000E+00 -0.19873892362E+03  0.19873892362E+03  0.00000000000E+00 0. -1.
         25    2    1    2    0    0 -0.48244886234E+02  0.48303038048E+02 -0.16402835050E+02  0.14336898340E+03  0.12499943949E+03 0.  0.
          2    1    1    2  501    0 -0.64704833922E+01 -0.32906141908E+02 -0.11499029288E+03  0.11978083648E+03  0.00000000000E+00 0. -1.
          1    1    1    2  502    0  0.54715369626E+02 -0.15396896140E+02  0.54894937999E+03  0.55188427942E+03  0.00000000000E+00 0. -1.
         22    1    3    3    0    0  0.36154830019E+01  0.56588392502E+02 -0.54374631705E+02  0.78561558389E+02  0.00000000000E+00 0.  1.
         22    1    3    3    0    0 -0.51860369236E+02 -0.82853544549E+01  0.37971796655E+02  0.64807425014E+02  0.00000000000E+00 0.  1.
</event>
<event>
 7    1  0.5789396E-006  0.9908619E+02  0.7818608E-02  0.1324500E+00
          2   -1    0    0  502    0  0.00000000000E+00  0.00000000000E+00  0.13009926677E+04  0.13009926677E+04  0.00000000000E+00 0. -1.
          1   -1    0    0  501    0 -0.00000000000E+00 -0.00000000000E+00 -0.20333469265E+03  0.20333469265E+03  0.00000000000E+00 0. -1.
         25    2    1    2    0    0  0.16992526542E+02 -0.51796401734E+02  0.72085835041E+02  0.15424828514E+03  0.12499821064E+03 0.  0.
          2    1    1    2  501    0 -0.50237176295E+02 -0.44695887027E+02 -0.15298540673E+03  0.16711083409E+03  0.00000000000E+00 0. -1.
          1    1    1    2  502    0  0.33244649753E+02  0.96492288760E+02  0.11785575468E+04  0.11829682412E+04  0.00000000000E+00 0. -1.
         22    1    3    3    0    0  0.97957795683E+01  0.28798098324E+02  0.66516259158E+02  0.73141646802E+02  0.00000000000E+00 0. -1.
         22    1    3    3    0    0  0.71967469737E+01 -0.80594500057E+02  0.55695758824E+01  0.81106638335E+02  0.00000000000E+00 0. -1.
</event>
<event>
 7    1  0.5789396E-006  0.1883246E+03  0.7818608E-02  0.1368802E+00
          2   -1    0    0  502    0  0.00000000000E+00  0.00000000000E+00  0.25990435224E+04  0.25990435224E+04  0.00000000000E+00 0. -1.
          1   -1    0    0  501    0 -0.00000000000E+00 -0.00000000000E+00 -0.41716977046E+02  0.41716977046E+02  0.00000000000E+00 0. -1.
         25    2    1    2    0    0  0.18135900148E+02  0.18499446609E+03  0.64663575152E+03  0.68433418940E+03  0.12499449699E+03 0.  0.
          2    1    1    2  501    0  0.54770901766E+01 -0.19026714439E+03  0.37498395126E+03  0.42052889135E+03  0.00000000000E+00 0. -1.
          1    1    1    2  502    0 -0.23612990324E+02  0.52726783061E+01  0.15357068426E+04  0.15358974188E+04  0.00000000000E+00 0. -1.
         22    1    3    3    0    0  0.33637796388E+02  0.11030643163E+03  0.19698223590E+03  0.22825645985E+03  0.00000000000E+00 0.  1.
         22    1    3    3    0    0 -0.15501896241E+02  0.74688034463E+02  0.44965351562E+03  0.45607772955E+03  0.00000000000E+00 0.  1.
</event>
<event>
 7    1  0.5789396E-006  0.1415813E+03  0.7818608E-02  0.1216158E+00
          2   -1    0    0  502    0  0.00000000000E+00  0.00000000000E+00  0.15124681511E+04  0.15124681511E+04  0.00000000000E+00 0. -1.
          1   -1    0    0  501    0 -0.00000000000E+00 -0.00000000000E+00 -0.19481788521E+03  0.19481788521E+03  0.00000000000E+00 0. -1.
         25    2    1    2    0    0  0.10231359104E+03  0.71852068478E+02  0.45612326410E+03  0.48918697343E+03  0.12499868904E+03 0.  0.
          2    1    1    2  501    0  0.96549131170E+01 -0.14610096189E+03 -0.14297796453E+03  0.20464947289E+03  0.00000000000E+00 0. -1.
          1    1    1    2  502    0 -0.11196850415E+03  0.74248893411E+02  0.10045049663E+04  0.10134495900E+04  0.00000000000E+00 0. -1.
         22    1    3    3    0    0  0.52353346859E+02  0.31348270183E+02  0.39751889546E+03  0.40217515987E+03  0.00000000000E+00 0.  1.
         22    1    3    3    0    0  0.49960244177E+02  0.40503798295E+02  0.58604368643E+02  0.87011813558E+02  0.00000000000E+00 0.  1.
</event>
<event>
 7    1  0.5789396E-006  0.1103647E+03  0.7818608E-02  0.1278042E+00
          2   -1    0    0  502    0  0.00000000000E+00  0.00000000000E+00  0.10703283840E+04  0.10703283840E+04  0.00000000000E+00 0. -1.
          1   -1    0    0  501    0 -0.00000000000E+00 -0.00000000000E+00 -0.45737676718E+03  0.45737676718E+03  0.00000000000E+00 0. -1.
         25    2    1    2    0    0  0.16870339277E+02  0.57372895559E+02  0.34793680628E+03  0.37451365405E+03  0.12499679362E+03 0.  0.
          2    1    1    2  501    0 -0.10650433152E+03 -0.34223092740E+02 -0.43394258829E+03  0.44813007334E+03  0.00000000000E+00 0. -1.
          1    1    1    2  502    0  0.89633992239E+02 -0.23149802819E+02  0.69895739885E+03  0.70506142381E+03  0.00000000000E+00 0. -1.
         22    1    3    3    0    0  0.11936651545E+02 -0.15213780588E+02  0.29435885296E+00  0.19339840150E+02  0.00000000000E+00 0.  1.
         22    1    3    3    0    0  0.49336877318E+01  0.72586676148E+02  0.34764244743E+03  0.35517381390E+03  0.00000000000E+00 0.  1.
</event>
<event>
 7    1  0.5789396E-006  0.1497528E+03  0.7818608E-02  0.1261295E+00
          2   -1    0    0  502    0  0.00000000000E+00  0.00000000000E+00  0.15170356637E+04  0.15170356637E+04  0.00000000000E+00 0. -1.
          1   -1    0    0  501    0 -0.00000000000E+00 -0.00000000000E+00 -0.76821605043E+02  0.76821605043E+02  0.00000000000E+00 0. -1.
         25    2    1    2    0    0 -0.11428886696E+03 -0.14159211952E+03  0.52590294339E+03  0.57035871091E+03  0.12499951931E+03 0.  0.
          2    1    1    2  501    0  0.80224478995E+02  0.65077543087E+00 -0.16125225249E+02  0.81831616311E+02  0.00000000000E+00 0. -1.
          1    1    1    2  502    0  0.34064387963E+02  0.14094134409E+03  0.93043634052E+03  0.94166694152E+03  0.00000000000E+00 0. -1.
         22    1    3    3    0    0 -0.11582623226E+03 -0.15175947372E+03  0.52651482069E+03  0.56005759556E+03  0.00000000000E+00 0.  1.
         22    1    3    3    0    0  0.15373652979E+01  0.10167354203E+02 -0.61187730216E+00  0.10301115346E+02  0.00000000000E+00 0.  1.
</event>
<event>
 7    1  0.5789396E-006  0.7353311E+02  0.7818608E-02  0.1371008E+00
          2   -1    0    0  502    0  0.00000000000E+00  0.00000000000E+00  0.18661512213E+04  0.18661512213E+04  0.00000000000E+00 0. -1.
          1   -1    0    0  501    0 -0.00000000000E+00 -0.00000000000E+00 -0.22089015147E+03  0.22089015147E+03  0.00000000000E+00 0. -1.
         25    2    1    2    0    0  0.32182952318E+02  0.11549543191E+02  0.11296050655E+03  0.17191292187E+03  0.12499936919E+03 0.  0.
          2    1    1    2  501    0 -0.25266477235E+02 -0.71998088762E+02 -0.18324907609E+03  0.19850023563E+03  0.00000000000E+00 0. -1.
          1    1    1    2  502    0 -0.69164750832E+01  0.60448545571E+02  0.17155496394E+04  0.17166282153E+04  0.00000000000E+00 0. -1.
         22    1    3    3    0    0  0.29619543065E+02  0.59831305643E+02  0.10269051341E+03  0.12248446437E+03  0.00000000000E+00 0.  1.
         22    1    3    3    0    0  0.25634092536E+01 -0.48281762452E+02  0.10269993141E+02  0.49428457508E+02  0.00000000000E+00 0.  1.
</event>
<event>
 7    1  0.5789396E-006  0.4389267E+02  0.7818608E-02  0.1481748E+00
          2   -1    0    0  502    0  0.00000000000E+00  0.00000000000E+00  0.18598655872E+04  0.18598655872E+04  0.00000000000E+00 0. -1.
          1   -1    0    0  501    0 -0.00000000000E+00 -0.00000000000E+00 -0.11766921411E+03  0.11766921411E+03  0.00000000000E+00 0. -1.
         25    2    1    2    0    0  0.72691997229E+01  0.21402957706E+02  0.69352520573E+02  0.14472343529E+03  0.12499669095E+03 0.  0.
          2    1    1    2  501    0  0.36029301723E+02 -0.28600640454E+02 -0.73070866547E+02  0.86344998436E+02  0.00000000000E+00 0. -1.
          1    1    1    2  502    0 -0.43298501446E+02  0.71976827483E+01  0.17459147191E+04  0.17464663676E+04  0.00000000000E+00 0. -1.
         22    1    3    3    0    0 -0.36108651600E+02  0.45696322569E+02 -0.13904898218E+01  0.58257377890E+02  0.00000000000E+00 0. -1.
         22    1    3    3    0    0  0.43377851323E+02 -0.24293364863E+02  0.70743010395E+02  0.86466057395E+02  0.00000000000E+00 0. -1.
</event>
<event>
 7    1  0.5789396E-006  0.5200013E+02  0.7818608E-02  0.1514345E+00
          2   -1    0    0  502    0  0.00000000000E+00  0.00000000000E+00  0.24970494211E+04  0.24970494211E+04  0.00000000000E+00 0. -1.
          1   -1    0    0  501    0 -0.00000000000E+00 -0.00000000000E+00 -0.14528378612E+03  0.14528378612E+03  0.00000000000E+00 0. -1.
         25    2    1    2    0    0  0.27796823433E+02  0.30004903579E+02  0.25172718675E+03  0.28401593755E+03  0.12500207438E+03 0.  0.
          2    1    1    2  501    0 -0.19957605734E+02  0.21749193611E+02 -0.12714106194E+03  0.13052273013E+03  0.00000000000E+00 0. -1.
          1    1    1    2  502    0 -0.78392176992E+01 -0.51754097190E+02  0.22271795102E+04  0.22277945395E+04  0.00000000000E+00 0. -1.
         22    1    3    3    0    0 -0.22391401893E+02  0.25625193839E+02  0.22388274146E+03  0.22645420588E+03  0.00000000000E+00 0. -1.
         22    1    3    3    0    0  0.50188225326E+02  0.43797097396E+01  0.27844445288E+02  0.57561731664E+02  0.00000000000E+00 0. -1.
</event>
<event>
 7    1  0.5789396E-006  0.6614622E+02  0.7818608E-02  0.1430750E+00
          2   -1    0    0  502    0  0.00000000000E+00  0.00000000000E+00  0.34164077457E+02  0.34164077457E+02  0.00000000000E+00 0. -1.
          1   -1    0    0  501    0 -0.00000000000E+00 -0.00000000000E+00 -0.11885625985E+04  0.11885625985E+04  0.00000000000E+00 0. -1.
         25    2    1    2    0    0 -0.58399509771E+02 -0.43608368041E+02 -0.75063511779E+03  0.76445486178E+03  0.12500385249E+03 0.  0.
          2    1    1    2  501    0  0.37407961606E+02 -0.19450088172E+02 -0.38758352361E+03  0.38987004154E+03  0.00000000000E+00 0. -1.
          1    1    1    2  502    0  0.20991548166E+02  0.63058456213E+02 -0.16179879651E+02  0.68401772637E+02  0.00000000000E+00 0. -1.
         22    1    3    3    0    0 -0.20979427713E+02 -0.80411288083E+02 -0.58020168390E+03  0.58612294413E+03  0.00000000000E+00 0. -1.
         22    1    3    3    0    0 -0.37420082059E+02  0.36802920042E+02 -0.17043343389E+03  0.17833191765E+03  0.00000000000E+00 0. -1.
</event>
<event>
 7    1  0.5789396E-006  0.2684747E+02  0.7818608E-02  0.1636136E+00
          2   -1    0    0  502    0  0.00000000000E+00  0.00000000000E+00  0.13039293617E+04  0.13039293617E+04  0.00000000000E+00 0. -1.
          1   -1    0    0  501    0 -0.00000000000E+00 -0.00000000000E+00 -0.14806644688E+03  0.14806644688E+03  0.00000000000E+00 0. -1.
         25    2    1    2    0    0  0.60112773134E+00  0.27374503572E+02  0.27819222442E+03  0.30621275549E+03  0.12500245236E+03 0.  0.
          2    1    1    2  501    0  0.22792428819E+02 -0.14201487544E+02 -0.13253112854E+03  0.13522454323E+03  0.00000000000E+00 0. -1.
          1    1    1    2  502    0 -0.23393556550E+02 -0.13173016028E+02  0.10102018189E+04  0.10105585099E+04  0.00000000000E+00 0. -1.
         22    1    3    3    0    0 -0.16151082222E+02  0.52856731194E+02  0.26862469326E+03  0.27425155846E+03  0.00000000000E+00 0. -1.
         22    1    3    3    0    0  0.16752209953E+02 -0.25482227621E+02  0.95675311574E+01  0.31961197026E+02  0.00000000000E+00 0. -1.
</event>
<event>
 7    1  0.5789396E-006  0.7624998E+02  0.7818608E-02  0.1439895E+00
          2   -1    0    0  502    0  0.00000000000E+00  0.00000000000E+00  0.22748870522E+04  0.22748870522E+04  0.00000000000E+00 0. -1.
          1   -1    0    0  501    0 -0.00000000000E+00 -0.00000000000E+00 -0.59702654865E+02  0.59702654865E+02  0.00000000000E+00 0. -1.
         25    2    1    2    0    0 -0.45019631271E+02  0.26449803260E+01  0.68716667238E+03  0.69989760751E+03  0.12499944901E+03 0.  0.
          2    1    1    2  501    0  0.76982312487E+02  0.93627822002E+01 -0.24861700962E+02  0.81437352002E+02  0.00000000000E+00 0. -1.
          1    1    1    2  502    0 -0.31962681216E+02 -0.12007762526E+02  0.15528794259E+04  0.15532547475E+04  0.00000000000E+00 0. -1.
         22    1    3    3    0    0  0.38190286469E+02 -0.63047761083E+01  0.10823378947E+03  0.11494695022E+03  0.00000000000E+00 0. -1.
         22    1    3    3    0    0 -0.83209917739E+02  0.89497564343E+01  0.57893288291E+03  0.58495065729E+03  0.00000000000E+00 0. -1.
</event>
<event>
 7    1  0.5789396E-006  0.4679659E+02  0.7818608E-02  0.1563338E+00
          2   -1    0    0  502    0  0.00000000000E+00  0.00000000000E+00  0.10269755551E+04  0.10269755551E+04  0.00000000000E+00 0. -1.
          1   -1    0    0  501    0 -0.00000000000E+00 -0.00000000000E+00 -0.59152730721E+02  0.59152730721E+02  0.00000000000E+00 0. -1.
         25    2    1    2    0    0 -0.44070018638E+02 -0.46742048284E+02  0.23375852250E+03  0.27275489479E+03  0.12500080067E+03 0.  0.
          2    1    1    2  501    0  0.40792741679E+01  0.23478985282E+02 -0.35315493229E+02  0.42603841254E+02  0.00000000000E+00 0. -1.
          1    1    1    2  502    0  0.39990744470E+02  0.23263063002E+02  0.76937979511E+03  0.77076954978E+03  0.00000000000E+00 0. -1.
         22    1    3    3    0    0  0.69064747700E+01  0.28463762963E+02  0.95008841785E+01  0.30792076837E+02  0.00000000000E+00 0.  1.
         22    1    3    3    0    0 -0.50976493408E+02 -0.75205811247E+02  0.22425763832E+03  0.24196281795E+03  0.00000000000E+00 0.  1.
</event>
<event>
 7    1  0.5789396E-006  0.1173445E+03  0.7818608E-02  0.1294941E+00
          2   -1    0    0  502    0  0.00000000000E+00  0.00000000000E+00  0.12076413860E+04  0.12076413860E+04  0.00000000000E+00 0. -1.
          1   -1    0    0  501    0 -0.00000000000E+00 -0.00000000000E+00 -0.35422573398E+03  0.35422573398E+03  0.00000000000E+00 0. -1.
         25    2    1    2    0    0 -0.13896899696E+03  0.26671522458E+02  0.20327482258E+03  0.27744013305E+03  0.12501448598E+03 0.  0.
          2    1    1    2  501    0  0.86401785826E+02 -0.79121577646E+02 -0.30483263807E+03  0.32657071190E+03  0.00000000000E+00 0. -1.
          1    1    1    2  502    0  0.52567211132E+02  0.52450055188E+02  0.95497346750E+03  0.95785627503E+03  0.00000000000E+00 0. -1.
         22    1    3    3    0    0 -0.46928483056E+02 -0.32350564346E+02  0.13989125376E+03  0.15105761951E+03  0.00000000000E+00 0.  1.
         22    1    3    3    0    0 -0.92040513902E+02  0.59022086804E+02  0.63383568824E+02  0.12638251353E+03  0.00000000000E+00 0.  1.
</event>
<event>
 7    1  0.5789396E-006  0.3509360E+02  0.7818608E-02  0.1558390E+00
          2   -1    0    0  502    0  0.00000000000E+00  0.00000000000E+00  0.32432939622E+03  0.32432939622E+03  0.00000000000E+00 0. -1.
          1   -1    0    0  501    0 -0.00000000000E+00 -0.00000000000E+00 -0.91868961950E+03  0.91868961950E+03  0.00000000000E+00 0. -1.
         25    2    1    2    0    0  0.29563393859E+02  0.19796703549E+02  0.20937705033E+03  0.24643334696E+03  0.12499896624E+03 0.  0.
          2    1    1    2  501    0 -0.27669691174E+02  0.17592589716E+02 -0.89621653437E+03  0.89681613918E+03  0.00000000000E+00 0. -1.
          1    1    1    2  502    0 -0.18937026843E+01 -0.37389293265E+02  0.92479260764E+02  0.99769529578E+02  0.00000000000E+00 0. -1.
         22    1    3    3    0    0 -0.70563331361E+01  0.40797498580E+02  0.99428573978E+01  0.42580372719E+02  0.00000000000E+00 0. -1.
         22    1    3    3    0    0  0.36619726995E+02 -0.21000795031E+02  0.19943419293E+03  0.20385297424E+03  0.00000000000E+00 0. -1.
</event>
<event>
 7    1  0.5789396E-006  0.1017429E+03  0.7818608E-02  0.1302594E+00
          2   -1    0    0  502    0  0.00000000000E+00  0.00000000000E+00  0.14336658775E+04  0.14336658775E+04  0.00000000000E+00 0. -1.
          1   -1    0    0  501    0 -0.00000000000E+00 -0.00000000000E+00 -0.11280018192E+04  0.11280018192E+04  0.00000000000E+00 0. -1.
         25    2    1    2    0    0 -0.53990592263E+02  0.14238544882E+03  0.56847733274E+03  0.60164817223E+03  0.12500178086E+03 0.  0.
          2    1    1    2  501    0 -0.16786404371E+02 -0.78015349262E+02 -0.11072794342E+04  0.11101513065E+04  0.00000000000E+00 0. -1.
          1    1    1    2  502    0  0.70776996634E+02 -0.64370099561E+02  0.84446615970E+03  0.84986821794E+03  0.00000000000E+00 0. -1.
         22    1    3    3    0    0 -0.50536633823E+01  0.47108461508E+02  0.38768724389E+02  0.61218956623E+02  0.00000000000E+00 0. -1.
         22    1    3    3    0    0 -0.48936928880E+02  0.95276987314E+02  0.52970860836E+03  0.54042921561E+03  0.00000000000E+00 0. -1.
</event>
<event>
 7    1  0.5789396E-006  0.1066523E+03  0.7818608E-02  0.1305647E+00
          2   -1    0    0  502    0  0.00000000000E+00  0.00000000000E+00  0.11556662954E+03  0.11556662954E+03  0.00000000000E+00 0. -1.
          1   -1    0    0  501    0 -0.00000000000E+00 -0.00000000000E+00 -0.39350924013E+03  0.39350924013E+03  0.00000000000E+00 0. -1.
         25    2    1    2    0    0 -0.47239864301E+02 -0.45449840122E+02 -0.10256833393E+03  0.17447671744E+03  0.12499827622E+03 0.  0.
          2    1    1    2  501    0  0.85588961107E+01 -0.73532128258E+02 -0.19442848341E+03  0.20804485994E+03  0.00000000000E+00 0. -1.
          1    1    1    2  502    0  0.38680968190E+02  0.11898196838E+03  0.19054206748E+02  0.12655429228E+03  0.00000000000E+00 0. -1.
         22    1    3    3    0    0 -0.19947616748E+02  0.21260873326E+02  0.17814488455E+02  0.34165598888E+02  0.00000000000E+00 0.  1.
         22    1    3    3    0    0 -0.27292247553E+02 -0.66710713448E+02 -0.12038282238E+03  0.14031111856E+03  0.00000000000E+00 0.  1.
</event>
<event>
 7    1  0.1178604E-005  0.5319470E+02  0.7818608E-02  0.1439207E+00
          2   -1    0    0  502    0  0.00000000000E+00  0.00000000000E+00  0.14060410643E+04  0.14060410643E+04  0.00000000000E+00 0. -1.
          1   -1    0    0  501    0 -0.00000000000E+00 -0.00000000000E+00 -0.81144651124E+03  0.81144651124E+03  0.00000000000E+00 0. -1.
         25    2    1    2    0    0  0.22045481703E+02  0.96445304581E+02 -0.19729610886E+03  0.25364842655E+03  0.12499627866E+03 0.  0.
          2    1    1    2  501    0 -0.23235878699E+02 -0.43360998116E+02 -0.58442890791E+03  0.58649572089E+03  0.00000000000E+00 0. -1.
          1    1    1    2  502    0  0.11903969961E+01 -0.53084306465E+02  0.13763195698E+04  0.13773434281E+04  0.00000000000E+00 0. -1.
         22    1    3    3    0    0 -0.16342816522E+02  0.10027272489E+03 -0.18841529381E+03  0.21406080900E+03  0.00000000000E+00 0.  1.
         22    1    3    3    0    0  0.38388298225E+02 -0.38274203119E+01 -0.88808150495E+01  0.39587617544E+02  0.00000000000E+00 0.  1.
</event>
<event>
 7    1  0.5789396E-006  0.5960880E+02  0.7818608E-02  0.1503667E+00
          2   -1    0    0  502    0  0.00000000000E+00  0.00000000000E+00  0.44365542758E+03  0.44365542758E+03  0.00000000000E+00 0. -1.
          1   -1    0    0  501    0 -0.00000000000E+00 -0.00000000000E+00 -0.10760537716E+04  0.10760537716E+04  0.00000000000E+00 0. -1.
         25    2    1    2    0    0  0.40939547321E+02 -0.16143968510E+02  0.27293065122E+03  0.30340187159E+03  0.12499952421E+03 0.  0.
          2    1    1    2  501    0 -0.59504911054E+02 -0.43948531777E+01 -0.10587390493E+04  0.10604190322E+04  0.00000000000E+00 0. -1.
          1    1    1    2  502    0  0.18565363733E+02  0.20538821688E+02  0.15341005414E+03  0.15588829538E+03  0.00000000000E+00 0. -1.
         22    1    3    3    0    0  0.43859643991E+01 -0.68046050495E+02  0.12413020627E+03  0.14162559719E+03  0.00000000000E+00 0.  1.
         22    1    3    3    0    0  0.36553582922E+02  0.51902081985E+02  0.14880044496E+03  0.16177627440E+03  0.00000000000E+00 0.  1.
</event>
<event>
 7    1  0.5789396E-006  0.8530975E+02  0.7818608E-02  0.1343832E+00
          2   -1    0    0  502    0  0.00000000000E+00  0.00000000000E+00  0.11870255884E+04  0.11870255884E+04  0.00000000000E+00 0. -1.
          1   -1    0    0  501    0 -0.00000000000E+00 -0.00000000000E+00 -0.65483863183E+03  0.65483863183E+03  0.00000000000E+00 0. -1.
         25    2    1    2    0    0 -0.62778636622E+01 -0.10006162565E+03  0.31981912379E+03  0.35771710991E+03  0.12500207311E+03 0.  0.
          2    1    1    2  501    0  0.59559976393E+02  0.61183478712E+02 -0.63173090458E+03  0.63747528945E+03  0.00000000000E+00 0. -1.
          1    1    1    2  502    0 -0.53282112731E+02  0.38878146938E+02  0.84409873732E+03  0.84667182084E+03  0.00000000000E+00 0. -1.
         22    1    3    3    0    0 -0.52678813537E+02 -0.14678495961E+02  0.64687773748E+02  0.84705511697E+02  0.00000000000E+00 0. -1.
         22    1    3    3    0    0  0.46400949875E+02 -0.85383129689E+02  0.25513135004E+03  0.27301159821E+03  0.00000000000E+00 0. -1.
</event>
<event>
 7    1  0.5789396E-006  0.5264775E+02  0.7818608E-02  0.1518151E+00
          2   -1    0    0  502    0  0.00000000000E+00  0.00000000000E+00  0.57828061208E+02  0.57828061208E+02  0.00000000000E+00 0. -1.
          1   -1    0    0  501    0 -0.00000000000E+00 -0.00000000000E+00 -0.19404045637E+04  0.19404045637E+04  0.00000000000E+00 0. -1.
         25    2    1    2    0    0  0.26504219053E+02  0.75090518612E+02 -0.49851063661E+03  0.52007581806E+03  0.12499976842E+03 0.  0.
          2    1    1    2  501    0 -0.14091399698E+02 -0.49525691353E+02 -0.14263121632E+04  0.14272413071E+04  0.00000000000E+00 0. -1.
          1    1    1    2  502    0 -0.12412819355E+02 -0.25564827259E+02  0.42246297349E+02  0.50915499770E+02  0.00000000000E+00 0. -1.
         22    1    3    3    0    0 -0.39420760306E+02  0.65358446009E+02 -0.19656069388E+03  0.21085973819E+03  0.00000000000E+00 0. -1.
         22    1    3    3    0    0  0.65924979359E+02  0.97320726027E+01 -0.30194994272E+03  0.30921607987E+03  0.00000000000E+00 0. -1.
</event>
<event>
 7    1  0.5789396E-006  0.9696511E+02  0.7818608E-02  0.1411135E+00
          2   -1    0    0  502    0  0.00000000000E+00  0.00000000000E+00  0.68619294947E+03  0.68619294947E+03  0.00000000000E+00 0. -1.
          1   -1    0    0  501    0 -0.00000000000E+00 -0.00000000000E+00 -0.16734691272E+04  0.16734691272E+04  0.00000000000E+00 0. -1.
         25    2    1    2    0    0 -0.31184090715E+02 -0.90322877792E+02  0.22956495610E+02  0.15901940153E+03  0.12501799713E+03 0.  0.
          2    1    1    2  501    0  0.32690593260E+02 -0.70306100795E+01 -0.16012801519E+04  0.16016292421E+04  0.00000000000E+00 0. -1.
          1    1    1    2  502    0 -0.15065025442E+01  0.97353487871E+02  0.59104747850E+03  0.59901343307E+03  0.00000000000E+00 0. -1.
         22    1    3    3    0    0 -0.23246381290E+01 -0.36324385002E+02 -0.51221322942E+02  0.62837001935E+02  0.00000000000E+00 0.  1.
         22    1    3    3    0    0 -0.28859452586E+02 -0.53998492789E+02  0.74177818552E+02  0.96182399597E+02  0.00000000000E+00 0.  1.
</event>
<event>
 7    1  0.5789396E-006  0.9016409E+02  0.7818608E-02  0.1305498E+00
          2   -1    0    0  502    0  0.00000000000E+00  0.00000000000E+00  0.12795132351E+04  0.12795132351E+04  0.00000000000E+00 0. -1.
          1   -1    0    0  501    0 -0.00000000000E+00 -0.00000000000E+00 -0.56024359521E+02  0.56024359521E+02  0.00000000000E+00 0. -1.
         25    2    1    2    0    0  0.46028613018E+02  0.43341223870E+02  0.25902144408E+03  0.29447019987E+03  0.12499398073E+03 0.  0.
          2    1    1    2  501    0  0.25469131516E+02 -0.98274235894E+02  0.35221198159E+02  0.10745713052E+03  0.00000000000E+00 0. -1.
          1    1    1    2  502    0 -0.71497744534E+02  0.54933012024E+02  0.92924623339E+03  0.93361026427E+03  0.00000000000E+00 0. -1.
         22    1    3    3    0    0  0.14557737475E+02  0.80389522985E+00  0.23652341276E+03  0.23697235862E+03  0.00000000000E+00 0.  1.
         22    1    3    3    0    0  0.31470875543E+02  0.42537328640E+02  0.22498031317E+02  0.57497841250E+02  0.00000000000E+00 0.  1.
</event>
<event>
 7    1  0.8928420E-006  0.1074348E+03  0.7818608E-02  0.1424421E+00
          2   -1    0    0  502    0  0.00000000000E+00  0.00000000000E+00  0.23361338734E+04  0.23361338734E+04  0.00000000000E+00 0. -1.
          1   -1    0    0  501    0 -0.00000000000E+00 -0.00000000000E+00 -0.12567393477E+04  0.12567393477E+04  0.00000000000E+00 0. -1.
         25    2    1    2    0    0 -0.18847694193E+02 -0.13248558618E+03 -0.11361685151E+03  0.21549953071E+03  0.12499437053E+03 0.  0.
          2    1    1    2  501    0 -0.14933586967E+01  0.27198170227E+02 -0.10907530183E+04  0.10910930838E+04  0.00000000000E+00 0. -1.
          1    1    1    2  502    0  0.20341052890E+02  0.10528741596E+03  0.22837643954E+04  0.22862806066E+04  0.00000000000E+00 0. -1.
         22    1    3    3    0    0  0.17078084170E+02 -0.13089851366E+03 -0.12067407715E+03  0.17885277390E+03  0.00000000000E+00 0. -1.
         22    1    3    3    0    0 -0.35925778363E+02 -0.15870725252E+01  0.70572256439E+01  0.36646756800E+02  0.00000000000E+00 0. -1.
</event>
<event>
 7    1  0.5789396E-006  0.1392669E+03  0.7818608E-02  0.1252877E+00
          2   -1    0    0  502    0  0.00000000000E+00  0.00000000000E+00  0.17893138895E+03  0.17893138895E+03  0.00000000000E+00 0. -1.
          1   -1    0    0  501    0 -0.00000000000E+00 -0.00000000000E+00 -0.14549798026E+04  0.14549798026E+04  0.00000000000E+00 0. -1.
         25    2    1    2    0    0 -0.87510050012E+02  0.47856814275E+02 -0.28858666435E+03  0.32991817979E+03  0.12496183013E+03 0.  0.
          2    1    1    2  501    0  0.65169556036E+02 -0.13890014096E+03 -0.11261722136E+04  0.11365756353E+04  0.00000000000E+00 0. -1.
          1    1    1    2  502    0  0.22340493976E+02  0.91043326685E+02  0.13871046432E+03  0.16741737639E+03  0.00000000000E+00 0. -1.
         22    1    3    3    0    0 -0.60849644187E+02  0.25509455162E+02 -0.36422710440E+02  0.75365942814E+02  0.00000000000E+00 0.  1.
         22    1    3    3    0    0 -0.26660405824E+02  0.22347359112E+02 -0.25216395391E+03  0.25455223697E+03  0.00000000000E+00 0.  1.
</event>
<event>
 7    1  0.5789396E-006  0.8767595E+02  0.7818608E-02  0.1468255E+00
          2   -1    0    0  502    0  0.00000000000E+00  0.00000000000E+00  0.99491148046E+02  0.99491148046E+02  0.00000000000E+00 0. -1.
          1   -1    0    0  501    0 -0.00000000000E+00 -0.00000000000E+00 -0.57275364631E+03  0.57275364631E+03  0.00000000000E+00 0. -1.
         25    2    1    2    0    0 -0.27929739047E+02  0.10654305489E+03 -0.66857495411E+02  0.17951558090E+03  0.12499770488E+03 0.  0.
          2    1    1    2  501    0  0.22051619543E+02 -0.83146514809E+02 -0.44168860831E+03  0.44998715933E+03  0.00000000000E+00 0. -1.
          1    1    1    2  502    0  0.58781195046E+01 -0.23396540083E+02  0.35283605459E+02  0.42742054126E+02  0.00000000000E+00 0. -1.
         22    1    3    3    0    0  0.10123925109E+02  0.10683070782E+03 -0.85437484762E+02  0.13716726211E+03  0.00000000000E+00 0.  1.
         22    1    3    3    0    0 -0.38053664156E+02 -0.28765292772E+00  0.18579989351E+02  0.42348318788E+02  0.00000000000E+00 0.  1.
</event>
<event>
 7    1  0.5789396E-006  0.5096322E+02  0.7818608E-02  0.1480283E+00
          2   -1    0    0  502    0  0.00000000000E+00  0.00000000000E+00  0.95439480053E+03  0.95439480053E+03  0.00000000000E+00 0. -1.
          1   -1    0    0  501    0 -0.00000000000E+00 -0.00000000000E+00 -0.15059360203E+02  0.15059360203E+02  0.00000000000E+00 0. -1.
         25    2    1    2    0    0  0.28295610203E+02  0.41269237504E+01  0.38350556480E+03  0.40437402492E+03  0.12499664294E+03 0.  0.
          2    1    1    2  501    0  0.96546905803E+01  0.36851920350E+02  0.12589610503E+03  0.13153367000E+03  0.00000000000E+00 0. -1.
          1    1    1    2  502    0 -0.37950300783E+02 -0.40978844100E+02  0.42993377050E+03  0.43354646580E+03  0.00000000000E+00 0. -1.
         22    1    3    3    0    0 -0.24936587253E+02  0.49730348111E+01  0.32210249238E+03  0.32310459616E+03  0.00000000000E+00 0. -1.
         22    1    3    3    0    0  0.53232197456E+02 -0.84611106073E+00  0.61403072411E+02  0.81269428763E+02  0.00000000000E+00 0. -1.
</event>
<event>
 7    1  0.5789396E-006  0.7344500E+02  0.7818608E-02  0.1374646E+00
          2   -1    0    0  502    0  0.00000000000E+00  0.00000000000E+00  0.32280266035E+03  0.32280266035E+03  0.00000000000E+00 0. -1.
          1   -1    0    0  501    0 -0.00000000000E+00 -0.00000000000E+00 -0.79042594616E+03  0.79042594616E+03  0.00000000000E+00 0. -1.
         25    2    1    2    0    0 -0.10411597040E+03 -0.81215031230E+01 -0.48155517422E+03  0.50834367209E+03  0.12494722499E+03 0.  0.
          2    1    1    2  501    0  0.54430785888E+02  0.40154737355E+02 -0.28870786777E+03  0.29652545641E+03  0.00000000000E+00 0. -1.
          1    1    1    2  502    0  0.49685184517E+02 -0.32033234232E+02  0.30263975618E+03  0.30835947801E+03  0.00000000000E+00 0. -1.
         22    1    3    3    0    0 -0.10792090280E+03 -0.48574476587E+02 -0.30460107473E+03  0.32678466268E+03  0.00000000000E+00 0.  1.
         22    1    3    3    0    0  0.38049323920E+01  0.40452973464E+02 -0.17695409949E+03  0.18155900941E+03  0.00000000000E+00 0.  1.
</event>
<event>
 7    1  0.5789396E-006  0.1031313E+03  0.7818608E-02  0.1363025E+00
          2   -1    0    0  502    0  0.00000000000E+00  0.00000000000E+00  0.10200911553E+04  0.10200911553E+04  0.00000000000E+00 0. -1.
          1   -1    0    0  501    0 -0.00000000000E+00 -0.00000000000E+00 -0.42076905471E+03  0.42076905471E+03  0.00000000000E+00 0. -1.
         25    2    1    2    0    0  0.67137261820E+02  0.26664049976E+02 -0.16172441564E+03  0.21679018663E+03  0.12499925967E+03 0.  0.
          2    1    1    2  501    0  0.36498618098E+02 -0.28582887514E+02 -0.22645090633E+03  0.23114744982E+03  0.00000000000E+00 0. -1.
          1    1    1    2  502    0 -0.10363587992E+03  0.19188375383E+01  0.98749742257E+03  0.99292257358E+03  0.00000000000E+00 0. -1.
         22    1    3    3    0    0 -0.74563638056E+01  0.30658058878E+02  0.69557658386E+01  0.32309388941E+02  0.00000000000E+00 0. -1.
         22    1    3    3    0    0  0.74593625626E+02 -0.39940089022E+01 -0.16868018148E+03  0.18448079769E+03  0.00000000000E+00 0. -1.
</event>
<event>
 7    1  0.5789396E-006  0.1745724E+03  0.7818608E-02  0.1261148E+00
          2   -1    0    0  502    0  0.00000000000E+00  0.00000000000E+00  0.62040384937E+03  0.62040384937E+03  0.00000000000E+00 0. -1.
          1   -1    0    0  501    0 -0.00000000000E+00 -0.00000000000E+00 -0.15821782592E+04  0.15821782592E+04  0.00000000000E+00 0. -1.
         25    2    1    2    0    0 -0.12221745665E+03  0.48302319769E+02 -0.44019111066E+03  0.47609026149E+03  0.12499400937E+03 0.  0.
          2    1    1    2  501    0  0.16858786373E+03 -0.99289997143E+02 -0.11135089761E+04  0.11305673847E+04  0.00000000000E+00 0. -1.
          1    1    1    2  502    0 -0.46370407084E+02  0.50987677374E+02  0.59192567694E+03  0.59592446243E+03  0.00000000000E+00 0. -1.
         22    1    3    3    0    0  0.15857422835E+02  0.38237964334E+02 -0.12938122869E+03  0.13584219562E+03  0.00000000000E+00 0. -1.
         22    1    3    3    0    0 -0.13807487948E+03  0.10064355435E+02 -0.31080988198E+03  0.34024806587E+03  0.00000000000E+00 0. -1.
</event>
<event>
 7    1  0.5789396E-006  0.8390553E+02  0.7818608E-02  0.1435605E+00
          2   -1    0    0  502    0  0.00000000000E+00  0.00000000000E+00  0.28083506843E+04  0.28083506843E+04  0.00000000000E+00 0. -1.
          1   -1    0    0  501    0 -0.00000000000E+00 -0.00000000000E+00 -0.17411690343E+04  0.17411690343E+04  0.00000000000E+00 0. -1.
         25    2    1    2    0    0 -0.42130357121E+02 -0.32033179597E+02  0.92989967311E+03  0.93975465804E+03  0.12499729460E+03 0.  0.
          2    1    1    2  501    0  0.60204177239E+02  0.58491949697E+02 -0.17350898560E+04  0.17371190689E+04  0.00000000000E+00 0. -1.
          1    1    1    2  502    0 -0.18073820117E+02 -0.26458770100E+02  0.18723718328E+04  0.18726459916E+04  0.00000000000E+00 0. -1.
         22    1    3    3    0    0 -0.81678823210E+02 -0.83878574951E+01  0.73051379634E+03  0.73511372791E+03  0.00000000000E+00 0. -1.
         22    1    3    3    0    0  0.39548466089E+02 -0.23645322102E+02  0.19938587677E+03  0.20464093013E+03  0.00000000000E+00 0. -1.
</event>
<event>
 7    1  0.5789396E-006  0.4617835E+03  0.7818608E-02  0.1176367E+00
          2   -1    0    0  502    0  0.00000000000E+00  0.00000000000E+00  0.10603256061E+04  0.10603256061E+04  0.00000000000E+00 0. -1.
          1   -1    0    0  501    0 -0.00000000000E+00 -0.00000000000E+00 -0.57604778060E+03  0.57604778060E+03  0.00000000000E+00 0. -1.
         25    2    1    2    0    0 -0.13225500612E+03 -0.39050013813E+03  0.34197275268E+03  0.55004734783E+03  0.12499990699E+03 0.  0.
          2    1    1    2  501    0  0.14218383220E+03  0.45336027107E+03 -0.34987134748E+03  0.59005231743E+03  0.00000000000E+00 0. -1.
          1    1    1    2  502    0 -0.99288260810E+01 -0.62860132935E+02  0.49217642034E+03  0.49627372148E+03  0.00000000000E+00 0. -1.
         22    1    3    3    0    0 -0.11992586997E+02 -0.19188804481E+02  0.72003439840E+02  0.75475345041E+02  0.00000000000E+00 0. -1.
         22    1    3    3    0    0 -0.12026241912E+03 -0.37131133365E+03  0.26996931284E+03  0.47457200278E+03  0.00000000000E+00 0. -1.
</event>
<event>
 7    1  0.1301357E-005  0.8360226E+02  0.7818608E-02  0.1345781E+00
          2   -1    0    0  502    0  0.00000000000E+00  0.00000000000E+00  0.25091463151E+04  0.25091463151E+04  0.00000000000E+00 0. -1.
          1   -1    0    0  501    0 -0.00000000000E+00 -0.00000000000E+00 -0.19623644388E+04  0.19623644388E+04  0.00000000000E+00 0. -1.
         25    2    1    2    0    0 -0.41682202364E+02  0.18880894574E+02 -0.42461526736E+03  0.44499154419E+03  0.12500181978E+03 0.  0.
          2    1    1    2  501    0 -0.32477272743E+02 -0.57670749952E+02 -0.15261428410E+04  0.15275773826E+04  0.00000000000E+00 0. -1.
          1    1    1    2  502    0  0.74159475107E+02  0.38789855378E+02  0.24975399846E+04  0.24989418271E+04  0.00000000000E+00 0. -1.
         22    1    3    3    0    0  0.63255138620E+01 -0.46931293120E+02 -0.21386974511E+03  0.21904982601E+03  0.00000000000E+00 0.  1.
         22    1    3    3    0    0 -0.48007716226E+02  0.65812187694E+02 -0.21074552225E+03  0.22594171818E+03  0.00000000000E+00 0.  1.
</event>
<event>
 7    1  0.5789396E-006  0.8032713E+02  0.7818608E-02  0.1378553E+00
          2   -1    0    0  502    0  0.00000000000E+00  0.00000000000E+00  0.13210843720E+04  0.13210843720E+04  0.00000000000E+00 0. -1.
          1   -1    0    0  501    0 -0.00000000000E+00 -0.00000000000E+00 -0.31074417074E+03  0.31074417074E+03  0.00000000000E+00 0. -1.
         25    2    1    2    0    0  0.52284727123E+02  0.91513016872E+02  0.53921840142E+02  0.17216725351E+03  0.12500269353E+03 0.  0.
          2    1    1    2  501    0 -0.51075569302E+02 -0.11471977154E+02 -0.24755521166E+03  0.25302945058E+03  0.00000000000E+00 0. -1.
          1    1    1    2  502    0 -0.12091578210E+01 -0.80041039718E+02  0.12039735728E+04  0.12066318387E+04  0.00000000000E+00 0. -1.
         22    1    3    3    0    0 -0.56953763262E+00 -0.14451214868E+02  0.51749944670E+02  0.53732846171E+02  0.00000000000E+00 0.  1.
         22    1    3    3    0    0  0.52854264756E+02  0.10596423174E+03  0.21718954717E+01  0.11843440734E+03  0.00000000000E+00 0.  1.
</event>
<event>
 7    1  0.5789396E-006  0.7072419E+02  0.7818608E-02  0.1483855E+00
          2   -1    0    0  502    0  0.00000000000E+00  0.00000000000E+00  0.60020587728E+03  0.60020587728E+03  0.00000000000E+00 0. -1.
          1   -1    0    0  501    0 -0.00000000000E+00 -0.00000000000E+00 -0.77695052203E+03  0.77695052203E+03  0.00000000000E+00 0. -1.
         25    2    1    2    0    0  0.65867559809E+01  0.44669060242E+02  0.38121047406E+02  0.13826533887E+03  0.12500151751E+03 0.  0.
          2    1    1    2  501    0 -0.17803936488E+02 -0.68974714921E+02 -0.72478114399E+03  0.72827343638E+03  0.00000000000E+00 0. -1.
          1    1    1    2  502    0  0.11217180507E+02  0.24305654678E+02  0.50991545183E+03  0.51061762407E+03  0.00000000000E+00 0. -1.
         22    1    3    3    0    0 -0.24936304403E+02 -0.36444057228E+02  0.24858174420E+01  0.44228586602E+02  0.00000000000E+00 0. -1.
         22    1    3    3    0    0  0.31523060384E+02  0.81113117470E+02  0.35635229964E+02  0.94036752263E+02  0.00000000000E+00 0. -1.
</event>
<event>
 7    1  0.5789396E-006  0.6418563E+02  0.7818608E-02  0.1416011E+00
          2   -1    0    0  502    0  0.00000000000E+00  0.00000000000E+00  0.11673820590E+04  0.11673820590E+04  0.00000000000E+00 0. -1.
          1   -1    0    0  501    0 -0.00000000000E+00 -0.00000000000E+00 -0.27413011343E+03  0.27413011343E+03  0.00000000000E+00 0. -1.
         25    2    1    2    0    0 -0.45316228194E+02 -0.91500872049E+02 -0.10739224564E+03  0.19386681780E+03  0.12500111398E+03 0.  0.
          2    1    1    2  501    0  0.39552019956E+02  0.43205392353E+02 -0.11599584065E+03  0.12994654001E+03  0.00000000000E+00 0. -1.
          1    1    1    2  502    0  0.57642082378E+01  0.48295479696E+02  0.11166400318E+04  0.11176988146E+04  0.00000000000E+00 0. -1.
         22    1    3    3    0    0  0.33356956403E+02 -0.42317441828E+02 -0.81212036246E+02  0.97462029809E+02  0.00000000000E+00 0.  1.
         22    1    3    3    0    0 -0.78673184597E+02 -0.49183430221E+02 -0.26180209396E+02  0.96404787988E+02  0.00000000000E+00 0.  1.
</event>
<event>
 7    1  0.5789396E-006  0.9336470E+02  0.7818608E-02  0.1337228E+00
          2   -1    0    0  502    0  0.00000000000E+00  0.00000000000E+00  0.15730958139E+04  0.15730958139E+04  0.00000000000E+00 0. -1.
          1   -1    0    0  501    0 -0.00000000000E+00 -0.00000000000E+00 -0.11062236365E+03  0.11062236365E+03  0.00000000000E+00 0. -1.
         25    2    1    2    0    0 -0.17966348603E+02 -0.37752356625E+02  0.93604999925E+03  0.94528505205E+03  0.12500479353E+03 0.  0.
          2    1    1    2  501    0  0.80672324800E+02  0.49588825736E+02 -0.82852963614E+02  0.12582404065E+03  0.00000000000E+00 0. -1.
          1    1    1    2  502    0 -0.62705976197E+02 -0.11836469111E+02  0.60927641464E+03  0.61260908489E+03  0.00000000000E+00 0. -1.
         22    1    3    3    0    0  0.13186602926E+02 -0.71069937967E+02  0.75972119766E+03  0.76315209543E+03  0.00000000000E+00 0.  1.
         22    1    3    3    0    0 -0.31152951528E+02  0.33317581342E+02  0.17632880159E+03  0.18213295662E+03  0.00000000000E+00 0.  1.
</event>
<event>
 7    1  0.5789396E-006  0.6084509E+02  0.7818608E-02  0.1448635E+00
          2   -1    0    0  502    0  0.00000000000E+00  0.00000000000E+00  0.11695441869E+04  0.11695441869E+04  0.00000000000E+00 0. -1.
          1   -1    0    0  501    0 -0.00000000000E+00 -0.00000000000E+00 -0.53986739752E+03  0.53986739752E+03  0.00000000000E+00 0. -1.
         25    2    1    2    0    0 -0.11645222086E+02  0.34189662448E+02  0.29903135498E+01  0.13014641598E+03  0.12499841359E+03 0.  0.
          2    1    1    2  501    0 -0.20337453472E+02 -0.58377064448E+02 -0.47391682439E+03  0.47793163748E+03  0.00000000000E+00 0. -1.
          1    1    1    2  502    0  0.31982675559E+02  0.24187402001E+02  0.11006033002E+04  0.11013335310E+04  0.00000000000E+00 0. -1.
         22    1    3    3    0    0  0.54873297513E+02  0.16590589902E+00 -0.44953333392E+01  0.55057373044E+02  0.00000000000E+00 0.  1.
         22    1    3    3    0    0 -0.66518519599E+02  0.34023756549E+02  0.74856468890E+01  0.75089042934E+02  0.00000000000E+00 0.  1.
</event>
<event>
 7    1  0.5789396E-006  0.1164033E+03  0.7818608E-02  0.1273272E+00
          2   -1    0    0  502    0  0.00000000000E+00  0.00000000000E+00  0.46510315459E+03  0.46510315459E+03  0.00000000000E+00 0. -1.
          1   -1    0    0  501    0 -0.00000000000E+00 -0.00000000000E+00 -0.14842064014E+03  0.14842064014E+03  0.00000000000E+00 0. -1.
         25    2    1    2    0    0  0.72084576111E+02  0.95356667997E+01  0.16753615580E+03  0.22131573048E+03  0.12500069601E+03 0.  0.
          2    1    1    2  501    0  0.86349257907E+02 -0.31389170640E+02 -0.73787411927E+02  0.11783911292E+03  0.00000000000E+00 0. -1.
          1    1    1    2  502    0 -0.15843383402E+03  0.21853503840E+02  0.22293377058E+03  0.27436895134E+03  0.00000000000E+00 0. -1.
         22    1    3    3    0    0  0.99002965401E+02  0.24146484587E+02  0.83087506318E+02  0.13148449940E+03  0.00000000000E+00 0.  1.
         22    1    3    3    0    0 -0.26918389289E+02 -0.14610817787E+02  0.84448649477E+02  0.89831231077E+02  0.00000000000E+00 0.  1.
</event>
<event>
 7    1  0.5789396E-006  0.2721442E+03  0.7818608E-02  0.1107251E+00
          2   -1    0    0  502    0  0.00000000000E+00  0.00000000000E+00  0.10570108933E+03  0.10570108933E+03  0.00000000000E+00 0. -1.
          1   -1    0    0  501    0 -0.00000000000E+00 -0.00000000000E+00 -0.25528311273E+04  0.25528311273E+04  0.00000000000E+00 0. -1.
         25    2    1    2    0    0  0.56885588906E+02  0.15043582997E+03 -0.69211029366E+03  0.72146150951E+03  0.12499256760E+03 0.  0.
          2    1    1    2  501    0 -0.22785353524E+03 -0.36217248196E+03 -0.15147977382E+04  0.15740706236E+04  0.00000000000E+00 0. -1.
          1    1    1    2  502    0  0.17096794633E+03  0.21173665199E+03 -0.24022200613E+03  0.36300008361E+03  0.00000000000E+00 0. -1.
         22    1    3    3    0    0  0.73518846219E+02  0.82190015281E+02 -0.57017427580E+03  0.58073997981E+03  0.00000000000E+00 0. -1.
         22    1    3    3    0    0 -0.16633257314E+02  0.68245814688E+02 -0.12193601785E+03  0.14072152970E+03  0.00000000000E+00 0. -1.
</event>
<event>
 7    1  0.5789396E-006  0.8510641E+02  0.7818608E-02  0.1424115E+00
          2   -1    0    0  502    0  0.00000000000E+00  0.00000000000E+00  0.13108911183E+04  0.13108911183E+04  0.00000000000E+00 0. -1.
          1   -1    0    0  501    0 -0.00000000000E+00 -0.00000000000E+00 -0.14210326232E+04  0.14210326232E+04  0.00000000000E+00 0. -1.
         25    2    1    2    0    0 -0.14909526999E+02 -0.71786619760E+02  0.36884123273E+03  0.39628819649E+03  0.12499946779E+03 0.  0.
          2    1    1    2  501    0  0.49296234877E+02  0.69449711391E+02 -0.14056999782E+04  0.14082776040E+04  0.00000000000E+00 0. -1.
          1    1    1    2  502    0 -0.34386707878E+02  0.23369083683E+01  0.92671724057E+03  0.92735794103E+03  0.00000000000E+00 0. -1.
         22    1    3    3    0    0  0.19713442451E+01  0.82783717148E+01  0.25990382095E+03  0.26004309985E+03  0.00000000000E+00 0. -1.
         22    1    3    3    0    0 -0.16880871244E+02 -0.80064991474E+02  0.10893741178E+03  0.13624509664E+03  0.00000000000E+00 0. -1.
</event>
<event>
 7    1  0.5789396E-006  0.2882101E+02  0.7818608E-02  0.1662156E+00
          2   -1    0    0  502    0  0.00000000000E+00  0.00000000000E+00  0.36892346921E+03  0.36892346921E+03  0.00000000000E+00 0. -1.
          1   -1    0    0  501    0 -0.00000000000E+00 -0.00000000000E+00 -0.22636740697E+03  0.22636740697E+03  0.00000000000E+00 0. -1.
         25    2    1    2    0    0 -0.46959725788E+01 -0.99712607261E+01 -0.20736881727E+01  0.12549986254E+03  0.12499774844E+03 0.  0.
          2    1    1    2  501    0 -0.61331097040E+01  0.28598962696E+02 -0.16088259718E+03  0.16351980240E+03  0.00000000000E+00 0. -1.
          1    1    1    2  502    0  0.10829082283E+02 -0.18627701970E+02  0.30551234760E+03  0.30627121125E+03  0.00000000000E+00 0. -1.
         22    1    3    3    0    0  0.83145070095E+01 -0.65888078285E+02  0.90415394479E+01  0.67023274484E+02  0.00000000000E+00 0.  1.
         22    1    3    3    0    0 -0.13010479588E+02  0.55916817559E+02 -0.11115227621E+02  0.58476588051E+02  0.00000000000E+00 0.  1.
</event>
<event>
 7    1  0.5789396E-006  0.9005819E+02  0.7818608E-02  0.1364264E+00
          2   -1    0    0  502    0  0.00000000000E+00  0.00000000000E+00  0.49594257255E+03  0.49594257255E+03  0.00000000000E+00 0. -1.
          1   -1    0    0  501    0 -0.00000000000E+00 -0.00000000000E+00 -0.26140167864E+03  0.26140167864E+03  0.00000000000E+00 0. -1.
         25    2    1    2    0    0  0.98443623978E+02 -0.51165841234E+02 -0.15003154387E+03  0.22459575143E+03  0.12499878797E+03 0.  0.
          2    1    1    2  501    0 -0.47915274427E+02  0.65570402703E+02 -0.49763744423E+02  0.95245900138E+02  0.00000000000E+00 0. -1.
          1    1    1    2  502    0 -0.50528349551E+02 -0.14404561469E+02  0.43433618220E+03  0.43750259962E+03  0.00000000000E+00 0. -1.
         22    1    3    3    0    0 -0.15249775302E+02 -0.63582087535E+01  0.12876107594E+02  0.20946995300E+02  0.00000000000E+00 0. -1.
         22    1    3    3    0    0  0.11369339928E+03 -0.44807632481E+02 -0.16290765146E+03  0.20364875613E+03  0.00000000000E+00 0. -1.
</event>
<event>
 7    1  0.5789396E-006  0.6211864E+02  0.7818608E-02  0.1437119E+00
          2   -1    0    0  502    0  0.00000000000E+00  0.00000000000E+00  0.92004368702E+03  0.92004368702E+03  0.00000000000E+00 0. -1.
          1   -1    0    0  501    0 -0.00000000000E+00 -0.00000000000E+00 -0.59785487726E+03  0.59785487726E+03  0.00000000000E+00 0. -1.
         25    2    1    2    0    0 -0.32762861660E+02 -0.33941900233E+01  0.12558458785E+02  0.12987771745E+03  0.12500232387E+03 0.  0.
          2    1    1    2  501    0 -0.11500925483E+02 -0.41216800446E+02 -0.53718004641E+03  0.53888171075E+03  0.00000000000E+00 0. -1.
          1    1    1    2  502    0  0.44263787144E+02  0.44610990470E+02  0.84681039738E+03  0.84913913609E+03  0.00000000000E+00 0. -1.
         22    1    3    3    0    0 -0.15255961835E+02 -0.42805545590E+02 -0.40938101657E+02  0.61163610685E+02  0.00000000000E+00 0.  1.
         22    1    3    3    0    0 -0.17506899826E+02  0.39411355567E+02  0.53496560442E+02  0.68714106763E+02  0.00000000000E+00 0.  1.
</event>
<event>
 7    1  0.5789396E-006  0.1459998E+03  0.7818608E-02  0.1300958E+00
          2   -1    0    0  502    0  0.00000000000E+00  0.00000000000E+00  0.25040069501E+04  0.25040069501E+04  0.00000000000E+00 0. -1.
          1   -1    0    0  501    0 -0.00000000000E+00 -0.00000000000E+00 -0.34722737404E+03  0.34722737404E+03  0.00000000000E+00 0. -1.
         25    2    1    2    0    0  0.12898206656E+03 -0.12992639580E+01  0.29229223320E+03  0.34307200652E+03  0.12500236191E+03 0.  0.
          2    1    1    2  501    0 -0.13578518003E+03  0.57341534992E+02 -0.30457467132E+03  0.33836577421E+03  0.00000000000E+00 0. -1.
          1    1    1    2  502    0  0.68031134736E+01 -0.56042271034E+02  0.21690620142E+04  0.21697965434E+04  0.00000000000E+00 0. -1.
         22    1    3    3    0    0  0.38781121389E+02 -0.45912131182E+02  0.42035824313E+02  0.73341050521E+02  0.00000000000E+00 0. -1.
         22    1    3    3    0    0  0.90200945168E+02  0.44612867224E+02  0.25025640889E+03  0.26973095600E+03  0.00000000000E+00 0. -1.
</event>
<event>
 7    1  0.5789396E-006  0.8575490E+02  0.7818608E-02  0.1321468E+00
          2   -1    0    0  502    0  0.00000000000E+00  0.00000000000E+00  0.29805622698E+03  0.29805622698E+03  0.00000000000E+00 0. -1.
          1   -1    0    0  501    0 -0.00000000000E+00 -0.00000000000E+00 -0.30055806831E+03  0.30055806831E+03  0.00000000000E+00 0. -1.
         25    2    1    2    0    0  0.47193889626E+02 -0.61024122486E+02 -0.14713698162E+03  0.20790358875E+03  0.12499361628E+03 0.  0.
          2    1    1    2  501    0  0.19775406326E+02  0.10445448918E+03 -0.92240492453E+02  0.14074841191E+03  0.00000000000E+00 0. -1.
          1    1    1    2  502    0 -0.66969295952E+02 -0.43430366697E+02  0.23687563274E+03  0.24996229463E+03  0.00000000000E+00 0. -1.
         22    1    3    3    0    0  0.70036676689E+02 -0.55910365207E+02 -0.39822828552E+02  0.98066113888E+02  0.00000000000E+00 0.  1.
         22    1    3    3    0    0 -0.22842787063E+02 -0.51137572791E+01 -0.10731415307E+03  0.10983747486E+03  0.00000000000E+00 0.  1.
</event>
<event>
 7    1  0.5789396E-006  0.1738897E+03  0.7818608E-02  0.1184293E+00
          2   -1    0    0  502    0  0.00000000000E+00  0.00000000000E+00  0.15074905069E+04  0.15074905069E+04  0.00000000000E+00 0. -1.
          1   -1    0    0  501    0 -0.00000000000E+00 -0.00000000000E+00 -0.58861127903E+03  0.58861127903E+03  0.00000000000E+00 0. -1.
         25    2    1    2    0    0 -0.16787388379E+03 -0.26506985139E+03  0.41376276207E+02  0.34026576961E+03  0.12500052302E+03 0.  0.
          2    1    1    2  501    0  0.10684168203E+03  0.12302282223E+03 -0.41930145993E+03  0.44984827899E+03  0.00000000000E+00 0. -1.
          1    1    1    2  502    0  0.61032201765E+02  0.14204702917E+03  0.12968044116E+04  0.13059877374E+04  0.00000000000E+00 0. -1.
         22    1    3    3    0    0 -0.16450971397E+03 -0.15277020556E+03  0.15921039566E+02  0.22506812568E+03  0.00000000000E+00 0. -1.
         22    1    3    3    0    0 -0.33641698248E+01 -0.11229964584E+03  0.25455236641E+02  0.11519764393E+03  0.00000000000E+00 0. -1.
</event>
<event>
 7    1  0.5789396E-006  0.6907775E+02  0.7818608E-02  0.1442314E+00
          2   -1    0    0  502    0  0.00000000000E+00  0.00000000000E+00  0.11050299781E+04  0.11050299781E+04  0.00000000000E+00 0. -1.
          1   -1    0    0  501    0 -0.00000000000E+00 -0.00000000000E+00 -0.66782161978E+02  0.66782161978E+02  0.00000000000E+00 0. -1.
         25    2    1    2    0    0  0.18366516819E+01  0.79262834604E+02  0.11208064369E+03  0.18566868413E+03  0.12499927734E+03 0.  0.
          2    1    1    2  501    0  0.30414397731E+02 -0.61098379265E+02  0.97077339672E+01  0.68936838025E+02  0.00000000000E+00 0. -1.
          1    1    1    2  502    0 -0.32251049412E+02 -0.18164455339E+02  0.91645943841E+03  0.91720661788E+03  0.00000000000E+00 0. -1.
         22    1    3    3    0    0 -0.13048997228E+02  0.75725054749E+02  0.44649233857E+01  0.76970746301E+02  0.00000000000E+00 0.  1.
         22    1    3    3    0    0  0.14885648910E+02  0.35377798553E+01  0.10761572031E+03  0.10869793782E+03  0.00000000000E+00 0.  1.
</event>
<event>
 7    1  0.5789396E-006  0.1138713E+03  0.7818608E-02  0.1315267E+00
          2   -1    0    0  502    0  0.00000000000E+00  0.00000000000E+00  0.93601126894E+03  0.93601126894E+03  0.00000000000E+00 0. -1.
          1   -1    0    0  501    0 -0.00000000000E+00 -0.00000000000E+00 -0.28392300165E+03  0.28392300165E+03  0.00000000000E+00 0. -1.
         25    2    1    2    0    0 -0.13902380112E+03 -0.89349464287E+02 -0.17795992405E+03  0.27314177486E+03  0.12500300218E+03 0.  0.
          2    1    1    2  501    0  0.63323388356E+02  0.52839070029E+01 -0.36238531536E+02  0.73150545822E+02  0.00000000000E+00 0. -1.
          1    1    1    2  502    0  0.75700412768E+02  0.84065557284E+02  0.86628672287E+03  0.87364194991E+03  0.00000000000E+00 0. -1.
         22    1    3    3    0    0 -0.12972722574E+03 -0.28749901952E+02 -0.16250880144E+03  0.20991622259E+03  0.00000000000E+00 0. -1.
         22    1    3    3    0    0 -0.92965753802E+01 -0.60599562335E+02 -0.15451122612E+02  0.63225552263E+02  0.00000000000E+00 0. -1.
</event>
<event>
 7    1  0.5789396E-006  0.7632866E+02  0.7818608E-02  0.1454946E+00
          2   -1    0    0  502    0  0.00000000000E+00  0.00000000000E+00  0.29640523642E+03  0.29640523642E+03  0.00000000000E+00 0. -1.
          1   -1    0    0  501    0 -0.00000000000E+00 -0.00000000000E+00 -0.92540863489E+03  0.92540863489E+03  0.00000000000E+00 0. -1.
         25    2    1    2    0    0  0.81908938815E+02 -0.65555580590E+02 -0.34839565948E+02  0.16686815690E+03  0.12499831210E+03 0.  0.
          2    1    1    2  501    0 -0.21762119333E+02  0.21392452198E+02 -0.81822094824E+03  0.81878980636E+03  0.00000000000E+00 0. -1.
          1    1    1    2  502    0 -0.60146819482E+02  0.44163128392E+02  0.22405711572E+03  0.23615590806E+03  0.00000000000E+00 0. -1.
         22    1    3    3    0    0  0.18058765221E+02 -0.43742620695E+02  0.42939515193E+02  0.63901000239E+02  0.00000000000E+00 0.  1.
         22    1    3    3    0    0  0.63850173594E+02 -0.21812959895E+02 -0.77779081141E+02  0.10296715666E+03  0.00000000000E+00 0.  1.
</event>
<event>
 7    1  0.5789396E-006  0.1469938E+03  0.7818608E-02  0.1229996E+00
          2   -1    0    0  502    0  0.00000000000E+00  0.00000000000E+00  0.37962575197E+03  0.37962575197E+03  0.00000000000E+00 0. -1.
          1   -1    0    0  501    0 -0.00000000000E+00 -0.00000000000E+00 -0.10342768859E+04  0.10342768859E+04  0.00000000000E+00 0. -1.
         25    2    1    2    0    0  0.23113345859E+03  0.65024374803E+01 -0.59350384939E+03  0.64910487660E+03  0.12500145684E+03 0.  0.
          2    1    1    2  501    0 -0.11991601782E+03  0.66172495255E+01 -0.39489944929E+03  0.41275805791E+03  0.00000000000E+00 0. -1.
          1    1    1    2  502    0 -0.11121744077E+03 -0.13119687006E+02  0.33375216471E+03  0.35203970339E+03  0.00000000000E+00 0. -1.
         22    1    3    3    0    0  0.11313542275E+03  0.42036771204E+02 -0.17317455509E+03  0.21108325501E+03  0.00000000000E+00 0. -1.
         22    1    3    3    0    0  0.11799803583E+03 -0.35534333723E+02 -0.42032929430E+03  0.43802162159E+03  0.00000000000E+00 0. -1.
</event>
<event>
 7    1  0.5789396E-006  0.6761207E+02  0.7818608E-02  0.1380769E+00
          2   -1    0    0  502    0  0.00000000000E+00  0.00000000000E+00  0.36216774348E+03  0.36216774348E+03  0.00000000000E+00 0. -1.
          1   -1    0    0  501    0 -0.00000000000E+00 -0.00000000000E+00 -0.82161565866E+03  0.82161565866E+03  0.00000000000E+00 0. -1.
         25    2    1    2    0    0 -0.15485468102E+02  0.11697106846E+02 -0.16003138433E+03  0.20398961081E+03  0.12500038127E+03 0.  0.
          2    1    1    2  501    0  0.78907138365E+01 -0.72301224958E+02 -0.63477026940E+03  0.63892333297E+03  0.00000000000E+00 0. -1.
          1    1    1    2  502    0  0.75947542658E+01  0.60604118112E+02  0.33535373855E+03  0.34087045836E+03  0.00000000000E+00 0. -1.
         22    1    3    3    0    0  0.40444604450E+02 -0.11430092178E+01 -0.13579819627E+03  0.14169764504E+03  0.00000000000E+00 0. -1.
         22    1    3    3    0    0 -0.55930072552E+02  0.12840116063E+02 -0.24233188064E+02  0.62291965773E+02  0.00000000000E+00 0. -1.
</event>
<event>
 7    1  0.5789396E-006  0.3940903E+03  0.7818608E-02  0.1119331E+00
          2   -1    0    0  502    0  0.00000000000E+00  0.00000000000E+00  0.20150692470E+04  0.20150692470E+04  0.00000000000E+00 0. -1.
          1   -1    0    0  501    0 -0.00000000000E+00 -0.00000000000E+00 -0.12359316825E+04  0.12359316825E+04  0.00000000000E+00 0. -1.
         25    2    1    2    0    0  0.28413487464E+03 -0.39546480503E+03 -0.41346134442E+03  0.65092655579E+03  0.12502023316E+03 0.  0.
          2    1    1    2  501    0 -0.14383808611E+03  0.30358557685E+02 -0.67557999145E+03  0.69138944300E+03  0.00000000000E+00 0. -1.
          1    1    1    2  502    0 -0.14029678853E+03  0.36510624735E+03  0.18681789004E+04  0.19086849307E+04  0.00000000000E+00 0. -1.
         22    1    3    3    0    0  0.25605550676E+03 -0.35365700987E+03 -0.41234084731E+03  0.60055197738E+03  0.00000000000E+00 0. -1.
         22    1    3    3    0    0  0.28079367886E+02 -0.41807795162E+02 -0.11204971144E+01  0.50374578419E+02  0.00000000000E+00 0. -1.
</event>
<event>
 7    1  0.5789396E-006  0.1524362E+03  0.7818608E-02  0.1329016E+00
          2   -1    0    0  502    0  0.00000000000E+00  0.00000000000E+00  0.47466816589E+03  0.47466816589E+03  0.00000000000E+00 0. -1.
          1   -1    0    0  501    0 -0.00000000000E+00 -0.00000000000E+00 -0.48212888859E+03  0.48212888859E+03  0.00000000000E+00 0. -1.
         25    2    1    2    0    0 -0.93647661739E+02 -0.14898007916E+03  0.12802656757E+02  0.21622691471E+03  0.12500088834E+03 0.  0.
          2    1    1    2  501    0 -0.93909093123E+01  0.40934624352E+02 -0.36368309537E+03  0.36610002254E+03  0.00000000000E+00 0. -1.
          1    1    1    2  502    0  0.10303857105E+03  0.10804545481E+03  0.34341971591E+03  0.37447011724E+03  0.00000000000E+00 0. -1.
         22    1    3    3    0    0  0.18320753299E+02  0.47754285258E+01 -0.14798749051E+02  0.24030349404E+02  0.00000000000E+00 0.  1.
         22    1    3    3    0    0 -0.11196841504E+03 -0.15375550769E+03  0.27601405808E+02  0.19219656530E+03  0.00000000000E+00 0.  1.
</event>
<event>
 7    1  0.5789396E-006  0.6912412E+02  0.7818608E-02  0.1463820E+00
          2   -1    0    0  502    0  0.00000000000E+00  0.00000000000E+00  0.90996064800E+03  0.90996064800E+03  0.00000000000E+00 0. -1.
          1   -1    0    0  501    0 -0.00000000000E+00 -0.00000000000E+00 -0.13297894290E+03  0.13297894290E+03  0.00000000000E+00 0. -1.
         25    2    1    2    0    0  0.51984172101E+02  0.71431242188E+02  0.47497882191E+03  0.49902877693E+03  0.12498024817E+03 0.  0.
          2    1    1    2  501    0 -0.30117340032E+02 -0.95371901795E+01 -0.11628685078E+03  0.12050163415E+03  0.00000000000E+00 0. -1.
          1    1    1    2  502    0 -0.21866832068E+02 -0.61894052009E+02  0.41828973397E+03  0.42340917983E+03  0.00000000000E+00 0. -1.
         22    1    3    3    0    0  0.61292422781E+02  0.79967585208E+02  0.20176459639E+03  0.22552278849E+03  0.00000000000E+00 0.  1.
         22    1    3    3    0    0 -0.93082506806E+01 -0.85363430194E+01  0.27321422552E+03  0.27350598844E+03  0.00000000000E+00 0.  1.
</event>
<event>
 7    1  0.5789396E-006  0.1077704E+03  0.7818608E-02  0.1327299E+00
          2   -1    0    0  502    0  0.00000000000E+00  0.00000000000E+00  0.85181408229E+03  0.85181408229E+03  0.00000000000E+00 0. -1.
          1   -1    0    0  501    0 -0.00000000000E+00 -0.00000000000E+00 -0.12941965687E+03  0.12941965687E+03  0.00000000000E+00 0. -1.
         25    2    1    2    0    0 -0.77857395097E+02 -0.43803381529E+02  0.12358486729E+03  0.19717683304E+03  0.12499989544E+03 0.  0.
          2    1    1    2  501    0 -0.33630885859E+02  0.50063375137E+02 -0.77719040655E+02  0.98374932245E+02  0.00000000000E+00 0. -1.
          1    1    1    2  502    0  0.11148828096E+03 -0.62599936080E+01  0.67652859879E+03  0.68568197387E+03  0.00000000000E+00 0. -1.
         22    1    3    3    0    0  0.30478653548E+02 -0.11977192986E+02  0.44738008006E+01  0.33051722611E+02  0.00000000000E+00 0. -1.
         22    1    3    3    0    0 -0.10833604865E+03 -0.31826188543E+02  0.11911106649E+03  0.16412511043E+03  0.00000000000E+00 0. -1.
</event>
<event>
 7    1  0.5789396E-006  0.1014656E+03  0.7818608E-02  0.1330824E+00
          2   -1    0    0  502    0  0.00000000000E+00  0.00000000000E+00  0.42655090127E+03  0.42655090127E+03  0.00000000000E+00 0. -1.
          1   -1    0    0  501    0 -0.00000000000E+00 -0.00000000000E+00 -0.18273737160E+04  0.18273737160E+04  0.00000000000E+00 0. -1.
         25    2    1    2    0    0 -0.85347735418E+02  0.13196750552E+03  0.19931302845E+03  0.28293149157E+03  0.12499954862E+03 0.  0.
          2    1    1    2  501    0  0.71658383726E+02 -0.71395686485E+02 -0.17788877990E+04  0.17817615075E+04  0.00000000000E+00 0. -1.
          1    1    1    2  502    0  0.13689351692E+02 -0.60571819032E+02  0.17875195585E+03  0.18923161821E+03  0.00000000000E+00 0. -1.
         22    1    3    3    0    0 -0.19217169013E+02  0.13195682965E+03  0.14811316106E+03  0.19929729792E+03  0.00000000000E+00 0. -1.
         22    1    3    3    0    0 -0.66130566404E+02  0.10675864878E-01  0.51199867389E+02  0.83634193650E+02  0.00000000000E+00 0. -1.
</event>
<event>
 7    1  0.5789396E-006  0.5668445E+02  0.7818608E-02  0.1474789E+00
          2   -1    0    0  502    0  0.00000000000E+00  0.00000000000E+00  0.16592323387E+04  0.16592323387E+04  0.00000000000E+00 0. -1.
          1   -1    0    0  501    0 -0.00000000000E+00 -0.00000000000E+00 -0.29027526059E+02  0.29027526059E+02  0.00000000000E+00 0. -1.
         25    2    1    2    0    0  0.72491841723E+02  0.55377615446E+02  0.13628010088E+04  0.13715585834E+04  0.12499844266E+03 0.  0.
          2    1    1    2  501    0 -0.46242160734E+02 -0.31313696149E+02  0.98643129016E+01  0.56711459731E+02  0.00000000000E+00 0. -1.
          1    1    1    2  502    0 -0.26249680990E+02 -0.24063919296E+02  0.25753949091E+03  0.25998982161E+03  0.00000000000E+00 0. -1.
         22    1    3    3    0    0  0.27940710112E+02 -0.15026798469E+02  0.94494084994E+03  0.94547326659E+03  0.00000000000E+00 0. -1.
         22    1    3    3    0    0  0.44551131612E+02  0.70404413915E+02  0.41786015891E+03  0.42608531684E+03  0.00000000000E+00 0. -1.
</event>
<event>
 7    1  0.5789396E-006  0.7324990E+02  0.7818608E-02  0.1476455E+00
          2   -1    0    0  502    0  0.00000000000E+00  0.00000000000E+00  0.18275796940E+04  0.18275796940E+04  0.00000000000E+00 0. -1.
          1   -1    0    0  501    0 -0.00000000000E+00 -0.00000000000E+00 -0.74747277408E+02  0.74747277408E+02  0.00000000000E+00 0. -1.
         25    2    1    2    0    0  0.43176513621E+02  0.46317435730E+02  0.67784970942E+03  0.69218087281E+03  0.12499846379E+03 0.  0.
          2    1    1    2  501    0  0.24308925026E+02 -0.12276292418E+02 -0.63533279594E+02  0.69123865686E+02  0.00000000000E+00 0. -1.
          1    1    1    2  502    0 -0.67485438647E+02 -0.34041143312E+02  0.11385159868E+04  0.11410222329E+04  0.00000000000E+00 0. -1.
         22    1    3    3    0    0 -0.40590934962E+02  0.24836427463E+02  0.34562601589E+03  0.34888653598E+03  0.00000000000E+00 0.  1.
         22    1    3    3    0    0  0.83767448583E+02  0.21481008267E+02  0.33222369353E+03  0.34329433683E+03  0.00000000000E+00 0.  1.
</event>
<event>
 7    1  0.5789396E-006  0.4976332E+02  0.7818608E-02  0.1457281E+00
          2   -1    0    0  502    0  0.00000000000E+00  0.00000000000E+00  0.87906903889E+03  0.87906903889E+03  0.00000000000E+00 0. -1.
          1   -1    0    0  501    0 -0.00000000000E+00 -0.00000000000E+00 -0.10897612418E+04  0.10897612418E+04  0.00000000000E+00 0. -1.
         25    2    1    2    0    0  0.84979644916E+02  0.25480784124E+02 -0.16664058709E+02  0.15418053005E+03  0.12499253812E+03 0.  0.
          2    1    1    2  501    0 -0.39203954573E+02 -0.30169892393E+02 -0.10030756405E+04  0.10042947341E+04  0.00000000000E+00 0. -1.
          1    1    1    2  502    0 -0.45775690343E+02  0.46891082690E+01  0.80904749627E+03  0.81035501652E+03  0.00000000000E+00 0. -1.
         22    1    3    3    0    0  0.24591637183E+02 -0.27108902615E+02  0.41405933441E+02  0.55263844822E+02  0.00000000000E+00 0.  1.
         22    1    3    3    0    0  0.60388007733E+02  0.52589686740E+02 -0.58069992149E+02  0.98916685233E+02  0.00000000000E+00 0.  1.
</event>
<event>
 7    1  0.5789396E-006  0.6581966E+02  0.7818608E-02  0.1488310E+00
          2   -1    0    0  502    0  0.00000000000E+00  0.00000000000E+00  0.13869675934E+03  0.13869675934E+03  0.00000000000E+00 0. -1.
          1   -1    0    0  501    0 -0.00000000000E+00 -0.00000000000E+00 -0.52533453826E+03  0.52533453826E+03  0.00000000000E+00 0. -1.
         25    2    1    2    0    0 -0.79836277511E+02 -0.31089940296E+02 -0.16950077763E+02  0.15249598669E+03  0.12500922057E+03 0.  0.
          2    1    1    2  501    0  0.52867773127E+02  0.38162116100E+02 -0.43534660125E+03  0.44020223961E+03  0.00000000000E+00 0. -1.
          1    1    1    2  502    0  0.26968504384E+02 -0.70721758033E+01  0.65658900095E+02  0.71333071299E+02  0.00000000000E+00 0. -1.
         22    1    3    3    0    0 -0.10306100617E+03 -0.64532765032E+01 -0.40853468854E+02  0.11105053664E+03  0.00000000000E+00 0. -1.
         22    1    3    3    0    0  0.23224728661E+02 -0.24636663793E+02  0.23903391091E+02  0.41445450050E+02  0.00000000000E+00 0. -1.
</event>
<event>
 7    1  0.5789396E-006  0.7457792E+02  0.7818608E-02  0.1352764E+00
          2   -1    0    0  502    0  0.00000000000E+00  0.00000000000E+00  0.17782775619E+03  0.17782775619E+03  0.00000000000E+00 0. -1.
          1   -1    0    0  501    0 -0.00000000000E+00 -0.00000000000E+00 -0.27086789290E+03  0.27086789290E+03  0.00000000000E+00 0. -1.
         25    2    1    2    0    0  0.62677369534E+02  0.96791661915E+01 -0.79861719453E+02  0.16131773101E+03  0.12499350861E+03 0.  0.
          2    1    1    2  501    0 -0.39048470579E+02 -0.75464218719E+02 -0.12759591410E+03  0.15329823436E+03  0.00000000000E+00 0. -1.
          1    1    1    2  502    0 -0.23628898954E+02  0.65785052528E+02  0.11441749684E+03  0.13407968372E+03  0.00000000000E+00 0. -1.
         22    1    3    3    0    0  0.57285826382E+02 -0.32365705163E+02 -0.95640151393E+02  0.11608722296E+03  0.00000000000E+00 0. -1.
         22    1    3    3    0    0  0.53915431517E+01  0.42044871355E+02  0.15778431940E+02  0.45230508059E+02  0.00000000000E+00 0. -1.
</event>
<event>
 7    1  0.5789396E-006  0.8664326E+02  0.7818608E-02  0.1446884E+00
          2   -1    0    0  502    0  0.00000000000E+00  0.00000000000E+00  0.78218786682E+03  0.78218786682E+03  0.00000000000E+00 0. -1.
          1   -1    0    0  501    0 -0.00000000000E+00 -0.00000000000E+00 -0.53506458070E+03  0.53506458070E+03  0.00000000000E+00 0. -1.
         25    2    1    2    0    0  0.53998748793E+02  0.50456428265E+02  0.28883671888E+03  0.32328602789E+03  0.12500195849E+03 0.  0.
          2    1    1    2  501    0 -0.78832479325E+02 -0.36420020048E+02 -0.51376574048E+03  0.52105298555E+03  0.00000000000E+00 0. -1.
          1    1    1    2  502    0  0.24833730532E+02 -0.14036408218E+02  0.47205230771E+03  0.47291343409E+03  0.00000000000E+00 0. -1.
         22    1    3    3    0    0  0.22718094130E+02  0.90968252478E+02  0.17727761472E+03  0.20054597338E+03  0.00000000000E+00 0. -1.
         22    1    3    3    0    0  0.31280654663E+02 -0.40511824213E+02  0.11155910417E+03  0.12274005451E+03  0.00000000000E+00 0. -1.
</event>
<event>
 7    1  0.5789396E-006  0.4491886E+02  0.7818608E-02  0.1492094E+00
          2   -1    0    0  502    0  0.00000000000E+00  0.00000000000E+00  0.15462236957E+04  0.15462236957E+04  0.00000000000E+00 0. -1.
          1   -1    0    0  501    0 -0.00000000000E+00 -0.00000000000E+00 -0.65479636790E+02  0.65479636790E+02  0.00000000000E+00 0. -1.
         25    2    1    2    0    0  0.16933885245E+02 -0.78326090815E+02  0.89949061976E+03  0.91166361275E+03  0.12500173921E+03 0.  0.
          2    1    1    2  501    0 -0.13806911427E+02  0.37318264841E+02 -0.51985956393E+02  0.65466200103E+02  0.00000000000E+00 0. -1.
          1    1    1    2  502    0 -0.31269738172E+01  0.41007825974E+02  0.63323939556E+03  0.63457351965E+03  0.00000000000E+00 0. -1.
         22    1    3    3    0    0  0.30247503906E+02 -0.56481121059E+02  0.16919113834E+03  0.18091619557E+03  0.00000000000E+00 0. -1.
         22    1    3    3    0    0 -0.13313618661E+02 -0.21844969756E+02  0.73029948142E+03  0.73074741718E+03  0.00000000000E+00 0. -1.
</event>
<event>
 7    1  0.5789396E-006  0.8721448E+02  0.7818608E-02  0.1346959E+00
          2   -1    0    0  502    0  0.00000000000E+00  0.00000000000E+00  0.56770506117E+03  0.56770506117E+03  0.00000000000E+00 0. -1.
          1   -1    0    0  501    0 -0.00000000000E+00 -0.00000000000E+00 -0.66525810988E+02  0.66525810988E+02  0.00000000000E+00 0. -1.
         25    2    1    2    0    0 -0.93712810612E+02  0.39733920739E+02  0.29265991155E+03  0.33411836699E+03  0.12499753601E+03 0.  0.
          2    1    1    2  501    0  0.92856897543E+01 -0.62117425194E+02 -0.11082727694E+02  0.63777938193E+02  0.00000000000E+00 0. -1.
          1    1    1    2  502    0  0.84427120858E+02  0.22383504455E+02  0.21960206634E+03  0.23633456697E+03  0.00000000000E+00 0. -1.
         22    1    3    3    0    0  0.17417222574E+02  0.44365370916E+02  0.11535936584E+03  0.12481758316E+03  0.00000000000E+00 0. -1.
         22    1    3    3    0    0 -0.11113003319E+03 -0.46314501770E+01  0.17730054570E+03  0.20930078383E+03  0.00000000000E+00 0. -1.
</event>
<event>
 7    1  0.5789396E-006  0.9228234E+02  0.7818608E-02  0.1319379E+00
          2   -1    0    0  502    0  0.00000000000E+00  0.00000000000E+00  0.79488883003E+03  0.79488883003E+03  0.00000000000E+00 0. -1.
          1   -1    0    0  501    0 -0.00000000000E+00 -0.00000000000E+00 -0.38744857014E+03  0.38744857014E+03  0.00000000000E+00 0. -1.
         25    2    1    2    0    0  0.32062310804E+02  0.15410911947E+03  0.35282851876E+03  0.40606014447E+03  0.12497705709E+03 0.  0.
          2    1    1    2  501    0 -0.96718840072E+01 -0.74948043342E+02 -0.35271824990E+03  0.36072277216E+03  0.00000000000E+00 0. -1.
          1    1    1    2  502    0 -0.22390426797E+02 -0.79161076126E+02  0.40732999104E+03  0.41555448353E+03  0.00000000000E+00 0. -1.
         22    1    3    3    0    0  0.26661332531E+02 -0.15480390478E+02  0.65026728260E+02  0.71964884005E+02  0.00000000000E+00 0.  1.
         22    1    3    3    0    0  0.54009782734E+01  0.16958950995E+03  0.28780179050E+03  0.33409526046E+03  0.00000000000E+00 0.  1.
</event>
<event>
 7    1  0.8083746E-006  0.4973726E+02  0.7818608E-02  0.1468912E+00
          2   -1    0    0  502    0  0.00000000000E+00  0.00000000000E+00  0.92568820864E+03  0.92568820864E+03  0.00000000000E+00 0. -1.
          1   -1    0    0  501    0 -0.00000000000E+00 -0.00000000000E+00 -0.85898188754E+03  0.85898188754E+03  0.00000000000E+00 0. -1.
         25    2    1    2    0    0 -0.20588701873E+02  0.20531486616E+02 -0.22372401798E+03  0.25791850901E+03  0.12499633786E+03 0.  0.
          2    1    1    2  501    0 -0.27961357243E+02 -0.31773530596E+02 -0.61675145375E+03  0.61820203045E+03  0.00000000000E+00 0. -1.
          1    1    1    2  502    0  0.48550059116E+02  0.11242043980E+02  0.90718179283E+03  0.90854955673E+03  0.00000000000E+00 0. -1.
         22    1    3    3    0    0 -0.38809003693E+02 -0.37443453584E+02 -0.48765913152E+02  0.72706707183E+02  0.00000000000E+00 0. -1.
         22    1    3    3    0    0  0.18220301819E+02  0.57974940200E+02 -0.17495810483E+03  0.18521180182E+03  0.00000000000E+00 0. -1.
</event>
<event>
 7    1  0.5789396E-006  0.5108842E+02  0.7818608E-02  0.1440263E+00
          2   -1    0    0  502    0  0.00000000000E+00  0.00000000000E+00  0.72053251781E+03  0.72053251781E+03  0.00000000000E+00 0. -1.
          1   -1    0    0  501    0 -0.00000000000E+00 -0.00000000000E+00 -0.48564786835E+03  0.48564786835E+03  0.00000000000E+00 0. -1.
         25    2    1    2    0    0 -0.42682467862E+02  0.35204545109E+02 -0.75310098500E+01  0.13690702302E+03  0.12500265510E+03 0.  0.
          2    1    1    2  501    0 -0.59098730404E+01 -0.50978287780E+02 -0.41083505922E+03  0.41402796803E+03  0.00000000000E+00 0. -1.
          1    1    1    2  502    0  0.48592340903E+02  0.15773742670E+02  0.65325071853E+03  0.65524539511E+03  0.00000000000E+00 0. -1.
         22    1    3    3    0    0 -0.60712113680E+02 -0.30762857678E+02 -0.79089638439E+01  0.68519091275E+02  0.00000000000E+00 0. -1.
         22    1    3    3    0    0  0.18029645818E+02  0.65967402787E+02  0.37795399386E+00  0.68387931743E+02  0.00000000000E+00 0. -1.
</event>
<event>
 7    1  0.5789396E-006  0.1584091E+03  0.7818608E-02  0.1412640E+00
          2   -1    0    0  502    0  0.00000000000E+00  0.00000000000E+00  0.30910110126E+04  0.30910110126E+04  0.00000000000E+00 0. -1.
          1   -1    0    0  501    0 -0.00000000000E+00 -0.00000000000E+00 -0.31548155981E+03  0.31548155981E+03  0.00000000000E+00 0. -1.
         25    2    1    2    0    0  0.15711219400E+01 -0.16626661182E+03 -0.93300691791E+01  0.20823790160E+03  0.12501567438E+03 0.  0.
          2    1    1    2  501    0 -0.18185047756E+02  0.88626754159E+01 -0.20410362048E+03  0.20510370759E+03  0.00000000000E+00 0. -1.
          1    1    1    2  502    0  0.16613925816E+02  0.15740393641E+03  0.29889631425E+04  0.29931509632E+04  0.00000000000E+00 0. -1.
         22    1    3    3    0    0  0.16280722661E+02 -0.29102045346E+02 -0.53799943332E+02  0.63296325929E+02  0.00000000000E+00 0.  1.
         22    1    3    3    0    0 -0.14709600721E+02 -0.13716456648E+03  0.44469874152E+02  0.14494157567E+03  0.00000000000E+00 0.  1.
</event>
<event>
 7    1  0.5789396E-006  0.1809603E+03  0.7818608E-02  0.1251690E+00
          2   -1    0    0  502    0  0.00000000000E+00  0.00000000000E+00  0.19885581134E+03  0.19885581134E+03  0.00000000000E+00 0. -1.
          1   -1    0    0  501    0 -0.00000000000E+00 -0.00000000000E+00 -0.83456056354E+03  0.83456056354E+03  0.00000000000E+00 0. -1.
         25    2    1    2    0    0 -0.87276345866E+02 -0.77512081085E+02  0.69748521469E+02  0.18470001391E+03  0.12499582244E+03 0.  0.
          2    1    1    2  501    0  0.15533176801E+03  0.10392984538E+03 -0.74333498509E+03  0.76647000657E+03  0.00000000000E+00 0. -1.
          1    1    1    2  502    0 -0.68055422142E+02 -0.26417764295E+02  0.37881711413E+02  0.82246354405E+02  0.00000000000E+00 0. -1.
         22    1    3    3    0    0 -0.10714322285E+03 -0.71372323620E+02  0.19355909606E+02  0.13018575198E+03  0.00000000000E+00 0.  1.
         22    1    3    3    0    0  0.19866876987E+02 -0.61397574650E+01  0.50392611863E+02  0.54514261926E+02  0.00000000000E+00 0.  1.
</event>
<event>
 7    1  0.5789396E-006  0.4725179E+02  0.7818608E-02  0.1538925E+00
          2   -1    0    0  502    0  0.00000000000E+00  0.00000000000E+00  0.18251850854E+03  0.18251850854E+03  0.00000000000E+00 0. -1.
          1   -1    0    0  501    0 -0.00000000000E+00 -0.00000000000E+00 -0.20830795625E+04  0.20830795625E+04  0.00000000000E+00 0. -1.
         25    2    1    2    0    0 -0.43376936631E+02  0.57591109719E+02 -0.14454172082E+01  0.14431162954E+03  0.12500185054E+03 0.  0.
          2    1    1    2  501    0  0.11067398699E+02 -0.25285363929E+02 -0.20054039369E+04  0.20055938739E+04  0.00000000000E+00 0. -1.
          1    1    1    2  502    0  0.32309537932E+02 -0.32305745790E+02  0.10628830014E+03  0.11569256760E+03  0.00000000000E+00 0. -1.
         22    1    3    3    0    0 -0.41987835882E+02 -0.27888272216E+02 -0.24099172397E+02  0.55870423298E+02  0.00000000000E+00 0.  1.
         22    1    3    3    0    0 -0.13891007486E+01  0.85479381935E+02  0.22653755189E+02  0.88441206239E+02  0.00000000000E+00 0.  1.
</event>
<event>
 7    1  0.5789396E-006  0.1179241E+03  0.7818608E-02  0.1324036E+00
          2   -1    0    0  502    0  0.00000000000E+00  0.00000000000E+00  0.36721322304E+03  0.36721322304E+03  0.00000000000E+00 0. -1.
          1   -1    0    0  501    0 -0.00000000000E+00 -0.00000000000E+00 -0.33399536656E+04  0.33399536656E+04  0.00000000000E+00 0. -1.
         25    2    1    2    0    0  0.12169729373E+03 -0.11880143193E+03 -0.67230052642E+03  0.70465460643E+03  0.12500441994E+03 0.  0.
          2    1    1    2  501    0 -0.50632050772E+02  0.25595346367E+02 -0.26413793553E+04  0.26419885739E+04  0.00000000000E+00 0. -1.
          1    1    1    2  502    0 -0.71065242961E+02  0.93206085566E+02  0.34093943909E+03  0.36052370833E+03  0.00000000000E+00 0. -1.
         22    1    3    3    0    0 -0.10990231088E+02 -0.78936535714E+00 -0.19631618601E+03  0.19662515904E+03  0.00000000000E+00 0. -1.
         22    1    3    3    0    0  0.13268752482E+03 -0.11801206658E+03 -0.47598434041E+03  0.50802944739E+03  0.00000000000E+00 0. -1.
</event>
<event>
 7    1  0.5789396E-006  0.5447269E+02  0.7818608E-02  0.1440852E+00
          2   -1    0    0  502    0  0.00000000000E+00  0.00000000000E+00  0.15861507562E+04  0.15861507562E+04  0.00000000000E+00 0. -1.
          1   -1    0    0  501    0 -0.00000000000E+00 -0.00000000000E+00 -0.96412876790E+02  0.96412876790E+02  0.00000000000E+00 0. -1.
         25    2    1    2    0    0 -0.25065870467E+02  0.85541117728E+02  0.26535258258E+03  0.30656555961E+03  0.12499947429E+03 0.  0.
          2    1    1    2  501    0 -0.11437076669E+02 -0.46054392776E+02 -0.67765771595E+02  0.82728553817E+02  0.00000000000E+00 0. -1.
          1    1    1    2  502    0  0.36502947136E+02 -0.39486724952E+02  0.12921510684E+04  0.12932695196E+04  0.00000000000E+00 0. -1.
         22    1    3    3    0    0 -0.36472898201E+02  0.84293113193E+02  0.27601896665E+03  0.29089873012E+03  0.00000000000E+00 0.  1.
         22    1    3    3    0    0  0.11407027733E+02  0.12480045358E+01 -0.10666384073E+02  0.15666829488E+02  0.00000000000E+00 0.  1.
</event>
<event>
 7    1  0.5789396E-006  0.9148912E+02  0.7818608E-02  0.1357254E+00
          2   -1    0    0  502    0  0.00000000000E+00  0.00000000000E+00  0.33463500407E+03  0.33463500407E+03  0.00000000000E+00 0. -1.
          1   -1    0    0  501    0 -0.00000000000E+00 -0.00000000000E+00 -0.17817709143E+04  0.17817709143E+04  0.00000000000E+00 0. -1.
         25    2    1    2    0    0 -0.37672637487E+02  0.24366386580E+02 -0.55066541990E+03  0.56645460023E+03  0.12500184418E+03 0.  0.
          2    1    1    2  501    0 -0.11141680275E+02  0.53710567461E+02 -0.12160928982E+04  0.12173294128E+04  0.00000000000E+00 0. -1.
          1    1    1    2  502    0  0.48814317762E+02 -0.78076954041E+02  0.31962240784E+03  0.33262190542E+03  0.00000000000E+00 0. -1.
         22    1    3    3    0    0 -0.40750902380E+02 -0.20782300280E+02 -0.48232526425E+03  0.48448962898E+03  0.00000000000E+00 0.  1.
         22    1    3    3    0    0  0.30782648930E+01  0.45148686861E+02 -0.68340155643E+02  0.81964971258E+02  0.00000000000E+00 0.  1.
</event>
<event>
 7    1  0.5789396E-006  0.6990210E+02  0.7818608E-02  0.1369391E+00
          2   -1    0    0  502    0  0.00000000000E+00  0.00000000000E+00  0.17626460210E+04  0.17626460210E+04  0.00000000000E+00 0. -1.
          1   -1    0    0  501    0 -0.00000000000E+00 -0.00000000000E+00 -0.28340636291E+02  0.28340636291E+02  0.00000000000E+00 0. -1.
         25    2    1    2    0    0 -0.15057798025E+02 -0.14373806864E+02  0.42818321021E+03  0.44654071675E+03  0.12499762638E+03 0.  0.
          2    1    1    2  501    0  0.68039442680E+02 -0.31224976655E+02  0.58870770183E+02  0.95237243289E+02  0.00000000000E+00 0. -1.
          1    1    1    2  502    0 -0.52981644655E+02  0.45598783519E+02  0.12472514044E+04  0.12492086973E+04  0.00000000000E+00 0. -1.
         22    1    3    3    0    0  0.40852118889E+02 -0.21057040192E+02  0.68582251775E+02  0.82557978524E+02  0.00000000000E+00 0.  1.
         22    1    3    3    0    0 -0.55909916914E+02  0.66832333278E+01  0.35960095843E+03  0.36398273822E+03  0.00000000000E+00 0.  1.
</event>
<event>
 7    1  0.5789396E-006  0.1026616E+03  0.7818608E-02  0.1322306E+00
          2   -1    0    0  502    0  0.00000000000E+00  0.00000000000E+00  0.19018705910E+04  0.19018705910E+04  0.00000000000E+00 0. -1.
          1   -1    0    0  501    0 -0.00000000000E+00 -0.00000000000E+00 -0.12214254734E+04  0.12214254734E+04  0.00000000000E+00 0. -1.
         25    2    1    2    0    0 -0.14045339217E+03  0.66732206671E+02 -0.22077038765E+02  0.20073412697E+03  0.12500580511E+03 0.  0.
          2    1    1    2  501    0  0.10050230481E+03 -0.13973888198E+02 -0.11070949196E+04  0.11117351950E+04  0.00000000000E+00 0. -1.
          1    1    1    2  502    0  0.39951087360E+02 -0.52758318473E+02  0.18096170760E+04  0.18108267425E+04  0.00000000000E+00 0. -1.
         22    1    3    3    0    0  0.22324268102E+02  0.36323729450E+01  0.71575275964E+01  0.23723348853E+02  0.00000000000E+00 0. -1.
         22    1    3    3    0    0 -0.16277766027E+03  0.63099833726E+02 -0.29234566361E+02  0.17701077812E+03  0.00000000000E+00 0. -1.
</event>
<event>
 7    1  0.5789396E-006  0.3224486E+03  0.7818608E-02  0.1208467E+00
          2   -1    0    0  502    0  0.00000000000E+00  0.00000000000E+00  0.51484751348E+03  0.51484751348E+03  0.00000000000E+00 0. -1.
          1   -1    0    0  501    0 -0.00000000000E+00 -0.00000000000E+00 -0.19080943172E+04  0.19080943172E+04  0.00000000000E+00 0. -1.
         25    2    1    2    0    0 -0.22588117636E+03 -0.17745891522E+03 -0.13877615483E+03  0.34262680728E+03  0.12498134057E+03 0.  0.
          2    1    1    2  501    0 -0.62926118137E+02  0.11774360017E+02 -0.15995284945E+04  0.16008090881E+04  0.00000000000E+00 0. -1.
          1    1    1    2  502    0  0.28880729449E+03  0.16568455521E+03  0.34505784558E+03  0.47950593530E+03  0.00000000000E+00 0. -1.
         22    1    3    3    0    0 -0.81444760674E+02 -0.23321408206E+02  0.84630571325E+01  0.85139652677E+02  0.00000000000E+00 0.  1.
         22    1    3    3    0    0 -0.14443641568E+03 -0.15413750702E+03 -0.14723921197E+03  0.25748715460E+03  0.00000000000E+00 0.  1.
</event>
<event>
 7    1  0.5789396E-006  0.5365352E+02  0.7818608E-02  0.1426690E+00
          2   -1    0    0  502    0  0.00000000000E+00  0.00000000000E+00  0.15527116356E+04  0.15527116356E+04  0.00000000000E+00 0. -1.
          1   -1    0    0  501    0 -0.00000000000E+00 -0.00000000000E+00 -0.17980293496E+03  0.17980293496E+03  0.00000000000E+00 0. -1.
         25    2    1    2    0    0 -0.28158712216E+02 -0.38661393787E+02  0.44885617822E+03  0.46838435630E+03  0.12499768018E+03 0.  0.
          2    1    1    2  501    0 -0.27107646823E+02  0.46302007065E+02 -0.16507454474E+03  0.17357507222E+03  0.00000000000E+00 0. -1.
          1    1    1    2  502    0  0.55266359040E+02 -0.76406132783E+01  0.10891270672E+04  0.10905551421E+04  0.00000000000E+00 0. -1.
         22    1    3    3    0    0  0.29285178602E+02 -0.58466149703E+01  0.33779571268E+03  0.33911317889E+03  0.00000000000E+00 0.  1.
         22    1    3    3    0    0 -0.57443890818E+02 -0.32814778816E+02  0.11106046554E+03  0.12927117740E+03  0.00000000000E+00 0.  1.
</event>
<event>
 7    1  0.5789396E-006  0.5774625E+02  0.7818608E-02  0.1437122E+00
          2   -1    0    0  502    0  0.00000000000E+00  0.00000000000E+00  0.52821301201E+03  0.52821301201E+03  0.00000000000E+00 0. -1.
          1   -1    0    0  501    0 -0.00000000000E+00 -0.00000000000E+00 -0.19868729275E+03  0.19868729275E+03  0.00000000000E+00 0. -1.
         25    2    1    2    0    0 -0.23952791387E+02 -0.79452420194E+02  0.75130374892E+02  0.16779549382E+03  0.12499732487E+03 0.  0.
          2    1    1    2  501    0  0.43066418784E+02  0.37577897061E+02 -0.14562752596E+03  0.15644229317E+03  0.00000000000E+00 0. -1.
          1    1    1    2  502    0 -0.19113627397E+02  0.41874523133E+02  0.40002287033E+03  0.40266251778E+03  0.00000000000E+00 0. -1.
         22    1    3    3    0    0 -0.14965248674E+02  0.22037835989E+02 -0.16021153327E+02  0.31085402312E+02  0.00000000000E+00 0. -1.
         22    1    3    3    0    0 -0.89875427135E+01 -0.10149025618E+03  0.91151528219E+02  0.13671009151E+03  0.00000000000E+00 0. -1.
</event>
<event>
 7    1  0.5789396E-006  0.6584653E+02  0.7818608E-02  0.1425898E+00
          2   -1    0    0  502    0  0.00000000000E+00  0.00000000000E+00  0.27847143027E+04  0.27847143027E+04  0.00000000000E+00 0. -1.
          1   -1    0    0  501    0 -0.00000000000E+00 -0.00000000000E+00 -0.62973256817E+03  0.62973256817E+03  0.00000000000E+00 0. -1.
         25    2    1    2    0    0 -0.78939141907E+02 -0.36166656977E+02  0.13903230899E+03  0.20614272892E+03  0.12500170615E+03 0.  0.
          2    1    1    2  501    0  0.13458742066E+02  0.41833177276E+02 -0.59495342526E+03  0.59657416193E+03  0.00000000000E+00 0. -1.
          1    1    1    2  502    0  0.65480399842E+02 -0.56665202983E+01  0.26109028508E+04  0.26117299800E+04  0.00000000000E+00 0. -1.
         22    1    3    3    0    0 -0.11166040491E+03 -0.41305568682E+02  0.10730568221E+03  0.16027696486E+03  0.00000000000E+00 0.  1.
         22    1    3    3    0    0  0.32721263006E+02  0.51389117046E+01  0.31726626773E+02  0.45865764057E+02  0.00000000000E+00 0.  1.
</event>
<event>
 7    1  0.5789396E-006  0.8733449E+02  0.7818608E-02  0.1333250E+00
          2   -1    0    0  502    0  0.00000000000E+00  0.00000000000E+00  0.22647102930E+04  0.22647102930E+04  0.00000000000E+00 0. -1.
          1   -1    0    0  501    0 -0.00000000000E+00 -0.00000000000E+00 -0.11741278237E+02  0.11741278237E+02  0.00000000000E+00 0. -1.
         25    2    1    2    0    0  0.70309244110E+02  0.91326883742E+02  0.10014469611E+04  0.10157776886E+04  0.12499722918E+03 0.  0.
          2    1    1    2  501    0 -0.76264909288E+02 -0.20949466937E+02  0.56067218940E+03  0.56622303073E+03  0.00000000000E+00 0. -1.
          1    1    1    2  502    0  0.59556651783E+01 -0.70377416805E+02  0.69084986423E+03  0.69445085186E+03  0.00000000000E+00 0. -1.
         22    1    3    3    0    0  0.31046481958E+01  0.56447333622E+01 -0.17598094490E+01  0.66782321349E+01  0.00000000000E+00 0. -1.
         22    1    3    3    0    0  0.67204595914E+02  0.85682150380E+02  0.10032067706E+04  0.10090994565E+04  0.00000000000E+00 0. -1.
</event>
<event>
 7    1  0.5789396E-006  0.1632946E+03  0.7818608E-02  0.1277501E+00
          2   -1    0    0  502    0  0.00000000000E+00  0.00000000000E+00  0.10531377768E+04  0.10531377768E+04  0.00000000000E+00 0. -1.
          1   -1    0    0  501    0 -0.00000000000E+00 -0.00000000000E+00 -0.10217537534E+04  0.10217537534E+04  0.00000000000E+00 0. -1.
         25    2    1    2    0    0 -0.14205001515E+03 -0.10485779112E+03 -0.39854890040E+03  0.45347554923E+03  0.12500193827E+03 0.  0.
          2    1    1    2  501    0  0.15529254002E+03  0.43375436748E+02 -0.58383956596E+03  0.60569451069E+03  0.00000000000E+00 0. -1.
          1    1    1    2  502    0 -0.13242524873E+02  0.61482354371E+02  0.10137724897E+04  0.10157214703E+04  0.00000000000E+00 0. -1.
         22    1    3    3    0    0 -0.75347978285E+02 -0.11729557216E+03 -0.20113054930E+03  0.24472242836E+03  0.00000000000E+00 0.  1.
         22    1    3    3    0    0 -0.66702036863E+02  0.12437781043E+02 -0.19741835111E+03  0.20875312087E+03  0.00000000000E+00 0.  1.
</event>
<event>
 7    1  0.5789396E-006  0.8387803E+02  0.7818608E-02  0.1381685E+00
          2   -1    0    0  502    0  0.00000000000E+00  0.00000000000E+00  0.15995992892E+03  0.15995992892E+03  0.00000000000E+00 0. -1.
          1   -1    0    0  501    0 -0.00000000000E+00 -0.00000000000E+00 -0.70158627987E+03  0.70158627987E+03  0.00000000000E+00 0. -1.
         25    2    1    2    0    0  0.73681052348E+02  0.10513724993E+03  0.32969609901E+00  0.17918608120E+03  0.12499921679E+03 0.  0.
          2    1    1    2  501    0 -0.35671802555E+02 -0.74422952041E+02 -0.60047505577E+03  0.60612007547E+03  0.00000000000E+00 0. -1.
          1    1    1    2  502    0 -0.38009249793E+02 -0.30714297890E+02  0.58519008720E+02  0.76240052114E+02  0.00000000000E+00 0. -1.
         22    1    3    3    0    0  0.75659532848E+02  0.12981967418E+03  0.13987173141E+02  0.15090776563E+03  0.00000000000E+00 0.  1.
         22    1    3    3    0    0 -0.19784805005E+01 -0.24682424254E+02 -0.13657477042E+02  0.28278315567E+02  0.00000000000E+00 0.  1.
</event>
<event>
 7    1  0.5789396E-006  0.5385268E+02  0.7818608E-02  0.1453787E+00
          2   -1    0    0  502    0  0.00000000000E+00  0.00000000000E+00  0.30446010613E+03  0.30446010613E+03  0.00000000000E+00 0. -1.
          1   -1    0    0  501    0 -0.00000000000E+00 -0.00000000000E+00 -0.85436091167E+03  0.85436091167E+03  0.00000000000E+00 0. -1.
         25    2    1    2    0    0  0.41471353250E+02  0.33798092996E+02  0.14374585094E+03  0.19786462454E+03  0.12500142301E+03 0.  0.
          2    1    1    2  501    0 -0.36989355139E+02  0.23120885340E+02 -0.82059816530E+03  0.82175673811E+03  0.00000000000E+00 0. -1.
          1    1    1    2  502    0 -0.44819981119E+01 -0.56918978336E+02  0.12695150882E+03  0.13919965515E+03  0.00000000000E+00 0. -1.
         22    1    3    3    0    0 -0.40017901711E+01  0.26302691443E+02 -0.16376676678E+02  0.31241661939E+02  0.00000000000E+00 0. -1.
         22    1    3    3    0    0  0.45473143421E+02  0.74954015532E+01  0.16012252762E+03  0.16662296260E+03  0.00000000000E+00 0. -1.
</event>
<event>
 7    1  0.5789396E-006  0.4846949E+02  0.7818608E-02  0.1505632E+00
          2   -1    0    0  502    0  0.00000000000E+00  0.00000000000E+00  0.23438381261E+04  0.23438381261E+04  0.00000000000E+00 0. -1.
          1   -1    0    0  501    0 -0.00000000000E+00 -0.00000000000E+00 -0.49547472516E+03  0.49547472516E+03  0.00000000000E+00 0. -1.
         25    2    1    2    0    0  0.89178039112E+01 -0.27621837567E+02  0.79481190623E+03  0.80510494784E+03  0.12500207041E+03 0.  0.
          2    1    1    2  501    0 -0.27419560824E+02 -0.19411324835E+02 -0.48933847815E+03  0.49049034450E+03  0.00000000000E+00 0. -1.
          1    1    1    2  502    0  0.18501756913E+02  0.47033162402E+02  0.15428899729E+04  0.15437175590E+04  0.00000000000E+00 0. -1.
         22    1    3    3    0    0  0.18096237106E+01 -0.68042185274E+02  0.26140167132E+03  0.27011821021E+03  0.00000000000E+00 0.  1.
         22    1    3    3    0    0  0.71081802006E+01  0.40420347707E+02  0.53341023491E+03  0.53498673763E+03  0.00000000000E+00 0.  1.
</event>
<event>
 7    1  0.5789396E-006  0.8673255E+02  0.7818608E-02  0.1340095E+00
          2   -1    0    0  502    0  0.00000000000E+00  0.00000000000E+00  0.13268747729E+03  0.13268747729E+03  0.00000000000E+00 0. -1.
          1   -1    0    0  501    0 -0.00000000000E+00 -0.00000000000E+00 -0.52447339792E+03  0.52447339792E+03  0.00000000000E+00 0. -1.
         25    2    1    2    0    0 -0.26878852173E+02  0.26574466608E+02  0.37723157693E+02  0.13592892610E+03  0.12499984541E+03 0.  0.
          2    1    1    2  501    0 -0.39884161377E+02  0.77018106519E+02 -0.37772036633E+03  0.38755026797E+03  0.00000000000E+00 0. -1.
          1    1    1    2  502    0  0.66763013549E+02 -0.10359257313E+03 -0.51788711990E+02  0.13368168115E+03  0.00000000000E+00 0. -1.
         22    1    3    3    0    0 -0.13885702364E+02  0.16725275654E+02 -0.45870175517E+02  0.50760423341E+02  0.00000000000E+00 0.  1.
         22    1    3    3    0    0 -0.12993149808E+02  0.98491909542E+01  0.83593333210E+02  0.85168502755E+02  0.00000000000E+00 0.  1.
</event>
<event>
 7    1  0.5789396E-006  0.8504360E+02  0.7818608E-02  0.1450509E+00
          2   -1    0    0  502    0  0.00000000000E+00  0.00000000000E+00  0.73947704715E+03  0.73947704715E+03  0.00000000000E+00 0. -1.
          1   -1    0    0  501    0 -0.00000000000E+00 -0.00000000000E+00 -0.10177322936E+03  0.10177322936E+03  0.00000000000E+00 0. -1.
         25    2    1    2    0    0  0.15088699521E+01 -0.10894901936E+03  0.56929609800E+02  0.17532284719E+03  0.12499981906E+03 0.  0.
          2    1    1    2  501    0  0.11213026201E+02  0.25978901826E+02 -0.34689514269E+02  0.44766032847E+02  0.00000000000E+00 0. -1.
          1    1    1    2  502    0 -0.12721896153E+02  0.82970117535E+02  0.61546372226E+03  0.62116139647E+03  0.00000000000E+00 0. -1.
         22    1    3    3    0    0  0.52919108599E+02 -0.27272702085E+02 -0.64210818712E+01  0.59878732671E+02  0.00000000000E+00 0. -1.
         22    1    3    3    0    0 -0.51410238647E+02 -0.81676317276E+02  0.63350691671E+02  0.11544411452E+03  0.00000000000E+00 0. -1.
</event>
<event>
 7    1  0.5789396E-006  0.5965518E+02  0.7818608E-02  0.1458499E+00
          2   -1    0    0  502    0  0.00000000000E+00  0.00000000000E+00  0.27119346005E+03  0.27119346005E+03  0.00000000000E+00 0. -1.
          1   -1    0    0  501    0 -0.00000000000E+00 -0.00000000000E+00 -0.14429884307E+03  0.14429884307E+03  0.00000000000E+00 0. -1.
         25    2    1    2    0    0  0.70193618748E+02 -0.61736563528E+02  0.77712908558E+02  0.17436265416E+03  0.12499796647E+03 0.  0.
          2    1    1    2  501    0 -0.31144954388E+02  0.21851460070E+02 -0.86455339478E+02  0.94456446128E+02  0.00000000000E+00 0. -1.
          1    1    1    2  502    0 -0.39048664359E+02  0.39885103459E+02  0.13563704790E+03  0.14667320283E+03  0.00000000000E+00 0. -1.
         22    1    3    3    0    0 -0.10496194191E+02 -0.69679082356E+02  0.15461652891E+02  0.72141578306E+02  0.00000000000E+00 0. -1.
         22    1    3    3    0    0  0.80689812938E+02  0.79425188277E+01  0.62251255668E+02  0.10222107586E+03  0.00000000000E+00 0. -1.
</event>
<event>
 7    1  0.5789396E-006  0.6765337E+02  0.7818608E-02  0.1491926E+00
          2   -1    0    0  502    0  0.00000000000E+00  0.00000000000E+00  0.87020990125E+03  0.87020990125E+03  0.00000000000E+00 0. -1.
          1   -1    0    0  501    0 -0.00000000000E+00 -0.00000000000E+00 -0.94189598579E+02  0.94189598579E+02  0.00000000000E+00 0. -1.
         25    2    1    2    0    0  0.65518235954E+02  0.20476809695E+02  0.34988987862E+02  0.14683497167E+03  0.12499736260E+03 0.  0.
          2    1    1    2  501    0 -0.52891013502E+02 -0.43717943478E+02 -0.70812764971E+01  0.68984508175E+02  0.00000000000E+00 0. -1.
          1    1    1    2  502    0 -0.12627222452E+02  0.23241133783E+02  0.74811259130E+03  0.74858001998E+03  0.00000000000E+00 0. -1.
         22    1    3    3    0    0  0.32782924707E+02 -0.18199204438E+02 -0.40962778174E+02  0.55532696587E+02  0.00000000000E+00 0. -1.
         22    1    3    3    0    0  0.32735311247E+02  0.38676014133E+02  0.75951766036E+02  0.91302275084E+02  0.00000000000E+00 0. -1.
</event>
<event>
 7    1  0.5789396E-006  0.4806787E+02  0.7818608E-02  0.1520571E+00
          2   -1    0    0  502    0  0.00000000000E+00  0.00000000000E+00  0.18073772310E+04  0.18073772310E+04  0.00000000000E+00 0. -1.
          1   -1    0    0  501    0 -0.00000000000E+00 -0.00000000000E+00 -0.21946176170E+02  0.21946176170E+02  0.00000000000E+00 0. -1.
         25    2    1    2    0    0 -0.22505687669E+02  0.56352584888E+02  0.66952682174E+03  0.68379347873E+03  0.12500094691E+03 0.  0.
          2    1    1    2  501    0  0.37474922873E+02 -0.29633471287E+02  0.24491349596E+02  0.53687416309E+02  0.00000000000E+00 0. -1.
          1    1    1    2  502    0 -0.14969235204E+02 -0.26719113602E+02  0.10914128835E+04  0.10918425121E+04  0.00000000000E+00 0. -1.
         22    1    3    3    0    0 -0.22439564752E+01 -0.17343636196E+02  0.10602348492E+02  0.20451084341E+02  0.00000000000E+00 0. -1.
         22    1    3    3    0    0 -0.20261731194E+02  0.73696221084E+02  0.65892447325E+03  0.66334239439E+03  0.00000000000E+00 0. -1.
</event>
<event>
 7    1  0.5789396E-006  0.1533015E+03  0.7818608E-02  0.1352234E+00
          2   -1    0    0  502    0  0.00000000000E+00  0.00000000000E+00  0.22274412991E+04  0.22274412991E+04  0.00000000000E+00 0. -1.
          1   -1    0    0  501    0 -0.00000000000E+00 -0.00000000000E+00 -0.12674794076E+04  0.12674794076E+04  0.00000000000E+00 0. -1.
         25    2    1    2    0    0  0.18109042144E+03 -0.80073834193E+01  0.18948001890E+03  0.29049064890E+03  0.12499712240E+03 0.  0.
          2    1    1    2  501    0 -0.15087735574E+03  0.23943514472E+02 -0.12120322710E+04  0.12216216658E+04  0.00000000000E+00 0. -1.
          1    1    1    2  502    0 -0.30213065702E+02 -0.15936131053E+02  0.19825141436E+04  0.19828083920E+04  0.00000000000E+00 0. -1.
         22    1    3    3    0    0  0.19489254152E+03 -0.18951527159E+02  0.19003757782E+03  0.27286726463E+03  0.00000000000E+00 0.  1.
         22    1    3    3    0    0 -0.13802120084E+02  0.10944143740E+02 -0.55755892471E+00  0.17623384266E+02  0.00000000000E+00 0.  1.
</event>
<event>
 7    1  0.5789396E-006  0.3422150E+02  0.7818608E-02  0.1600754E+00
          2   -1    0    0  502    0  0.00000000000E+00  0.00000000000E+00  0.16160682812E+04  0.16160682812E+04  0.00000000000E+00 0. -1.
          1   -1    0    0  501    0 -0.00000000000E+00 -0.00000000000E+00 -0.13661528919E+04  0.13661528919E+04  0.00000000000E+00 0. -1.
         25    2    1    2    0    0  0.29073548989E+01  0.32782799782E+02  0.31794738373E+02  0.13311311302E+03  0.12500012318E+03 0.  0.
          2    1    1    2  501    0 -0.26369418280E+02 -0.21858842529E+02 -0.13151615338E+04  0.13156074701E+04  0.00000000000E+00 0. -1.
          1    1    1    2  502    0  0.23462063381E+02 -0.10923957253E+02  0.15332821848E+04  0.15335005900E+04  0.00000000000E+00 0. -1.
         22    1    3    3    0    0  0.44427916876E+02 -0.18641990731E+02 -0.16855877018E+02  0.51043943876E+02  0.00000000000E+00 0.  1.
         22    1    3    3    0    0 -0.41520561977E+02  0.51424790514E+02  0.48650615391E+02  0.82069169145E+02  0.00000000000E+00 0.  1.
</event>
<event>
 7    1  0.5789396E-006  0.3111298E+02  0.7818608E-02  0.1624278E+00
          2   -1    0    0  502    0  0.00000000000E+00  0.00000000000E+00  0.16848303507E+04  0.16848303507E+04  0.00000000000E+00 0. -1.
          1   -1    0    0  501    0 -0.00000000000E+00 -0.00000000000E+00 -0.27252773077E+03  0.27252773077E+03  0.00000000000E+00 0. -1.
         25    2    1    2    0    0  0.48209475953E+02 -0.27526116337E+02  0.82761318295E+02  0.15986244826E+03  0.12499890361E+03 0.  0.
          2    1    1    2  501    0 -0.27817480379E+02  0.13473335431E+02 -0.23285784188E+03  0.23490022884E+03  0.00000000000E+00 0. -1.
          1    1    1    2  502    0 -0.20391995574E+02  0.14052780906E+02  0.15623991435E+04  0.15625954044E+04  0.00000000000E+00 0. -1.
         22    1    3    3    0    0 -0.10214976938E+02 -0.60325106484E+02  0.11880955827E+02  0.62326730522E+02  0.00000000000E+00 0.  1.
         22    1    3    3    0    0  0.58424452891E+02  0.32798990147E+02  0.70880362468E+02  0.97535717734E+02  0.00000000000E+00 0.  1.
</event>
<event>
 7    1  0.5789396E-006  0.1065102E+03  0.7818608E-02  0.1331000E+00
          2   -1    0    0  502    0  0.00000000000E+00  0.00000000000E+00  0.26441908385E+03  0.26441908385E+03  0.00000000000E+00 0. -1.
          1   -1    0    0  501    0 -0.00000000000E+00 -0.00000000000E+00 -0.47062669951E+03  0.47062669951E+03  0.00000000000E+00 0. -1.
         25    2    1    2    0    0 -0.12045198473E+03  0.85354112132E+02 -0.14606173691E+03  0.24238954143E+03  0.12499861489E+03 0.  0.
          2    1    1    2  501    0  0.59057325898E+02 -0.10717975749E+01 -0.26032789504E+03  0.26694480596E+03  0.00000000000E+00 0. -1.
          1    1    1    2  502    0  0.61394658829E+02 -0.84282314557E+02  0.20018201629E+03  0.22571143597E+03  0.00000000000E+00 0. -1.
         22    1    3    3    0    0  0.22147846101E+02 -0.71377287509E+01 -0.14108024196E+02  0.27212324512E+02  0.00000000000E+00 0.  1.
         22    1    3    3    0    0 -0.14259983083E+03  0.92491840883E+02 -0.13195371271E+03  0.21517721692E+03  0.00000000000E+00 0.  1.
</event>
<event>
 7    1  0.5789396E-006  0.1138067E+03  0.7818608E-02  0.1302666E+00
          2   -1    0    0  502    0  0.00000000000E+00  0.00000000000E+00  0.15386209194E+04  0.15386209194E+04  0.00000000000E+00 0. -1.
          1   -1    0    0  501    0 -0.00000000000E+00 -0.00000000000E+00 -0.25937216365E+03  0.25937216365E+03  0.00000000000E+00 0. -1.
         25    2    1    2    0    0  0.29775757064E+02 -0.83730652829E+02 -0.96874140437E+02  0.18140263149E+03  0.12499959077E+03 0.  0.
          2    1    1    2  501    0  0.88448110458E+01  0.14365850379E+03 -0.75969179231E+02  0.16274923221E+03  0.00000000000E+00 0. -1.
          1    1    1    2  502    0 -0.38620568110E+02 -0.59927850956E+02  0.14520920754E+04  0.14538412193E+04  0.00000000000E+00 0. -1.
         22    1    3    3    0    0  0.65539084781E+02 -0.83529494826E+02 -0.99544492501E+02  0.14553918416E+03  0.00000000000E+00 0. -1.
         22    1    3    3    0    0 -0.35763327717E+02 -0.20115800338E+00  0.26703520635E+01  0.35863447325E+02  0.00000000000E+00 0. -1.
</event>
<event>
 7    1  0.5789396E-006  0.1786260E+03  0.7818608E-02  0.1195416E+00
          2   -1    0    0  502    0  0.00000000000E+00  0.00000000000E+00  0.85412871749E+03  0.85412871749E+03  0.00000000000E+00 0. -1.
          1   -1    0    0  501    0 -0.00000000000E+00 -0.00000000000E+00 -0.63578539953E+03  0.63578539953E+03  0.00000000000E+00 0. -1.
         25    2    1    2    0    0 -0.23389729216E+03 -0.39881902874E+02 -0.15318796406E+02  0.26862776747E+03  0.12501080945E+03 0.  0.
          2    1    1    2  501    0  0.16051527938E+03 -0.71158749355E+02 -0.47178236292E+03  0.50339578910E+03  0.00000000000E+00 0. -1.
          1    1    1    2  502    0  0.73382012779E+02  0.11104065223E+03  0.70544447728E+03  0.71789056044E+03  0.00000000000E+00 0. -1.
         22    1    3    3    0    0 -0.23909912000E+03 -0.19293256700E+02  0.40142775969E+01  0.23990984424E+03  0.00000000000E+00 0. -1.
         22    1    3    3    0    0  0.52018278452E+01 -0.20588646173E+02 -0.19333074003E+02  0.28717923229E+02  0.00000000000E+00 0. -1.
</event>
<event>
 7    1  0.5789396E-006  0.6606168E+02  0.7818608E-02  0.1477964E+00
          2   -1    0    0  502    0  0.00000000000E+00  0.00000000000E+00  0.13023552770E+03  0.13023552770E+03  0.00000000000E+00 0. -1.
          1   -1    0    0  501    0 -0.00000000000E+00 -0.00000000000E+00 -0.12958883514E+04  0.12958883514E+04  0.00000000000E+00 0. -1.
         25    2    1    2    0    0  0.46980664483E+00  0.41862780677E+02 -0.38135323342E+03  0.40349464534E+03  0.12499970821E+03 0.  0.
          2    1    1    2  501    0 -0.16489137440E+02 -0.67079348679E+02 -0.90024787872E+03  0.90289410997E+03  0.00000000000E+00 0. -1.
          1    1    1    2  502    0  0.16019330795E+02  0.25216568002E+02  0.11594828847E+03  0.11973512376E+03  0.00000000000E+00 0. -1.
         22    1    3    3    0    0 -0.38294471180E+02 -0.18343026390E+02 -0.55572826061E+02  0.69937630333E+02  0.00000000000E+00 0.  1.
         22    1    3    3    0    0  0.38764277825E+02  0.60205807067E+02 -0.32578040736E+03  0.33355701501E+03  0.00000000000E+00 0.  1.
</event>
<event>
 7    1  0.5789396E-006  0.4234536E+02  0.7818608E-02  0.1540928E+00
          2   -1    0    0  502    0  0.00000000000E+00  0.00000000000E+00  0.11728258081E+03  0.11728258081E+03  0.00000000000E+00 0. -1.
          1   -1    0    0  501    0 -0.00000000000E+00 -0.00000000000E+00 -0.60040015852E+03  0.60040015852E+03  0.00000000000E+00 0. -1.
         25    2    1    2    0    0  0.15692457791E+02 -0.21851809460E+02  0.10787048576E+01  0.12786527497E+03  0.12499844051E+03 0.  0.
          2    1    1    2  501    0 -0.42107937201E+02  0.68044158883E+01 -0.53170580578E+03  0.53341395028E+03  0.00000000000E+00 0. -1.
          1    1    1    2  502    0  0.26415479409E+02  0.15047393572E+02  0.47509523206E+02  0.56403514083E+02  0.00000000000E+00 0. -1.
         22    1    3    3    0    0  0.43389669460E+02  0.39017515738E+02 -0.12376019722E+02  0.59650614535E+02  0.00000000000E+00 0. -1.
         22    1    3    3    0    0 -0.27697211669E+02 -0.60869325198E+02  0.13454724580E+02  0.68214660432E+02  0.00000000000E+00 0. -1.
</event>
<event>
 7    1  0.5789396E-006  0.8472872E+02  0.7818608E-02  0.1389074E+00
          2   -1    0    0  502    0  0.00000000000E+00  0.00000000000E+00  0.36591414900E+03  0.36591414900E+03  0.00000000000E+00 0. -1.
          1   -1    0    0  501    0 -0.00000000000E+00 -0.00000000000E+00 -0.42330628000E+03  0.42330628000E+03  0.00000000000E+00 0. -1.
         25    2    1    2    0    0 -0.56582556288E+01  0.40703248581E+02  0.29057445620E+03  0.31898035329E+03  0.12500472345E+03 0.  0.
          2    1    1    2  501    0 -0.36446028078E+01 -0.85313429345E+02 -0.39536943919E+03  0.40448567070E+03  0.00000000000E+00 0. -1.
          1    1    1    2  502    0  0.93028584366E+01  0.44610180764E+02  0.47402851976E+02  0.65754405011E+02  0.00000000000E+00 0. -1.
         22    1    3    3    0    0  0.18263969695E+02 -0.22756499229E+02  0.21686015899E+03  0.21881444057E+03  0.00000000000E+00 0.  1.
         22    1    3    3    0    0 -0.23922225324E+02  0.63459747810E+02  0.73714297213E+02  0.10016591272E+03  0.00000000000E+00 0.  1.
</event>
<event>
 7    1  0.5789396E-006  0.2567966E+03  0.7818608E-02  0.1193192E+00
          2   -1    0    0  502    0  0.00000000000E+00  0.00000000000E+00  0.33608657505E+03  0.33608657505E+03  0.00000000000E+00 0. -1.
          1   -1    0    0  501    0 -0.00000000000E+00 -0.00000000000E+00 -0.13602808350E+04  0.13602808350E+04  0.00000000000E+00 0. -1.
         25    2    1    2    0    0 -0.22297676316E+03 -0.35582185826E+02 -0.10490560024E+03  0.27859256226E+03  0.12499560763E+03 0.  0.
          2    1    1    2  501    0 -0.45488517948E+02  0.83250392618E+02 -0.10912814091E+04  0.10953971641E+04  0.00000000000E+00 0. -1.
          1    1    1    2  502    0  0.26846528111E+03 -0.47668206792E+02  0.17199274943E+03  0.32237768372E+03  0.00000000000E+00 0. -1.
         22    1    3    3    0    0 -0.12534399172E+03  0.41884233800E+02 -0.67918365537E+02  0.14858771712E+03  0.00000000000E+00 0.  1.
         22    1    3    3    0    0 -0.97632771445E+02 -0.77466419626E+02 -0.36987234702E+02  0.13000484514E+03  0.00000000000E+00 0.  1.
</event>
<event>
 7    1  0.5789396E-006  0.4425034E+02  0.7818608E-02  0.1588990E+00
          2   -1    0    0  502    0  0.00000000000E+00  0.00000000000E+00  0.58768509756E+02  0.58768509756E+02  0.00000000000E+00 0. -1.
          1   -1    0    0  501    0 -0.00000000000E+00 -0.00000000000E+00 -0.17976668125E+03  0.17976668125E+03  0.00000000000E+00 0. -1.
         25    2    1    2    0    0  0.22791121318E+02  0.41442911678E+02 -0.10222421590E+03  0.16825897257E+03  0.12499736556E+03 0.  0.
          2    1    1    2  501    0  0.13941870973E+02 -0.16357755972E+02 -0.13743456530E+02  0.25511459074E+02  0.00000000000E+00 0. -1.
          1    1    1    2  502    0 -0.36732992291E+02 -0.25085155706E+02 -0.50304990651E+01  0.44764759357E+02  0.00000000000E+00 0. -1.
         22    1    3    3    0    0 -0.45553320520E+02 -0.84724303813E+01 -0.20698718817E+02  0.50747650662E+02  0.00000000000E+00 0. -1.
         22    1    3    3    0    0  0.68344441838E+02  0.49915342059E+02 -0.81525497079E+02  0.11751132191E+03  0.00000000000E+00 0. -1.
</event>
<event>
 7    1  0.5789396E-006  0.1153357E+03  0.7818608E-02  0.1288884E+00
          2   -1    0    0  502    0  0.00000000000E+00  0.00000000000E+00  0.22735770350E+04  0.22735770350E+04  0.00000000000E+00 0. -1.
          1   -1    0    0  501    0 -0.00000000000E+00 -0.00000000000E+00 -0.17336265140E+04  0.17336265140E+04  0.00000000000E+00 0. -1.
         25    2    1    2    0    0 -0.29598418069E+02  0.81236621123E+02 -0.10081465020E+04  0.10195385193E+04  0.12499587143E+03 0.  0.
          2    1    1    2  501    0  0.28677042336E+02 -0.16117884898E+03 -0.70975866522E+03  0.72839436912E+03  0.00000000000E+00 0. -1.
          1    1    1    2  502    0  0.92137573368E+00  0.79942227858E+02  0.22578556882E+04  0.22592706605E+04  0.00000000000E+00 0. -1.
         22    1    3    3    0    0 -0.73077189636E+02  0.28533676883E+02 -0.40445265407E+03  0.41199077144E+03  0.00000000000E+00 0.  1.
         22    1    3    3    0    0  0.43478771567E+02  0.52702944240E+02 -0.60369384795E+03  0.60754774789E+03  0.00000000000E+00 0.  1.
</event>
<event>
 7    1  0.5789396E-006  0.1100782E+03  0.7818608E-02  0.1346477E+00
          2   -1    0    0  502    0  0.00000000000E+00  0.00000000000E+00  0.50514174704E+03  0.50514174704E+03  0.00000000000E+00 0. -1.
          1   -1    0    0  501    0 -0.00000000000E+00 -0.00000000000E+00 -0.31284678084E+03  0.31284678084E+03  0.00000000000E+00 0. -1.
         25    2    1    2    0    0  0.82551574159E+01 -0.15092605425E+03  0.80174788260E+02  0.21188787908E+03  0.12498661990E+03 0.  0.
          2    1    1    2  501    0 -0.19294485773E+02  0.46093022567E+02 -0.23658834506E+03  0.24180754523E+03  0.00000000000E+00 0. -1.
          1    1    1    2  502    0  0.11039328357E+02  0.10483303168E+03  0.34870852299E+03  0.36429310357E+03  0.00000000000E+00 0. -1.
         22    1    3    3    0    0 -0.36587829407E+01 -0.55445564693E+02  0.99295323601E+02  0.11378558180E+03  0.00000000000E+00 0.  1.
         22    1    3    3    0    0  0.11913940357E+02 -0.95480489555E+02 -0.19120535341E+02  0.98102297283E+02  0.00000000000E+00 0.  1.
</event>
<event>
 7    1  0.5789396E-006  0.6519353E+02  0.7818608E-02  0.1477708E+00
          2   -1    0    0  502    0  0.00000000000E+00  0.00000000000E+00  0.10319919731E+04  0.10319919731E+04  0.00000000000E+00 0. -1.
          1   -1    0    0  501    0 -0.00000000000E+00 -0.00000000000E+00 -0.21215623752E+03  0.21215623752E+03  0.00000000000E+00 0. -1.
         25    2    1    2    0    0 -0.21154264871E+02 -0.30167713741E+02  0.15157067272E+03  0.19987678121E+03  0.12497785789E+03 0.  0.
          2    1    1    2  501    0  0.46049609014E+02  0.47487550404E+02 -0.18190586389E+03  0.19355975112E+03  0.00000000000E+00 0. -1.
          1    1    1    2  502    0 -0.24895344143E+02 -0.17319836663E+02  0.85017092680E+03  0.85071167835E+03  0.00000000000E+00 0. -1.
         22    1    3    3    0    0  0.39564743602E+01  0.40255279485E+02  0.13112119918E+02  0.42521393492E+02  0.00000000000E+00 0. -1.
         22    1    3    3    0    0 -0.25110739232E+02 -0.70422993226E+02  0.13845855280E+03  0.15735538771E+03  0.00000000000E+00 0. -1.
</event>
<event>
 7    1  0.5789396E-006  0.5402629E+02  0.7818608E-02  0.1459846E+00
          2   -1    0    0  502    0  0.00000000000E+00  0.00000000000E+00  0.60349862631E+03  0.60349862631E+03  0.00000000000E+00 0. -1.
          1   -1    0    0  501    0 -0.00000000000E+00 -0.00000000000E+00 -0.12148815484E+04  0.12148815484E+04  0.00000000000E+00 0. -1.
         25    2    1    2    0    0  0.83994123168E+02 -0.42730605529E+02 -0.15858869270E+03  0.22283649321E+03  0.12499924751E+03 0.  0.
          2    1    1    2  501    0 -0.44925847357E+02  0.28438642584E+02 -0.10227202301E+04  0.10241014389E+04  0.00000000000E+00 0. -1.
          1    1    1    2  502    0 -0.39068275811E+02  0.14291962945E+02  0.56992600068E+03  0.57144224260E+03  0.00000000000E+00 0. -1.
         22    1    3    3    0    0  0.43646436140E+02  0.49575017652E+01 -0.15406643865E+03  0.16020629117E+03  0.00000000000E+00 0. -1.
         22    1    3    3    0    0  0.40347687028E+02 -0.47688107294E+02 -0.45222540460E+01  0.62630202039E+02  0.00000000000E+00 0. -1.
</event>
<event>
 7    1  0.5789396E-006  0.2453784E+03  0.7818608E-02  0.1125006E+00
          2   -1    0    0  502    0  0.00000000000E+00  0.00000000000E+00  0.15337116741E+04  0.15337116741E+04  0.00000000000E+00 0. -1.
          1   -1    0    0  501    0 -0.00000000000E+00 -0.00000000000E+00 -0.87146137740E+03  0.87146137740E+03  0.00000000000E+00 0. -1.
         25    2    1    2    0    0 -0.13077391106E+03  0.14462957042E+03  0.22652495442E+03  0.32397266381E+03  0.12500081386E+03 0.  0.
          2    1    1    2  501    0 -0.63934152230E+02 -0.24701937755E+03 -0.79294708538E+03  0.83298933302E+03  0.00000000000E+00 0. -1.
          1    1    1    2  502    0  0.19470806329E+03  0.10238980714E+03  0.12286724276E+04  0.12482110547E+04  0.00000000000E+00 0. -1.
         22    1    3    3    0    0 -0.10961574088E+03  0.12192940308E+03  0.96398865855E+02  0.19019761125E+03  0.00000000000E+00 0.  1.
         22    1    3    3    0    0 -0.21158170173E+02  0.22700167334E+02  0.13012608857E+03  0.13377505256E+03  0.00000000000E+00 0.  1.
</event>
<event>
 7    1  0.5789396E-006  0.3078903E+02  0.7818608E-02  0.1617766E+00
          2   -1    0    0  502    0  0.00000000000E+00  0.00000000000E+00  0.15126033257E+03  0.15126033257E+03  0.00000000000E+00 0. -1.
          1   -1    0    0  501    0 -0.00000000000E+00 -0.00000000000E+00 -0.11470582310E+04  0.11470582310E+04  0.00000000000E+00 0. -1.
         25    2    1    2    0    0 -0.37886302696E+02 -0.41531279328E+02 -0.33234305689E+03  0.35949527908E+03  0.12499891648E+03 0.  0.
          2    1    1    2  501    0  0.14740326395E+02  0.21416188562E+02 -0.79921761323E+03  0.79964037145E+03  0.00000000000E+00 0. -1.
          1    1    1    2  502    0  0.23145976301E+02  0.20115090766E+02  0.13576277171E+03  0.13918291302E+03  0.00000000000E+00 0. -1.
         22    1    3    3    0    0 -0.48410314152E+02 -0.81712600331E+02 -0.24545379775E+03  0.26318828697E+03  0.00000000000E+00 0. -1.
         22    1    3    3    0    0  0.10524011456E+02  0.40181321003E+02 -0.86889259140E+02  0.96306992106E+02  0.00000000000E+00 0. -1.
</event>
<event>
 7    1  0.5789396E-006  0.4509284E+02  0.7818608E-02  0.1517797E+00
          2   -1    0    0  502    0  0.00000000000E+00  0.00000000000E+00  0.22991194625E+04  0.22991194625E+04  0.00000000000E+00 0. -1.
          1   -1    0    0  501    0 -0.00000000000E+00 -0.00000000000E+00 -0.46138511073E+03  0.46138511073E+03  0.00000000000E+00 0. -1.
         25    2    1    2    0    0  0.73847661860E+02  0.11819878860E+02  0.10893452253E+04  0.10990409809E+04  0.12499948434E+03 0.  0.
          2    1    1    2  501    0 -0.31019144793E+02 -0.11999339207E+02 -0.45555020934E+03  0.45676270066E+03  0.00000000000E+00 0. -1.
          1    1    1    2  502    0 -0.42828517067E+02  0.17946034728E+00  0.12039393358E+04  0.12047008917E+04  0.00000000000E+00 0. -1.
         22    1    3    3    0    0  0.92370370848E+02 -0.63278840769E-01  0.45332188238E+03  0.46263702669E+03  0.00000000000E+00 0. -1.
         22    1    3    3    0    0 -0.18522708988E+02  0.11883157701E+02  0.63602334289E+03  0.63640395417E+03  0.00000000000E+00 0. -1.
</event>
<event>
 7    1  0.5789396E-006  0.8523361E+02  0.7818608E-02  0.1335196E+00
          2   -1    0    0  502    0  0.00000000000E+00  0.00000000000E+00  0.98131595842E+03  0.98131595842E+03  0.00000000000E+00 0. -1.
          1   -1    0    0  501    0 -0.00000000000E+00 -0.00000000000E+00 -0.39857944143E+04  0.39857944143E+04  0.00000000000E+00 0. -1.
         25    2    1    2    0    0  0.36002940729E+01  0.33939578731E+02  0.45588328392E+03  0.47393987219E+03  0.12499830710E+03 0.  0.
          2    1    1    2  501    0  0.84960540249E+02  0.68172690998E+01 -0.39717036983E+04  0.39726181588E+04  0.00000000000E+00 0. -1.
          1    1    1    2  502    0 -0.88560834322E+02 -0.40756847831E+02  0.51134195847E+03  0.52055234176E+03  0.00000000000E+00 0. -1.
         22    1    3    3    0    0 -0.54077107429E+02 -0.39145803357E+01  0.13035054974E+03  0.14117692200E+03  0.00000000000E+00 0.  1.
         22    1    3    3    0    0  0.57677401502E+02  0.37854159067E+02  0.32553273417E+03  0.33276295019E+03  0.00000000000E+00 0.  1.
</event>
<event>
 7    1  0.5789396E-006  0.8531787E+02  0.7818608E-02  0.1487145E+00
          2   -1    0    0  502    0  0.00000000000E+00  0.00000000000E+00  0.14621439810E+03  0.14621439810E+03  0.00000000000E+00 0. -1.
          1   -1    0    0  501    0 -0.00000000000E+00 -0.00000000000E+00 -0.49090542004E+03  0.49090542004E+03  0.00000000000E+00 0. -1.
         25    2    1    2    0    0  0.23938035554E+02 -0.10213847268E+03 -0.12277888473E+03  0.20421763817E+03  0.12499956822E+03 0.  0.
          2    1    1    2  501    0 -0.69025877474E+01  0.20556578680E+02 -0.31050977641E+03  0.31126602753E+03  0.00000000000E+00 0. -1.
          1    1    1    2  502    0 -0.17035447807E+02  0.81581894003E+02  0.88597639193E+02  0.12163615244E+03  0.00000000000E+00 0. -1.
         22    1    3    3    0    0 -0.22334090989E+02 -0.10587813753E+03 -0.53213010687E+02  0.12058447717E+03  0.00000000000E+00 0.  1.
         22    1    3    3    0    0  0.46272126544E+02  0.37396648481E+01 -0.69565874038E+02  0.83633160999E+02  0.00000000000E+00 0.  1.
</event>
<event>
 7    1  0.5789396E-006  0.9430120E+02  0.7818608E-02  0.1379957E+00
          2   -1    0    0  502    0  0.00000000000E+00  0.00000000000E+00  0.53561161575E+03  0.53561161575E+03  0.00000000000E+00 0. -1.
          1   -1    0    0  501    0 -0.00000000000E+00 -0.00000000000E+00 -0.74005504225E+03  0.74005504225E+03  0.00000000000E+00 0. -1.
         25    2    1    2    0    0 -0.11102635762E+03 -0.68748775994E+02  0.43768156968E+02  0.18601125105E+03  0.12502514814E+03 0.  0.
          2    1    1    2  501    0  0.67113164754E+02  0.64888068697E+02 -0.66450715391E+03  0.67103233599E+03  0.00000000000E+00 0. -1.
          1    1    1    2  502    0  0.43913192861E+02  0.38607072970E+01  0.41629557045E+03  0.41862307096E+03  0.00000000000E+00 0. -1.
         22    1    3    3    0    0 -0.85524052959E+02  0.20493993948E+02  0.19649443244E+02  0.90113639602E+02  0.00000000000E+00 0.  1.
         22    1    3    3    0    0 -0.25502304656E+02 -0.89242769943E+02  0.24118713724E+02  0.95897611448E+02  0.00000000000E+00 0.  1.
</event>
<event>
 7    1  0.5789396E-006  0.6950846E+02  0.7818608E-02  0.1492574E+00
          2   -1    0    0  502    0  0.00000000000E+00  0.00000000000E+00  0.11263023258E+04  0.11263023258E+04  0.00000000000E+00 0. -1.
          1   -1    0    0  501    0 -0.00000000000E+00 -0.00000000000E+00 -0.68230145055E+03  0.68230145055E+03  0.00000000000E+00 0. -1.
         25    2    1    2    0    0  0.72066232438E+02  0.39760746312E+02  0.36790685361E+03  0.39718530230E+03  0.12500501041E+03 0.  0.
          2    1    1    2  501    0 -0.52004122326E+01 -0.25095226637E+02 -0.66584003232E+03  0.66633307237E+03  0.00000000000E+00 0. -1.
          1    1    1    2  502    0 -0.66865820205E+02 -0.14665519675E+02  0.74193405392E+03  0.74508540164E+03  0.00000000000E+00 0. -1.
         22    1    3    3    0    0 -0.17232794790E+02 -0.15143420128E+02  0.11460887464E+02  0.25644577027E+02  0.00000000000E+00 0.  1.
         22    1    3    3    0    0  0.89299027228E+02  0.54904166439E+02  0.35644596615E+03  0.37154072528E+03  0.00000000000E+00 0.  1.
</event>
<event>
 7    1  0.5789396E-006  0.1164012E+03  0.7818608E-02  0.1271131E+00
          2   -1    0    0  502    0  0.00000000000E+00  0.00000000000E+00  0.44162134689E+03  0.44162134689E+03  0.00000000000E+00 0. -1.
          1   -1    0    0  501    0 -0.00000000000E+00 -0.00000000000E+00 -0.42270225523E+03  0.42270225523E+03  0.00000000000E+00 0. -1.
         25    2    1    2    0    0  0.63096680293E+02 -0.22779216628E+02  0.15734968053E+03  0.21186674022E+03  0.12501403871E+03 0.  0.
          2    1    1    2  501    0 -0.10275670673E+03 -0.62217912875E+02 -0.37723169619E+03  0.39589615061E+03  0.00000000000E+00 0. -1.
          1    1    1    2  502    0  0.39660026436E+02  0.84997129503E+02  0.23880110731E+03  0.25656071128E+03  0.00000000000E+00 0. -1.
         22    1    3    3    0    0  0.63944769064E+02  0.41463081599E+02  0.10012057052E+03  0.12582626621E+03  0.00000000000E+00 0.  1.
         22    1    3    3    0    0 -0.84808877071E+00 -0.64242298227E+02  0.57229110012E+02  0.86040474015E+02  0.00000000000E+00 0.  1.
</event>
<event>
 7    1  0.5789396E-006  0.4469489E+02  0.7818608E-02  0.1575523E+00
          2   -1    0    0  502    0  0.00000000000E+00  0.00000000000E+00  0.31188113054E+02  0.31188113054E+02  0.00000000000E+00 0. -1.
          1   -1    0    0  501    0 -0.00000000000E+00 -0.00000000000E+00 -0.49008676911E+03  0.49008676911E+03  0.00000000000E+00 0. -1.
         25    2    1    2    0    0 -0.28182727569E+02  0.20057481795E+02 -0.36547769157E+03  0.38780829768E+03  0.12499905600E+03 0.  0.
          2    1    1    2  501    0  0.87607726713E+01  0.21394534795E+02 -0.83481437873E+02  0.86623482534E+02  0.00000000000E+00 0. -1.
          1    1    1    2  502    0  0.19421954898E+02 -0.41452016589E+02 -0.99395266109E+01  0.46843101953E+02  0.00000000000E+00 0. -1.
         22    1    3    3    0    0 -0.16688122806E+02  0.50348447742E+02 -0.34592263847E+03  0.34996561465E+03  0.00000000000E+00 0.  1.
         22    1    3    3    0    0 -0.11494604763E+02 -0.30290965947E+02 -0.19555053101E+02  0.37842683024E+02  0.00000000000E+00 0.  1.
</event>
<event>
 7    1  0.5789396E-006  0.1089422E+03  0.7818608E-02  0.1376444E+00
          2   -1    0    0  502    0  0.00000000000E+00  0.00000000000E+00  0.14306798447E+04  0.14306798447E+04  0.00000000000E+00 0. -1.
          1   -1    0    0  501    0 -0.00000000000E+00 -0.00000000000E+00 -0.70150115809E+03  0.70150115809E+03  0.00000000000E+00 0. -1.
         25    2    1    2    0    0  0.36819002747E+02 -0.62158935964E+02  0.21591672481E+03  0.25973436818E+03  0.12499015032E+03 0.  0.
          2    1    1    2  501    0 -0.42677055738E+02  0.10098969166E+03 -0.67484395669E+03  0.68369190048E+03  0.00000000000E+00 0. -1.
          1    1    1    2  502    0  0.58580529911E+01 -0.38830755692E+02  0.11881059185E+04  0.11887547341E+04  0.00000000000E+00 0. -1.
         22    1    3    3    0    0  0.54328125386E+02  0.20287305681E+02  0.66932120214E+02  0.88560875651E+02  0.00000000000E+00 0.  1.
         22    1    3    3    0    0 -0.17509122639E+02 -0.82446241645E+02  0.14898460460E+03  0.17117349253E+03  0.00000000000E+00 0.  1.
</event>
<event>
 7    1  0.5789396E-006  0.8342715E+02  0.7818608E-02  0.1473245E+00
          2   -1    0    0  502    0  0.00000000000E+00  0.00000000000E+00  0.18144271741E+04  0.18144271741E+04  0.00000000000E+00 0. -1.
          1   -1    0    0  501    0 -0.00000000000E+00 -0.00000000000E+00 -0.55368674104E+03  0.55368674104E+03  0.00000000000E+00 0. -1.
         25    2    1    2    0    0 -0.29656575471E+02 -0.54117558643E+02  0.45477618277E+02  0.14661694568E+03  0.12498036796E+03 0.  0.
          2    1    1    2  501    0  0.49869165510E+02  0.67897714716E+02 -0.49950269012E+03  0.50655697683E+03  0.00000000000E+00 0. -1.
          1    1    1    2  502    0 -0.20212590039E+02 -0.13780156073E+02  0.17147655049E+04  0.17149399926E+04  0.00000000000E+00 0. -1.
         22    1    3    3    0    0  0.95818299236E+01 -0.39493918302E+02 -0.36460901624E+02  0.54598336924E+02  0.00000000000E+00 0. -1.
         22    1    3    3    0    0 -0.39238405394E+02 -0.14623640341E+02  0.81938519901E+02  0.92018608761E+02  0.00000000000E+00 0. -1.
</event>
<event>
 7    1  0.5789396E-006  0.1600802E+03  0.7818608E-02  0.1213024E+00
          2   -1    0    0  502    0  0.00000000000E+00  0.00000000000E+00  0.10879145995E+04  0.10879145995E+04  0.00000000000E+00 0. -1.
          1   -1    0    0  501    0 -0.00000000000E+00 -0.00000000000E+00 -0.67151700121E+03  0.67151700121E+03  0.00000000000E+00 0. -1.
         25    2    1    2    0    0  0.11017185026E+03 -0.22648832768E+03 -0.20165294691E+03  0.34601148387E+03  0.12500094722E+03 0.  0.
          2    1    1    2  501    0 -0.10212325206E+03  0.68261507647E+02 -0.38181116660E+03  0.40108422928E+03  0.00000000000E+00 0. -1.
          1    1    1    2  502    0 -0.80485982014E+01  0.15822682003E+03  0.99986171185E+03  0.10123358876E+04  0.00000000000E+00 0. -1.
         22    1    3    3    0    0  0.13683059744E+03 -0.20565996335E+03 -0.18261575901E+03  0.30719236377E+03  0.00000000000E+00 0. -1.
         22    1    3    3    0    0 -0.26658747181E+02 -0.20828364331E+02 -0.19037187898E+02  0.38819120096E+02  0.00000000000E+00 0. -1.
</event>
<event>
 7    1  0.5789396E-006  0.3171932E+02  0.7818608E-02  0.1596396E+00
          2   -1    0    0  502    0  0.00000000000E+00  0.00000000000E+00  0.54938733493E+02  0.54938733493E+02  0.00000000000E+00 0. -1.
          1   -1    0    0  501    0 -0.00000000000E+00 -0.00000000000E+00 -0.20664415400E+04  0.20664415400E+04  0.00000000000E+00 0. -1.
         25    2    1    2    0    0 -0.43587250857E+02  0.62932730930E+01 -0.30359277594E+03  0.33125945069E+03  0.12499918537E+03 0.  0.
          2    1    1    2  501    0  0.20908976365E+02 -0.23826025178E+02 -0.17438562779E+04  0.17441443698E+04  0.00000000000E+00 0. -1.
          1    1    1    2  502    0  0.22678274491E+02  0.17532752085E+02  0.35946247353E+02  0.45976452977E+02  0.00000000000E+00 0. -1.
         22    1    3    3    0    0  0.35875989369E+01  0.59754678248E+02 -0.11517883242E+03  0.12980622434E+03  0.00000000000E+00 0. -1.
         22    1    3    3    0    0 -0.47174849794E+02 -0.53461405155E+02 -0.18841394352E+03  0.20145322635E+03  0.00000000000E+00 0. -1.
</event>
<event>
 7    1  0.5789396E-006  0.1633242E+03  0.7818608E-02  0.1272789E+00
          2   -1    0    0  502    0  0.00000000000E+00  0.00000000000E+00  0.10043269659E+04  0.10043269659E+04  0.00000000000E+00 0. -1.
          1   -1    0    0  501    0 -0.00000000000E+00 -0.00000000000E+00 -0.45309148542E+03  0.45309148542E+03  0.00000000000E+00 0. -1.
         25    2    1    2    0    0 -0.13423832894E+02  0.22297385575E+03  0.97930909733E+02  0.27406778816E+03  0.12500059917E+03 0.  0.
          2    1    1    2  501    0  0.13934537141E+02 -0.15718800314E+03 -0.34655398982E+03  0.38079115998E+03  0.00000000000E+00 0. -1.
          1    1    1    2  502    0 -0.51070424730E+00 -0.65785852606E+02  0.79985856061E+03  0.80255950322E+03  0.00000000000E+00 0. -1.
         22    1    3    3    0    0 -0.15008948254E+02  0.13838837077E+03  0.12307863698E+03  0.18580893566E+03  0.00000000000E+00 0.  1.
         22    1    3    3    0    0  0.15851153600E+01  0.84585484976E+02 -0.25147727244E+02  0.88258852501E+02  0.00000000000E+00 0.  1.
</event>
<event>
 7    1  0.5789396E-006  0.7097638E+02  0.7818608E-02  0.1372347E+00
          2   -1    0    0  502    0  0.00000000000E+00  0.00000000000E+00  0.12071299377E+04  0.12071299377E+04  0.00000000000E+00 0. -1.
          1   -1    0    0  501    0 -0.00000000000E+00 -0.00000000000E+00 -0.20164917421E+03  0.20164917421E+03  0.00000000000E+00 0. -1.
         25    2    1    2    0    0 -0.16057140201E+02  0.21912479280E+02 -0.58691411697E+02  0.14074117753E+03  0.12500163498E+03 0.  0.
          2    1    1    2  501    0  0.80701178822E+02  0.73927333332E+01 -0.84555611346E+02  0.11711952945E+03  0.00000000000E+00 0. -1.
          1    1    1    2  502    0 -0.64644038621E+02 -0.29305212613E+02  0.11487277865E+04  0.11509184049E+04  0.00000000000E+00 0. -1.
         22    1    3    3    0    0 -0.31992597567E+02 -0.62036509298E+01 -0.90016073886E+02  0.95733511070E+02  0.00000000000E+00 0.  1.
         22    1    3    3    0    0  0.15935457366E+02  0.28116130209E+02  0.31324662189E+02  0.45007666465E+02  0.00000000000E+00 0.  1.
</event>
<event>
 7    1  0.5789396E-006  0.1184976E+03  0.7818608E-02  0.1343944E+00
          2   -1    0    0  502    0  0.00000000000E+00  0.00000000000E+00  0.70092917642E+03  0.70092917642E+03  0.00000000000E+00 0. -1.
          1   -1    0    0  501    0 -0.00000000000E+00 -0.00000000000E+00 -0.91275727291E+03  0.91275727291E+03  0.00000000000E+00 0. -1.
         25    2    1    2    0    0 -0.11528887244E+03 -0.52022193507E+02  0.12836205045E+03  0.21931636836E+03  0.12500008283E+03 0.  0.
          2    1    1    2  501    0  0.33428751906E+02 -0.33660715308E+02 -0.85995762797E+03  0.86126514333E+03  0.00000000000E+00 0. -1.
          1    1    1    2  502    0  0.81860120535E+02  0.85682908815E+02  0.51976748103E+03  0.53310493764E+03  0.00000000000E+00 0. -1.
         22    1    3    3    0    0 -0.11249339593E+03 -0.66100363805E+02  0.50124241029E+02  0.13977289351E+03  0.00000000000E+00 0.  1.
         22    1    3    3    0    0 -0.27954765163E+01  0.14078170298E+02  0.78237809417E+02  0.79543474844E+02  0.00000000000E+00 0.  1.
</event>
<event>
 7    1  0.5789396E-006  0.1815803E+03  0.7818608E-02  0.1220002E+00
          2   -1    0    0  502    0  0.00000000000E+00  0.00000000000E+00  0.12403907186E+03  0.12403907186E+03  0.00000000000E+00 0. -1.
          1   -1    0    0  501    0 -0.00000000000E+00 -0.00000000000E+00 -0.16478139986E+04  0.16478139986E+04  0.00000000000E+00 0. -1.
         25    2    1    2    0    0 -0.18797631192E+03 -0.54353114350E+02 -0.10614979993E+03  0.25530774385E+03  0.12499963665E+03 0.  0.
          2    1    1    2  501    0  0.17667148464E+03 -0.45608256514E+02 -0.14030872889E+04  0.14149017163E+04  0.00000000000E+00 0. -1.
          1    1    1    2  502    0  0.11304827282E+02  0.99961370864E+02 -0.14537837920E+02  0.10164361031E+03  0.00000000000E+00 0. -1.
         22    1    3    3    0    0 -0.16071100724E+03 -0.30925839415E+02 -0.23705759948E+02  0.16536746489E+03  0.00000000000E+00 0.  1.
         22    1    3    3    0    0 -0.27265304683E+02 -0.23427274936E+02 -0.82444039979E+02  0.89940278955E+02  0.00000000000E+00 0.  1.
</event>
<event>
 7    1  0.5789396E-006  0.9416095E+02  0.7818608E-02  0.1316296E+00
          2   -1    0    0  502    0  0.00000000000E+00  0.00000000000E+00  0.14055885469E+04  0.14055885469E+04  0.00000000000E+00 0. -1.
          1   -1    0    0  501    0 -0.00000000000E+00 -0.00000000000E+00 -0.18128052983E+03  0.18128052983E+03  0.00000000000E+00 0. -1.
         25    2    1    2    0    0  0.70229552998E+02 -0.13397848241E+03  0.37109165170E+03  0.41978094575E+03  0.12499841834E+03 0.  0.
          2    1    1    2  501    0 -0.62053510417E+02  0.44115323046E+02 -0.14554634864E+03  0.16425754011E+03  0.00000000000E+00 0. -1.
          1    1    1    2  502    0 -0.81760425815E+01  0.89863159367E+02  0.99876271403E+03  0.10028305909E+04  0.00000000000E+00 0. -1.
         22    1    3    3    0    0  0.13870670300E+02 -0.11852059789E+03  0.32219508565E+03  0.34358288787E+03  0.00000000000E+00 0. -1.
         22    1    3    3    0    0  0.56358882699E+02 -0.15457884521E+02  0.48896566053E+02  0.76198057880E+02  0.00000000000E+00 0. -1.
</event>
<event>
 7    1  0.5789396E-006  0.3189498E+03  0.7818608E-02  0.1192529E+00
          2   -1    0    0  502    0  0.00000000000E+00  0.00000000000E+00  0.22333031367E+04  0.22333031367E+04  0.00000000000E+00 0. -1.
          1   -1    0    0  501    0 -0.00000000000E+00 -0.00000000000E+00 -0.14464920228E+04  0.14464920228E+04  0.00000000000E+00 0. -1.
         25    2    1    2    0    0 -0.35155054979E+03 -0.56519785658E+02  0.58593558120E+01  0.37742365882E+03  0.12502804067E+03 0.  0.
          2    1    1    2  501    0  0.54603957392E+02 -0.54204921311E+02 -0.12472187919E+04  0.12495897249E+04  0.00000000000E+00 0. -1.
          1    1    1    2  502    0  0.29694659240E+03  0.11072470697E+03  0.20281705500E+04  0.20527817759E+04  0.00000000000E+00 0. -1.
         22    1    3    3    0    0 -0.34016130582E+03 -0.45241937913E+02 -0.23514363073E+02  0.34396143999E+03  0.00000000000E+00 0.  1.
         22    1    3    3    0    0 -0.11389243971E+02 -0.11277847745E+02  0.29373718885E+02  0.33462218832E+02  0.00000000000E+00 0.  1.
</event>
<event>
 7    1  0.5789396E-006  0.1264433E+03  0.7818608E-02  0.1369865E+00
          2   -1    0    0  502    0  0.00000000000E+00  0.00000000000E+00  0.12868980029E+03  0.12868980029E+03  0.00000000000E+00 0. -1.
          1   -1    0    0  501    0 -0.00000000000E+00 -0.00000000000E+00 -0.18198206382E+04  0.18198206382E+04  0.00000000000E+00 0. -1.
         25    2    1    2    0    0 -0.39264049835E+02 -0.95732613581E+02 -0.18708880907E+03  0.24765703772E+03  0.12500154776E+03 0.  0.
          2    1    1    2  501    0 -0.32786324305E+02 -0.14174676429E+02 -0.15582749001E+04  0.15586842300E+04  0.00000000000E+00 0. -1.
          1    1    1    2  502    0  0.72050374141E+02  0.10990729001E+03  0.54232871224E+02  0.14216917082E+03  0.00000000000E+00 0. -1.
         22    1    3    3    0    0 -0.66353657578E+02 -0.53841593455E+02 -0.17730225842E+03  0.19681924677E+03  0.00000000000E+00 0. -1.
         22    1    3    3    0    0  0.27089607743E+02 -0.41891020126E+02 -0.97865506479E+01  0.50837790948E+02  0.00000000000E+00 0. -1.
</event>
<event>
 7    1  0.5789396E-006  0.9551865E+02  0.7818608E-02  0.1403018E+00
          2   -1    0    0  502    0  0.00000000000E+00  0.00000000000E+00  0.77092032888E+03  0.77092032888E+03  0.00000000000E+00 0. -1.
          1   -1    0    0  501    0 -0.00000000000E+00 -0.00000000000E+00 -0.21042413337E+04  0.21042413337E+04  0.00000000000E+00 0. -1.
         25    2    1    2    0    0 -0.48668716107E+02  0.64382373728E+02 -0.10087201030E+03  0.17979149228E+03  0.12504432918E+03 0.  0.
          2    1    1    2  501    0  0.81956966861E+02 -0.50225150511E+02 -0.19622851972E+04  0.19646380597E+04  0.00000000000E+00 0. -1.
          1    1    1    2  502    0 -0.33288250754E+02 -0.14157223217E+02  0.72983620276E+03  0.73073211060E+03  0.00000000000E+00 0. -1.
         22    1    3    3    0    0 -0.86101449431E+02  0.64243563223E+02 -0.91719911973E+02  0.14125592824E+03  0.00000000000E+00 0. -1.
         22    1    3    3    0    0  0.37432733324E+02  0.13881050502E+00 -0.91520983311E+01  0.38535564046E+02  0.00000000000E+00 0. -1.
</event>
<event>
 7    1  0.5789396E-006  0.7456257E+02  0.7818608E-02  0.1382541E+00
          2   -1    0    0  502    0  0.00000000000E+00  0.00000000000E+00  0.50728557399E+03  0.50728557399E+03  0.00000000000E+00 0. -1.
          1   -1    0    0  501    0 -0.00000000000E+00 -0.00000000000E+00 -0.52885995071E+03  0.52885995071E+03  0.00000000000E+00 0. -1.
         25    2    1    2    0    0  0.11712369213E+03 -0.28821931536E+02 -0.47343680298E+02  0.18004265561E+03  0.12500108312E+03 0.  0.
          2    1    1    2  501    0 -0.63004186776E+02  0.35989083444E+02 -0.41028143642E+03  0.41664805142E+03  0.00000000000E+00 0. -1.
          1    1    1    2  502    0 -0.54119505353E+02 -0.71671519079E+01  0.43605074000E+03  0.43945481768E+03  0.00000000000E+00 0. -1.
         22    1    3    3    0    0  0.47189104646E+02 -0.60387421758E+02  0.18608218579E+02  0.78865189422E+02  0.00000000000E+00 0. -1.
         22    1    3    3    0    0  0.69934587483E+02  0.31565490223E+02 -0.65951898878E+02  0.10117746619E+03  0.00000000000E+00 0. -1.
</event>
<event>
 7    1  0.5789396E-006  0.7695304E+02  0.7818608E-02  0.1387659E+00
          2   -1    0    0  502    0  0.00000000000E+00  0.00000000000E+00  0.13610213200E+04  0.13610213200E+04  0.00000000000E+00 0. -1.
          1   -1    0    0  501    0 -0.00000000000E+00 -0.00000000000E+00 -0.62062815270E+03  0.62062815270E+03  0.00000000000E+00 0. -1.
         25    2    1    2    0    0  0.40944134488E+02 -0.13656294341E+02  0.27230634764E+02  0.13500308885E+03  0.12498563920E+03 0.  0.
          2    1    1    2  501    0 -0.44855672202E+02  0.64254940451E+02 -0.56352659137E+03  0.56894898531E+03  0.00000000000E+00 0. -1.
          1    1    1    2  502    0  0.39115377144E+01 -0.50598646110E+02  0.12766891239E+04  0.12776973986E+04  0.00000000000E+00 0. -1.
         22    1    3    3    0    0 -0.32074074971E+02 -0.24015603104E+02 -0.22594597361E+02  0.46000122909E+02  0.00000000000E+00 0.  1.
         22    1    3    3    0    0  0.73018209459E+02  0.10359308763E+02  0.49825232126E+02  0.89002965945E+02  0.00000000000E+00 0.  1.
</event>
<event>
 7    1  0.5789396E-006  0.8885307E+02  0.7818608E-02  0.1450847E+00
          2   -1    0    0  502    0  0.00000000000E+00  0.00000000000E+00  0.16632091782E+04  0.16632091782E+04  0.00000000000E+00 0. -1.
          1   -1    0    0  501    0 -0.00000000000E+00 -0.00000000000E+00 -0.46038502169E+03  0.46038502169E+03  0.00000000000E+00 0. -1.
         25    2    1    2    0    0 -0.53983429890E+02  0.53460554385E+02  0.57243124182E+03  0.59082518225E+03  0.12499851117E+03 0.  0.
          2    1    1    2  501    0  0.42751391542E+02 -0.78029897546E+02 -0.44663063650E+03  0.45540671037E+03  0.00000000000E+00 0. -1.
          1    1    1    2  502    0  0.11232038349E+02  0.24569343162E+02  0.10770235512E+04  0.10773623073E+04  0.00000000000E+00 0. -1.
         22    1    3    3    0    0 -0.36498959273E+02  0.79869561461E+02  0.53330444367E+03  0.54048584673E+03  0.00000000000E+00 0.  1.
         22    1    3    3    0    0 -0.17484470618E+02 -0.26409007077E+02  0.39126798147E+02  0.50339335522E+02  0.00000000000E+00 0.  1.
</event>
<event>
 7    1  0.5789396E-006  0.1767042E+03  0.7818608E-02  0.1264476E+00
          2   -1    0    0  502    0  0.00000000000E+00  0.00000000000E+00  0.12379629816E+04  0.12379629816E+04  0.00000000000E+00 0. -1.
          1   -1    0    0  501    0 -0.00000000000E+00 -0.00000000000E+00 -0.54842214744E+03  0.54842214744E+03  0.00000000000E+00 0. -1.
         25    2    1    2    0    0 -0.20333860851E+03  0.25673447932E+02 -0.28618064621E+02  0.24176368942E+03  0.12499988904E+03 0.  0.
          2    1    1    2  501    0  0.44192821765E+02  0.48896230697E+02 -0.40371765962E+03  0.40906209255E+03  0.00000000000E+00 0. -1.
          1    1    1    2  502    0  0.15914578675E+03 -0.74569678629E+02  0.11218765584E+04  0.11355593471E+04  0.00000000000E+00 0. -1.
         22    1    3    3    0    0 -0.65491941222E+02 -0.48999602198E+02  0.29390182763E+01  0.81846155738E+02  0.00000000000E+00 0.  1.
         22    1    3    3    0    0 -0.13784666729E+03  0.74673050130E+02 -0.31557082897E+02  0.15991753369E+03  0.00000000000E+00 0.  1.
</event>
<event>
 7    1  0.5789396E-006  0.6139193E+02  0.7818608E-02  0.1405420E+00
          2   -1    0    0  502    0  0.00000000000E+00  0.00000000000E+00  0.33241132761E+04  0.33241132761E+04  0.00000000000E+00 0. -1.
          1   -1    0    0  501    0 -0.00000000000E+00 -0.00000000000E+00 -0.64019046100E+02  0.64019046100E+02  0.00000000000E+00 0. -1.
         25    2    1    2    0    0 -0.44880549912E+02 -0.67038438665E+02  0.15760767488E+03  0.21671272521E+03  0.12496323486E+03 0.  0.
          2    1    1    2  501    0 -0.14947587825E+02  0.53166550789E+02 -0.11843980973E+02  0.56483558580E+02  0.00000000000E+00 0. -1.
          1    1    1    2  502    0  0.59828137737E+02  0.13871887876E+02  0.31143305361E+04  0.31149360384E+04  0.00000000000E+00 0. -1.
         22    1    3    3    0    0 -0.28086744528E+02  0.22122171279E+02  0.10533078131E+01  0.35768214068E+02  0.00000000000E+00 0. -1.
         22    1    3    3    0    0 -0.16793805385E+02 -0.89160609944E+02  0.15655436706E+03  0.18094451114E+03  0.00000000000E+00 0. -1.
</event>
<event>
 7    1  0.5789396E-006  0.1001531E+03  0.7818608E-02  0.1403497E+00
          2   -1    0    0  502    0  0.00000000000E+00  0.00000000000E+00  0.40482967829E+03  0.40482967829E+03  0.00000000000E+00 0. -1.
          1   -1    0    0  501    0 -0.00000000000E+00 -0.00000000000E+00 -0.87315189374E+03  0.87315189374E+03  0.00000000000E+00 0. -1.
         25    2    1    2    0    0  0.66137927905E+02  0.59987113050E+01  0.13984541954E+03  0.19898035446E+03  0.12500492010E+03 0.  0.
          2    1    1    2  501    0 -0.10047624794E+03 -0.74681465974E+01 -0.83930080154E+03  0.84532661444E+03  0.00000000000E+00 0. -1.
          1    1    1    2  502    0  0.34338320037E+02  0.14694352924E+01  0.23113316655E+03  0.23367460312E+03  0.00000000000E+00 0. -1.
         22    1    3    3    0    0  0.95137084311E+02  0.25858324836E+02  0.70390283012E+02  0.12113839076E+03  0.00000000000E+00 0.  1.
         22    1    3    3    0    0 -0.28999156406E+02 -0.19859613531E+02  0.69455136532E+02  0.77841963699E+02  0.00000000000E+00 0.  1.
</event>
<event>
 7    1  0.5789396E-006  0.6560054E+02  0.7818608E-02  0.1422654E+00
          2   -1    0    0  502    0  0.00000000000E+00  0.00000000000E+00  0.39837791776E+03  0.39837791776E+03  0.00000000000E+00 0. -1.
          1   -1    0    0  501    0 -0.00000000000E+00 -0.00000000000E+00 -0.73898107642E+03  0.73898107642E+03  0.00000000000E+00 0. -1.
         25    2    1    2    0    0  0.91648253814E+02  0.59141627945E+02 -0.20878100065E+03  0.26666951819E+03  0.12500396441E+03 0.  0.
          2    1    1    2  501    0 -0.41758119298E+02 -0.17344376688E+02 -0.49735565843E+03  0.49940686709E+03  0.00000000000E+00 0. -1.
          1    1    1    2  502    0 -0.49890134516E+02 -0.41797251256E+02  0.36553350042E+03  0.37128260889E+03  0.00000000000E+00 0. -1.
         22    1    3    3    0    0 -0.67044932373E+01  0.17007358149E+02  0.11625286211E+02  0.21664434917E+02  0.00000000000E+00 0. -1.
         22    1    3    3    0    0  0.98352747051E+02  0.42134269796E+02 -0.22040628686E+03  0.24500508328E+03  0.00000000000E+00 0. -1.
</event>
<event>
 7    1  0.5789396E-006  0.1062721E+03  0.7818608E-02  0.1358867E+00
          2   -1    0    0  502    0  0.00000000000E+00  0.00000000000E+00  0.16649823117E+04  0.16649823117E+04  0.00000000000E+00 0. -1.
          1   -1    0    0  501    0 -0.00000000000E+00 -0.00000000000E+00 -0.28609732264E+03  0.28609732264E+03  0.00000000000E+00 0. -1.
         25    2    1    2    0    0 -0.28023824131E+02 -0.12289588779E+03 -0.18207251099E+03  0.25429035848E+03  0.12499781280E+03 0.  0.
          2    1    1    2  501    0  0.43057471626E+02  0.17785024804E+02 -0.57978051703E+02  0.74375449239E+02  0.00000000000E+00 0. -1.
          1    1    1    2  502    0 -0.15033647495E+02  0.10511086299E+03  0.16189355518E+04  0.16224138266E+04  0.00000000000E+00 0. -1.
         22    1    3    3    0    0 -0.59689080823E+02 -0.10921758875E+03 -0.83555183331E+02  0.14990909486E+03  0.00000000000E+00 0. -1.
         22    1    3    3    0    0  0.31665256692E+02 -0.13678299047E+02 -0.98517327656E+02  0.10438126362E+03  0.00000000000E+00 0. -1.
</event>
<event>
 7    1  0.5789396E-006  0.9883096E+02  0.7818608E-02  0.1390315E+00
          2   -1    0    0  502    0  0.00000000000E+00  0.00000000000E+00  0.52729488617E+03  0.52729488617E+03  0.00000000000E+00 0. -1.
          1   -1    0    0  501    0 -0.00000000000E+00 -0.00000000000E+00 -0.17594379976E+03  0.17594379976E+03  0.00000000000E+00 0. -1.
         25    2    1    2    0    0 -0.59105024184E+02  0.30307785264E+02  0.91395966283E+02  0.16849346624E+03  0.12499943912E+03 0.  0.
          2    1    1    2  501    0 -0.37051069035E+02  0.11105725245E+02 -0.12758131011E+03  0.13331582629E+03  0.00000000000E+00 0. -1.
          1    1    1    2  502    0  0.96156093219E+02 -0.41413510509E+02  0.38753643024E+03  0.40142939339E+03  0.00000000000E+00 0. -1.
         22    1    3    3    0    0 -0.74855786780E+02  0.35777443095E+02  0.11363422315E+03  0.14069879502E+03  0.00000000000E+00 0.  1.
         22    1    3    3    0    0  0.15750762596E+02 -0.54696578306E+01 -0.22238256872E+02  0.27794671213E+02  0.00000000000E+00 0.  1.
</event>
<event>
 7    1  0.5789396E-006  0.7999500E+02  0.7818608E-02  0.1376786E+00
          2   -1    0    0  502    0  0.00000000000E+00  0.00000000000E+00  0.53460121195E+03  0.53460121195E+03  0.00000000000E+00 0. -1.
          1   -1    0    0  501    0 -0.00000000000E+00 -0.00000000000E+00 -0.76669908955E+02  0.76669908955E+02  0.00000000000E+00 0. -1.
         25    2    1    2    0    0  0.96452168768E+02 -0.60583084753E+02  0.40189869240E+03  0.43603014099E+03  0.12500557540E+03 0.  0.
          2    1    1    2  501    0 -0.40506955031E+02  0.34689784790E+02 -0.36089946077E+02  0.64394710827E+02  0.00000000000E+00 0. -1.
          1    1    1    2  502    0 -0.55945213737E+02  0.25893299963E+02  0.92122556676E+02  0.11084626909E+03  0.00000000000E+00 0. -1.
         22    1    3    3    0    0  0.27361606650E+01 -0.26512607252E+02  0.54134535124E+01  0.27197617495E+02  0.00000000000E+00 0. -1.
         22    1    3    3    0    0  0.93716008103E+02 -0.34070477501E+02  0.39648523888E+03  0.40883252349E+03  0.00000000000E+00 0. -1.
</event>
<event>
 7    1  0.5789396E-006  0.5227156E+02  0.7818608E-02  0.1531873E+00
          2   -1    0    0  502    0  0.00000000000E+00  0.00000000000E+00  0.16652755320E+02  0.16652755320E+02  0.00000000000E+00 0. -1.
          1   -1    0    0  501    0 -0.00000000000E+00 -0.00000000000E+00 -0.19536932099E+04  0.19536932099E+04  0.00000000000E+00 0. -1.
         25    2    1    2    0    0 -0.28473798500E+02  0.16031486103E+02 -0.11925555475E+04  0.11995340368E+04  0.12500162244E+03 0.  0.
          2    1    1    2  501    0  0.50900753263E+02 -0.29441172796E+02 -0.74226181828E+03  0.74458731940E+03  0.00000000000E+00 0. -1.
          1    1    1    2  502    0 -0.22426954763E+02  0.13409686693E+02 -0.22230887648E+01  0.26224609069E+02  0.00000000000E+00 0. -1.
         22    1    3    3    0    0  0.27650659037E+02  0.49230147024E+02 -0.75957344796E+03  0.76166921243E+03  0.00000000000E+00 0.  1.
         22    1    3    3    0    0 -0.56124457537E+02 -0.33198660921E+02 -0.43298209958E+03  0.43786482432E+03  0.00000000000E+00 0.  1.
</event>
<event>
 7    1  0.5789396E-006  0.5246082E+02  0.7818608E-02  0.1472357E+00
          2   -1    0    0  502    0  0.00000000000E+00  0.00000000000E+00  0.88046458906E+03  0.88046458906E+03  0.00000000000E+00 0. -1.
          1   -1    0    0  501    0 -0.00000000000E+00 -0.00000000000E+00 -0.31653540362E+03  0.31653540362E+03  0.00000000000E+00 0. -1.
         25    2    1    2    0    0  0.32760121002E+02  0.74447428685E+02  0.76584206885E+02  0.16764914717E+03  0.12500180253E+03 0.  0.
          2    1    1    2  501    0 -0.37870444807E+02 -0.35632047467E+02 -0.26799703014E+03  0.27299491123E+03  0.00000000000E+00 0. -1.
          1    1    1    2  502    0  0.51103238051E+01 -0.38815381218E+02  0.75534200869E+03  0.75635593428E+03  0.00000000000E+00 0. -1.
         22    1    3    3    0    0  0.13599722829E+01  0.82964035575E+02 -0.15736583630E+01  0.82990102567E+02  0.00000000000E+00 0. -1.
         22    1    3    3    0    0  0.31400148719E+02 -0.85166068896E+01  0.78157865248E+02  0.84659044600E+02  0.00000000000E+00 0. -1.
</event>
<event>
 7    1  0.5789396E-006  0.1410933E+03  0.7818608E-02  0.1376995E+00
          2   -1    0    0  502    0  0.00000000000E+00  0.00000000000E+00  0.29010211929E+03  0.29010211929E+03  0.00000000000E+00 0. -1.
          1   -1    0    0  501    0 -0.00000000000E+00 -0.00000000000E+00 -0.15432093444E+04  0.15432093444E+04  0.00000000000E+00 0. -1.
         25    2    1    2    0    0  0.85342150349E+02 -0.78670790995E+02 -0.21149144051E+03  0.27170743331E+03  0.12499569562E+03 0.  0.
          2    1    1    2  501    0  0.29352015661E+02 -0.70425075677E+01 -0.12817052829E+04  0.12820606733E+04  0.00000000000E+00 0. -1.
          1    1    1    2  502    0 -0.11469416601E+03  0.85713298563E+02  0.24008949834E+03  0.27954335707E+03  0.00000000000E+00 0. -1.
         22    1    3    3    0    0  0.53422871375E+02 -0.11135253551E+03 -0.16899195349E+03  0.20931237588E+03  0.00000000000E+00 0.  1.
         22    1    3    3    0    0  0.31919278974E+02  0.32681744516E+02 -0.42499487020E+02  0.62395057430E+02  0.00000000000E+00 0.  1.
</event>
<event>
 7    1  0.5789396E-006  0.9574237E+02  0.7818608E-02  0.1335009E+00
          2   -1    0    0  502    0  0.00000000000E+00  0.00000000000E+00  0.35336307921E+03  0.35336307921E+03  0.00000000000E+00 0. -1.
          1   -1    0    0  501    0 -0.00000000000E+00 -0.00000000000E+00 -0.11822456347E+04  0.11822456347E+04  0.00000000000E+00 0. -1.
         25    2    1    2    0    0 -0.26592099441E+01  0.54733208478E+02 -0.15051914246E+03  0.20318501064E+03  0.12500136318E+03 0.  0.
          2    1    1    2  501    0 -0.52786059927E+02 -0.85569419405E+02 -0.99977133659E+03  0.10048140222E+04  0.00000000000E+00 0. -1.
          1    1    1    2  502    0  0.55445269871E+02  0.30836210927E+02  0.32140792354E+03  0.32760968113E+03  0.00000000000E+00 0. -1.
         22    1    3    3    0    0  0.20898696262E+02  0.89369465082E+02 -0.12131253124E+03  0.15211964709E+03  0.00000000000E+00 0. -1.
         22    1    3    3    0    0 -0.23557906206E+02 -0.34636256603E+02 -0.29206611214E+02  0.51065363554E+02  0.00000000000E+00 0. -1.
</event>
<event>
 7    1  0.5789396E-006  0.3682845E+02  0.7818608E-02  0.1585789E+00
          2   -1    0    0  502    0  0.00000000000E+00  0.00000000000E+00  0.76582143820E+03  0.76582143820E+03  0.00000000000E+00 0. -1.
          1   -1    0    0  501    0 -0.00000000000E+00 -0.00000000000E+00 -0.58971632432E+03  0.58971632432E+03  0.00000000000E+00 0. -1.
         25    2    1    2    0    0 -0.11357130068E+02  0.81851778922E+01  0.12488733576E+03  0.17724849325E+03  0.12499680070E+03 0.  0.
          2    1    1    2  501    0  0.13308119477E+02 -0.34447723079E+02 -0.56264813168E+03  0.56385873386E+03  0.00000000000E+00 0. -1.
          1    1    1    2  502    0 -0.19509894091E+01  0.26262545187E+02  0.61386590980E+03  0.61443053542E+03  0.00000000000E+00 0. -1.
         22    1    3    3    0    0 -0.35699610644E+02 -0.14319829825E+02  0.13673593845E+03  0.14204308005E+03  0.00000000000E+00 0.  1.
         22    1    3    3    0    0  0.24342480577E+02  0.22505007717E+02 -0.11848602688E+02  0.35205413201E+02  0.00000000000E+00 0.  1.
</event>
<event>
 7    1  0.5789396E-006  0.1257609E+03  0.7818608E-02  0.1397365E+00
          2   -1    0    0  502    0  0.00000000000E+00  0.00000000000E+00  0.23673455868E+03  0.23673455868E+03  0.00000000000E+00 0. -1.
          1   -1    0    0  501    0 -0.00000000000E+00 -0.00000000000E+00 -0.79637872786E+03  0.79637872786E+03  0.00000000000E+00 0. -1.
         25    2    1    2    0    0  0.16523154955E+02  0.10593045217E+03  0.13949312269E+02  0.16527452699E+03  0.12500724225E+03 0.  0.
          2    1    1    2  501    0 -0.92149517998E+01  0.27214433700E+02 -0.69014115009E+03  0.69073898672E+03  0.00000000000E+00 0. -1.
          1    1    1    2  502    0 -0.73082031550E+01 -0.13314488587E+03  0.11654766864E+03  0.17709977282E+03  0.00000000000E+00 0. -1.
         22    1    3    3    0    0  0.35129114671E+02 -0.14210741811E+02 -0.14229558467E+02  0.40478144900E+02  0.00000000000E+00 0.  1.
         22    1    3    3    0    0 -0.18605959716E+02  0.12014119398E+03  0.28178870736E+02  0.12479638209E+03  0.00000000000E+00 0.  1.
</event>
<event>
 7    1  0.5789396E-006  0.1914355E+03  0.7818608E-02  0.1226444E+00
          2   -1    0    0  502    0  0.00000000000E+00  0.00000000000E+00  0.15059711645E+04  0.15059711645E+04  0.00000000000E+00 0. -1.
          1   -1    0    0  501    0 -0.00000000000E+00 -0.00000000000E+00 -0.35437831404E+03  0.35437831404E+03  0.00000000000E+00 0. -1.
         25    2    1    2    0    0 -0.12422583919E+03  0.92606854544E+02  0.31584957435E+03  0.37335462286E+03  0.12499852865E+03 0.  0.
          2    1    1    2  501    0  0.21579743405E+02  0.86563136833E+02 -0.31010874544E+03  0.32268606412E+03  0.00000000000E+00 0. -1.
          1    1    1    2  502    0  0.10264609578E+03 -0.17916999138E+03  0.11458520216E+04  0.11643087916E+04  0.00000000000E+00 0. -1.
         22    1    3    3    0    0 -0.10639119404E+02  0.55645725637E+02  0.31242013084E+02  0.64696993940E+02  0.00000000000E+00 0. -1.
         22    1    3    3    0    0 -0.11358671978E+03  0.36961128907E+02  0.28460756127E+03  0.30865762892E+03  0.00000000000E+00 0. -1.
</event>
<event>
 7    1  0.5789396E-006  0.4661216E+02  0.7818608E-02  0.1502915E+00
          2   -1    0    0  502    0  0.00000000000E+00  0.00000000000E+00  0.37227543480E+02  0.37227543480E+02  0.00000000000E+00 0. -1.
          1   -1    0    0  501    0 -0.00000000000E+00 -0.00000000000E+00 -0.12059205260E+04  0.12059205260E+04  0.00000000000E+00 0. -1.
         25    2    1    2    0    0  0.46798157630E+02  0.62797064800E+01 -0.58517120096E+03  0.60023359352E+03  0.12500212032E+03 0.  0.
          2    1    1    2  501    0 -0.17868760750E+02  0.30776978773E+02 -0.59373951890E+03  0.59480512047E+03  0.00000000000E+00 0. -1.
          1    1    1    2  502    0 -0.28929396881E+02 -0.37056685253E+02  0.10217737372E+02  0.48109355461E+02  0.00000000000E+00 0. -1.
         22    1    3    3    0    0 -0.17018840583E+02 -0.12702906341E+02 -0.14554429285E+02  0.25745604986E+02  0.00000000000E+00 0. -1.
         22    1    3    3    0    0  0.63816998213E+02  0.18982612821E+02 -0.57061677167E+03  0.57448798853E+03  0.00000000000E+00 0. -1.
</event>
<event>
 7    1  0.5789396E-006  0.1329710E+03  0.7818608E-02  0.1255343E+00
          2   -1    0    0  502    0  0.00000000000E+00  0.00000000000E+00  0.17115579189E+03  0.17115579189E+03  0.00000000000E+00 0. -1.
          1   -1    0    0  501    0 -0.00000000000E+00 -0.00000000000E+00 -0.72684469887E+03  0.72684469887E+03  0.00000000000E+00 0. -1.
         25    2    1    2    0    0 -0.72848038981E+02 -0.10901953705E+03 -0.11344723955E+03  0.21374556628E+03  0.12499917879E+03 0.  0.
          2    1    1    2  501    0  0.13381644047E+03  0.35111382012E+02 -0.53397778625E+03  0.55160848896E+03  0.00000000000E+00 0. -1.
          1    1    1    2  502    0 -0.60968401493E+02  0.73908155036E+02  0.91736118817E+02  0.13264643552E+03  0.00000000000E+00 0. -1.
         22    1    3    3    0    0 -0.27033053527E+02  0.25551435926E+02 -0.36436348550E+02  0.52069850744E+02  0.00000000000E+00 0.  1.
         22    1    3    3    0    0 -0.45814985454E+02 -0.13457097297E+03 -0.77010891004E+02  0.16167571553E+03  0.00000000000E+00 0.  1.
</event>
<event>
 7    1  0.5789396E-006  0.4356792E+02  0.7818608E-02  0.1544401E+00
          2   -1    0    0  502    0  0.00000000000E+00  0.00000000000E+00  0.88021762692E+03  0.88021762692E+03  0.00000000000E+00 0. -1.
          1   -1    0    0  501    0 -0.00000000000E+00 -0.00000000000E+00 -0.13387427699E+04  0.13387427699E+04  0.00000000000E+00 0. -1.
         25    2    1    2    0    0 -0.45735156380E+02 -0.16403013173E+02 -0.75723596564E+03  0.76902019490E+03  0.12499995654E+03 0.  0.
          2    1    1    2  501    0  0.24822855159E+02  0.36334803365E+02 -0.57453445886E+03  0.57621717823E+03  0.00000000000E+00 0. -1.
          1    1    1    2  502    0  0.20912301221E+02 -0.19931790192E+02  0.87324528147E+03  0.87372302374E+03  0.00000000000E+00 0. -1.
         22    1    3    3    0    0 -0.38054775211E+02 -0.64650737342E+02 -0.30233752206E+03  0.31150579610E+03  0.00000000000E+00 0. -1.
         22    1    3    3    0    0 -0.76803811686E+01  0.48247724169E+02 -0.45489844358E+03  0.45751439880E+03  0.00000000000E+00 0. -1.
</event>
<event>
 7    1  0.5789396E-006  0.6387254E+02  0.7818608E-02  0.1453689E+00
          2   -1    0    0  502    0  0.00000000000E+00  0.00000000000E+00  0.86134469400E+02  0.86134469400E+02  0.00000000000E+00 0. -1.
          1   -1    0    0  501    0 -0.00000000000E+00 -0.00000000000E+00 -0.29552981959E+03  0.29552981959E+03  0.00000000000E+00 0. -1.
         25    2    1    2    0    0 -0.22843341464E+02  0.79203906636E+02 -0.10220805436E+03  0.18128868555E+03  0.12499609616E+03 0.  0.
          2    1    1    2  501    0 -0.92154804456E+01 -0.61126266477E+02 -0.13874561418E+03  0.15189368317E+03  0.00000000000E+00 0. -1.
          1    1    1    2  502    0  0.32058821910E+02 -0.18077640159E+02  0.31558318352E+02  0.48481920271E+02  0.00000000000E+00 0. -1.
         22    1    3    3    0    0  0.31452958110E+02  0.77283507287E+02 -0.25422123252E+02  0.87225646590E+02  0.00000000000E+00 0. -1.
         22    1    3    3    0    0 -0.54296299574E+02  0.19203993485E+01 -0.76785931110E+02  0.94063038955E+02  0.00000000000E+00 0. -1.
</event>
<event>
 7    1  0.5789396E-006  0.1335722E+03  0.7818608E-02  0.1367564E+00
          2   -1    0    0  502    0  0.00000000000E+00  0.00000000000E+00  0.12423274034E+04  0.12423274034E+04  0.00000000000E+00 0. -1.
          1   -1    0    0  501    0 -0.00000000000E+00 -0.00000000000E+00 -0.43107686856E+03  0.43107686856E+03  0.00000000000E+00 0. -1.
         25    2    1    2    0    0  0.87796505675E+02  0.11973260280E+03  0.53235222099E+02  0.20125384012E+03  0.12499998683E+03 0.  0.
          2    1    1    2  501    0 -0.34404629617E+02  0.20296212444E+01 -0.35226049531E+03  0.35394244512E+03  0.00000000000E+00 0. -1.
          1    1    1    2  502    0 -0.53391876058E+02 -0.12176222405E+03  0.11102758081E+04  0.11182079868E+04  0.00000000000E+00 0. -1.
         22    1    3    3    0    0  0.41899089667E+02 -0.19430735718E+02  0.23142595557E+02  0.51659141830E+02  0.00000000000E+00 0. -1.
         22    1    3    3    0    0  0.45897416008E+02  0.13916333852E+03  0.30092626542E+02  0.14959469829E+03  0.00000000000E+00 0. -1.
</event>
<event>
 7    1  0.5789396E-006  0.1403650E+03  0.7818608E-02  0.1243166E+00
          2   -1    0    0  502    0  0.00000000000E+00  0.00000000000E+00  0.76630173527E+03  0.76630173527E+03  0.00000000000E+00 0. -1.
          1   -1    0    0  501    0 -0.00000000000E+00 -0.00000000000E+00 -0.27498267466E+03  0.27498267466E+03  0.00000000000E+00 0. -1.
         25    2    1    2    0    0 -0.70666933983E+02 -0.68746577006E+01  0.51964625299E+02  0.15286582557E+03  0.12500624732E+03 0.  0.
          2    1    1    2  501    0  0.13975842084E+03  0.82613959827E+02 -0.19048863884E+03  0.25028664383E+03  0.00000000000E+00 0. -1.
          1    1    1    2  502    0 -0.69091486853E+02 -0.75739302126E+02  0.62984307416E+03  0.63813194052E+03  0.00000000000E+00 0. -1.
         22    1    3    3    0    0 -0.32787348784E+02 -0.34766346665E+02  0.83517543209E+02  0.96223121569E+02  0.00000000000E+00 0. -1.
         22    1    3    3    0    0 -0.37879585199E+02  0.27891688964E+02 -0.31552917911E+02  0.56642704003E+02  0.00000000000E+00 0. -1.
</event>
<event>
 7    1  0.5789396E-006  0.8508574E+02  0.7818608E-02  0.1437671E+00
          2   -1    0    0  502    0  0.00000000000E+00  0.00000000000E+00  0.71910057795E+03  0.71910057795E+03  0.00000000000E+00 0. -1.
          1   -1    0    0  501    0 -0.00000000000E+00 -0.00000000000E+00 -0.10863957002E+04  0.10863957002E+04  0.00000000000E+00 0. -1.
         25    2    1    2    0    0 -0.45783645497E+02  0.36257166290E+02  0.11700633330E+03  0.18090358862E+03  0.12499960817E+03 0.  0.
          2    1    1    2  501    0 -0.15209201343E+02  0.27140809449E+02 -0.10508218494E+04  0.10512823134E+04  0.00000000000E+00 0. -1.
          1    1    1    2  502    0  0.60992846840E+02 -0.63397975739E+02  0.56652039386E+03  0.57331037611E+03  0.00000000000E+00 0. -1.
         22    1    3    3    0    0  0.20188393052E+02  0.46566388409E+02  0.99776897804E+02  0.11194386575E+03  0.00000000000E+00 0.  1.
         22    1    3    3    0    0 -0.65972038549E+02 -0.10309222119E+02  0.17229435493E+02  0.68959722870E+02  0.00000000000E+00 0.  1.
</event>
<event>
 7    1  0.5789396E-006  0.8122421E+02  0.7818608E-02  0.1408762E+00
          2   -1    0    0  502    0  0.00000000000E+00  0.00000000000E+00  0.35212488984E+02  0.35212488984E+02  0.00000000000E+00 0. -1.
          1   -1    0    0  501    0 -0.00000000000E+00 -0.00000000000E+00 -0.26528342068E+04  0.26528342068E+04  0.00000000000E+00 0. -1.
         25    2    1    2    0    0 -0.63765798432E+01  0.35799725974E+01 -0.12793565607E+03  0.17901477377E+03  0.12500112064E+03 0.  0.
          2    1    1    2  501    0 -0.79099801889E+02  0.18455179556E+02 -0.22809911015E+04  0.22824368069E+04  0.00000000000E+00 0. -1.
          1    1    1    2  502    0  0.85476381732E+02 -0.22035152154E+02 -0.20869496029E+03  0.22659511516E+03  0.00000000000E+00 0. -1.
         22    1    3    3    0    0 -0.18022209802E+02  0.57509144329E+02 -0.31724494480E+02  0.68106866596E+02  0.00000000000E+00 0.  1.
         22    1    3    3    0    0  0.11645629959E+02 -0.53929171732E+02 -0.96211161586E+02  0.11090790718E+03  0.00000000000E+00 0.  1.
</event>
<event>
 7    1  0.5789396E-006  0.1098669E+03  0.7818608E-02  0.1386890E+00
          2   -1    0    0  502    0  0.00000000000E+00  0.00000000000E+00  0.14750621519E+04  0.14750621519E+04  0.00000000000E+00 0. -1.
          1   -1    0    0  501    0 -0.00000000000E+00 -0.00000000000E+00 -0.34440753791E+02  0.34440753791E+02  0.00000000000E+00 0. -1.
         25    2    1    2    0    0 -0.85345216353E+02 -0.46344842293E+02  0.24876627680E+03  0.29485624015E+03  0.12499556602E+03 0.  0.
          2    1    1    2  501    0  0.12091444383E+03  0.42584752921E+02  0.36212829319E+03  0.38414927390E+03  0.00000000000E+00 0. -1.
          1    1    1    2  502    0 -0.35569227479E+02  0.37600893718E+01  0.82972682813E+03  0.83049739165E+03  0.00000000000E+00 0. -1.
         22    1    3    3    0    0  0.67125970368E+01 -0.63955170812E+02  0.93068669184E+02  0.11312426802E+03  0.00000000000E+00 0.  1.
         22    1    3    3    0    0 -0.92057813389E+02  0.17610328519E+02  0.15569760761E+03  0.18173197213E+03  0.00000000000E+00 0.  1.
</event>
<event>
 7    1  0.5789396E-006  0.9303672E+02  0.7818608E-02  0.1354216E+00
          2   -1    0    0  502    0  0.00000000000E+00  0.00000000000E+00  0.12092997668E+04  0.12092997668E+04  0.00000000000E+00 0. -1.
          1   -1    0    0  501    0 -0.00000000000E+00 -0.00000000000E+00 -0.30712070197E+03  0.30712070197E+03  0.00000000000E+00 0. -1.
         25    2    1    2    0    0 -0.67030034075E+02 -0.11364810904E+03  0.14611199125E+03  0.23321320197E+03  0.12502305958E+03 0.  0.
          2    1    1    2  501    0  0.50013729012E+02  0.23700848117E+02 -0.25858122008E+03  0.26443780113E+03  0.00000000000E+00 0. -1.
          1    1    1    2  502    0  0.17016305062E+02  0.89947260920E+02  0.10146482936E+04  0.10187694656E+04  0.00000000000E+00 0. -1.
         22    1    3    3    0    0 -0.42860102679E+02  0.23783200938E+01 -0.26551800936E+01  0.43008078188E+02  0.00000000000E+00 0. -1.
         22    1    3    3    0    0 -0.24169931396E+02 -0.11602642913E+03  0.14876717135E+03  0.19020512378E+03  0.00000000000E+00 0. -1.
</event>
<event>
 7    1  0.5789396E-006  0.9768808E+02  0.7818608E-02  0.1295757E+00
          2   -1    0    0  502    0  0.00000000000E+00  0.00000000000E+00  0.15526050224E+04  0.15526050224E+04  0.00000000000E+00 0. -1.
          1   -1    0    0  501    0 -0.00000000000E+00 -0.00000000000E+00 -0.17494095587E+03  0.17494095587E+03  0.00000000000E+00 0. -1.
         25    2    1    2    0    0  0.21427927990E+02  0.17948633266E+03  0.38901117320E+03  0.44679822562E+03  0.12499784728E+03 0.  0.
          2    1    1    2  501    0 -0.10486918094E+02 -0.87903679129E+02 -0.13055864113E+03  0.15774216630E+03  0.00000000000E+00 0. -1.
          1    1    1    2  502    0 -0.10941009897E+02 -0.91582653533E+02  0.11192115345E+04  0.11230055864E+04  0.00000000000E+00 0. -1.
         22    1    3    3    0    0  0.63437751461E+02  0.59301625587E+02  0.20891901020E+03  0.22624805840E+03  0.00000000000E+00 0.  1.
         22    1    3    3    0    0 -0.42009823471E+02  0.12018470707E+03  0.18009216300E+03  0.22055016721E+03  0.00000000000E+00 0.  1.
</event>
<event>
 7    1  0.5789396E-006  0.1391105E+03  0.7818608E-02  0.1364961E+00
          2   -1    0    0  502    0  0.00000000000E+00  0.00000000000E+00  0.39364210425E+03  0.39364210425E+03  0.00000000000E+00 0. -1.
          1   -1    0    0  501    0 -0.00000000000E+00 -0.00000000000E+00 -0.10038608323E+04  0.10038608323E+04  0.00000000000E+00 0. -1.
         25    2    1    2    0    0  0.11661930568E+03 -0.98566004839E+02  0.30779218339E+02  0.19972265802E+03  0.12500584018E+03 0.  0.
          2    1    1    2  501    0 -0.12233481511E+03  0.65235232568E+02 -0.91310981501E+03  0.92357510621E+03  0.00000000000E+00 0. -1.
          1    1    1    2  502    0  0.57155094365E+01  0.33330772270E+02  0.27211186867E+03  0.27420517227E+03  0.00000000000E+00 0. -1.
         22    1    3    3    0    0  0.98471788336E+02 -0.65345186132E+01  0.37746194041E+02  0.10566062746E+03  0.00000000000E+00 0.  1.
         22    1    3    3    0    0  0.18147517342E+02 -0.92031486225E+02 -0.69669757025E+01  0.94062030559E+02  0.00000000000E+00 0.  1.
</event>
<event>
 7    1  0.5789396E-006  0.1853508E+03  0.7818608E-02  0.1298745E+00
          2   -1    0    0  502    0  0.00000000000E+00  0.00000000000E+00  0.14591743800E+03  0.14591743800E+03  0.00000000000E+00 0. -1.
          1   -1    0    0  501    0 -0.00000000000E+00 -0.00000000000E+00 -0.84307516719E+03  0.84307516719E+03  0.00000000000E+00 0. -1.
         25    2    1    2    0    0 -0.94360340075E+02 -0.11322408673E+03 -0.51540109702E+03  0.55043972646E+03  0.12498813569E+03 0.  0.
          2    1    1    2  501    0 -0.14908047569E+02 -0.42866515606E+02 -0.23609713265E+03  0.24041972483E+03  0.00000000000E+00 0. -1.
          1    1    1    2  502    0  0.10926838764E+03  0.15609060234E+03  0.54340500485E+02  0.19813315389E+03  0.00000000000E+00 0. -1.
         22    1    3    3    0    0  0.15034589917E+02 -0.69505936739E+02 -0.25304343189E+03  0.26284613856E+03  0.00000000000E+00 0.  1.
         22    1    3    3    0    0 -0.10939492999E+03 -0.43718149994E+02 -0.26235766513E+03  0.28759358790E+03  0.00000000000E+00 0.  1.
</event>
<event>
 7    1  0.5789396E-006  0.8311939E+02  0.7818608E-02  0.1452818E+00
          2   -1    0    0  502    0  0.00000000000E+00  0.00000000000E+00  0.23736776650E+04  0.23736776650E+04  0.00000000000E+00 0. -1.
          1   -1    0    0  501    0 -0.00000000000E+00 -0.00000000000E+00 -0.19844285427E+02  0.19844285427E+02  0.00000000000E+00 0. -1.
         25    2    1    2    0    0 -0.52296946263E+02  0.96299318292E+02  0.16379607934E+04  0.16463747337E+04  0.12500269486E+03 0.  0.
          2    1    1    2  501    0  0.41724791432E+02 -0.69872202997E+02  0.92820220250E+02  0.12344503335E+03  0.00000000000E+00 0. -1.
          1    1    1    2  502    0  0.10572154831E+02 -0.26427115295E+02  0.62305236591E+03  0.62370218338E+03  0.00000000000E+00 0. -1.
         22    1    3    3    0    0 -0.76153647687E+01 -0.28668470238E+02  0.46139557870E+03  0.46234808858E+03  0.00000000000E+00 0. -1.
         22    1    3    3    0    0 -0.44681581494E+02  0.12496778853E+03  0.11765652147E+04  0.11840266451E+04  0.00000000000E+00 0. -1.
</event>
<event>
 7    1  0.5789396E-006  0.5554564E+02  0.7818608E-02  0.1507335E+00
          2   -1    0    0  502    0  0.00000000000E+00  0.00000000000E+00  0.52000648721E+02  0.52000648721E+02  0.00000000000E+00 0. -1.
          1   -1    0    0  501    0 -0.00000000000E+00 -0.00000000000E+00 -0.16110330683E+04  0.16110330683E+04  0.00000000000E+00 0. -1.
         25    2    1    2    0    0  0.30638051576E+02 -0.70989199329E+01 -0.56928344118E+03  0.58369319770E+03  0.12500011107E+03 0.  0.
          2    1    1    2  501    0 -0.58409043736E+02 -0.11751477613E+01 -0.10289416505E+04  0.10305988150E+04  0.00000000000E+00 0. -1.
          1    1    1    2  502    0  0.27770992161E+02  0.82740676942E+01  0.39192672052E+02  0.48741704365E+02  0.00000000000E+00 0. -1.
         22    1    3    3    0    0 -0.13204429698E+02 -0.45760288995E+02 -0.43015982071E+03  0.43278843835E+03  0.00000000000E+00 0. -1.
         22    1    3    3    0    0  0.43842481274E+02  0.38661369062E+02 -0.13912362047E+03  0.15090475935E+03  0.00000000000E+00 0. -1.
</event>
<event>
 7    1  0.5789396E-006  0.1119317E+03  0.7818608E-02  0.1335561E+00
          2   -1    0    0  502    0  0.00000000000E+00  0.00000000000E+00  0.60011369864E+03  0.60011369864E+03  0.00000000000E+00 0. -1.
          1   -1    0    0  501    0 -0.00000000000E+00 -0.00000000000E+00 -0.10604484886E+04  0.10604484886E+04  0.00000000000E+00 0. -1.
         25    2    1    2    0    0  0.14846858927E+03  0.37172256297E+02  0.19472188670E+03  0.27742660922E+03  0.12499684677E+03 0.  0.
          2    1    1    2  501    0 -0.53519487555E+02  0.72360914615E+01 -0.10108148016E+04  0.10122565187E+04  0.00000000000E+00 0. -1.
          1    1    1    2  502    0 -0.94949101720E+02 -0.44408347759E+02  0.35575812487E+03  0.37087905937E+03  0.00000000000E+00 0. -1.
         22    1    3    3    0    0 -0.30344316883E+01 -0.31055227563E+02  0.36026034057E+02  0.47660361565E+02  0.00000000000E+00 0. -1.
         22    1    3    3    0    0  0.15150302096E+03  0.68227483860E+02  0.15869585265E+03  0.22976624766E+03  0.00000000000E+00 0. -1.
</event>
<event>
 7    1  0.5789396E-006  0.7458892E+02  0.7818608E-02  0.1360743E+00
          2   -1    0    0  502    0  0.00000000000E+00  0.00000000000E+00  0.16521098111E+04  0.16521098111E+04  0.00000000000E+00 0. -1.
          1   -1    0    0  501    0 -0.00000000000E+00 -0.00000000000E+00 -0.48843822961E+03  0.48843822961E+03  0.00000000000E+00 0. -1.
         25    2    1    2    0    0 -0.31033495525E+02  0.39561953111E+02  0.12933811429E+03  0.18676811685E+03  0.12500302270E+03 0.  0.
          2    1    1    2  501    0 -0.26358130478E+02 -0.70786616605E+02 -0.45589992804E+03  0.46211496462E+03  0.00000000000E+00 0. -1.
          1    1    1    2  502    0  0.57391626003E+02  0.31224663494E+02  0.14902333952E+04  0.14916649592E+04  0.00000000000E+00 0. -1.
         22    1    3    3    0    0  0.85906934033E+01 -0.40096701131E+02  0.65453994117E+02  0.77238402370E+02  0.00000000000E+00 0.  1.
         22    1    3    3    0    0 -0.39624188929E+02  0.79658654242E+02  0.63884120172E+02  0.10952971448E+03  0.00000000000E+00 0.  1.
</event>
<event>
 7    1  0.5789396E-006  0.1259818E+03  0.7818608E-02  0.1376805E+00
          2   -1    0    0  502    0  0.00000000000E+00  0.00000000000E+00  0.47783346737E+03  0.47783346737E+03  0.00000000000E+00 0. -1.
          1   -1    0    0  501    0 -0.00000000000E+00 -0.00000000000E+00 -0.11259174086E+03  0.11259174086E+03  0.00000000000E+00 0. -1.
         25    2    1    2    0    0  0.15152642961E+02 -0.10508266050E+03  0.14407461385E+02  0.16463580360E+03  0.12500161902E+03 0.  0.
          2    1    1    2  501    0  0.29810839591E+02 -0.16053196258E+02 -0.15571985528E+02  0.37267653542E+02  0.00000000000E+00 0. -1.
          1    1    1    2  502    0 -0.44963482552E+02  0.12113585676E+03  0.36640625065E+03  0.38852175110E+03  0.00000000000E+00 0. -1.
         22    1    3    3    0    0  0.18953086388E+02 -0.43920692270E+02  0.68058988371E+02  0.83188175789E+02  0.00000000000E+00 0.  1.
         22    1    3    3    0    0 -0.38004434274E+01 -0.61161968228E+02 -0.53651526986E+02  0.81447627809E+02  0.00000000000E+00 0.  1.
</event>
<event>
 7    1  0.5789396E-006  0.5629235E+02  0.7818608E-02  0.1426128E+00
          2   -1    0    0  502    0  0.00000000000E+00  0.00000000000E+00  0.89133646209E+03  0.89133646209E+03  0.00000000000E+00 0. -1.
          1   -1    0    0  501    0 -0.00000000000E+00 -0.00000000000E+00 -0.20244441794E+04  0.20244441794E+04  0.00000000000E+00 0. -1.
         25    2    1    2    0    0 -0.14496968039E+02  0.97370459299E+02 -0.82285387291E+02  0.17912476858E+03  0.12499451720E+03 0.  0.
          2    1    1    2  501    0  0.28026083736E+02 -0.42983628157E+02 -0.18924593699E+04  0.18931549119E+04  0.00000000000E+00 0. -1.
          1    1    1    2  502    0 -0.13529115697E+02 -0.54386831142E+02  0.84163703988E+03  0.84350096104E+03  0.00000000000E+00 0. -1.
         22    1    3    3    0    0 -0.43554350757E+02  0.11477380488E+03 -0.50717440209E+02  0.13282419395E+03  0.00000000000E+00 0. -1.
         22    1    3    3    0    0  0.29057382718E+02 -0.17403345586E+02 -0.31567947082E+02  0.46300574629E+02  0.00000000000E+00 0. -1.
</event>
<event>
 7    1  0.5789396E-006  0.9027257E+02  0.7818608E-02  0.1377412E+00
          2   -1    0    0  502    0  0.00000000000E+00  0.00000000000E+00  0.23358341508E+03  0.23358341508E+03  0.00000000000E+00 0. -1.
          1   -1    0    0  501    0 -0.00000000000E+00 -0.00000000000E+00 -0.13285186658E+04  0.13285186658E+04  0.00000000000E+00 0. -1.
         25    2    1    2    0    0  0.45490527117E+02 -0.10706311465E+03 -0.22020098062E+03  0.27864339006E+03  0.12498707285E+03 0.  0.
          2    1    1    2  501    0 -0.62707871395E+02  0.63311656958E+02 -0.10745232375E+04  0.10782118674E+04  0.00000000000E+00 0. -1.
          1    1    1    2  502    0  0.17217344278E+02  0.43751457689E+02  0.19978896746E+03  0.20524682339E+03  0.00000000000E+00 0. -1.
         22    1    3    3    0    0  0.43829247713E+02 -0.55721879372E+02 -0.21573115431E+03  0.22708117874E+03  0.00000000000E+00 0.  1.
         22    1    3    3    0    0  0.16612794042E+01 -0.51341235275E+02 -0.44698263095E+01  0.51562211319E+02  0.00000000000E+00 0.  1.
</event>
<event>
 7    1  0.5789396E-006  0.9139366E+02  0.7818608E-02  0.1314327E+00
          2   -1    0    0  502    0  0.00000000000E+00  0.00000000000E+00  0.26750225212E+04  0.26750225212E+04  0.00000000000E+00 0. -1.
          1   -1    0    0  501    0 -0.00000000000E+00 -0.00000000000E+00 -0.36072590319E+03  0.36072590319E+03  0.00000000000E+00 0. -1.
         25    2    1    2    0    0 -0.10272280409E+03 -0.56105786154E+02  0.31659444211E+02  0.17414528425E+03  0.12499770357E+03 0.  0.
          2    1    1    2  501    0  0.88817909887E+02 -0.22518563140E+02 -0.28159538752E+03  0.29612779180E+03  0.00000000000E+00 0. -1.
          1    1    1    2  502    0  0.13904894206E+02  0.78624349294E+02  0.25642325613E+04  0.25654753483E+04  0.00000000000E+00 0. -1.
         22    1    3    3    0    0 -0.83785206148E+02  0.83354690910E+01 -0.23295387711E+02  0.87361982022E+02  0.00000000000E+00 0.  1.
         22    1    3    3    0    0 -0.18937597945E+02 -0.64441255245E+02  0.54954831922E+02  0.86783302225E+02  0.00000000000E+00 0.  1.
</event>
<event>
 7    1  0.5789396E-006  0.3374420E+02  0.7818608E-02  0.1611864E+00
          2   -1    0    0  502    0  0.00000000000E+00  0.00000000000E+00  0.47430633638E+03  0.47430633638E+03  0.00000000000E+00 0. -1.
          1   -1    0    0  501    0 -0.00000000000E+00 -0.00000000000E+00 -0.11283220989E+04  0.11283220989E+04  0.00000000000E+00 0. -1.
         25    2    1    2    0    0  0.11358262683E+02 -0.67664915650E+01  0.74480335849E+02  0.14610459669E+03  0.12499774880E+03 0.  0.
          2    1    1    2  501    0  0.22822112526E+02  0.90821031625E+01 -0.10915654446E+04  0.10918417712E+04  0.00000000000E+00 0. -1.
          1    1    1    2  502    0 -0.34180375210E+02 -0.23156115975E+01  0.36306934625E+03  0.36468206741E+03  0.00000000000E+00 0. -1.
         22    1    3    3    0    0  0.10203632503E+02  0.15419096795E+02 -0.32202590066E+02  0.37133131691E+02  0.00000000000E+00 0.  1.
         22    1    3    3    0    0  0.11546301804E+01 -0.22185588360E+02  0.10668292591E+03  0.10897146500E+03  0.00000000000E+00 0.  1.
</event>
<event>
 7    1  0.5789396E-006  0.1172954E+03  0.7818608E-02  0.1358862E+00
          2   -1    0    0  502    0  0.00000000000E+00  0.00000000000E+00  0.24515052845E+04  0.24515052845E+04  0.00000000000E+00 0. -1.
          1   -1    0    0  501    0 -0.00000000000E+00 -0.00000000000E+00 -0.54685665333E+02  0.54685665333E+02  0.00000000000E+00 0. -1.
         25    2    1    2    0    0 -0.54352745637E+02  0.70649272433E+02  0.70546821778E+03  0.72198040406E+03  0.12499902759E+03 0.  0.
          2    1    1    2  501    0  0.45373216784E+02 -0.11189263259E+03  0.32794498388E+02  0.12511662221E+03  0.00000000000E+00 0. -1.
          1    1    1    2  502    0  0.89795288527E+01  0.41243360159E+02  0.16585569030E+04  0.16590939236E+04  0.00000000000E+00 0. -1.
         22    1    3    3    0    0 -0.91223260226E+02  0.44430386157E+02  0.57515776620E+03  0.58403955212E+03  0.00000000000E+00 0.  1.
         22    1    3    3    0    0  0.36870514589E+02  0.26218886276E+02  0.13031045158E+03  0.13794085194E+03  0.00000000000E+00 0.  1.
</event>
<event>
 7    1  0.5789396E-006  0.9992361E+02  0.7818608E-02  0.1376980E+00
          2   -1    0    0  502    0  0.00000000000E+00  0.00000000000E+00  0.69814965221E+02  0.69814965221E+02  0.00000000000E+00 0. -1.
          1   -1    0    0  501    0 -0.00000000000E+00 -0.00000000000E+00 -0.22684691477E+04  0.22684691477E+04  0.00000000000E+00 0. -1.
         25    2    1    2    0    0  0.16224071160E+02  0.73328696824E+02 -0.68441873587E+03  0.69978079428E+03  0.12499534301E+03 0.  0.
          2    1    1    2  501    0 -0.54851245593E+02 -0.91355826809E+02 -0.15670297449E+04  0.15706485181E+04  0.00000000000E+00 0. -1.
          1    1    1    2  502    0  0.38627174433E+02  0.18027129985E+02  0.52794298266E+02  0.67854800491E+02  0.00000000000E+00 0. -1.
         22    1    3    3    0    0  0.28730551714E+02  0.64078916246E+02 -0.67999090500E+03  0.68360747728E+03  0.00000000000E+00 0. -1.
         22    1    3    3    0    0 -0.12506480554E+02  0.92497805776E+01 -0.44278308660E+01  0.16173317000E+02  0.00000000000E+00 0. -1.
</event>
<event>
 7    1  0.5789396E-006  0.1103159E+03  0.7818608E-02  0.1275679E+00
          2   -1    0    0  502    0  0.00000000000E+00  0.00000000000E+00  0.28978457617E+03  0.28978457617E+03  0.00000000000E+00 0. -1.
          1   -1    0    0  501    0 -0.00000000000E+00 -0.00000000000E+00 -0.12274548769E+04  0.12274548769E+04  0.00000000000E+00 0. -1.
         25    2    1    2    0    0 -0.87717639757E+02  0.47893687209E+02 -0.58107263877E+03  0.60270974443E+03  0.12500173960E+03 0.  0.
          2    1    1    2  501    0 -0.27815269573E+01 -0.11097698721E+03 -0.61952763996E+03  0.62939504705E+03  0.00000000000E+00 0. -1.
          1    1    1    2  502    0  0.90499166715E+02  0.63083300000E+02  0.26292997799E+03  0.28513466159E+03  0.00000000000E+00 0. -1.
         22    1    3    3    0    0 -0.10433863843E+03  0.64838630754E+02 -0.36032698532E+03  0.38069165457E+03  0.00000000000E+00 0.  1.
         22    1    3    3    0    0  0.16620998672E+02 -0.16944943545E+02 -0.22074565345E+03  0.22201808987E+03  0.00000000000E+00 0.  1.
</event>
<event>
 7    1  0.5789396E-006  0.5312491E+02  0.7818608E-02  0.1477249E+00
          2   -1    0    0  502    0  0.00000000000E+00  0.00000000000E+00  0.20663805586E+04  0.20663805586E+04  0.00000000000E+00 0. -1.
          1   -1    0    0  501    0 -0.00000000000E+00 -0.00000000000E+00 -0.41517524304E+03  0.41517524304E+03  0.00000000000E+00 0. -1.
         25    2    1    2    0    0 -0.42749532512E+02 -0.78993486286E+02  0.28197081927E+03  0.32124778405E+03  0.12500040971E+03 0.  0.
          2    1    1    2  501    0  0.21285530132E+02  0.48440993803E+02 -0.39356868252E+03  0.39710944528E+03  0.00000000000E+00 0. -1.
          1    1    1    2  502    0  0.21464002380E+02  0.30552492484E+02  0.17628031788E+04  0.17631985723E+04  0.00000000000E+00 0. -1.
         22    1    3    3    0    0 -0.17118258151E+02 -0.87186767843E+02  0.28056962919E+03  0.29430236845E+03  0.00000000000E+00 0.  1.
         22    1    3    3    0    0 -0.25631274361E+02  0.81932815568E+01  0.14011900805E+01  0.26945415597E+02  0.00000000000E+00 0.  1.
</event>
<event>
 7    1  0.5789396E-006  0.4806357E+02  0.7818608E-02  0.1525898E+00
          2   -1    0    0  502    0  0.00000000000E+00  0.00000000000E+00  0.52740080264E+03  0.52740080264E+03  0.00000000000E+00 0. -1.
          1   -1    0    0  501    0 -0.00000000000E+00 -0.00000000000E+00 -0.10434358253E+04  0.10434358253E+04  0.00000000000E+00 0. -1.
         25    2    1    2    0    0  0.52632105656E+02  0.56456384662E+02 -0.19297488908E+02  0.14818467534E+03  0.12501537110E+03 0.  0.
          2    1    1    2  501    0 -0.19610981408E+02 -0.22120954230E+02 -0.95824074454E+03  0.95869664217E+03  0.00000000000E+00 0. -1.
          1    1    1    2  502    0 -0.33021124248E+02 -0.34335430431E+02  0.46150321083E+03  0.46395531038E+03  0.00000000000E+00 0. -1.
         22    1    3    3    0    0 -0.41458951809E+02  0.14875245986E+02 -0.64292586203E+01  0.44513514742E+02  0.00000000000E+00 0.  1.
         22    1    3    3    0    0  0.94091057465E+02  0.41581138676E+02 -0.12868230288E+02  0.10367116060E+03  0.00000000000E+00 0.  1.
</event>
<event>
 7    1  0.5789396E-006  0.7961740E+02  0.7818608E-02  0.1368174E+00
          2   -1    0    0  502    0  0.00000000000E+00  0.00000000000E+00  0.16161652299E+03  0.16161652299E+03  0.00000000000E+00 0. -1.
          1   -1    0    0  501    0 -0.00000000000E+00 -0.00000000000E+00 -0.15931162369E+04  0.15931162369E+04  0.00000000000E+00 0. -1.
         25    2    1    2    0    0 -0.21831301034E+02  0.28376314834E+02 -0.58826665314E+03  0.60246524257E+03  0.12499956945E+03 0.  0.
          2    1    1    2  501    0  0.50602017958E+02 -0.78192994538E+02 -0.99013349626E+03  0.99450442384E+03  0.00000000000E+00 0. -1.
          1    1    1    2  502    0 -0.28770716924E+02  0.49816679704E+02  0.14690043547E+03  0.15776309350E+03  0.00000000000E+00 0. -1.
         22    1    3    3    0    0  0.13441088885E+02  0.71761510271E+02 -0.29368050161E+03  0.30261958670E+03  0.00000000000E+00 0. -1.
         22    1    3    3    0    0 -0.35272389919E+02 -0.43385195437E+02 -0.29458615153E+03  0.29984565587E+03  0.00000000000E+00 0. -1.
</event>
<event>
 7    1  0.5789396E-006  0.2979532E+02  0.7818608E-02  0.1612365E+00
          2   -1    0    0  502    0  0.00000000000E+00  0.00000000000E+00  0.11903725747E+04  0.11903725747E+04  0.00000000000E+00 0. -1.
          1   -1    0    0  501    0 -0.00000000000E+00 -0.00000000000E+00 -0.22846153333E+03  0.22846153333E+03  0.00000000000E+00 0. -1.
         25    2    1    2    0    0 -0.18605863643E+02 -0.44498397841E+02  0.15647717777E+03  0.20600365744E+03  0.12500445648E+03 0.  0.
          2    1    1    2  501    0 -0.46366693700E+01  0.29363690407E+02 -0.20242189276E+03  0.20459312717E+03  0.00000000000E+00 0. -1.
          1    1    1    2  502    0  0.23242533013E+02  0.15134707434E+02  0.10078557564E+04  0.10082373234E+04  0.00000000000E+00 0. -1.
         22    1    3    3    0    0 -0.13887902948E+02  0.41478907931E+02  0.78361618376E+02  0.89743617522E+02  0.00000000000E+00 0.  1.
         22    1    3    3    0    0 -0.47179606952E+01 -0.85977305772E+02  0.78115559398E+02  0.11626003992E+03  0.00000000000E+00 0.  1.
</event>
<event>
 7    1  0.5789396E-006  0.1633848E+03  0.7818608E-02  0.1299589E+00
          2   -1    0    0  502    0  0.00000000000E+00  0.00000000000E+00  0.65464402480E+03  0.65464402480E+03  0.00000000000E+00 0. -1.
          1   -1    0    0  501    0 -0.00000000000E+00 -0.00000000000E+00 -0.13226548925E+04  0.13226548925E+04  0.00000000000E+00 0. -1.
         25    2    1    2    0    0  0.56303351115E+02  0.13429040987E+03 -0.43308207080E+03  0.47369657037E+03  0.12499751679E+03 0.  0.
          2    1    1    2  501    0  0.50174917084E+02 -0.96103793144E+01 -0.85789817458E+03  0.85941791909E+03  0.00000000000E+00 0. -1.
          1    1    1    2  502    0 -0.10647826820E+03 -0.12468003056E+03  0.62296937765E+03  0.64418442787E+03  0.00000000000E+00 0. -1.
         22    1    3    3    0    0  0.87202770521E+02  0.75764184545E+02 -0.34289984582E+03  0.36183537570E+03  0.00000000000E+00 0.  1.
         22    1    3    3    0    0 -0.30899419406E+02  0.58526225328E+02 -0.90182224976E+02  0.11186119467E+03  0.00000000000E+00 0.  1.
</event>
<event>
 7    1  0.5789396E-006  0.5489451E+02  0.7818608E-02  0.1473526E+00
          2   -1    0    0  502    0  0.00000000000E+00  0.00000000000E+00  0.35816106825E+04  0.35816106825E+04  0.00000000000E+00 0. -1.
          1   -1    0    0  501    0 -0.00000000000E+00 -0.00000000000E+00 -0.69351899947E+01  0.69351899947E+01  0.00000000000E+00 0. -1.
         25    2    1    2    0    0 -0.47779854659E+02  0.67980077369E+02  0.11865972511E+04  0.11960527915E+04  0.12500015369E+03 0.  0.
          2    1    1    2  501    0  0.19038024840E+02 -0.44515126979E+02  0.28468160082E+03  0.28876921021E+03  0.00000000000E+00 0. -1.
          1    1    1    2  502    0  0.28741829819E+02 -0.23464950389E+02  0.21033966406E+04  0.21037238708E+04  0.00000000000E+00 0. -1.
         22    1    3    3    0    0 -0.15732246798E+02 -0.26635804586E+01  0.15030368584E+02  0.21920543560E+02  0.00000000000E+00 0.  1.
         22    1    3    3    0    0 -0.32047607861E+02  0.70643657827E+02  0.11715668825E+04  0.11741322479E+04  0.00000000000E+00 0.  1.
</event>
<event>
 7    1  0.5789396E-006  0.8580273E+02  0.7818608E-02  0.1408366E+00
          2   -1    0    0  502    0  0.00000000000E+00  0.00000000000E+00  0.40061452131E+03  0.40061452131E+03  0.00000000000E+00 0. -1.
          1   -1    0    0  501    0 -0.00000000000E+00 -0.00000000000E+00 -0.15002185252E+04  0.15002185252E+04  0.00000000000E+00 0. -1.
         25    2    1    2    0    0 -0.11825158628E+03  0.18959211192E+02 -0.82923741816E+02  0.19194943489E+03  0.12500139700E+03 0.  0.
          2    1    1    2  501    0  0.37893294119E+02  0.74236630157E+01 -0.13573360653E+04  0.13578851964E+04  0.00000000000E+00 0. -1.
          1    1    1    2  502    0  0.80358292156E+02 -0.26382874208E+02  0.34065580325E+03  0.35099841518E+03  0.00000000000E+00 0. -1.
         22    1    3    3    0    0 -0.13716826398E+03  0.39305459781E+02 -0.81058883616E+02  0.16410543692E+03  0.00000000000E+00 0.  1.
         22    1    3    3    0    0  0.18916677706E+02 -0.20346248589E+02 -0.18648581999E+01  0.27843997974E+02  0.00000000000E+00 0.  1.
</event>
<event>
 7    1  0.5789396E-006  0.1117192E+03  0.7818608E-02  0.1328661E+00
          2   -1    0    0  502    0  0.00000000000E+00  0.00000000000E+00  0.27012162580E+02  0.27012162580E+02  0.00000000000E+00 0. -1.
          1   -1    0    0  501    0 -0.00000000000E+00 -0.00000000000E+00 -0.16495080044E+04  0.16495080044E+04  0.00000000000E+00 0. -1.
         25    2    1    2    0    0 -0.66900990316E+02 -0.36156601321E+02 -0.54169048396E+03  0.56110314726E+03  0.12500047652E+03 0.  0.
          2    1    1    2  501    0  0.12379538311E+03  0.27946327643E+02 -0.10326754766E+04  0.10404445848E+04  0.00000000000E+00 0. -1.
          1    1    1    2  502    0 -0.56894392797E+02  0.82102736772E+01 -0.48129881282E+02  0.74972434920E+02  0.00000000000E+00 0. -1.
         22    1    3    3    0    0 -0.97329931352E+02 -0.51865736021E+01 -0.43755019879E+03  0.44827468425E+03  0.00000000000E+00 0. -1.
         22    1    3    3    0    0  0.30428941037E+02 -0.30970027718E+02 -0.10414028517E+03  0.11282846301E+03  0.00000000000E+00 0. -1.
</event>
<event>
 7    1  0.5789396E-006  0.1287391E+03  0.7818608E-02  0.1307430E+00
          2   -1    0    0  502    0  0.00000000000E+00  0.00000000000E+00  0.33977372478E+03  0.33977372478E+03  0.00000000000E+00 0. -1.
          1   -1    0    0  501    0 -0.00000000000E+00 -0.00000000000E+00 -0.54463613514E+03  0.54463613514E+03  0.00000000000E+00 0. -1.
         25    2    1    2    0    0 -0.17808865770E+03 -0.51024221755E+02  0.53263302632E+02  0.22974077556E+03  0.12499921336E+03 0.  0.
          2    1    1    2  501    0  0.12181653938E+03  0.29249034534E+02 -0.44290796313E+03  0.46028495424E+03  0.00000000000E+00 0. -1.
          1    1    1    2  502    0  0.56272118323E+02  0.21775187221E+02  0.18478225014E+03  0.19438413013E+03  0.00000000000E+00 0. -1.
         22    1    3    3    0    0 -0.17067300415E+03 -0.25439053932E+02  0.26882992484E+01  0.17257939264E+03  0.00000000000E+00 0. -1.
         22    1    3    3    0    0 -0.74156535517E+01 -0.25585167823E+02  0.50575003384E+02  0.57161382921E+02  0.00000000000E+00 0. -1.
</event>
<event>
 7    1  0.5789396E-006  0.5484673E+02  0.7818608E-02  0.1464330E+00
          2   -1    0    0  502    0  0.00000000000E+00  0.00000000000E+00  0.20702306823E+04  0.20702306823E+04  0.00000000000E+00 0. -1.
          1   -1    0    0  501    0 -0.00000000000E+00 -0.00000000000E+00 -0.32694870563E+02  0.32694870563E+02  0.00000000000E+00 0. -1.
         25    2    1    2    0    0  0.11496767735E+02 -0.67768624264E+02  0.45886019244E+03  0.48052294055E+03  0.12499943233E+03 0.  0.
          2    1    1    2  501    0 -0.35154247891E+02  0.18378896393E+02 -0.29974478030E+01  0.39781775611E+02  0.00000000000E+00 0. -1.
          1    1    1    2  502    0  0.23657480156E+02  0.49389727872E+02  0.15816730671E+04  0.15826208367E+04  0.00000000000E+00 0. -1.
         22    1    3    3    0    0  0.13560675872E+02 -0.10196819416E+03  0.39354932316E+03  0.40677078842E+03  0.00000000000E+00 0. -1.
         22    1    3    3    0    0 -0.20639081368E+01  0.34199569892E+02  0.65310869275E+02  0.73752152125E+02  0.00000000000E+00 0. -1.
</event>
<event>
 7    1  0.5789396E-006  0.4073322E+03  0.7818608E-02  0.1167471E+00
          2   -1    0    0  502    0  0.00000000000E+00  0.00000000000E+00  0.19603907714E+04  0.19603907714E+04  0.00000000000E+00 0. -1.
          1   -1    0    0  501    0 -0.00000000000E+00 -0.00000000000E+00 -0.69769263163E+03  0.69769263163E+03  0.00000000000E+00 0. -1.
         25    2    1    2    0    0  0.13748522411E+03  0.37444850326E+03  0.64239250870E+03  0.76642474622E+03  0.12499955180E+03 0.  0.
          2    1    1    2  501    0 -0.63252092098E+02 -0.40385645204E+03 -0.56848081653E+03  0.70019375874E+03  0.00000000000E+00 0. -1.
          1    1    1    2  502    0 -0.74233132015E+02  0.29407948785E+02  0.11887864476E+04  0.11914648981E+04  0.00000000000E+00 0. -1.
         22    1    3    3    0    0  0.31112933721E+02  0.24783759604E+03  0.42952363585E+03  0.49687225965E+03  0.00000000000E+00 0. -1.
         22    1    3    3    0    0  0.10637229039E+03  0.12661090722E+03  0.21286887285E+03  0.26955248657E+03  0.00000000000E+00 0. -1.
</event>
<event>
 7    1  0.5789396E-006  0.1027557E+03  0.7818608E-02  0.1289502E+00
          2   -1    0    0  502    0  0.00000000000E+00  0.00000000000E+00  0.11958302521E+04  0.11958302521E+04  0.00000000000E+00 0. -1.
          1   -1    0    0  501    0 -0.00000000000E+00 -0.00000000000E+00 -0.51422329165E+02  0.51422329165E+02  0.00000000000E+00 0. -1.
         25    2    1    2    0    0  0.15575013518E+02  0.40086468980E+02  0.25490730979E+03  0.28714576883E+03  0.12500179971E+03 0.  0.
          2    1    1    2  501    0 -0.11421553023E+03 -0.11297884707E+02  0.70523442213E+02  0.13470852032E+03  0.00000000000E+00 0. -1.
          1    1    1    2  502    0  0.98640516711E+02 -0.28788584273E+02  0.81897717095E+03  0.82539829214E+03  0.00000000000E+00 0. -1.
         22    1    3    3    0    0  0.56317800102E+02  0.56219777472E+02  0.20921047121E+03  0.22383337385E+03  0.00000000000E+00 0. -1.
         22    1    3    3    0    0 -0.40742786584E+02 -0.16133308492E+02  0.45696838586E+02  0.63312394981E+02  0.00000000000E+00 0. -1.
</event>
<event>
 7    1  0.5789396E-006  0.6172679E+02  0.7818608E-02  0.1433107E+00
          2   -1    0    0  502    0  0.00000000000E+00  0.00000000000E+00  0.23248280564E+04  0.23248280564E+04  0.00000000000E+00 0. -1.
          1   -1    0    0  501    0 -0.00000000000E+00 -0.00000000000E+00 -0.15958766226E+04  0.15958766226E+04  0.00000000000E+00 0. -1.
         25    2    1    2    0    0  0.29104975233E+01 -0.60187572996E+02  0.26901764943E+03  0.30269806680E+03  0.12499843599E+03 0.  0.
          2    1    1    2  501    0 -0.42637904611E+02  0.12323601182E+02 -0.15782499609E+04  0.15788739029E+04  0.00000000000E+00 0. -1.
          1    1    1    2  502    0  0.39727407088E+02  0.47863971814E+02  0.20381837452E+04  0.20391327093E+04  0.00000000000E+00 0. -1.
         22    1    3    3    0    0 -0.19927904120E+02 -0.22620292033E+01  0.22630252363E+03  0.22718950314E+03  0.00000000000E+00 0. -1.
         22    1    3    3    0    0  0.22838401643E+02 -0.57925543793E+02  0.42715125806E+02  0.75508563659E+02  0.00000000000E+00 0. -1.
</event>
<event>
 7    1  0.5789396E-006  0.5605864E+02  0.7818608E-02  0.1422419E+00
          2   -1    0    0  502    0  0.00000000000E+00  0.00000000000E+00  0.19932584909E+03  0.19932584909E+03  0.00000000000E+00 0. -1.
          1   -1    0    0  501    0 -0.00000000000E+00 -0.00000000000E+00 -0.42754400560E+03  0.42754400560E+03  0.00000000000E+00 0. -1.
         25    2    1    2    0    0  0.46607309375E+02 -0.62695555853E+02 -0.75734635465E+02  0.16572530826E+03  0.12500467502E+03 0.  0.
          2    1    1    2  501    0 -0.54937447781E+02  0.10345433016E+02 -0.29959921451E+03  0.30477014369E+03  0.00000000000E+00 0. -1.
          1    1    1    2  502    0  0.83301384060E+01  0.52350122837E+02  0.14711569346E+03  0.15637440273E+03  0.00000000000E+00 0. -1.
         22    1    3    3    0    0  0.44252363210E+02 -0.87786268085E+02 -0.92879401038E+02  0.13524527219E+03  0.00000000000E+00 0.  1.
         22    1    3    3    0    0  0.23549461653E+01  0.25090712231E+02  0.17144765573E+02  0.30480036061E+02  0.00000000000E+00 0.  1.
</event>
<event>
 7    1  0.5789396E-006  0.6375187E+02  0.7818608E-02  0.1399030E+00
          2   -1    0    0  502    0  0.00000000000E+00  0.00000000000E+00  0.18191143296E+04  0.18191143296E+04  0.00000000000E+00 0. -1.
          1   -1    0    0  501    0 -0.00000000000E+00 -0.00000000000E+00 -0.10268773475E+03  0.10268773475E+03  0.00000000000E+00 0. -1.
         25    2    1    2    0    0  0.83633803772E+02  0.79254925619E+02  0.45002099372E+03  0.48106051325E+03  0.12499746498E+03 0.  0.
          2    1    1    2  501    0 -0.47556348889E+02 -0.29446206497E+02 -0.77418523676E+02  0.95510801509E+02  0.00000000000E+00 0. -1.
          1    1    1    2  502    0 -0.36077454883E+02 -0.49808719121E+02  0.13438241248E+04  0.13452307496E+04  0.00000000000E+00 0. -1.
         22    1    3    3    0    0  0.74216451255E+02  0.16697996427E+02  0.10149166298E+03  0.12683636062E+03  0.00000000000E+00 0.  1.
         22    1    3    3    0    0  0.94173525167E+01  0.62556929192E+02  0.34852933074E+03  0.35422415263E+03  0.00000000000E+00 0.  1.
</event>
<event>
 7    1  0.5789396E-006  0.1735204E+03  0.7818608E-02  0.1357534E+00
          2   -1    0    0  502    0  0.00000000000E+00  0.00000000000E+00  0.23051016281E+03  0.23051016281E+03  0.00000000000E+00 0. -1.
          1   -1    0    0  501    0 -0.00000000000E+00 -0.00000000000E+00 -0.71576698160E+03  0.71576698160E+03  0.00000000000E+00 0. -1.
         25    2    1    2    0    0 -0.14501334537E+03  0.99431000844E+02  0.66234935905E+02  0.22567082758E+03  0.12499944569E+03 0.  0.
          2    1    1    2  501    0 -0.11059388112E+02 -0.26650111769E+02 -0.54759409575E+03  0.54835374734E+03  0.00000000000E+00 0. -1.
          1    1    1    2  502    0  0.15607273348E+03 -0.72780889075E+02 -0.38976589390E+01  0.17225256949E+03  0.00000000000E+00 0. -1.
         22    1    3    3    0    0 -0.82629413838E+02  0.88052205581E+02  0.97283883764E+02  0.15506438978E+03  0.00000000000E+00 0. -1.
         22    1    3    3    0    0 -0.62383931531E+02  0.11378795263E+02 -0.31048947859E+02  0.70606437795E+02  0.00000000000E+00 0. -1.
</event>
<event>
 7    1  0.5789396E-006  0.1316920E+03  0.7818608E-02  0.1271709E+00
          2   -1    0    0  502    0  0.00000000000E+00  0.00000000000E+00  0.15929347067E+03  0.15929347067E+03  0.00000000000E+00 0. -1.
          1   -1    0    0  501    0 -0.00000000000E+00 -0.00000000000E+00 -0.31770478281E+03  0.31770478281E+03  0.00000000000E+00 0. -1.
         25    2    1    2    0    0  0.14990673617E+03  0.29953064065E+02 -0.14838488333E+03  0.24700580369E+03  0.12499831142E+03 0.  0.
          2    1    1    2  501    0 -0.11586754869E+03  0.45134814213E+02 -0.55126481324E+02  0.13601973841E+03  0.00000000000E+00 0. -1.
          1    1    1    2  502    0 -0.34039187481E+02 -0.75087878278E+02  0.45100052518E+02  0.93972711389E+02  0.00000000000E+00 0. -1.
         22    1    3    3    0    0  0.13046632218E+03  0.59079152271E+02 -0.66415325200E+02  0.15786957553E+03  0.00000000000E+00 0. -1.
         22    1    3    3    0    0  0.19440413990E+02 -0.29126088206E+02 -0.81969558132E+02  0.89136228160E+02  0.00000000000E+00 0. -1.
</event>
